 vasp.6.2.0 18Jan21 (build Aug 12 2022 13:00:08) complex                        
  
 executed on             LinuxIFC date 2024.11.03  21:52:36
 running on    4 total cores
 distrk:  each k-point on    4 cores,    1 groups
 distr:  one band on NCORE=   1 cores,    4 groups


--------------------------------------------------------------------------------------------------------


 INCAR:
   ISTART = 0            (Read existing wavefunction, if there)
   ISPIN = 1            (Non-Spin polarised DFT)
   LREAL = .FALSE.       (Projection operators: automatic)
   LWAVE = .FALSE.        (Write WAVECAR or not)
   LCHARG = .FALSE.        (Write CHGCAR or not)
   ADDGRID = .TRUE.        (Increase grid, helps GGA convergence)
   LASPH = .TRUE.        (Give more accurate total energies and band structure calculations)
   PREC = Accurate      (Accurate strictly avoids any aliasing or wrap around errors)
   ENCUT = 350          (Cut-off energy for plane wave basis set, in eV)
   ISMEAR = 0            (Gaussian smearing, metals:1)
   SIGMA = 0.05         (Smearing value in eV, metals:0.2)
   NELM = 90           (Max electronic SCF steps)
   NELMIN = 6            (Min electronic SCF steps)
   EDIFF = 1E-06        (SCF energy convergence, in eV)
   NSW = 100          (Max ionic steps)
   IBRION = 2            (Algorithm: 0-MD, 1-Quasi-New, 2-CG)
   ISIF = 3            (Stress/relaxation: 2-Ions, 3-Shape/Ions/V, 4-Shape/Ions)
   EDIFFG = -2E-03        (Ionic convergence, eV/AA)
   ISYM = 2              (Symmetry: 0\=none, 2\=GGA, 3\=hybrids)

 POTCAR:    PAW_PBE Si 05Jan2001                  
 POTCAR:    PAW_PBE Si 05Jan2001                  
   VRHFIN =Si: s2p2                                                                                 
   LEXCH  = PE                                                                                      
   EATOM  =   103.0669 eV,    7.5752 Ry                                                             
                                                                                                    
   TITEL  = PAW_PBE Si 05Jan2001                                                                    
   LULTRA =        F    use ultrasoft PP ?                                                          
   IUNSCR =        1    unscreen: 0-lin 1-nonlin 2-no                                               
   RPACOR =    1.500    partial core radius                                                         
   POMASS =   28.085; ZVAL   =    4.000    mass and valenz                                          
   RCORE  =    1.900    outmost cutoff radius                                                       
   RWIGS  =    2.480; RWIGS  =    1.312    wigner-seitz radius (au A)                               
   ENMAX  =  245.345; ENMIN  =  184.009 eV                                                          
   ICORE  =        2    local potential                                                             
   LCOR   =        T    correct aug charges                                                         
   LPAW   =        T    paw PP                                                                      
   EAUG   =  322.069                                                                                
   DEXC   =    0.000                                                                                
   RMAX   =    1.950    core radius for proj-oper                                                   
   RAUG   =    1.300    factor for augmentation sphere                                              
   RDEP   =    1.993    radius for radial grids                                                     
   RDEPT  =    1.837    core radius for aug-charge                                                  
                                                                                                    
   Atomic configuration                                                                             
    6 entries                                                                                       
     n  l   j            E        occ.                                                              
     1  0  0.50     -1785.8828   2.0000                                                             
     2  0  0.50      -139.4969   2.0000                                                             
     2  1  1.50       -95.5546   6.0000                                                             
     3  0  0.50       -10.8127   2.0000                                                             
     3  1  0.50        -4.0811   2.0000                                                             
     3  2  1.50        -4.0817   0.0000                                                             
   Description                                                                                      
     l       E           TYP  RCUT    TYP  RCUT                                                     
     0    -10.8127223     23  1.900                                                                 
     0     -7.6451159     23  1.900                                                                 
     1     -4.0811372     23  1.900                                                                 
     1      2.4879257     23  1.900                                                                 
     2     -4.0817478      7  1.900                                                                 
  local pseudopotential read in
  partial core-charges read in
  partial kinetic energy density read in
  atomic valenz-charges read in
  non local Contribution for L=           0  read in
    real space projection operators read in
  non local Contribution for L=           0  read in
    real space projection operators read in
  non local Contribution for L=           1  read in
    real space projection operators read in
  non local Contribution for L=           1  read in
    real space projection operators read in
    PAW grid and wavefunctions read in
 
   number of l-projection  operators is LMAX  =           4
   number of lm-projection operators is LMMAX =           8
 
  PAW_PBE Si 05Jan2001                  :
 energy of atom  1       EATOM= -103.0669
 kinetic energy error for atom=    0.0013 (will be added to EATOM!!)
 
 
 POSCAR: Si1
  positions in direct lattice
  No initial velocities read in
 exchange correlation table for  LEXCH =        8
   RHO(1)=    0.500       N(1)  =     2000
   RHO(2)=  100.500       N(2)  =     4000
 


--------------------------------------------------------------------------------------------------------


 ion  position               nearest neighbor table
   1  0.000  0.000  0.000-
 
  LATTYP: Found a body centered cubic cell.
 ALAT       =     3.0266512600
  
  Lattice vectors:
  
 A1 = (   1.5133256300,   1.5133256300,   1.5133256300)
 A2 = (   1.5133256300,  -1.5133256300,  -1.5133256300)
 A3 = (  -1.5133256300,   1.5133256300,  -1.5133256300)


Analysis of symmetry for initial positions (statically):
=====================================================================
 Subroutine PRICEL returns:
 Original cell was already a primitive cell.
 

 Routine SETGRP: Setting up the symmetry group for a 
 body centered cubic supercell.


 Subroutine GETGRP returns: Found 48 space group operations
 (whereof 48 operations were pure point group operations)
 out of a pool of 48 trial point group operations.


The static configuration has the point symmetry O_h .


Analysis of symmetry for dynamics (positions and initial velocities):
=====================================================================
 Subroutine PRICEL returns:
 Original cell was already a primitive cell.
 

 Routine SETGRP: Setting up the symmetry group for a 
 body centered cubic supercell.


 Subroutine GETGRP returns: Found 48 space group operations
 (whereof 48 operations were pure point group operations)
 out of a pool of 48 trial point group operations.


The dynamic configuration has the point symmetry O_h .


 Subroutine INISYM returns: Found 48 space group operations
 (whereof 48 operations are pure point group operations),
 and found     1 'primitive' translations


----------------------------------------------------------------------------------------

                                     Primitive cell                                     

  volume of cell :      13.8630

  direct lattice vectors                    reciprocal lattice vectors
     1.513325630  1.513325630  1.513325630     0.330398158  0.330398158  0.000000000
     1.513325630 -1.513325630 -1.513325630     0.330398158  0.000000000 -0.330398158
    -1.513325630  1.513325630 -1.513325630     0.000000000  0.330398158 -0.330398158

  length of vectors
     2.621156880  2.621156880  2.621156880     0.467253555  0.467253555  0.467253555

  position of ions in fractional coordinates (direct lattice)
     0.000000000  0.000000000  0.000000000

  ion indices of the primitive-cell ions
   primitive index   ion index
                 1           1

----------------------------------------------------------------------------------------

 
 
 KPOINTS: Automatic                               

Automatic generation of k-mesh.
 Grid dimensions read from file:
 generate k-points for:   15   15   15

 Generating k-lattice:

  Cartesian coordinates                     Fractional coordinates (reciprocal lattice)
     0.022026544  0.022026544  0.000000000     0.066666667  0.000000000  0.000000000
     0.022026544  0.000000000 -0.022026544     0.000000000  0.066666667  0.000000000
     0.000000000  0.022026544 -0.022026544     0.000000000  0.000000000  0.066666667

  Length of vectors
     0.031150237  0.031150237  0.031150237

  Shift w.r.t. Gamma in fractional coordinates (k-lattice)
     0.000000000  0.000000000  0.000000000

 
 Subroutine IBZKPT returns following result:
 ===========================================
 
 Found    120 irreducible k-points:
 
 Following reciprocal coordinates:
            Coordinates               Weight
  0.000000  0.000000  0.000000      1.000000
  0.066667  0.000000  0.000000     12.000000
  0.133333  0.000000  0.000000     12.000000
  0.200000  0.000000  0.000000     12.000000
  0.266667  0.000000  0.000000     12.000000
  0.333333  0.000000  0.000000     12.000000
  0.400000  0.000000  0.000000     12.000000
  0.466667  0.000000  0.000000     12.000000
  0.066667  0.066667  0.000000     24.000000
  0.133333  0.066667 -0.000000     48.000000
  0.200000  0.066667 -0.000000     48.000000
  0.266667  0.066667  0.000000     48.000000
  0.333333  0.066667 -0.000000     48.000000
  0.400000  0.066667  0.000000     48.000000
  0.466667  0.066667  0.000000     24.000000
  0.133333  0.133333  0.000000     24.000000
  0.200000  0.133333  0.000000     48.000000
  0.266667  0.133333  0.000000     48.000000
  0.333333  0.133333  0.000000     48.000000
  0.400000  0.133333  0.000000     48.000000
  0.200000  0.200000  0.000000     24.000000
  0.266667  0.200000  0.000000     48.000000
  0.333333  0.200000  0.000000     48.000000
  0.400000  0.200000  0.000000     24.000000
  0.266667  0.266667  0.000000     24.000000
  0.333333  0.266667  0.000000     48.000000
  0.333333  0.333333  0.000000      8.000000
  0.066667  0.066667  0.066667      8.000000
  0.133333  0.066667  0.066667     24.000000
  0.200000  0.066667  0.066667     24.000000
  0.266667  0.066667  0.066667     24.000000
  0.333333  0.066667  0.066667     24.000000
  0.400000  0.066667  0.066667     24.000000
 -0.066667  0.066667  0.066667      6.000000
  0.133333  0.133333  0.066667     24.000000
  0.200000  0.133333  0.066667     48.000000
  0.266667  0.133333  0.066667     48.000000
  0.333333  0.133333  0.066667     48.000000
  0.400000  0.133333  0.066667     24.000000
 -0.133333  0.133333  0.066667     24.000000
  0.200000  0.200000  0.066667     24.000000
  0.266667  0.200000  0.066667     48.000000
  0.333333  0.200000  0.066667     48.000000
 -0.200000  0.200000  0.066667     24.000000
 -0.133333  0.200000  0.066667     24.000000
  0.266667  0.266667  0.066667     24.000000
  0.333333  0.266667  0.066667     24.000000
 -0.266667  0.266667  0.066667     24.000000
 -0.200000  0.266667  0.066667     48.000000
 -0.333333  0.333333  0.066667     24.000000
 -0.266667  0.333333  0.066667     48.000000
 -0.200000  0.333333  0.066667     24.000000
 -0.400000  0.400000  0.066667     24.000000
 -0.333333  0.400000  0.066667     48.000000
 -0.266667  0.400000  0.066667     48.000000
 -0.466667  0.466667  0.066667     24.000000
 -0.400000  0.466667  0.066667     48.000000
 -0.333333  0.466667  0.066667     48.000000
 -0.266667  0.466667  0.066667     24.000000
 -0.466667 -0.466667  0.066667     24.000000
 -0.400000 -0.466667  0.066667     48.000000
 -0.333333 -0.466667  0.066667     48.000000
 -0.400000 -0.400000  0.066667     24.000000
 -0.333333 -0.400000  0.066667     24.000000
  0.133333  0.133333  0.133333      8.000000
  0.200000  0.133333  0.133333     24.000000
  0.266667  0.133333  0.133333     24.000000
  0.333333  0.133333  0.133333     24.000000
 -0.133333  0.133333  0.133333      6.000000
  0.200000  0.200000  0.133333     24.000000
  0.266667  0.200000  0.133333     48.000000
  0.333333  0.200000  0.133333     24.000000
 -0.200000  0.200000  0.133333     24.000000
  0.266667  0.266667  0.133333     24.000000
 -0.266667  0.266667  0.133333     24.000000
 -0.200000  0.266667  0.133333     24.000000
 -0.333333  0.333333  0.133333     24.000000
 -0.266667  0.333333  0.133333     48.000000
 -0.400000  0.400000  0.133333     24.000000
 -0.333333  0.400000  0.133333     48.000000
 -0.266667  0.400000  0.133333     24.000000
 -0.466667  0.466667  0.133333     24.000000
 -0.400000  0.466667  0.133333     48.000000
 -0.333333  0.466667  0.133333     48.000000
 -0.466667 -0.466667  0.133333     24.000000
 -0.400000 -0.466667  0.133333     48.000000
 -0.333333 -0.466667  0.133333     24.000000
 -0.400000 -0.400000  0.133333     24.000000
  0.200000  0.200000  0.200000      8.000000
  0.266667  0.200000  0.200000     24.000000
 -0.200000  0.200000  0.200000      6.000000
  0.266667  0.266667  0.200000      8.000000
 -0.266667  0.266667  0.200000     24.000000
 -0.333333  0.333333  0.200000     24.000000
 -0.266667  0.333333  0.200000     24.000000
 -0.400000  0.400000  0.200000     24.000000
 -0.333333  0.400000  0.200000     48.000000
 -0.466667  0.466667  0.200000     24.000000
 -0.400000  0.466667  0.200000     48.000000
 -0.333333  0.466667  0.200000     24.000000
 -0.466667 -0.466667  0.200000     24.000000
 -0.400000 -0.466667  0.200000     48.000000
 -0.400000 -0.400000  0.200000      8.000000
 -0.266667  0.266667  0.266667      6.000000
 -0.333333  0.333333  0.266667     24.000000
 -0.400000  0.400000  0.266667     24.000000
 -0.333333  0.400000  0.266667     24.000000
 -0.466667  0.466667  0.266667     24.000000
 -0.400000  0.466667  0.266667     48.000000
 -0.466667 -0.466667  0.266667     24.000000
 -0.400000 -0.466667  0.266667     24.000000
 -0.333333  0.333333  0.333333      6.000000
 -0.400000  0.400000  0.333333     24.000000
 -0.466667  0.466667  0.333333     24.000000
 -0.400000  0.466667  0.333333     24.000000
 -0.466667 -0.466667  0.333333     24.000000
 -0.400000  0.400000  0.400000      6.000000
 -0.466667  0.466667  0.400000     24.000000
 -0.466667 -0.466667  0.400000      8.000000
 -0.466667  0.466667  0.466667      6.000000
 
 Following cartesian coordinates:
            Coordinates               Weight
  0.000000  0.000000  0.000000      1.000000
  0.022027  0.022027  0.000000     12.000000
  0.044053  0.044053  0.000000     12.000000
  0.066080  0.066080  0.000000     12.000000
  0.088106  0.088106  0.000000     12.000000
  0.110133  0.110133  0.000000     12.000000
  0.132159  0.132159  0.000000     12.000000
  0.154186  0.154186  0.000000     12.000000
  0.044053  0.022027 -0.022027     24.000000
  0.066080  0.044053 -0.022027     48.000000
  0.088106  0.066080 -0.022027     48.000000
  0.110133  0.088106 -0.022027     48.000000
  0.132159  0.110133 -0.022027     48.000000
  0.154186  0.132159 -0.022027     48.000000
  0.176212  0.154186 -0.022027     24.000000
  0.088106  0.044053 -0.044053     24.000000
  0.110133  0.066080 -0.044053     48.000000
  0.132159  0.088106 -0.044053     48.000000
  0.154186  0.110133 -0.044053     48.000000
  0.176212  0.132159 -0.044053     48.000000
  0.132159  0.066080 -0.066080     24.000000
  0.154186  0.088106 -0.066080     48.000000
  0.176212  0.110133 -0.066080     48.000000
  0.198239  0.132159 -0.066080     24.000000
  0.176212  0.088106 -0.088106     24.000000
  0.198239  0.110133 -0.088106     48.000000
  0.220265  0.110133 -0.110133      8.000000
  0.044053  0.044053 -0.044053      8.000000
  0.066080  0.066080 -0.044053     24.000000
  0.088106  0.088106 -0.044053     24.000000
  0.110133  0.110133 -0.044053     24.000000
  0.132159  0.132159 -0.044053     24.000000
  0.154186  0.154186 -0.044053     24.000000
  0.000000  0.000000 -0.044053      6.000000
  0.088106  0.066080 -0.066080     24.000000
  0.110133  0.088106 -0.066080     48.000000
  0.132159  0.110133 -0.066080     48.000000
  0.154186  0.132159 -0.066080     48.000000
  0.176212  0.154186 -0.066080     24.000000
  0.000000 -0.022027 -0.066080     24.000000
  0.132159  0.088106 -0.088106     24.000000
  0.154186  0.110133 -0.088106     48.000000
  0.176212  0.132159 -0.088106     48.000000
  0.000000 -0.044053 -0.088106     24.000000
  0.022027 -0.022027 -0.088106     24.000000
  0.176212  0.110133 -0.110133     24.000000
  0.198239  0.132159 -0.110133     24.000000
  0.000000 -0.066080 -0.110133     24.000000
  0.022027 -0.044053 -0.110133     48.000000
  0.000000 -0.088106 -0.132159     24.000000
  0.022027 -0.066080 -0.132159     48.000000
  0.044053 -0.044053 -0.132159     24.000000
  0.000000 -0.110133 -0.154186     24.000000
  0.022027 -0.088106 -0.154186     48.000000
  0.044053 -0.066080 -0.154186     48.000000
  0.000000 -0.132159 -0.176212     24.000000
  0.022027 -0.110133 -0.176212     48.000000
  0.044053 -0.088106 -0.176212     48.000000
  0.066080 -0.066080 -0.176212     24.000000
 -0.308372 -0.132159  0.132159     24.000000
 -0.286345 -0.110133  0.132159     48.000000
 -0.264319 -0.088106  0.132159     48.000000
 -0.264319 -0.110133  0.110133     24.000000
 -0.242292 -0.088106  0.110133     24.000000
  0.088106  0.088106 -0.088106      8.000000
  0.110133  0.110133 -0.088106     24.000000
  0.132159  0.132159 -0.088106     24.000000
  0.154186  0.154186 -0.088106     24.000000
  0.000000  0.000000 -0.088106      6.000000
  0.132159  0.110133 -0.110133     24.000000
  0.154186  0.132159 -0.110133     48.000000
  0.176212  0.154186 -0.110133     24.000000
  0.000000 -0.022027 -0.110133     24.000000
  0.176212  0.132159 -0.132159     24.000000
  0.000000 -0.044053 -0.132159     24.000000
  0.022027 -0.022027 -0.132159     24.000000
  0.000000 -0.066080 -0.154186     24.000000
  0.022027 -0.044053 -0.154186     48.000000
  0.000000 -0.088106 -0.176212     24.000000
  0.022027 -0.066080 -0.176212     48.000000
  0.044053 -0.044053 -0.176212     24.000000
  0.000000 -0.110133 -0.198239     24.000000
  0.022027 -0.088106 -0.198239     48.000000
  0.044053 -0.066080 -0.198239     48.000000
 -0.308372 -0.110133  0.110133     24.000000
 -0.286345 -0.088106  0.110133     48.000000
 -0.264319 -0.066080  0.110133     24.000000
 -0.264319 -0.088106  0.088106     24.000000
  0.132159  0.132159 -0.132159      8.000000
  0.154186  0.154186 -0.132159     24.000000
  0.000000  0.000000 -0.132159      6.000000
  0.176212  0.154186 -0.154186      8.000000
  0.000000 -0.022027 -0.154186     24.000000
  0.000000 -0.044053 -0.176212     24.000000
  0.022027 -0.022027 -0.176212     24.000000
  0.000000 -0.066080 -0.198239     24.000000
  0.022027 -0.044053 -0.198239     48.000000
  0.000000 -0.088106 -0.220265     24.000000
  0.022027 -0.066080 -0.220265     48.000000
  0.044053 -0.044053 -0.220265     24.000000
 -0.308372 -0.088106  0.088106     24.000000
 -0.286345 -0.066080  0.088106     48.000000
 -0.264319 -0.066080  0.066080      8.000000
  0.000000  0.000000 -0.176212      6.000000
  0.000000 -0.022027 -0.198239     24.000000
  0.000000 -0.044053 -0.220265     24.000000
  0.022027 -0.022027 -0.220265     24.000000
  0.000000 -0.066080 -0.242292     24.000000
  0.022027 -0.044053 -0.242292     48.000000
 -0.308372 -0.066080  0.066080     24.000000
 -0.286345 -0.044053  0.066080     24.000000
  0.000000  0.000000 -0.220265      6.000000
  0.000000 -0.022027 -0.242292     24.000000
  0.000000 -0.044053 -0.264319     24.000000
  0.022027 -0.022027 -0.264319     24.000000
 -0.308372 -0.044053  0.044053     24.000000
  0.000000  0.000000 -0.264319      6.000000
  0.000000 -0.022027 -0.286345     24.000000
 -0.308372 -0.022027  0.022027      8.000000
  0.000000  0.000000 -0.308372      6.000000
 


--------------------------------------------------------------------------------------------------------




 Dimension of arrays:
   k-points           NKPTS =    120   k-points in BZ     NKDIM =    120   number of bands    NBANDS=      8
   number of dos      NEDOS =    301   number of ions     NIONS =      1
   non local maximal  LDIM  =      4   non local SUM 2l+1 LMDIM =      8
   total plane-waves  NPLWV =   4096
   max r-space proj   IRMAX =      1   max aug-charges    IRDMAX=  79220
   dimension x,y,z NGX =    16 NGY =   16 NGZ =   16
   dimension x,y,z NGXF=    32 NGYF=   32 NGZF=   32
   support grid    NGXF=    64 NGYF=   64 NGZF=   64
   ions per type =               1
   NGX,Y,Z   is equivalent  to a cutoff of  10.15, 10.15, 10.15 a.u.
   NGXF,Y,Z  is equivalent  to a cutoff of  20.30, 20.30, 20.30 a.u.

 SYSTEM =  unknown system                          
 POSCAR =  Si1                                     

 Startparameter for this run:
   NWRITE =      2    write-flag & timer
   PREC   = accura    normal or accurate (medium, high low for compatibility)
   ISTART =      0    job   : 0-new  1-cont  2-samecut
   ICHARG =      2    charge: 1-file 2-atom 10-const
   ISPIN  =      1    spin polarized calculation?
   LNONCOLLINEAR =      F non collinear calculations
   LSORBIT =      F    spin-orbit coupling
   INIWAV =      1    electr: 0-lowe 1-rand  2-diag
   LASPH  =      T    aspherical Exc in radial PAW
   METAGGA=      F    non-selfconsistent MetaGGA calc.

 Electronic Relaxation 1
   ENCUT  =  350.0 eV  25.72 Ry    5.07 a.u.   4.00  4.00  4.00*2*pi/ulx,y,z
   ENINI  =  350.0     initial cutoff
   ENAUG  =  322.1 eV  augmentation charge cutoff
   NELM   =     90;   NELMIN=  6; NELMDL= -5     # of ELM steps 
   EDIFF  = 0.1E-05   stopping-criterion for ELM
   LREAL  =      F    real-space projection
   NLSPLINE    = F    spline interpolate recip. space projectors
   LCOMPAT=      F    compatible to vasp.4.4
   GGA_COMPAT  = T    GGA compatible to vasp.4.4-vasp.4.6
   LMAXPAW     = -100 max onsite density
   LMAXMIX     =    2 max onsite mixed and CHGCAR
   VOSKOWN=      0    Vosko Wilk Nusair interpolation
   ROPT   =    0.00000
 Ionic relaxation
   EDIFFG = -.2E-02   stopping-criterion for IOM
   NSW    =    100    number of steps for IOM
   NBLOCK =      1;   KBLOCK =    100    inner block; outer block 
   IBRION =      2    ionic relax: 0-MD 1-quasi-New 2-CG
   NFREE  =      1    steps in history (QN), initial steepest desc. (CG)
   ISIF   =      3    stress and relaxation
   IWAVPR =     11    prediction:  0-non 1-charg 2-wave 3-comb
   ISYM   =      2    0-nonsym 1-usesym 2-fastsym
   LCORR  =      T    Harris-Foulkes like correction to forces

   POTIM  = 0.5000    time-step for ionic-motion
   TEIN   =    0.0    initial temperature
   TEBEG  =    0.0;   TEEND  =   0.0 temperature during run
   SMASS  =  -3.00    Nose mass-parameter (am)
   estimated Nose-frequenzy (Omega)   =  0.10E-29 period in steps = 0.13E+47 mass=  -0.157E-27a.u.
   SCALEE = 1.0000    scale energy and forces
   NPACO  =    256;   APACO  = 16.0  distance and # of slots for P.C.
   PSTRESS=    0.0 pullay stress

  Mass of Ions in am
   POMASS =  28.09
  Ionic Valenz
   ZVAL   =   4.00
  Atomic Wigner-Seitz radii
   RWIGS  =  -1.00
  virtual crystal weights 
   VCA    =   1.00
   NELECT =       4.0000    total number of electrons
   NUPDOWN=      -1.0000    fix difference up-down

 DOS related values:
   EMIN   =  10.00;   EMAX   =-10.00  energy-range for DOS
   EFERMI =   0.00
   ISMEAR =     0;   SIGMA  =   0.05  broadening in eV -4-tet -1-fermi 0-gaus

 Electronic relaxation 2 (details)
   IALGO  =     38    algorithm
   LDIAG  =      T    sub-space diagonalisation (order eigenvalues)
   LSUBROT=      F    optimize rotation matrix (better conditioning)
   TURBO    =      0    0=normal 1=particle mesh
   IRESTART =      0    0=no restart 2=restart with 2 vectors
   NREBOOT  =      0    no. of reboots
   NMIN     =      0    reboot dimension
   EREF     =   0.00    reference energy to select bands
   IMIX   =      4    mixing-type and parameters
     AMIX     =   0.40;   BMIX     =  1.00
     AMIX_MAG =   1.60;   BMIX_MAG =  1.00
     AMIN     =   0.10
     WC   =   100.;   INIMIX=   1;  MIXPRE=   1;  MAXMIX= -45

 Intra band minimization:
   WEIMIN = 0.0010     energy-eigenvalue tresh-hold
   EBREAK =  0.31E-07  absolut break condition
   DEPER  =   0.30     relativ break condition  

   TIME   =   0.40     timestep for ELM

  volume/ion in A,a.u.               =      13.86        93.55
  Fermi-wavevector in a.u.,A,eV,Ry     =   1.081789  2.044284 15.922447  1.170267
  Thomas-Fermi vector in A             =   2.217814
 
 Write flags
   LWAVE        =      F    write WAVECAR
   LDOWNSAMPLE  =      F    k-point downsampling of WAVECAR
   LCHARG       =      F    write CHGCAR
   LVTOT        =      F    write LOCPOT, total local potential
   LVHAR        =      F    write LOCPOT, Hartree potential only
   LELF         =      F    write electronic localiz. function (ELF)
   LORBIT       =      0    0 simple, 1 ext, 2 COOP (PROOUT), +10 PAW based schemes


 Dipole corrections
   LMONO  =      F    monopole corrections only (constant potential shift)
   LDIPOL =      F    correct potential (dipole corrections)
   IDIPOL =      0    1-x, 2-y, 3-z, 4-all directions 
   EPSILON=  1.0000000 bulk dielectric constant

 Exchange correlation treatment:
   GGA     =    --    GGA type
   LEXCH   =     8    internal setting for exchange type
   VOSKOWN=      0    Vosko Wilk Nusair interpolation
   LHFCALC =     F    Hartree Fock is set to
   LHFONE  =     F    Hartree Fock one center treatment
   AEXX    =    0.0000 exact exchange contribution

 Linear response parameters
   LEPSILON=     F    determine dielectric tensor
   LRPA    =     F    only Hartree local field effects (RPA)
   LNABLA  =     F    use nabla operator in PAW spheres
   LVEL    =     F    velocity operator in full k-point grid
   LINTERFAST=   F  fast interpolation
   KINTER  =     0    interpolate to denser k-point grid
   CSHIFT  =0.1000    complex shift for real part using Kramers Kronig
   OMEGAMAX=  -1.0    maximum frequency
   DEG_THRESHOLD= 0.2000000E-02 threshold for treating states as degnerate
   RTIME   =   -0.100 relaxation time in fs
  (WPLASMAI=    0.000 imaginary part of plasma frequency in eV, 0.658/RTIME)
   DFIELD  = 0.0000000 0.0000000 0.0000000 field for delta impulse in time
 
 Orbital magnetization related:
   ORBITALMAG=     F  switch on orbital magnetization
   LCHIMAG   =     F  perturbation theory with respect to B field
   DQ        =  0.001000  dq finite difference perturbation B field
   LLRAUG    =     F  two centre corrections for induced B field



--------------------------------------------------------------------------------------------------------


 conjugate gradient relaxation of ions
 charge density and potential will be updated during run
 non-spin polarized calculation
 Variant of blocked Davidson
 Davidson routine will perform the subspace rotation
 perform sub-space diagonalisation
    after iterative eigenvector-optimisation
 modified Broyden-mixing scheme, WC =      100.0
 initial mixing is a Kerker type mixing with AMIX =  0.4000 and BMIX =      1.0000
 Hartree-type preconditioning will be used
 using additional bands            6
 reciprocal scheme for non local part
 use partial core corrections
 calculate Harris-corrections to forces 
   (improved forces if not selfconsistent)
 use gradient corrections 
 use of overlap-Matrix (Vanderbilt PP)
 Gauss-broadening in eV      SIGMA  =   0.05


--------------------------------------------------------------------------------------------------------


  energy-cutoff  :      350.00
  volume of cell :       13.86
      direct lattice vectors                 reciprocal lattice vectors
     1.513325630  1.513325630  1.513325630     0.330398158  0.330398158  0.000000000
     1.513325630 -1.513325630 -1.513325630     0.330398158  0.000000000 -0.330398158
    -1.513325630  1.513325630 -1.513325630     0.000000000  0.330398158 -0.330398158

  length of vectors
     2.621156880  2.621156880  2.621156880     0.467253555  0.467253555  0.467253555


 
 k-points in units of 2pi/SCALE and weight: Automatic                               
   0.00000000  0.00000000  0.00000000       0.000
   0.02202654  0.02202654  0.00000000       0.004
   0.04405309  0.04405309  0.00000000       0.004
   0.06607963  0.06607963  0.00000000       0.004
   0.08810618  0.08810618  0.00000000       0.004
   0.11013272  0.11013272  0.00000000       0.004
   0.13215926  0.13215926  0.00000000       0.004
   0.15418581  0.15418581  0.00000000       0.004
   0.04405309  0.02202654 -0.02202654       0.007
   0.06607963  0.04405309 -0.02202654       0.014
   0.08810618  0.06607963 -0.02202654       0.014
   0.11013272  0.08810618 -0.02202654       0.014
   0.13215926  0.11013272 -0.02202654       0.014
   0.15418581  0.13215926 -0.02202654       0.014
   0.17621235  0.15418581 -0.02202654       0.007
   0.08810618  0.04405309 -0.04405309       0.007
   0.11013272  0.06607963 -0.04405309       0.014
   0.13215926  0.08810618 -0.04405309       0.014
   0.15418581  0.11013272 -0.04405309       0.014
   0.17621235  0.13215926 -0.04405309       0.014
   0.13215926  0.06607963 -0.06607963       0.007
   0.15418581  0.08810618 -0.06607963       0.014
   0.17621235  0.11013272 -0.06607963       0.014
   0.19823889  0.13215926 -0.06607963       0.007
   0.17621235  0.08810618 -0.08810618       0.007
   0.19823889  0.11013272 -0.08810618       0.014
   0.22026544  0.11013272 -0.11013272       0.002
   0.04405309  0.04405309 -0.04405309       0.002
   0.06607963  0.06607963 -0.04405309       0.007
   0.08810618  0.08810618 -0.04405309       0.007
   0.11013272  0.11013272 -0.04405309       0.007
   0.13215926  0.13215926 -0.04405309       0.007
   0.15418581  0.15418581 -0.04405309       0.007
   0.00000000  0.00000000 -0.04405309       0.002
   0.08810618  0.06607963 -0.06607963       0.007
   0.11013272  0.08810618 -0.06607963       0.014
   0.13215926  0.11013272 -0.06607963       0.014
   0.15418581  0.13215926 -0.06607963       0.014
   0.17621235  0.15418581 -0.06607963       0.007
   0.00000000 -0.02202654 -0.06607963       0.007
   0.13215926  0.08810618 -0.08810618       0.007
   0.15418581  0.11013272 -0.08810618       0.014
   0.17621235  0.13215926 -0.08810618       0.014
   0.00000000 -0.04405309 -0.08810618       0.007
   0.02202654 -0.02202654 -0.08810618       0.007
   0.17621235  0.11013272 -0.11013272       0.007
   0.19823889  0.13215926 -0.11013272       0.007
   0.00000000 -0.06607963 -0.11013272       0.007
   0.02202654 -0.04405309 -0.11013272       0.014
   0.00000000 -0.08810618 -0.13215926       0.007
   0.02202654 -0.06607963 -0.13215926       0.014
   0.04405309 -0.04405309 -0.13215926       0.007
   0.00000000 -0.11013272 -0.15418581       0.007
   0.02202654 -0.08810618 -0.15418581       0.014
   0.04405309 -0.06607963 -0.15418581       0.014
   0.00000000 -0.13215926 -0.17621235       0.007
   0.02202654 -0.11013272 -0.17621235       0.014
   0.04405309 -0.08810618 -0.17621235       0.014
   0.06607963 -0.06607963 -0.17621235       0.007
  -0.30837161 -0.13215926  0.13215926       0.007
  -0.28634507 -0.11013272  0.13215926       0.014
  -0.26431853 -0.08810618  0.13215926       0.014
  -0.26431853 -0.11013272  0.11013272       0.007
  -0.24229198 -0.08810618  0.11013272       0.007
   0.08810618  0.08810618 -0.08810618       0.002
   0.11013272  0.11013272 -0.08810618       0.007
   0.13215926  0.13215926 -0.08810618       0.007
   0.15418581  0.15418581 -0.08810618       0.007
   0.00000000  0.00000000 -0.08810618       0.002
   0.13215926  0.11013272 -0.11013272       0.007
   0.15418581  0.13215926 -0.11013272       0.014
   0.17621235  0.15418581 -0.11013272       0.007
   0.00000000 -0.02202654 -0.11013272       0.007
   0.17621235  0.13215926 -0.13215926       0.007
   0.00000000 -0.04405309 -0.13215926       0.007
   0.02202654 -0.02202654 -0.13215926       0.007
   0.00000000 -0.06607963 -0.15418581       0.007
   0.02202654 -0.04405309 -0.15418581       0.014
   0.00000000 -0.08810618 -0.17621235       0.007
   0.02202654 -0.06607963 -0.17621235       0.014
   0.04405309 -0.04405309 -0.17621235       0.007
   0.00000000 -0.11013272 -0.19823889       0.007
   0.02202654 -0.08810618 -0.19823889       0.014
   0.04405309 -0.06607963 -0.19823889       0.014
  -0.30837161 -0.11013272  0.11013272       0.007
  -0.28634507 -0.08810618  0.11013272       0.014
  -0.26431853 -0.06607963  0.11013272       0.007
  -0.26431853 -0.08810618  0.08810618       0.007
   0.13215926  0.13215926 -0.13215926       0.002
   0.15418581  0.15418581 -0.13215926       0.007
   0.00000000  0.00000000 -0.13215926       0.002
   0.17621235  0.15418581 -0.15418581       0.002
   0.00000000 -0.02202654 -0.15418581       0.007
   0.00000000 -0.04405309 -0.17621235       0.007
   0.02202654 -0.02202654 -0.17621235       0.007
   0.00000000 -0.06607963 -0.19823889       0.007
   0.02202654 -0.04405309 -0.19823889       0.014
   0.00000000 -0.08810618 -0.22026544       0.007
   0.02202654 -0.06607963 -0.22026544       0.014
   0.04405309 -0.04405309 -0.22026544       0.007
  -0.30837161 -0.08810618  0.08810618       0.007
  -0.28634507 -0.06607963  0.08810618       0.014
  -0.26431853 -0.06607963  0.06607963       0.002
   0.00000000  0.00000000 -0.17621235       0.002
   0.00000000 -0.02202654 -0.19823889       0.007
   0.00000000 -0.04405309 -0.22026544       0.007
   0.02202654 -0.02202654 -0.22026544       0.007
   0.00000000 -0.06607963 -0.24229198       0.007
   0.02202654 -0.04405309 -0.24229198       0.014
  -0.30837161 -0.06607963  0.06607963       0.007
  -0.28634507 -0.04405309  0.06607963       0.007
   0.00000000  0.00000000 -0.22026544       0.002
   0.00000000 -0.02202654 -0.24229198       0.007
   0.00000000 -0.04405309 -0.26431853       0.007
   0.02202654 -0.02202654 -0.26431853       0.007
  -0.30837161 -0.04405309  0.04405309       0.007
   0.00000000  0.00000000 -0.26431853       0.002
   0.00000000 -0.02202654 -0.28634507       0.007
  -0.30837161 -0.02202654  0.02202654       0.002
   0.00000000  0.00000000 -0.30837161       0.002
 
 k-points in reciprocal lattice and weights: Automatic                               
   0.00000000  0.00000000  0.00000000       0.000
   0.06666667  0.00000000  0.00000000       0.004
   0.13333333  0.00000000  0.00000000       0.004
   0.20000000  0.00000000  0.00000000       0.004
   0.26666667  0.00000000  0.00000000       0.004
   0.33333333  0.00000000  0.00000000       0.004
   0.40000000  0.00000000  0.00000000       0.004
   0.46666667  0.00000000  0.00000000       0.004
   0.06666667  0.06666667  0.00000000       0.007
   0.13333333  0.06666667 -0.00000000       0.014
   0.20000000  0.06666667 -0.00000000       0.014
   0.26666667  0.06666667  0.00000000       0.014
   0.33333333  0.06666667 -0.00000000       0.014
   0.40000000  0.06666667  0.00000000       0.014
   0.46666667  0.06666667  0.00000000       0.007
   0.13333333  0.13333333  0.00000000       0.007
   0.20000000  0.13333333  0.00000000       0.014
   0.26666667  0.13333333  0.00000000       0.014
   0.33333333  0.13333333  0.00000000       0.014
   0.40000000  0.13333333  0.00000000       0.014
   0.20000000  0.20000000  0.00000000       0.007
   0.26666667  0.20000000  0.00000000       0.014
   0.33333333  0.20000000  0.00000000       0.014
   0.40000000  0.20000000  0.00000000       0.007
   0.26666667  0.26666667  0.00000000       0.007
   0.33333333  0.26666667  0.00000000       0.014
   0.33333333  0.33333333  0.00000000       0.002
   0.06666667  0.06666667  0.06666667       0.002
   0.13333333  0.06666667  0.06666667       0.007
   0.20000000  0.06666667  0.06666667       0.007
   0.26666667  0.06666667  0.06666667       0.007
   0.33333333  0.06666667  0.06666667       0.007
   0.40000000  0.06666667  0.06666667       0.007
  -0.06666667  0.06666667  0.06666667       0.002
   0.13333333  0.13333333  0.06666667       0.007
   0.20000000  0.13333333  0.06666667       0.014
   0.26666667  0.13333333  0.06666667       0.014
   0.33333333  0.13333333  0.06666667       0.014
   0.40000000  0.13333333  0.06666667       0.007
  -0.13333333  0.13333333  0.06666667       0.007
   0.20000000  0.20000000  0.06666667       0.007
   0.26666667  0.20000000  0.06666667       0.014
   0.33333333  0.20000000  0.06666667       0.014
  -0.20000000  0.20000000  0.06666667       0.007
  -0.13333333  0.20000000  0.06666667       0.007
   0.26666667  0.26666667  0.06666667       0.007
   0.33333333  0.26666667  0.06666667       0.007
  -0.26666667  0.26666667  0.06666667       0.007
  -0.20000000  0.26666667  0.06666667       0.014
  -0.33333333  0.33333333  0.06666667       0.007
  -0.26666667  0.33333333  0.06666667       0.014
  -0.20000000  0.33333333  0.06666667       0.007
  -0.40000000  0.40000000  0.06666667       0.007
  -0.33333333  0.40000000  0.06666667       0.014
  -0.26666667  0.40000000  0.06666667       0.014
  -0.46666667  0.46666667  0.06666667       0.007
  -0.40000000  0.46666667  0.06666667       0.014
  -0.33333333  0.46666667  0.06666667       0.014
  -0.26666667  0.46666667  0.06666667       0.007
  -0.46666667 -0.46666667  0.06666667       0.007
  -0.40000000 -0.46666667  0.06666667       0.014
  -0.33333333 -0.46666667  0.06666667       0.014
  -0.40000000 -0.40000000  0.06666667       0.007
  -0.33333333 -0.40000000  0.06666667       0.007
   0.13333333  0.13333333  0.13333333       0.002
   0.20000000  0.13333333  0.13333333       0.007
   0.26666667  0.13333333  0.13333333       0.007
   0.33333333  0.13333333  0.13333333       0.007
  -0.13333333  0.13333333  0.13333333       0.002
   0.20000000  0.20000000  0.13333333       0.007
   0.26666667  0.20000000  0.13333333       0.014
   0.33333333  0.20000000  0.13333333       0.007
  -0.20000000  0.20000000  0.13333333       0.007
   0.26666667  0.26666667  0.13333333       0.007
  -0.26666667  0.26666667  0.13333333       0.007
  -0.20000000  0.26666667  0.13333333       0.007
  -0.33333333  0.33333333  0.13333333       0.007
  -0.26666667  0.33333333  0.13333333       0.014
  -0.40000000  0.40000000  0.13333333       0.007
  -0.33333333  0.40000000  0.13333333       0.014
  -0.26666667  0.40000000  0.13333333       0.007
  -0.46666667  0.46666667  0.13333333       0.007
  -0.40000000  0.46666667  0.13333333       0.014
  -0.33333333  0.46666667  0.13333333       0.014
  -0.46666667 -0.46666667  0.13333333       0.007
  -0.40000000 -0.46666667  0.13333333       0.014
  -0.33333333 -0.46666667  0.13333333       0.007
  -0.40000000 -0.40000000  0.13333333       0.007
   0.20000000  0.20000000  0.20000000       0.002
   0.26666667  0.20000000  0.20000000       0.007
  -0.20000000  0.20000000  0.20000000       0.002
   0.26666667  0.26666667  0.20000000       0.002
  -0.26666667  0.26666667  0.20000000       0.007
  -0.33333333  0.33333333  0.20000000       0.007
  -0.26666667  0.33333333  0.20000000       0.007
  -0.40000000  0.40000000  0.20000000       0.007
  -0.33333333  0.40000000  0.20000000       0.014
  -0.46666667  0.46666667  0.20000000       0.007
  -0.40000000  0.46666667  0.20000000       0.014
  -0.33333333  0.46666667  0.20000000       0.007
  -0.46666667 -0.46666667  0.20000000       0.007
  -0.40000000 -0.46666667  0.20000000       0.014
  -0.40000000 -0.40000000  0.20000000       0.002
  -0.26666667  0.26666667  0.26666667       0.002
  -0.33333333  0.33333333  0.26666667       0.007
  -0.40000000  0.40000000  0.26666667       0.007
  -0.33333333  0.40000000  0.26666667       0.007
  -0.46666667  0.46666667  0.26666667       0.007
  -0.40000000  0.46666667  0.26666667       0.014
  -0.46666667 -0.46666667  0.26666667       0.007
  -0.40000000 -0.46666667  0.26666667       0.007
  -0.33333333  0.33333333  0.33333333       0.002
  -0.40000000  0.40000000  0.33333333       0.007
  -0.46666667  0.46666667  0.33333333       0.007
  -0.40000000  0.46666667  0.33333333       0.007
  -0.46666667 -0.46666667  0.33333333       0.007
  -0.40000000  0.40000000  0.40000000       0.002
  -0.46666667  0.46666667  0.40000000       0.007
  -0.46666667 -0.46666667  0.40000000       0.002
  -0.46666667  0.46666667  0.46666667       0.002
 
 position of ions in fractional coordinates (direct lattice) 
   0.00000000  0.00000000  0.00000000
 
 position of ions in cartesian coordinates  (Angst):
   0.00000000  0.00000000  0.00000000
 


--------------------------------------------------------------------------------------------------------


 k-point   1 :   0.0000 0.0000 0.0000  plane waves:     201
 k-point   2 :   0.0667 0.0000 0.0000  plane waves:     203
 k-point   3 :   0.1333 0.0000 0.0000  plane waves:     205
 k-point   4 :   0.2000 0.0000 0.0000  plane waves:     201
 k-point   5 :   0.2667 0.0000 0.0000  plane waves:     204
 k-point   6 :   0.3333 0.0000 0.0000  plane waves:     194
 k-point   7 :   0.4000 0.0000 0.0000  plane waves:     200
 k-point   8 :   0.4667 0.0000 0.0000  plane waves:     202
 k-point   9 :   0.0667 0.0667 0.0000  plane waves:     204
 k-point  10 :   0.1333 0.0667-0.0000  plane waves:     202
 k-point  11 :   0.2000 0.0667-0.0000  plane waves:     201
 k-point  12 :   0.2667 0.0667 0.0000  plane waves:     202
 k-point  13 :   0.3333 0.0667-0.0000  plane waves:     200
 k-point  14 :   0.4000 0.0667 0.0000  plane waves:     199
 k-point  15 :   0.4667 0.0667 0.0000  plane waves:     203
 k-point  16 :   0.1333 0.1333 0.0000  plane waves:     203
 k-point  17 :   0.2000 0.1333 0.0000  plane waves:     204
 k-point  18 :   0.2667 0.1333 0.0000  plane waves:     201
 k-point  19 :   0.3333 0.1333 0.0000  plane waves:     204
 k-point  20 :   0.4000 0.1333 0.0000  plane waves:     201
 k-point  21 :   0.2000 0.2000 0.0000  plane waves:     202
 k-point  22 :   0.2667 0.2000 0.0000  plane waves:     205
 k-point  23 :   0.3333 0.2000 0.0000  plane waves:     205
 k-point  24 :   0.4000 0.2000 0.0000  plane waves:     203
 k-point  25 :   0.2667 0.2667 0.0000  plane waves:     206
 k-point  26 :   0.3333 0.2667 0.0000  plane waves:     208
 k-point  27 :   0.3333 0.3333 0.0000  plane waves:     209
 k-point  28 :   0.0667 0.0667 0.0667  plane waves:     201
 k-point  29 :   0.1333 0.0667 0.0667  plane waves:     205
 k-point  30 :   0.2000 0.0667 0.0667  plane waves:     203
 k-point  31 :   0.2667 0.0667 0.0667  plane waves:     203
 k-point  32 :   0.3333 0.0667 0.0667  plane waves:     201
 k-point  33 :   0.4000 0.0667 0.0667  plane waves:     202
 k-point  34 :  -0.0667 0.0667 0.0667  plane waves:     209
 k-point  35 :   0.1333 0.1333 0.0667  plane waves:     206
 k-point  36 :   0.2000 0.1333 0.0667  plane waves:     202
 k-point  37 :   0.2667 0.1333 0.0667  plane waves:     200
 k-point  38 :   0.3333 0.1333 0.0667  plane waves:     204
 k-point  39 :   0.4000 0.1333 0.0667  plane waves:     204
 k-point  40 :  -0.1333 0.1333 0.0667  plane waves:     206
 k-point  41 :   0.2000 0.2000 0.0667  plane waves:     202
 k-point  42 :   0.2667 0.2000 0.0667  plane waves:     207
 k-point  43 :   0.3333 0.2000 0.0667  plane waves:     207
 k-point  44 :  -0.2000 0.2000 0.0667  plane waves:     206
 k-point  45 :  -0.1333 0.2000 0.0667  plane waves:     206
 k-point  46 :   0.2667 0.2667 0.0667  plane waves:     209
 k-point  47 :   0.3333 0.2667 0.0667  plane waves:     208
 k-point  48 :  -0.2667 0.2667 0.0667  plane waves:     203
 k-point  49 :  -0.2000 0.2667 0.0667  plane waves:     207
 k-point  50 :  -0.3333 0.3333 0.0667  plane waves:     201
 k-point  51 :  -0.2667 0.3333 0.0667  plane waves:     204
 k-point  52 :  -0.2000 0.3333 0.0667  plane waves:     204
 k-point  53 :  -0.4000 0.4000 0.0667  plane waves:     202
 k-point  54 :  -0.3333 0.4000 0.0667  plane waves:     202
 k-point  55 :  -0.2667 0.4000 0.0667  plane waves:     204
 k-point  56 :  -0.4667 0.4667 0.0667  plane waves:     201
 k-point  57 :  -0.4000 0.4667 0.0667  plane waves:     206
 k-point  58 :  -0.3333 0.4667 0.0667  plane waves:     209
 k-point  59 :  -0.2667 0.4667 0.0667  plane waves:     209
 k-point  60 :  -0.4667-0.4667 0.0667  plane waves:     202
 k-point  61 :  -0.4000-0.4667 0.0667  plane waves:     208
 k-point  62 :  -0.3333-0.4667 0.0667  plane waves:     211
 k-point  63 :  -0.4000-0.4000 0.0667  plane waves:     206
 k-point  64 :  -0.3333-0.4000 0.0667  plane waves:     209
 k-point  65 :   0.1333 0.1333 0.1333  plane waves:     204
 k-point  66 :   0.2000 0.1333 0.1333  plane waves:     200
 k-point  67 :   0.2667 0.1333 0.1333  plane waves:     200
 k-point  68 :   0.3333 0.1333 0.1333  plane waves:     206
 k-point  69 :  -0.1333 0.1333 0.1333  plane waves:     209
 k-point  70 :   0.2000 0.2000 0.1333  plane waves:     202
 k-point  71 :   0.2667 0.2000 0.1333  plane waves:     206
 k-point  72 :   0.3333 0.2000 0.1333  plane waves:     208
 k-point  73 :  -0.2000 0.2000 0.1333  plane waves:     208
 k-point  74 :   0.2667 0.2667 0.1333  plane waves:     206
 k-point  75 :  -0.2667 0.2667 0.1333  plane waves:     203
 k-point  76 :  -0.2000 0.2667 0.1333  plane waves:     206
 k-point  77 :  -0.3333 0.3333 0.1333  plane waves:     202
 k-point  78 :  -0.2667 0.3333 0.1333  plane waves:     205
 k-point  79 :  -0.4000 0.4000 0.1333  plane waves:     206
 k-point  80 :  -0.3333 0.4000 0.1333  plane waves:     209
 k-point  81 :  -0.2667 0.4000 0.1333  plane waves:     208
 k-point  82 :  -0.4667 0.4667 0.1333  plane waves:     209
 k-point  83 :  -0.4000 0.4667 0.1333  plane waves:     209
 k-point  84 :  -0.3333 0.4667 0.1333  plane waves:     211
 k-point  85 :  -0.4667-0.4667 0.1333  plane waves:     208
 k-point  86 :  -0.4000-0.4667 0.1333  plane waves:     209
 k-point  87 :  -0.3333-0.4667 0.1333  plane waves:     207
 k-point  88 :  -0.4000-0.4000 0.1333  plane waves:     208
 k-point  89 :   0.2000 0.2000 0.2000  plane waves:     204
 k-point  90 :   0.2667 0.2000 0.2000  plane waves:     208
 k-point  91 :  -0.2000 0.2000 0.2000  plane waves:     205
 k-point  92 :   0.2667 0.2667 0.2000  plane waves:     216
 k-point  93 :  -0.2667 0.2667 0.2000  plane waves:     204
 k-point  94 :  -0.3333 0.3333 0.2000  plane waves:     208
 k-point  95 :  -0.2667 0.3333 0.2000  plane waves:     207
 k-point  96 :  -0.4000 0.4000 0.2000  plane waves:     215
 k-point  97 :  -0.3333 0.4000 0.2000  plane waves:     210
 k-point  98 :  -0.4667 0.4667 0.2000  plane waves:     208
 k-point  99 :  -0.4000 0.4667 0.2000  plane waves:     210
 k-point 100 :  -0.3333 0.4667 0.2000  plane waves:     211
 k-point 101 :  -0.4667-0.4667 0.2000  plane waves:     210
 k-point 102 :  -0.4000-0.4667 0.2000  plane waves:     208
 k-point 103 :  -0.4000-0.4000 0.2000  plane waves:     209
 k-point 104 :  -0.2667 0.2667 0.2667  plane waves:     205
 k-point 105 :  -0.3333 0.3333 0.2667  plane waves:     207
 k-point 106 :  -0.4000 0.4000 0.2667  plane waves:     210
 k-point 107 :  -0.3333 0.4000 0.2667  plane waves:     210
 k-point 108 :  -0.4667 0.4667 0.2667  plane waves:     210
 k-point 109 :  -0.4000 0.4667 0.2667  plane waves:     211
 k-point 110 :  -0.4667-0.4667 0.2667  plane waves:     212
 k-point 111 :  -0.4000-0.4667 0.2667  plane waves:     214
 k-point 112 :  -0.3333 0.3333 0.3333  plane waves:     212
 k-point 113 :  -0.4000 0.4000 0.3333  plane waves:     214
 k-point 114 :  -0.4667 0.4667 0.3333  plane waves:     214
 k-point 115 :  -0.4000 0.4667 0.3333  plane waves:     216
 k-point 116 :  -0.4667-0.4667 0.3333  plane waves:     216
 k-point 117 :  -0.4000 0.4000 0.4000  plane waves:     212
 k-point 118 :  -0.4667 0.4667 0.4000  plane waves:     218
 k-point 119 :  -0.4667-0.4667 0.4000  plane waves:     218
 k-point 120 :  -0.4667 0.4667 0.4667  plane waves:     228

 maximum and minimum number of plane-waves per node :       228      194

 maximum number of plane-waves:       228
 maximum index in each direction: 
   IXMAX=    4   IYMAX=    4   IZMAX=    3
   IXMIN=   -4   IYMIN=   -4   IZMIN=   -4


 serial   3D FFT for wavefunctions
 parallel 3D FFT for charge:
    minimum data exchange during FFTs selected (reduces bandwidth)


 total amount of memory used by VASP MPI-rank0    34486. kBytes
=======================================================================

   base      :      30000. kBytes
   nonl-proj :       1754. kBytes
   fftplans  :       1246. kBytes
   grid      :        577. kBytes
   one-center:          3. kBytes
   wavefun   :        906. kBytes
 
     INWAV:  cpu time    0.0000: real time    0.0006
 Broyden mixing: mesh for mixing (old mesh)
   NGX =  7   NGY =  7   NGZ =  7
  (NGX  = 32   NGY  = 32   NGZ  = 32)
  gives a total of    343 points

 initial charge density was supplied:
 charge density of overlapping atoms calculated
 number of electron       4.0000000 magnetization 
 keeping initial charge density in first step


--------------------------------------------------------------------------------------------------------


 Maximum index for augmentation-charges        19203 (set IRDMAX)


--------------------------------------------------------------------------------------------------------


 First call to EWALD:  gamma=   0.738
 Maximum number of real-space cells 3x 3x 3
 Maximum number of reciprocal cells 3x 3x 3

    FEWALD:  cpu time    0.0030: real time    0.0035


--------------------------------------- Iteration      1(   1)  ---------------------------------------


    POTLOK:  cpu time    0.0100: real time    0.0128
    SETDIJ:  cpu time    0.1630: real time    0.1634
     EDDAV:  cpu time    0.3519: real time    0.3530
       DOS:  cpu time    0.0030: real time    0.0020
    --------------------------------------------
      LOOP:  cpu time    0.5279: real time    0.5316

 eigenvalue-minimisations  :  2096
 total energy-change (2. order) :-0.3268214E+01  (-0.1501771E+03)
 number of electron       4.0000000 magnetization 
 augmentation part        4.0000000 magnetization 

 Free energy of the ion-electron system (eV)
  ---------------------------------------------------
  alpha Z        PSCENC =         2.42827211
  Ewald energy   TEWEN  =      -138.51397499
  -Hartree energ DENC   =        -0.48179554
  -exchange      EXHF   =         0.00000000
  -V(xc)+E(xc)   XCENC  =        -8.69332224
  PAW double counting   =        88.12379961      -70.53051779
  entropy T*S    EENTRO =        -0.00098011
  eigenvalues    EBANDS =        21.33467795
  atomic energy  EATOM  =       103.06562707
  Solvation  Ediel_sol  =         0.00000000
  ---------------------------------------------------
  free energy    TOTEN  =        -3.26821393 eV

  energy without entropy =       -3.26723382  energy(sigma->0) =       -3.26772388


--------------------------------------------------------------------------------------------------------




--------------------------------------- Iteration      1(   2)  ---------------------------------------


     EDDAV:  cpu time    0.5049: real time    0.5179
       DOS:  cpu time    0.0020: real time    0.0020
    --------------------------------------------
      LOOP:  cpu time    0.5069: real time    0.5199

 eigenvalue-minimisations  :  2920
 total energy-change (2. order) :-0.1636643E+01  (-0.1574854E+01)
 number of electron       4.0000000 magnetization 
 augmentation part        4.0000000 magnetization 

 Free energy of the ion-electron system (eV)
  ---------------------------------------------------
  alpha Z        PSCENC =         2.42827211
  Ewald energy   TEWEN  =      -138.51397499
  -Hartree energ DENC   =        -0.48179554
  -exchange      EXHF   =         0.00000000
  -V(xc)+E(xc)   XCENC  =        -8.69332224
  PAW double counting   =        88.12379961      -70.53051779
  entropy T*S    EENTRO =        -0.00058060
  eigenvalues    EBANDS =        19.69763523
  atomic energy  EATOM  =       103.06562707
  Solvation  Ediel_sol  =         0.00000000
  ---------------------------------------------------
  free energy    TOTEN  =        -4.90485714 eV

  energy without entropy =       -4.90427654  energy(sigma->0) =       -4.90456684


--------------------------------------------------------------------------------------------------------




--------------------------------------- Iteration      1(   3)  ---------------------------------------


     EDDAV:  cpu time    0.3599: real time    0.3712
       DOS:  cpu time    0.0020: real time    0.0018
    --------------------------------------------
      LOOP:  cpu time    0.3619: real time    0.3731

 eigenvalue-minimisations  :  2128
 total energy-change (2. order) :-0.7023546E-02  (-0.7022480E-02)
 number of electron       4.0000000 magnetization 
 augmentation part        4.0000000 magnetization 

 Free energy of the ion-electron system (eV)
  ---------------------------------------------------
  alpha Z        PSCENC =         2.42827211
  Ewald energy   TEWEN  =      -138.51397499
  -Hartree energ DENC   =        -0.48179554
  -exchange      EXHF   =         0.00000000
  -V(xc)+E(xc)   XCENC  =        -8.69332224
  PAW double counting   =        88.12379961      -70.53051779
  entropy T*S    EENTRO =        -0.00058585
  eigenvalues    EBANDS =        19.69061693
  atomic energy  EATOM  =       103.06562707
  Solvation  Ediel_sol  =         0.00000000
  ---------------------------------------------------
  free energy    TOTEN  =        -4.91188068 eV

  energy without entropy =       -4.91129483  energy(sigma->0) =       -4.91158776


--------------------------------------------------------------------------------------------------------




--------------------------------------- Iteration      1(   4)  ---------------------------------------


     EDDAV:  cpu time    0.5419: real time    0.5497
       DOS:  cpu time    0.0020: real time    0.0018
    --------------------------------------------
      LOOP:  cpu time    0.5439: real time    0.5515

 eigenvalue-minimisations  :  3080
 total energy-change (2. order) :-0.5095302E-05  (-0.5095352E-05)
 number of electron       4.0000000 magnetization 
 augmentation part        4.0000000 magnetization 

 Free energy of the ion-electron system (eV)
  ---------------------------------------------------
  alpha Z        PSCENC =         2.42827211
  Ewald energy   TEWEN  =      -138.51397499
  -Hartree energ DENC   =        -0.48179554
  -exchange      EXHF   =         0.00000000
  -V(xc)+E(xc)   XCENC  =        -8.69332224
  PAW double counting   =        88.12379961      -70.53051779
  entropy T*S    EENTRO =        -0.00058586
  eigenvalues    EBANDS =        19.69061185
  atomic energy  EATOM  =       103.06562707
  Solvation  Ediel_sol  =         0.00000000
  ---------------------------------------------------
  free energy    TOTEN  =        -4.91188578 eV

  energy without entropy =       -4.91129991  energy(sigma->0) =       -4.91159285


--------------------------------------------------------------------------------------------------------




--------------------------------------- Iteration      1(   5)  ---------------------------------------


     EDDAV:  cpu time    0.3659: real time    0.3788
       DOS:  cpu time    0.0010: real time    0.0019
    CHARGE:  cpu time    0.0180: real time    0.0176
    MIXING:  cpu time    0.0010: real time    0.0008
    --------------------------------------------
      LOOP:  cpu time    0.3859: real time    0.3990

 eigenvalue-minimisations  :  2168
 total energy-change (2. order) :-0.2084590E-08  (-0.6434470E-09)
 number of electron       4.0000000 magnetization 
 augmentation part       -0.2400276 magnetization 

 Broyden mixing:
  rms(total) = 0.28650E+00    rms(broyden)= 0.28650E+00
  rms(prec ) = 0.41435E+00
  weight for this iteration     100.00

 Free energy of the ion-electron system (eV)
  ---------------------------------------------------
  alpha Z        PSCENC =         2.42827211
  Ewald energy   TEWEN  =      -138.51397499
  -Hartree energ DENC   =        -0.48179554
  -exchange      EXHF   =         0.00000000
  -V(xc)+E(xc)   XCENC  =        -8.69332224
  PAW double counting   =        88.12379961      -70.53051779
  entropy T*S    EENTRO =        -0.00058586
  eigenvalues    EBANDS =        19.69061185
  atomic energy  EATOM  =       103.06562707
  Solvation  Ediel_sol  =         0.00000000
  ---------------------------------------------------
  free energy    TOTEN  =        -4.91188578 eV

  energy without entropy =       -4.91129992  energy(sigma->0) =       -4.91159285


--------------------------------------------------------------------------------------------------------




--------------------------------------- Iteration      1(   6)  ---------------------------------------


    POTLOK:  cpu time    0.0110: real time    0.0202
    SETDIJ:  cpu time    0.1610: real time    0.1625
     EDDAV:  cpu time    0.3549: real time    0.3547
       DOS:  cpu time    0.0010: real time    0.0024
    CHARGE:  cpu time    0.0170: real time    0.0169
    MIXING:  cpu time    0.0010: real time    0.0008
    --------------------------------------------
      LOOP:  cpu time    0.5469: real time    0.5576

 eigenvalue-minimisations  :  2048
 total energy-change (2. order) : 0.1152142E-01  (-0.3624293E-03)
 number of electron       4.0000000 magnetization 
 augmentation part       -0.2419736 magnetization 

 Broyden mixing:
  rms(total) = 0.15914E+00    rms(broyden)= 0.15914E+00
  rms(prec ) = 0.23976E+00
  weight for this iteration     100.00

 eigenvalues of (default mixing * dielectric matrix)
  average eigenvalue GAMMA=   2.2392
  2.2392

 Free energy of the ion-electron system (eV)
  ---------------------------------------------------
  alpha Z        PSCENC =         2.42827211
  Ewald energy   TEWEN  =      -138.51397499
  -Hartree energ DENC   =        -0.41814542
  -exchange      EXHF   =         0.00000000
  -V(xc)+E(xc)   XCENC  =        -8.66813991
  PAW double counting   =       176.90470989     -159.31815819
  entropy T*S    EENTRO =        -0.00060696
  eigenvalues    EBANDS =        19.62005205
  atomic energy  EATOM  =       103.06562707
  Solvation  Ediel_sol  =         0.00000000
  ---------------------------------------------------
  free energy    TOTEN  =        -4.90036436 eV

  energy without entropy =       -4.89975740  energy(sigma->0) =       -4.90006088


--------------------------------------------------------------------------------------------------------




--------------------------------------- Iteration      1(   7)  ---------------------------------------


    POTLOK:  cpu time    0.0120: real time    0.0208
    SETDIJ:  cpu time    0.1630: real time    0.1626
     EDDAV:  cpu time    0.3769: real time    0.3790
       DOS:  cpu time    0.0030: real time    0.0026
    CHARGE:  cpu time    0.0160: real time    0.0174
    MIXING:  cpu time    0.0010: real time    0.0008
    --------------------------------------------
      LOOP:  cpu time    0.5719: real time    0.5832

 eigenvalue-minimisations  :  2072
 total energy-change (2. order) : 0.6584035E-02  (-0.7239500E-03)
 number of electron       4.0000000 magnetization 
 augmentation part       -0.2447989 magnetization 

 Broyden mixing:
  rms(total) = 0.13545E-01    rms(broyden)= 0.13545E-01
  rms(prec ) = 0.18278E-01
  weight for this iteration     100.00

 eigenvalues of (default mixing * dielectric matrix)
  average eigenvalue GAMMA=   2.4495
  2.4495  2.4495

 Free energy of the ion-electron system (eV)
  ---------------------------------------------------
  alpha Z        PSCENC =         2.42827211
  Ewald energy   TEWEN  =      -138.51397499
  -Hartree energ DENC   =        -0.35353135
  -exchange      EXHF   =         0.00000000
  -V(xc)+E(xc)   XCENC  =        -8.62839921
  PAW double counting   =       351.32528289     -333.75225493
  entropy T*S    EENTRO =        -0.00063265
  eigenvalues    EBANDS =        19.53583075
  atomic energy  EATOM  =       103.06562707
  Solvation  Ediel_sol  =         0.00000000
  ---------------------------------------------------
  free energy    TOTEN  =        -4.89378032 eV

  energy without entropy =       -4.89314767  energy(sigma->0) =       -4.89346400


--------------------------------------------------------------------------------------------------------




--------------------------------------- Iteration      1(   8)  ---------------------------------------


    POTLOK:  cpu time    0.0120: real time    0.0238
    SETDIJ:  cpu time    0.1610: real time    0.1623
     EDDAV:  cpu time    0.5009: real time    0.5012
       DOS:  cpu time    0.0020: real time    0.0020
    CHARGE:  cpu time    0.0160: real time    0.0168
    MIXING:  cpu time    0.0010: real time    0.0007
    --------------------------------------------
      LOOP:  cpu time    0.6919: real time    0.7077

 eigenvalue-minimisations  :  2744
 total energy-change (2. order) : 0.2141251E-04  (-0.3251970E-05)
 number of electron       4.0000000 magnetization 
 augmentation part       -0.2448821 magnetization 

 Broyden mixing:
  rms(total) = 0.10936E-02    rms(broyden)= 0.10935E-02
  rms(prec ) = 0.19099E-02
  weight for this iteration     100.00

 eigenvalues of (default mixing * dielectric matrix)
  average eigenvalue GAMMA=   2.0200
  0.9870  2.4064  2.6665

 Free energy of the ion-electron system (eV)
  ---------------------------------------------------
  alpha Z        PSCENC =         2.42827211
  Ewald energy   TEWEN  =      -138.51397499
  -Hartree energ DENC   =        -0.35538869
  -exchange      EXHF   =         0.00000000
  -V(xc)+E(xc)   XCENC  =        -8.62368182
  PAW double counting   =       336.48766105     -318.92137025
  entropy T*S    EENTRO =        -0.00063332
  eigenvalues    EBANDS =        19.53972993
  atomic energy  EATOM  =       103.06562707
  Solvation  Ediel_sol  =         0.00000000
  ---------------------------------------------------
  free energy    TOTEN  =        -4.89375891 eV

  energy without entropy =       -4.89312559  energy(sigma->0) =       -4.89344225


--------------------------------------------------------------------------------------------------------




--------------------------------------- Iteration      1(   9)  ---------------------------------------


    POTLOK:  cpu time    0.0110: real time    0.0186
    SETDIJ:  cpu time    0.1620: real time    0.1622
     EDDAV:  cpu time    0.3969: real time    0.3981
       DOS:  cpu time    0.0020: real time    0.0019
    --------------------------------------------
      LOOP:  cpu time    0.5729: real time    0.5799

 eigenvalue-minimisations  :  2120
 total energy-change (2. order) :-0.5670497E-06  (-0.4046790E-07)
 number of electron       4.0000000 magnetization 
 augmentation part       -0.2448821 magnetization 

 Free energy of the ion-electron system (eV)
  ---------------------------------------------------
  alpha Z        PSCENC =         2.42827211
  Ewald energy   TEWEN  =      -138.51397499
  -Hartree energ DENC   =        -0.35547807
  -exchange      EXHF   =         0.00000000
  -V(xc)+E(xc)   XCENC  =        -8.62313483
  PAW double counting   =       335.26006276     -317.69427940
  entropy T*S    EENTRO =        -0.00063348
  eigenvalues    EBANDS =        19.53977936
  atomic energy  EATOM  =       103.06562707
  Solvation  Ediel_sol  =         0.00000000
  ---------------------------------------------------
  free energy    TOTEN  =        -4.89375948 eV

  energy without entropy =       -4.89312600  energy(sigma->0) =       -4.89344274


--------------------------------------------------------------------------------------------------------




 average (electrostatic) potential at core
  the test charge radii are     0.9892
  (the norm of the test charge is              1.0000)
       1 -79.2899
 
 
 
 E-fermi :  10.6378     XC(G=0): -11.3701     alpha+bet :-17.3011

 Fermi energy:        10.6377713138

 k-point     1 :       0.0000    0.0000    0.0000
  band No.  band energies     occupation 
      1      -4.0989      2.00000
      2      22.7233      0.00000
      3      22.7233      0.00000
      4      22.7233      0.00000
      5      23.4221      0.00000
      6      23.4221      0.00000
      7      23.4221      0.00000
      8      27.2239      0.00000

 k-point     2 :       0.0667    0.0000    0.0000
  band No.  band energies     occupation 
      1      -3.9577      2.00000
      2      20.8617      0.00000
      3      21.3786      0.00000
      4      22.4981      0.00000
      5      22.9519      0.00000
      6      24.3991      0.00000
      7      25.0012      0.00000
      8      26.2735      0.00000

 k-point     3 :       0.1333    0.0000    0.0000
  band No.  band energies     occupation 
      1      -3.5348      2.00000
      2      18.1011      0.00000
      3      19.9728      0.00000
      4      21.8997      0.00000
      5      21.9278      0.00000
      6      24.1455      0.00000
      7      26.2614      0.00000
      8      27.0459      0.00000

 k-point     4 :       0.2000    0.0000    0.0000
  band No.  band energies     occupation 
      1      -2.8318      2.00000
      2      15.1540      0.00000
      3      18.7974      0.00000
      4      20.8273      0.00000
      5      21.1313      0.00000
      6      23.1647      0.00000
      7      27.1996      0.00000
      8      27.3835      0.00000

 k-point     5 :       0.2667    0.0000    0.0000
  band No.  band energies     occupation 
      1      -1.8517      2.00000
      2      12.2686      0.00000
      3      17.8568      0.00000
      4      19.8552      0.00000
      5      20.3845      0.00000
      6      22.2888      0.00000
      7      28.0530      0.00000
      8      28.3302      0.00000

 k-point     6 :       0.3333    0.0000    0.0000
  band No.  band energies     occupation 
      1      -0.5983      2.00000
      2       9.5472      2.00000
      3      17.1528      0.00000
      4      19.0942      0.00000
      5      19.7703      0.00000
      6      21.6023      0.00000
      7      29.0011      0.00000
      8      29.6083      0.00000

 k-point     7 :       0.4000    0.0000    0.0000
  band No.  band energies     occupation 
      1       0.9230      2.00000
      2       7.0326      2.00000
      3      16.6839      0.00000
      4      18.5744      0.00000
      5      19.3412      0.00000
      6      21.1258      0.00000
      7      30.1380      0.00000
      8      30.9442      0.00000

 k-point     8 :       0.4667    0.0000    0.0000
  band No.  band energies     occupation 
      1       2.7041      2.00000
      2       4.7520      2.00000
      3      16.4497      0.00000
      4      18.3118      0.00000
      5      19.1219      0.00000
      6      20.8841      0.00000
      7      31.2226      0.00000
      8      32.0349      0.00000

 k-point     9 :       0.0667    0.0667    0.0000
  band No.  band energies     occupation 
      1      -3.6757      2.00000
      2      19.3251      0.00000
      3      19.7838      0.00000
      4      21.2606      0.00000
      5      23.2922      0.00000
      6      24.7591      0.00000
      7      25.5014      0.00000
      8      26.2330      0.00000

 k-point    10 :       0.1333    0.0667   -0.0000
  band No.  band energies     occupation 
      1      -3.1127      2.00000
      2      16.6948      0.00000
      3      18.3023      0.00000
      4      20.1919      0.00000
      5      22.8178      0.00000
      6      24.2269      0.00000
      7      25.9227      0.00000
      8      27.6207      0.00000

 k-point    11 :       0.2000    0.0667   -0.0000
  band No.  band energies     occupation 
      1      -2.2712      2.00000
      2      13.7848      0.00000
      3      17.2102      0.00000
      4      19.2084      0.00000
      5      22.0392      0.00000
      6      23.5718      0.00000
      7      26.5000      0.00000
      8      28.9145      0.00000

 k-point    12 :       0.2667    0.0667    0.0000
  band No.  band energies     occupation 
      1      -1.1544      2.00000
      2      10.9800      0.00000
      3      16.3590      0.00000
      4      18.3937      0.00000
      5      21.2977      0.00000
      6      22.9752      0.00000
      7      27.3360      0.00000
      8      30.1169      0.00000

 k-point    13 :       0.3333    0.0667   -0.0000
  band No.  band energies     occupation 
      1       0.2330      2.00000
      2       8.3607      2.00000
      3      15.7483      0.00000
      4      17.7941      0.00000
      5      20.7276      0.00000
      6      22.4943      0.00000
      7      28.4490      0.00000
      8      31.2833      0.00000

 k-point    14 :       0.4000    0.0667    0.0000
  band No.  band energies     occupation 
      1       1.8850      2.00000
      2       5.9623      2.00000
      3      15.3808      0.00000
      4      17.4291      0.00000
      5      20.3740      0.00000
      6      22.1865      0.00000
      7      29.7578      0.00000
      8      31.9336      0.00000

 k-point    15 :       0.4667    0.0667    0.0000
  band No.  band energies     occupation 
      1       3.7036      2.00000
      2       3.8938      2.00000
      3      15.2578      0.00000
      4      17.3063      0.00000
      5      20.2544      0.00000
      6      22.0805      0.00000
      7      30.8913      0.00000
      8      31.3991      0.00000

 k-point    16 :       0.1333    0.1333    0.0000
  band No.  band energies     occupation 
      1      -2.4112      2.00000
      2      15.3460      0.00000
      3      15.6474      0.00000
      4      19.0889      0.00000
      5      23.0875      0.00000
      6      24.0582      0.00000
      7      26.7306      0.00000
      8      27.9697      0.00000

 k-point    17 :       0.2000    0.1333    0.0000
  band No.  band energies     occupation 
      1      -1.4330      2.00000
      2      12.6403      0.00000
      3      14.5053      0.00000
      4      18.1841      0.00000
      5      22.6863      0.00000
      6      24.1740      0.00000
      7      27.0010      0.00000
      8      29.4843      0.00000

 k-point    18 :       0.2667    0.1333    0.0000
  band No.  band energies     occupation 
      1      -0.1821      2.00000
      2       9.9369      2.00000
      3      13.7445      0.00000
      4      17.4807      0.00000
      5      22.0853      0.00000
      6      24.4682      0.00000
      7      27.2387      0.00000
      8      31.1499      0.00000

 k-point    19 :       0.3333    0.1333    0.0000
  band No.  band energies     occupation 
      1       1.3363      2.00000
      2       7.4314      2.00000
      3      13.2356      0.00000
      4      17.0020      0.00000
      5      21.6362      0.00000
      6      24.5273      0.00000
      7      28.0492      0.00000
      8      31.7253      0.00000

 k-point    20 :       0.4000    0.1333    0.0000
  band No.  band energies     occupation 
      1       3.1142      2.00000
      2       5.1564      2.00000
      3      12.9805      0.00000
      4      16.7604      0.00000
      5      21.4042      0.00000
      6      24.4869      0.00000
      7      29.2725      0.00000
      8      30.8145      0.00000

 k-point    21 :       0.2000    0.2000    0.0000
  band No.  band energies     occupation 
      1      -0.3206      2.00000
      2      11.6676      0.00000
      3      11.8251      0.00000
      4      17.3871      0.00000
      5      23.2875      0.00000
      6      23.9957      0.00000
      7      28.6804      0.00000
      8      29.5330      0.00000

 k-point    22 :       0.2667    0.2000    0.0000
  band No.  band energies     occupation 
      1       1.0614      2.00000
      2       9.1483      2.00000
      3      11.1006      0.00000
      4      16.7995      0.00000
      5      23.0773      0.00000
      6      24.7361      0.00000
      7      28.7583      0.00000
      8      30.7790      0.00000

 k-point    23 :       0.3333    0.2000    0.0000
  band No.  band energies     occupation 
      1       2.7069      2.00000
      2       6.7645      2.00000
      3      10.7091      0.04376
      4      16.4407      0.00000
      5      22.7828      0.00000
      6      25.7251      0.00000
      7      28.5460      0.00000
      8      30.7384      0.00000

 k-point    24 :       0.4000    0.2000    0.0000
  band No.  band energies     occupation 
      1       4.5305      2.00000
      2       4.6934      2.00000
      3      10.5788      1.90473
      4      16.3202      0.00000
      5      22.6770      0.00000
      6      26.2323      0.00000
      7      28.4780      0.00000
      8      30.3042      0.00000

 k-point    25 :       0.2667    0.2667    0.0000
  band No.  band energies     occupation 
      1       2.5707      2.00000
      2       8.5685      2.00000
      3       8.6759      2.00000
      4      16.3316      0.00000
      5      24.0566      0.00000
      6      24.7504      0.00000
      7      29.1444      0.00000
      8      31.1444      0.00000

 k-point    26 :       0.3333    0.2667    0.0000
  band No.  band energies     occupation 
      1       4.3382      2.00000
      2       6.3632      2.00000
      3       8.3595      2.00000
      4      16.0935      0.00000
      5      24.1306      0.00000
      6      25.8743      0.00000
      7      27.7400      0.00000
      8      31.9845      0.00000

 k-point    27 :       0.3333    0.3333    0.0000
  band No.  band energies     occupation 
      1       6.1041      2.00000
      2       6.2901      2.00000
      3       6.2901      2.00000
      4      15.9761      0.00000
      5      25.0904      0.00000
      6      26.2728      0.00000
      7      26.2728      0.00000
      8      34.0519      0.00000

 k-point    28 :       0.0667    0.0667    0.0667
  band No.  band energies     occupation 
      1      -3.2533      2.00000
      2      17.8481      0.00000
      3      18.6657      0.00000
      4      18.6657      0.00000
      5      24.6649      0.00000
      6      24.6649      0.00000
      7      26.5844      0.00000
      8      26.5844      0.00000

 k-point    29 :       0.1333    0.0667    0.0667
  band No.  band energies     occupation 
      1      -2.5513      2.00000
      2      15.3794      0.00000
      3      16.9826      0.00000
      4      17.5362      0.00000
      5      24.3263      0.00000
      6      25.0156      0.00000
      7      26.9692      0.00000
      8      27.4624      0.00000

 k-point    30 :       0.2000    0.0667    0.0667
  band No.  band energies     occupation 
      1      -1.5725      2.00000
      2      12.5258      0.00000
      3      15.9830      0.00000
      4      16.5683      0.00000
      5      23.8250      0.00000
      6      24.3995      0.00000
      7      28.2652      0.00000
      8      28.2815      0.00000

 k-point    31 :       0.2667    0.0667    0.0667
  band No.  band energies     occupation 
      1      -0.3207      2.00000
      2       9.8106      2.00000
      3      15.2469      0.00000
      4      15.8191      0.00000
      5      23.3245      0.00000
      6      23.8116      0.00000
      7      29.2256      0.00000
      8      29.6739      0.00000

 k-point    32 :       0.3333    0.0667    0.0667
  band No.  band energies     occupation 
      1       1.1988      2.00000
      2       7.3003      2.00000
      3      14.7564      0.00000
      4      15.3116      0.00000
      5      22.9453      0.00000
      6      23.3909      0.00000
      7      30.3484      0.00000
      8      31.0627      0.00000

 k-point    33 :       0.4000    0.0667    0.0667
  band No.  band energies     occupation 
      1       2.9779      2.00000
      2       5.0225      2.00000
      3      14.5107      0.00000
      4      15.0554      0.00000
      5      22.7438      0.00000
      6      23.1742      0.00000
      7      31.3898      0.00000
      8      32.1681      0.00000

 k-point    34 :      -0.0667    0.0667    0.0667
  band No.  band energies     occupation 
      1      -3.8166      2.00000
      2      20.3496      0.00000
      3      20.3496      0.00000
      4      21.6246      0.00000
      5      23.6955      0.00000
      6      24.6213      0.00000
      7      25.0358      0.00000
      8      25.0358      0.00000

 k-point    35 :       0.1333    0.1333    0.0667
  band No.  band energies     occupation 
      1      -1.7120      2.00000
      2      14.1404      0.00000
      3      14.4471      0.00000
      4      16.2146      0.00000
      5      24.9708      0.00000
      6      25.8212      0.00000
      7      27.3287      0.00000
      8      28.2992      0.00000

 k-point    36 :       0.2000    0.1333    0.0667
  band No.  band energies     occupation 
      1      -0.5981      2.00000
      2      11.4995      0.00000
      3      13.4171      0.00000
      4      15.3466      0.00000
      5      24.8580      0.00000
      6      25.8889      0.00000
      7      28.1826      0.00000
      8      29.6286      0.00000

 k-point    37 :       0.2667    0.1333    0.0667
  band No.  band energies     occupation 
      1       0.7858      2.00000
      2       8.8921      2.00000
      3      12.7770      0.00000
      4      14.7222      0.00000
      5      24.4951      0.00000
      6      25.8108      0.00000
      7      29.1108      0.00000
      8      31.1447      0.00000

 k-point    38 :       0.3333    0.1333    0.0667
  band No.  band energies     occupation 
      1       2.4338      2.00000
      2       6.5001      2.00000
      3      12.3923      0.00000
      4      14.3445      0.00000
      5      24.2201      0.00000
      6      25.6853      0.00000
      7      30.2713      0.00000
      8      32.0700      0.00000

 k-point    39 :       0.4000    0.1333    0.0667
  band No.  band energies     occupation 
      1       4.2562      2.00000
      2       4.4287      2.00000
      3      12.2641      0.00000
      4      14.2181      0.00000
      5      24.1221      0.00000
      6      25.6316      0.00000
      7      31.2155      0.00000
      8      31.8559      0.00000

 k-point    40 :      -0.1333    0.1333    0.0667
  band No.  band energies     occupation 
      1      -3.3940      2.00000
      2      18.0973      0.00000
      3      18.9845      0.00000
      4      21.0151      0.00000
      5      23.0878      0.00000
      6      23.3578      0.00000
      7      25.4859      0.00000
      8      26.6888      0.00000

 k-point    41 :       0.2000    0.2000    0.0667
  band No.  band energies     occupation 
      1       0.6480      2.00000
      2      10.6528      0.67039
      3      10.8016      0.00000
      4      14.5985      0.00000
      5      25.5561      0.00000
      6      26.4274      0.00000
      7      29.4368      0.00000
      8      30.2148      0.00000

[...]
      1       3.9086      2.00000
      2       4.2765      2.00000
      3      11.5311      0.00000
      4      15.9992      0.00000
      5      20.6856      0.00000
      6      22.4644      0.00000
      7      23.8072      0.00000
      8      27.0415      0.00000

 k-point    86 :      -0.4000   -0.4667    0.1333
  band No.  band energies     occupation 
      1       3.6831      2.00000
      2       5.6613      2.00000
      3       9.4403      2.00000
      4      17.1214      0.00000
      5      20.1294      0.00000
      6      21.8556      0.00000
      7      23.1359      0.00000
      8      29.1078      0.00000

 k-point    87 :      -0.3333   -0.4667    0.1333
  band No.  band energies     occupation 
      1       3.5579      2.00000
      2       7.3082      2.00000
      3       7.5847      2.00000
      4      17.9441      0.00000
      5      19.6031      0.00000
      6      21.2819      0.00000
      7      23.0842      0.00000
      8      30.9887      0.00000

 k-point    88 :      -0.4000   -0.4000    0.1333
  band No.  band energies     occupation 
      1       5.2072      2.00000
      2       5.5538      2.00000
      3       7.3332      2.00000
      4      18.0732      0.00000
      5      20.1911      0.00000
      6      21.3310      0.00000
      7      21.9103      0.00000
      8      31.5887      0.00000

 k-point    89 :       0.2000    0.2000    0.2000
  band No.  band energies     occupation 
      1       2.9087      2.00000
      2       8.4279      2.00000
      3       8.9316      2.00000
      4       8.9316      2.00000
      5      28.4421      0.00000
      6      28.4421      0.00000
      7      30.2447      0.00000
      8      30.2447      0.00000

 k-point    90 :       0.2667    0.2000    0.2000
  band No.  band energies     occupation 
      1       4.5969      2.00000
      2       6.5661      2.00000
      3       8.3744      2.00000
      4       8.6793      2.00000
      5      28.9791      0.00000
      6      29.3200      0.00000
      7      30.9448      0.00000
      8      31.2110      0.00000

 k-point    91 :      -0.2000    0.2000    0.2000
  band No.  band energies     occupation 
      1      -1.8764      2.00000
      2      14.3164      0.00000
      3      14.3164      0.00000
      4      16.2308      0.00000
      5      17.8333      0.00000
      6      24.8529      0.00000
      7      26.3881      0.00000
      8      26.3881      0.00000

 k-point    92 :       0.2667    0.2667    0.2000
  band No.  band energies     occupation 
      1       6.0799      2.00000
      2       6.6142      2.00000
      3       6.6142      2.00000
      4       8.4142      2.00000
      5      29.7611      0.00000
      6      30.7418      0.00000
      7      30.7418      0.00000
      8      31.8355      0.00000

 k-point    93 :      -0.2667    0.2667    0.2000
  band No.  band energies     occupation 
      1      -0.9365      2.00000
      2      12.3798      0.00000
      3      13.3606      0.00000
      4      15.7155      0.00000
      5      17.3111      0.00000
      6      24.5809      0.00000
      7      26.4125      0.00000
      8      28.2925      0.00000

 k-point    94 :      -0.3333    0.3333    0.2000
  band No.  band energies     occupation 
      1       0.2651      2.00000
      2       9.9301      0.21686
      3      12.6383      0.00000
      4      15.1673      0.00000
      5      17.9676      0.00000
      6      23.9635      0.00000
      7      25.4125      0.00000
      8      27.8815      0.00000

 k-point    95 :      -0.2667    0.3333    0.2000
  band No.  band energies     occupation 
      1       0.1321      2.00000
      2      11.4313      0.00000
      3      11.6203      0.00000
      4      15.5697      0.00000
      5      16.6729      0.00000
      6      24.4834      0.00000
      7      26.1671      0.00000
      8      28.1399      0.00000

 k-point    96 :      -0.4000    0.4000    0.2000
  band No.  band energies     occupation 
      1       1.7225      2.00000
      2       7.5672      2.00000
      3      12.1543      0.00000
      4      14.7069      0.00000
      5      19.0924      0.00000
      6      23.5137      0.00000
      7      24.0011      0.00000
      8      27.3700      0.00000

 k-point    97 :      -0.3333    0.4000    0.2000
  band No.  band energies     occupation 
      1       1.4589      2.00000
      2       9.1716      2.00000
      3      10.9166      0.00000
      4      15.3487      0.00000
      5      17.2784      0.00000
      6      23.6085      0.00000
      7      24.7250      0.00000
      8      28.6712      0.00000

 k-point    98 :      -0.4667    0.4667    0.2000
  band No.  band energies     occupation 
      1       3.4216      2.00000
      2       5.4039      2.00000
      3      11.9126      0.00000
      4      14.4661      0.00000
      5      20.3255      0.00000
      6      22.5784      0.00000
      7      23.2857      0.00000
      8      27.0807      0.00000

 k-point    99 :      -0.4000    0.4667    0.2000
  band No.  band energies     occupation 
      1       3.0359      2.00000
      2       6.9270      2.00000
      3      10.5420      0.00000
      4      15.0388      0.00000
      5      18.5253      0.00000
      6      22.0600      0.00000
      7      24.0875      0.00000
      8      28.6670      0.00000

 k-point   100 :      -0.3333    0.4667    0.2000
  band No.  band energies     occupation 
      1       2.9060      2.00000
      2       8.5501      2.00000
      3       8.7980      2.00000
      4      16.1329      0.00000
      5      17.1485      0.00000
      6      21.9065      0.00000
      7      24.2084      0.00000
      8      30.4513      0.00000

 k-point   101 :      -0.4667   -0.4667    0.2000
  band No.  band energies     occupation 
      1       4.6969      2.00000
      2       5.0377      2.00000
      3      10.4172      0.00000
      4      14.9252      0.00000
      5      19.5957      0.00000
      6      20.8340      0.00000
      7      23.9300      0.00000
      8      28.6338      0.00000

 k-point   102 :      -0.4000   -0.4667    0.2000
  band No.  band energies     occupation 
      1       4.5912      2.00000
      2       6.5429      2.00000
      3       8.4314      2.00000
      4      16.2228      0.00000
      5      18.2236      0.00000
      6      20.1376      0.00000
      7      23.9582      0.00000
      8      31.0612      0.00000

 k-point   103 :      -0.4000   -0.4000    0.2000
  band No.  band energies     occupation 
      1       6.1159      2.00000
      2       6.5566      2.00000
      3       6.5566      2.00000
      4      17.0703      0.00000
      5      18.5867      0.00000
      6      18.5867      0.00000
      7      23.8778      0.00000
      8      33.1821      0.00000

 k-point   104 :      -0.2667    0.2667    0.2667
  band No.  band energies     occupation 
      1      -0.0010      2.00000
      2      12.3989      0.00000
      3      12.3989      0.00000
      4      14.4247      0.00000
      5      15.6493      0.00000
      6      25.9592      0.00000
      7      26.6799      0.00000
      8      28.0305      0.00000

 k-point   105 :      -0.3333    0.3333    0.2667
  band No.  band energies     occupation 
      1       1.1946      2.00000
      2      10.6552      0.00000
      3      11.6723      0.00000
      4      14.0572      0.00000
      5      15.4719      0.00000
      6      23.8565      0.00000
      7      26.5706      0.00000
      8      28.7066      0.00000

 k-point   106 :      -0.4000    0.4000    0.2667
  band No.  band energies     occupation 
      1       2.6440      2.00000
      2       8.4151      2.00000
      3      11.1860      0.00000
      4      13.6758      0.00000
      5      16.4895      0.00000
      6      21.7767      0.00000
      7      26.1644      0.00000
      8      28.9043      0.00000

 k-point   107 :      -0.3333    0.4000    0.2667
  band No.  band energies     occupation 
      1       2.5130      2.00000
      2       9.9522      0.06275
      3      10.1234      0.00000
      4      14.1763      0.00000
      5      15.0728      0.00000
      6      21.6651      0.00000
      7      26.8465      0.00000
      8      30.1268      0.00000

 k-point   108 :      -0.4667    0.4667    0.2667
  band No.  band energies     occupation 
      1       4.3325      2.00000
      2       6.2900      2.00000
      3      10.9425      0.00000
      4      13.4424      0.00000
      5      17.8960      0.00000
      6      19.9031      0.00000
      7      25.9438      0.00000
      8      28.9127      0.00000

 k-point   109 :      -0.4000    0.4667    0.2667
  band No.  band energies     occupation 
      1       4.0779      2.00000
      2       7.9047      2.00000
      3       9.6717      2.00000
      4      14.1340      0.00000
      5      16.0179      0.00000
      6      19.6016      0.00000
      7      26.6444      0.00000
      8      30.6896      0.00000

 k-point   110 :      -0.4667   -0.4667    0.2667
  band No.  band energies     occupation 
      1       5.7334      2.00000
      2       6.0422      2.00000
      3       9.5452      2.00000
      4      14.0399      0.00000
      5      17.2686      0.00000
      6      18.0735      0.00000
      7      26.5542      0.00000
      8      30.7738      0.00000

 k-point   111 :      -0.4000   -0.4667    0.2667
  band No.  band energies     occupation 
      1       5.7413      2.00000
      2       7.5456      2.00000
      3       7.7777      2.00000
      4      15.1787      0.00000
      5      16.1047      0.00000
      6      17.6452      0.00000
      7      26.5966      0.00000
      8      32.6655      0.00000

 k-point   112 :      -0.3333    0.3333    0.3333
  band No.  band energies     occupation 
      1       2.3818      2.00000
      2      10.9427      0.00000
      3      10.9427      0.00000
      4      12.9881      0.00000
      5      14.0017      0.00000
      6      21.5607      0.00000
      7      28.9747      0.00000
      8      30.0137      0.00000

 k-point   113 :      -0.4000    0.4000    0.3333
  band No.  band energies     occupation 
      1       3.8189      2.00000
      2       9.4097      2.00000
      3      10.4552      0.00000
      4      12.8138      0.00000
      5      14.1506      0.00000
      6      19.3477      0.00000
      7      28.9872      0.00000
      8      30.7727      0.00000

 k-point   114 :      -0.4667    0.4667    0.3333
  band No.  band energies     occupation 
      1       5.4891      2.00000
      2       7.4014      2.00000
      3      10.2111      0.00000
      4      12.6445      0.00000
      5      15.4592      0.00000
      6      17.3635      0.00000
      7      28.7919      0.00000
      8      31.0427      0.00000

 k-point   115 :      -0.4000    0.4667    0.3333
  band No.  band energies     occupation 
      1       5.3640      2.00000
      2       8.9563      2.00000
      3       9.1203      2.00000
      4      13.1985      0.00000
      5      14.0009      0.00000
      6      17.2103      0.00000
      7      29.3979      0.00000
      8      32.3524      0.00000

 k-point   116 :      -0.4667   -0.4667    0.3333
  band No.  band energies     occupation 
      1       6.9964      2.00000
      2       7.2669      2.00000
      3       8.9217      2.00000
      4      13.3398      0.00000
      5      15.0244      0.00000
      6      15.5814      0.00000
      7      29.3742      0.00000
      8      32.8553      0.00000

 k-point   117 :      -0.4000    0.4000    0.4000
  band No.  band energies     occupation 
      1       5.2364      2.00000
      2       9.9670      0.02272
      3       9.9670      0.02272
      4      11.9865      0.00000
      5      12.9012      0.00000
      6      17.0744      0.00000
      7      31.6212      0.00000
      8      32.2489      0.00000

 k-point   118 :      -0.4667    0.4667    0.4000
  band No.  band energies     occupation 
      1       6.8695      2.00000
      2       8.6603      2.00000
      3       9.7224      2.00000
      4      12.0240      0.00000
      5      13.3429      0.00000
      6      15.0643      0.00000
      7      31.7000      0.00000
      8      32.9779      0.00000

 k-point   119 :      -0.4667   -0.4667    0.4000
  band No.  band energies     occupation 
      1       8.3536      2.00000
      2       8.6176      2.00000
      3       8.6176      2.00000
      4      12.4390      0.00000
      5      13.4648      0.00000
      6      13.4648      0.00000
      7      32.1236      0.00000
      8      34.3060      0.00000

 k-point   120 :      -0.4667    0.4667    0.4667
  band No.  band energies     occupation 
      1       8.3952      2.00000
      2       9.4775      2.00000
      3       9.4775      2.00000
      4      11.3734      0.00000
      5      12.3456      0.00000
      6      13.1556      0.00000
      7      34.0599      0.00000
      8      34.1987      0.00000


--------------------------------------------------------------------------------------------------------


 soft charge-density along one line, spin component           1
         0         1         2         3         4         5         6         7         8         9
 total charge-density along one line
 
 pseudopotential strength for first ion, spin component:           1
 17.985  25.090   0.000   0.000   0.000   0.000   0.000   0.000
 25.090  35.006   0.000   0.000   0.000   0.000   0.000   0.000
  0.000   0.000   4.100  -0.000   0.000   7.637  -0.000   0.000
  0.000   0.000  -0.000   4.100  -0.000  -0.000   7.637  -0.000
  0.000   0.000   0.000  -0.000   4.100   0.000  -0.000   7.637
  0.000   0.000   7.637  -0.000   0.000  14.238  -0.000   0.000
  0.000   0.000  -0.000   7.637  -0.000  -0.000  14.238  -0.000
  0.000   0.000   0.000  -0.000   7.637   0.000  -0.000  14.238
 total augmentation occupancy for first ion, spin component:           1
  4.771  -1.930   0.000   0.000   0.000   0.000   0.000   0.000
 -1.930   1.207   0.000   0.000   0.000   0.000   0.000   0.000
  0.000   0.000   2.316   0.000  -0.000  -0.543  -0.000  -0.000
  0.000   0.000   0.000   2.316   0.000   0.000  -0.543   0.000
  0.000   0.000  -0.000   0.000   2.316   0.000  -0.000  -0.543
  0.000   0.000  -0.543   0.000   0.000   0.141   0.000  -0.000
  0.000   0.000  -0.000  -0.543  -0.000   0.000   0.141  -0.000
  0.000   0.000  -0.000  -0.000  -0.543  -0.000  -0.000   0.141


------------------------ aborting loop because EDIFF is reached ----------------------------------------


    CHARGE:  cpu time    0.0180: real time    0.0180
    FORLOC:  cpu time    0.0010: real time    0.0005
    FORNL :  cpu time    0.0400: real time    0.0406
    STRESS:  cpu time    0.3749: real time    0.3758
    FORCOR:  cpu time    0.0130: real time    0.0129
    FORHAR:  cpu time    0.0030: real time    0.0025
    MIXING:  cpu time    0.0010: real time    0.0008
    OFIELD:  cpu time    0.0000: real time    0.0002

  FORCE on cell =-STRESS in cart. coord.  units (eV):
  Direction    XX          YY          ZZ          XY          YZ          ZX
  --------------------------------------------------------------------------------------
  Alpha Z     2.30262     2.30262     2.30262
  Ewald     -45.36080   -45.36080   -45.36080    -0.00000    -0.00000     0.00000
  Hartree     0.14346     0.14346     0.14346    -0.00000     0.00000     0.00000
  E(xc)     -12.67256   -12.67256   -12.67256     0.00000    -0.00000    -0.00000
  Local      -5.10825    -5.10825    -5.10825    -0.00001     0.00001     0.00001
  n-local    38.94564    38.36720    38.21385    -1.09198    -1.20585     0.47172
  augment    -6.27708    -6.27708    -6.27708     0.00001    -0.00001    -0.00001
  Kinetic    24.72756    33.81516    26.85255    12.29217    13.19875    -5.83185
  Fock        0.00000     0.00000     0.00000     0.00000     0.00000     0.00000
  -------------------------------------------------------------------------------------
  Total       0.00139     0.00139     0.00139     0.00000     0.00000    -0.00000
  in kB       0.15182     0.15182     0.15182     0.00000     0.00000    -0.00000
  external pressure =        0.15 kB  Pullay stress =        0.00 kB


 VOLUME and BASIS-vectors are now :
 -----------------------------------------------------------------------------
  energy-cutoff  :      350.00
  volume of cell :       14.62
      direct lattice vectors                 reciprocal lattice vectors
     1.540366306  1.540366306  1.540366306     0.324598115  0.324598115  0.000000000
     1.540366306 -1.540366306 -1.540366306     0.324598115  0.000000000 -0.324598115
    -1.540366306  1.540366306 -1.540366306     0.000000000  0.324598115 -0.324598115

  length of vectors
     2.667992705  2.667992705  2.667992705     0.459051057  0.459051057  0.459051057


 FORCES acting on ions
    electron-ion (+dipol)            ewald-force                    non-local-force                 convergence-correction
 -----------------------------------------------------------------------------------------------
   0.604E-15 -.190E-15 -.712E-16   -.999E-15 0.846E-15 -.194E-15   0.129E-25 0.129E-25 -.129E-25   0.162E-16 0.160E-16 -.107E-16
 -----------------------------------------------------------------------------------------------
   0.604E-15 -.190E-15 -.712E-16   -.999E-15 0.846E-15 -.194E-15   0.129E-25 0.129E-25 -.129E-25   0.162E-16 0.160E-16 -.107E-16
 
 
 POSITION                                       TOTAL-FORCE (eV/Angst)
 -----------------------------------------------------------------------------------
      0.00000      0.00000      0.00000        -0.000000      0.000000      0.000000
 -----------------------------------------------------------------------------------
    total drift:                               -0.000000      0.000000     -0.000000


--------------------------------------------------------------------------------------------------------



  FREE ENERGIE OF THE ION-ELECTRON SYSTEM (eV)
  ---------------------------------------------------
  free  energy   TOTEN  =        -4.90636561 eV

  energy  without entropy=       -4.90587218  energy(sigma->0) =       -4.90611890
 
 d Force = 0.0000000E+00[ 0.000E+00, 0.000E+00]  d Energy = 0.1036009E-02-0.104E-02
 d Force = 0.0000000E+00[ 0.000E+00, 0.000E+00]  d Ewald  = 0.7085859E+00-0.709E+00


--------------------------------------------------------------------------------------------------------


    POTLOK:  cpu time    0.1790: real time    0.1860


--------------------------------------------------------------------------------------------------------




--------------------------------------------------------------------------------------------------------


  
 reached required accuracy - stopping structural energy minimisation
     LOOP+:  cpu time    3.9904: real time    4.2349
    4ORBIT:  cpu time    0.0000: real time    0.0000

 total amount of memory used by VASP MPI-rank0    34486. kBytes
=======================================================================

   base      :      30000. kBytes
   nonl-proj :       1754. kBytes
   fftplans  :       1246. kBytes
   grid      :        577. kBytes
   one-center:          3. kBytes
   wavefun   :        906. kBytes
 
  
  
 General timing and accounting informations for this job:
 ========================================================
  
                  Total CPU time used (sec):       14.236
                            User time (sec):       13.833
                          System time (sec):        0.403
                         Elapsed time (sec):       15.651
  
                   Maximum memory used (kb):       53928.
                   Average memory used (kb):          N/A
  
                          Minor page faults:         9619
                          Major page faults:            1
                 Voluntary context switches:        22232
