   2   2   1   0
  0.1173411E+02  0.2863036E-09  0.2863036E-09  0.2863036E-09  0.5000000E-15
  1.000000000000000E-004
  CAR 
 unknown system                          
     43.71067829     -4.79727810  301      5.85180311      1.00000000
     -4.797  0.0000E+00  0.0000E+00  0.0000E+00  0.0000E+00
     -4.636  0.0000E+00  0.0000E+00  0.0000E+00  0.0000E+00
     -4.474  0.0000E+00  0.0000E+00  0.0000E+00  0.0000E+00
     -4.312 -0.1583E-35  0.0000E+00 -0.2559E-36  0.0000E+00
     -4.151 -0.8151E-30 -0.6348E-36 -0.1318E-30 -0.1026E-36
     -3.989 -0.1124E-24 -0.3566E-30 -0.1817E-25 -0.5765E-31
     -3.827 -0.4134E-20 -0.5361E-25 -0.6684E-21 -0.8669E-26
     -3.665 -0.3906E-16 -0.2152E-20 -0.6317E-17 -0.3480E-21
     -3.504 -0.9968E-13 -0.2221E-16 -0.1612E-13 -0.3592E-17
     -3.342 -0.6597E-10 -0.6193E-13 -0.1068E-10 -0.1002E-13
     -3.180 -0.1099E-07 -0.4483E-10 -0.1788E-08 -0.7259E-11
     -3.019 -0.4265E-06 -0.8191E-08 -0.7075E-07 -0.1332E-08
     -2.857 -0.2828E-05 -0.3515E-06 -0.5280E-06 -0.5816E-07
     -2.695  0.6101E-05 -0.2682E-05  0.4584E-06 -0.4918E-06
     -2.534  0.4417E-04  0.4731E-05  0.7600E-05  0.2732E-06
     -2.372  0.1882E-03  0.3991E-04  0.3804E-04  0.6726E-05
     -2.210  0.3888E-03  0.1726E-03  0.1009E-03  0.3463E-04
     -2.048  0.6310E-03  0.3699E-03  0.2029E-03  0.9443E-04
     -1.887  0.5762E-03  0.6104E-03  0.2961E-03  0.1931E-03
     -1.725  0.4140E-03  0.5880E-03  0.3630E-03  0.2882E-03
     -1.563  0.3396E-03  0.4264E-03  0.4180E-03  0.3572E-03
     -1.402  0.8938E-03  0.3153E-03  0.5625E-03  0.4082E-03
     -1.240  0.1497E-02  0.7391E-03  0.8045E-03  0.5277E-03
     -1.078  0.1421E-02  0.1420E-02  0.1034E-02  0.7573E-03
     -0.917  0.5150E-03  0.1466E-02  0.1118E-02  0.9944E-03
     -0.755  0.2763E-03  0.7301E-03  0.1162E-02  0.1112E-02
     -0.593  0.9612E-03  0.1257E-03  0.1318E-02  0.1133E-02
     -0.432  0.1812E-02  0.6644E-03  0.1611E-02  0.1240E-02
     -0.270  0.1891E-02  0.1471E-02  0.1916E-02  0.1478E-02
     -0.108  0.1656E-02  0.1798E-02  0.2184E-02  0.1769E-02
      0.054  0.1357E-02  0.1630E-02  0.2404E-02  0.2032E-02
      0.215  0.1893E-02  0.1461E-02  0.2710E-02  0.2269E-02
      0.377  0.2756E-02  0.9740E-03  0.3155E-02  0.2426E-02
      0.539  0.1787E-02  0.1486E-02  0.3444E-02  0.2666E-02
      0.700  0.8896E-03  0.2564E-02  0.3588E-02  0.3081E-02
      0.862  0.4497E-02  0.2100E-02  0.4315E-02  0.3420E-02
      1.024  0.9541E-02  0.1194E-03  0.5858E-02  0.3440E-02
      1.185  0.1173E-01  0.1055E-02  0.7755E-02  0.3610E-02
      1.347  0.9473E-02  0.3861E-02  0.9287E-02  0.4235E-02
      1.509  0.1338E-01  0.3944E-02  0.1145E-01  0.4872E-02
      1.670  0.2221E-01  0.2442E-02  0.1504E-01  0.5267E-02
      1.832  0.1698E-01  0.2908E-02  0.1779E-01  0.5737E-02
      1.994  0.1119E-01  0.3661E-02  0.1960E-01  0.6329E-02
      2.156  0.1001E-01  0.4877E-02  0.2121E-01  0.7118E-02
      2.317  0.8777E-02  0.5374E-02  0.2263E-01  0.7987E-02
      2.479  0.1972E-01  0.5776E-02  0.2582E-01  0.8921E-02
      2.641  0.2926E-01  0.9026E-02  0.3055E-01  0.1038E-01
      2.802  0.2339E-01  0.9564E-02  0.3434E-01  0.1193E-01
      2.964  0.2173E-01  0.6995E-02  0.3785E-01  0.1306E-01
      3.126  0.2118E-01  0.1061E-01  0.4127E-01  0.1477E-01
      3.287  0.2777E-01  0.1252E-01  0.4576E-01  0.1680E-01
      3.449  0.2868E-01  0.1270E-01  0.5040E-01  0.1885E-01
      3.611  0.1677E-01  0.9442E-02  0.5311E-01  0.2038E-01
      3.772  0.1157E-01  0.4801E-02  0.5498E-01  0.2116E-01
      3.934  0.1132E-01  0.7984E-02  0.5681E-01  0.2245E-01
      4.096  0.7573E-02  0.1923E-01  0.5804E-01  0.2556E-01
      4.258  0.9692E-02  0.2449E-01  0.5960E-01  0.2951E-01
      4.419  0.1529E-01  0.2372E-01  0.6208E-01  0.3335E-01
      4.581  0.2527E-01  0.2536E-01  0.6616E-01  0.3745E-01
      4.743  0.3584E-01  0.2366E-01  0.7196E-01  0.4128E-01
      4.904  0.5080E-01  0.2037E-01  0.8017E-01  0.4457E-01
      5.066  0.4700E-01  0.2474E-01  0.8777E-01  0.4857E-01
      5.228  0.2480E-01  0.2483E-01  0.9178E-01  0.5258E-01
      5.389  0.1552E-01  0.1435E-01  0.9429E-01  0.5491E-01
      5.551  0.1556E-01  0.9456E-02  0.9681E-01  0.5643E-01
      5.713  0.1595E-01  0.7567E-02  0.9939E-01  0.5766E-01
      5.874  0.1675E-01  0.4067E-02  0.1021E+00  0.5832E-01
      6.036  0.1290E-01  0.3022E-02  0.1042E+00  0.5880E-01
      6.198  0.9229E-02  0.7485E-02  0.1057E+00  0.6001E-01
      6.360  0.4983E-02  0.7782E-02  0.1065E+00  0.6127E-01
      6.521  0.1286E-03  0.8202E-02  0.1065E+00  0.6260E-01
      6.683  0.2747E-03  0.1073E-01  0.1065E+00  0.6433E-01
      6.845  0.3771E-02  0.1697E-01  0.1072E+00  0.6708E-01
      7.006  0.5191E-02  0.1835E-01  0.1080E+00  0.7004E-01
      7.168  0.3700E-02  0.2149E-01  0.1086E+00  0.7352E-01
      7.330  0.3076E-02  0.2672E-01  0.1091E+00  0.7784E-01
      7.491  0.2819E-02  0.2651E-01  0.1095E+00  0.8213E-01
      7.653  0.2070E-02  0.3026E-01  0.1099E+00  0.8702E-01
      7.815  0.2548E-02  0.4618E-01  0.1103E+00  0.9449E-01
      7.976  0.3610E-02  0.3712E-01  0.1109E+00  0.1005E+00
      8.138  0.4867E-02  0.1904E-01  0.1117E+00  0.1036E+00
      8.300  0.2695E-02  0.1211E-01  0.1121E+00  0.1055E+00
      8.462  0.3323E-03  0.6598E-02  0.1121E+00  0.1066E+00
      8.623  0.9829E-03  0.2712E-02  0.1123E+00  0.1070E+00
      8.785  0.1135E-02  0.3483E-02  0.1125E+00  0.1076E+00
      8.947  0.1702E-02  0.5733E-02  0.1128E+00  0.1085E+00
      9.108  0.2787E-02  0.5891E-02  0.1132E+00  0.1095E+00
      9.270  0.2882E-02  0.1666E-02  0.1137E+00  0.1097E+00
      9.432  0.3846E-02  0.2982E-02  0.1143E+00  0.1102E+00
      9.593  0.4227E-02  0.6319E-02  0.1150E+00  0.1112E+00
      9.755  0.3179E-02  0.4940E-02  0.1155E+00  0.1120E+00
      9.917  0.3157E-02  0.5462E-03  0.1160E+00  0.1121E+00
     10.078  0.1848E-02  0.2350E-03  0.1163E+00  0.1122E+00
     10.240 -0.1687E-05  0.2512E-02  0.1163E+00  0.1126E+00
     10.402  0.3399E-03  0.3284E-02  0.1164E+00  0.1131E+00
     10.564  0.1157E-02  0.1872E-02  0.1166E+00  0.1134E+00
     10.725  0.1418E-02  0.4014E-02  0.1168E+00  0.1141E+00
     10.887  0.2622E-02  0.6571E-02  0.1172E+00  0.1151E+00
     11.049  0.1900E-02  0.3507E-02  0.1175E+00  0.1157E+00
     11.210  0.6848E-03  0.2239E-02  0.1176E+00  0.1161E+00
     11.372  0.1201E-03  0.1616E-02  0.1176E+00  0.1163E+00
     11.534  0.1290E-02  0.2425E-04  0.1179E+00  0.1163E+00
     11.695  0.2421E-02  0.7142E-03  0.1182E+00  0.1164E+00
     11.857  0.1624E-02  0.1142E-02  0.1185E+00  0.1166E+00
     12.019  0.1529E-02  0.2036E-02  0.1188E+00  0.1169E+00
     12.181  0.2685E-02  0.3055E-02  0.1192E+00  0.1174E+00
     12.342  0.8099E-03  0.1378E-02  0.1193E+00  0.1177E+00
     12.504 -0.1160E-03  0.8059E-03  0.1193E+00  0.1178E+00
     12.666  0.5185E-03  0.2892E-02  0.1194E+00  0.1183E+00
     12.827  0.7499E-03  0.1769E-02  0.1195E+00  0.1185E+00
     12.989 -0.4448E-05  0.1206E-02  0.1195E+00  0.1187E+00
     13.151  0.2445E-03  0.2389E-02  0.1195E+00  0.1191E+00
     13.312  0.2426E-02  0.1135E-02  0.1199E+00  0.1193E+00
     13.474  0.4921E-02 -0.6284E-04  0.1207E+00  0.1193E+00
     13.636  0.4858E-02  0.9967E-04  0.1215E+00  0.1193E+00
     13.797  0.1983E-02  0.7934E-03  0.1218E+00  0.1194E+00
     13.959  0.1932E-02  0.4547E-03  0.1222E+00  0.1195E+00
     14.121  0.4846E-02  0.6844E-04  0.1229E+00  0.1195E+00
     14.283  0.5985E-02  0.6024E-03  0.1239E+00  0.1196E+00
     14.444  0.4400E-02  0.6540E-03  0.1246E+00  0.1197E+00
     14.606  0.4024E-02  0.3616E-02  0.1253E+00  0.1203E+00
     14.768  0.5108E-02  0.7438E-02  0.1261E+00  0.1215E+00
     14.929  0.5693E-02  0.4573E-02  0.1270E+00  0.1223E+00
     15.091  0.2949E-02  0.2015E-02  0.1275E+00  0.1226E+00
     15.253  0.2366E-03  0.2684E-02  0.1275E+00  0.1230E+00
     15.414  0.4755E-03  0.6998E-02  0.1276E+00  0.1242E+00
     15.576  0.8622E-03  0.7497E-02  0.1277E+00  0.1254E+00
     15.738  0.2312E-02  0.5262E-02  0.1281E+00  0.1262E+00
     15.899  0.6572E-02  0.5493E-02  0.1292E+00  0.1271E+00
     16.061  0.5267E-02  0.2690E-02  0.1300E+00  0.1275E+00
     16.223  0.3457E-02  0.6667E-03  0.1306E+00  0.1276E+00
     16.385  0.5603E-02  0.1377E-02  0.1315E+00  0.1279E+00
     16.546  0.7064E-02  0.2456E-02  0.1326E+00  0.1283E+00
     16.708  0.5458E-02  0.3943E-02  0.1335E+00  0.1289E+00
     16.870  0.3186E-02  0.4842E-02  0.1340E+00  0.1297E+00
     17.031  0.1098E-02  0.5628E-02  0.1342E+00  0.1306E+00
     17.193  0.1022E-02  0.4627E-02  0.1344E+00  0.1313E+00
     17.355  0.2054E-02  0.6415E-02  0.1347E+00  0.1324E+00
     17.516  0.4266E-02  0.7377E-02  0.1354E+00  0.1336E+00
     17.678  0.3106E-02  0.3699E-02  0.1359E+00  0.1342E+00
     17.840  0.1302E-02  0.1155E-02  0.1361E+00  0.1344E+00
     18.001  0.5251E-02  0.7502E-03  0.1370E+00  0.1345E+00
     18.163  0.6168E-02  0.2967E-02  0.1380E+00  0.1350E+00
     18.325  0.4917E-02  0.4956E-02  0.1388E+00  0.1358E+00
     18.487  0.7656E-02  0.3003E-02  0.1400E+00  0.1362E+00
     18.648  0.3892E-02  0.3340E-02  0.1406E+00  0.1368E+00
     18.810 -0.1210E-03  0.4734E-02  0.1406E+00  0.1376E+00
     18.972  0.5319E-03  0.3917E-02  0.1407E+00  0.1382E+00
     19.133  0.3726E-02  0.5381E-02  0.1413E+00  0.1391E+00
     19.295  0.5377E-02  0.6763E-02  0.1422E+00  0.1401E+00
     19.457  0.4138E-02  0.3095E-02  0.1428E+00  0.1407E+00
     19.618  0.1793E-02  0.7434E-03  0.1431E+00  0.1408E+00
     19.780  0.3529E-02  0.2054E-02  0.1437E+00  0.1411E+00
     19.942  0.5311E-02  0.4697E-02  0.1445E+00  0.1419E+00
     20.103  0.2986E-02  0.5740E-02  0.1450E+00  0.1428E+00
     20.265  0.3443E-03  0.2701E-02  0.1451E+00  0.1432E+00
     20.427  0.3620E-03  0.4106E-02  0.1451E+00  0.1439E+00
     20.589  0.5439E-02  0.4272E-02  0.1460E+00  0.1446E+00
     20.750  0.8002E-02  0.2556E-02  0.1473E+00  0.1450E+00
     20.912  0.4923E-02  0.5805E-03  0.1481E+00  0.1451E+00
     21.074  0.3538E-02  0.1260E-02  0.1487E+00  0.1453E+00
     21.235  0.2041E-02  0.5563E-02  0.1490E+00  0.1462E+00
     21.397  0.1130E-02  0.8072E-02  0.1492E+00  0.1475E+00
     21.559  0.2045E-02  0.4758E-02  0.1495E+00  0.1483E+00
     21.720  0.2735E-02  0.2152E-02  0.1500E+00  0.1486E+00
     21.882  0.5065E-02  0.2182E-02  0.1508E+00  0.1490E+00
     22.044  0.6954E-02  0.2571E-02  0.1519E+00  0.1494E+00
     22.205  0.3268E-02  0.1696E-02  0.1524E+00  0.1497E+00
     22.367  0.5363E-03  0.2548E-02  0.1525E+00  0.1501E+00
     22.529  0.2256E-02  0.7246E-02  0.1529E+00  0.1512E+00
     22.691  0.4753E-02  0.5407E-02  0.1537E+00  0.1521E+00
     22.852  0.3365E-02  0.1267E-02  0.1542E+00  0.1523E+00
     23.014  0.5747E-02  0.2162E-02  0.1551E+00  0.1527E+00
     23.176  0.8770E-02  0.3068E-02  0.1566E+00  0.1532E+00
     23.337  0.4127E-02  0.4241E-02  0.1572E+00  0.1539E+00
     23.499  0.2626E-02  0.4575E-02  0.1576E+00  0.1546E+00
     23.661  0.4189E-02  0.6794E-02  0.1583E+00  0.1557E+00
     23.822  0.4351E-02  0.7044E-02  0.1590E+00  0.1568E+00
     23.984  0.6111E-02  0.3818E-02  0.1600E+00  0.1574E+00
     24.146  0.8046E-02  0.3096E-02  0.1613E+00  0.1579E+00
     24.307  0.4852E-02  0.6092E-02  0.1621E+00  0.1589E+00
     24.469  0.2489E-02  0.1007E-01  0.1625E+00  0.1606E+00
     24.631  0.2316E-02  0.6153E-02  0.1629E+00  0.1616E+00
     24.793  0.2422E-02  0.2623E-02  0.1633E+00  0.1620E+00
     24.954  0.3153E-02  0.3782E-02  0.1638E+00  0.1626E+00
     25.116  0.7431E-02  0.2330E-02  0.1650E+00  0.1630E+00
     25.278  0.9210E-02  0.2556E-02  0.1665E+00  0.1634E+00
     25.439  0.5992E-02  0.2899E-02  0.1674E+00  0.1638E+00
     25.601  0.2804E-02  0.4871E-02  0.1679E+00  0.1646E+00
     25.763  0.3787E-02  0.1062E-01  0.1685E+00  0.1664E+00
     25.924  0.5671E-02  0.8049E-02  0.1694E+00  0.1677E+00
     26.086  0.7780E-02  0.3627E-02  0.1707E+00  0.1682E+00
     26.248  0.7327E-02  0.3160E-02  0.1719E+00  0.1688E+00
     26.410  0.6061E-02  0.3339E-02  0.1728E+00  0.1693E+00
     26.571  0.3906E-02  0.8241E-02  0.1735E+00  0.1706E+00
     26.733  0.4369E-02  0.1083E-01  0.1742E+00  0.1724E+00
     26.895  0.4552E-02  0.5223E-02  0.1749E+00  0.1732E+00
     27.056  0.1774E-02  0.3915E-02  0.1752E+00  0.1739E+00
     27.218  0.2374E-02  0.5127E-02  0.1756E+00  0.1747E+00
     27.380  0.2849E-02  0.2284E-02  0.1761E+00  0.1751E+00
     27.541  0.1248E-02  0.9462E-03  0.1763E+00  0.1752E+00
     27.703  0.5896E-02  0.2651E-02  0.1772E+00  0.1756E+00
     27.865  0.9642E-02  0.3189E-02  0.1788E+00  0.1762E+00
     28.026  0.6143E-02  0.3438E-02  0.1798E+00  0.1767E+00
     28.188  0.2314E-02  0.8387E-02  0.1801E+00  0.1781E+00
     28.350  0.1312E-02  0.6243E-02  0.1803E+00  0.1791E+00
     28.512  0.1948E-02  0.2465E-02  0.1807E+00  0.1795E+00
     28.673  0.2124E-02  0.3327E-02  0.1810E+00  0.1800E+00
     28.835  0.1947E-02  0.3152E-02  0.1813E+00  0.1805E+00
     28.997  0.1880E-02  0.1003E-02  0.1816E+00  0.1807E+00
     29.158  0.2531E-02  0.3795E-03  0.1820E+00  0.1807E+00
     29.320  0.3706E-02  0.2508E-02  0.1826E+00  0.1811E+00
     29.482  0.4585E-02  0.3841E-02  0.1834E+00  0.1818E+00
     29.643  0.6185E-02  0.4208E-02  0.1844E+00  0.1824E+00
     29.805  0.3007E-02  0.4702E-02  0.1849E+00  0.1832E+00
     29.967  0.5402E-03  0.7186E-02  0.1849E+00  0.1844E+00
     30.128  0.8574E-03  0.4376E-02  0.1851E+00  0.1851E+00
     30.290  0.1893E-02  0.6647E-03  0.1854E+00  0.1852E+00
     30.452  0.5804E-02  0.4385E-03  0.1863E+00  0.1853E+00
     30.614  0.6807E-02  0.1458E-02  0.1874E+00  0.1855E+00
     30.775  0.6005E-02  0.4375E-02  0.1884E+00  0.1862E+00
     30.937  0.9840E-02  0.6360E-02  0.1900E+00  0.1872E+00
     31.099  0.8831E-02  0.3584E-02  0.1914E+00  0.1878E+00
     31.260  0.6562E-02  0.7544E-02  0.1925E+00  0.1890E+00
     31.422  0.3594E-02  0.1286E-01  0.1931E+00  0.1911E+00
     31.584  0.2621E-02  0.8215E-02  0.1935E+00  0.1924E+00
     31.745  0.2903E-02  0.3786E-02  0.1940E+00  0.1930E+00
     31.907  0.3341E-02  0.2884E-02  0.1945E+00  0.1935E+00
     32.069  0.2778E-02  0.2658E-02  0.1949E+00  0.1939E+00
     32.230  0.9325E-03  0.4088E-02  0.1951E+00  0.1946E+00
     32.392  0.2320E-02  0.2912E-02  0.1955E+00  0.1951E+00
     32.554  0.4793E-02  0.4800E-03  0.1962E+00  0.1952E+00
     32.716  0.1802E-02  0.2431E-02  0.1965E+00  0.1955E+00
     32.877  0.3711E-03  0.3926E-02  0.1966E+00  0.1962E+00
     33.039  0.3380E-04  0.2406E-02  0.1966E+00  0.1966E+00
     33.201 -0.8522E-04  0.2933E-03  0.1966E+00  0.1966E+00
     33.362  0.1817E-03 -0.1613E-03  0.1966E+00  0.1966E+00
     33.524  0.1036E-02  0.6183E-04  0.1968E+00  0.1966E+00
     33.686  0.1718E-02  0.1014E-02  0.1971E+00  0.1968E+00
     33.847  0.3638E-02  0.2801E-02  0.1977E+00  0.1972E+00
     34.009  0.1779E-02  0.3707E-02  0.1979E+00  0.1978E+00
     34.171 -0.1949E-03  0.7396E-03  0.1979E+00  0.1979E+00
     34.332  0.8253E-03 -0.9326E-04  0.1980E+00  0.1979E+00
     34.494  0.2107E-02  0.1545E-02  0.1984E+00  0.1982E+00
     34.656  0.6280E-03  0.1723E-02  0.1985E+00  0.1985E+00
     34.818 -0.9797E-04  0.1659E-03  0.1985E+00  0.1985E+00
     34.979 -0.2022E-04 -0.7448E-04  0.1985E+00  0.1985E+00
     35.141 -0.5207E-05 -0.7957E-05  0.1985E+00  0.1985E+00
     35.303 -0.4885E-04 -0.2204E-04  0.1985E+00  0.1985E+00
     35.464  0.1205E-03 -0.4161E-04  0.1985E+00  0.1985E+00
     35.626  0.1100E-02  0.6308E-03  0.1987E+00  0.1986E+00
     35.788  0.8903E-03  0.1244E-02  0.1988E+00  0.1988E+00
     35.949  0.1580E-04  0.2947E-03  0.1988E+00  0.1988E+00
     36.111 -0.3518E-04 -0.5878E-04  0.1988E+00  0.1988E+00
     36.273 -0.2229E-05 -0.9557E-05  0.1988E+00  0.1988E+00
     36.434 -0.2174E-05 -0.6932E-05  0.1988E+00  0.1988E+00
     36.596 -0.3473E-04 -0.5504E-04  0.1988E+00  0.1988E+00
     36.758  0.1327E-04  0.2004E-03  0.1988E+00  0.1988E+00
     36.920  0.8824E-03  0.1186E-02  0.1989E+00  0.1990E+00
     37.081  0.1099E-02  0.7558E-03  0.1991E+00  0.1991E+00
     37.243  0.6947E-04 -0.6860E-04  0.1991E+00  0.1991E+00
     37.405  0.1574E-03  0.9693E-04  0.1991E+00  0.1991E+00
     37.566  0.1186E-02  0.1105E-02  0.1993E+00  0.1993E+00
     37.728  0.7505E-03  0.8789E-03  0.1995E+00  0.1995E+00
     37.890 -0.4037E-04 -0.2960E-04  0.1995E+00  0.1994E+00
     38.051 -0.7676E-04  0.3168E-04  0.1994E+00  0.1995E+00
     38.213  0.5633E-03  0.1010E-02  0.1995E+00  0.1996E+00
     38.375  0.1262E-02  0.9918E-03  0.1997E+00  0.1998E+00
     38.536  0.3490E-03  0.5631E-04  0.1998E+00  0.1998E+00
     38.698 -0.5930E-04 -0.4143E-04  0.1998E+00  0.1998E+00
     38.860 -0.1113E-04 -0.3107E-05  0.1998E+00  0.1998E+00
     39.022 -0.3045E-06 -0.4587E-07  0.1998E+00  0.1998E+00
     39.183 -0.1916E-08 -0.1636E-09  0.1998E+00  0.1998E+00
     39.345 -0.3029E-11 -0.1488E-12  0.1998E+00  0.1998E+00
     39.507 -0.1241E-14 -0.3526E-16  0.1998E+00  0.1998E+00
     39.668  0.0000E+00  0.0000E+00  0.1998E+00  0.1998E+00
     39.830 -0.1042E-32 -0.2583E-31  0.1998E+00  0.1998E+00
     39.992 -0.3748E-27 -0.6756E-26  0.1998E+00  0.1998E+00
     40.153 -0.3605E-22 -0.4723E-21  0.1998E+00  0.1998E+00
     40.315 -0.9245E-18 -0.8573E-17  0.1998E+00  0.1998E+00
     40.477 -0.6064E-14 -0.4173E-13  0.1998E+00  0.1998E+00
     40.639 -0.1073E-10 -0.5333E-10  0.1998E+00  0.1998E+00
     40.800 -0.4893E-08 -0.1745E-07  0.1998E+00  0.1998E+00
     40.962 -0.5532E-06 -0.1393E-05  0.1998E+00  0.1998E+00
     41.124 -0.1376E-04 -0.2285E-04  0.1998E+00  0.1998E+00
     41.285 -0.3014E-04  0.7117E-05  0.1998E+00  0.1998E+00
     41.447  0.4011E-03  0.5830E-03  0.1998E+00  0.1999E+00
     41.609  0.8351E-03  0.7416E-03  0.2000E+00  0.2000E+00
     41.770  0.2120E-03  0.8635E-04  0.2000E+00  0.2000E+00
     41.932 -0.3943E-04 -0.3313E-04  0.2000E+00  0.2000E+00
     42.094 -0.6761E-05 -0.3233E-05  0.2000E+00  0.2000E+00
     42.255 -0.1757E-06 -0.5813E-07  0.2000E+00  0.2000E+00
     42.417 -0.1055E-08 -0.2491E-09  0.2000E+00  0.2000E+00
     42.579 -0.1595E-11 -0.2713E-12  0.2000E+00  0.2000E+00
     42.741 -0.6251E-15 -0.7686E-16  0.2000E+00  0.2000E+00
     42.902  0.0000E+00  0.0000E+00  0.2000E+00  0.2000E+00
     43.064  0.0000E+00  0.0000E+00  0.2000E+00  0.2000E+00
     43.226  0.0000E+00  0.0000E+00  0.2000E+00  0.2000E+00
     43.387  0.0000E+00  0.0000E+00  0.2000E+00  0.2000E+00
     43.549  0.0000E+00  0.0000E+00  0.2000E+00  0.2000E+00
     43.711  0.0000E+00  0.0000E+00  0.2000E+00  0.2000E+00
     43.71067829     -4.79727810  301      5.85180311      1.00000000
     -4.797  0.0000E+00  0.0000E+00  0.0000E+00  0.0000E+00  0.0000E+00  0.0000E+00  0.0000E+00  0.0000E+00  0.0000E+00  0.0000E+00  0.0000E+00  0.0000E+00  0.0000E+00  0.0000E+00  0.0000E+00  0.0000E+00  0.0000E+00  0.0000E+00
     -4.636  0.0000E+00  0.0000E+00  0.0000E+00  0.0000E+00  0.0000E+00  0.0000E+00  0.0000E+00  0.0000E+00  0.0000E+00  0.0000E+00  0.0000E+00  0.0000E+00  0.0000E+00  0.0000E+00  0.0000E+00  0.0000E+00  0.0000E+00  0.0000E+00
     -4.474  0.0000E+00  0.0000E+00  0.0000E+00  0.0000E+00  0.0000E+00  0.0000E+00  0.0000E+00  0.0000E+00  0.0000E+00  0.0000E+00  0.0000E+00  0.0000E+00  0.0000E+00  0.0000E+00  0.0000E+00  0.0000E+00  0.0000E+00  0.0000E+00
     -4.312 -0.5821E-34  0.0000E+00 -0.1872E-63  0.0000E+00 -0.1872E-63  0.0000E+00 -0.1872E-63  0.0000E+00 -0.4029E-48  0.0000E+00 -0.4029E-48  0.0000E+00 -0.5933E-50  0.0000E+00 -0.4029E-48  0.0000E+00 -0.5933E-50  0.0000E+00
     -4.151 -0.2998E-28 -0.2334E-34 -0.9638E-58 -0.1538E-64 -0.9638E-58 -0.1538E-64 -0.9638E-58 -0.1538E-64 -0.2075E-42 -0.1164E-47 -0.2075E-42 -0.1164E-47 -0.3055E-44 -0.3188E-47 -0.2075E-42 -0.1164E-47 -0.3055E-44 -0.3188E-47
     -3.989 -0.4132E-23 -0.1311E-28 -0.8098E-33  0.0000E+00 -0.8098E-33  0.0000E+00 -0.8098E-33  0.0000E+00 -0.2860E-37 -0.6539E-42 -0.2860E-37 -0.6539E-42 -0.2577E-34 -0.1791E-41 -0.2860E-37 -0.6539E-42 -0.2577E-34 -0.1791E-41
     -3.827 -0.1520E-18 -0.1971E-23 -0.2410E-27 -0.3028E-33 -0.2410E-27 -0.3028E-33 -0.2410E-27 -0.3028E-33 -0.1052E-32 -0.9832E-37 -0.1052E-32 -0.9832E-37 -0.7670E-29 -0.6961E-35 -0.1052E-32 -0.9832E-37 -0.7670E-29 -0.6961E-35
     -3.665 -0.1437E-14 -0.7913E-19 -0.1918E-22 -0.9936E-28 -0.1918E-22 -0.9936E-28 -0.1918E-22 -0.9936E-28 -0.9995E-29 -0.3947E-32 -0.9995E-29 -0.3947E-32 -0.6103E-24 -0.2207E-29 -0.9995E-29 -0.3947E-32 -0.6103E-24 -0.2207E-29
     -3.504 -0.3666E-11 -0.8166E-15 -0.3981E-18 -0.8720E-23 -0.3981E-18 -0.8720E-23 -0.3981E-18 -0.8720E-23 -0.3373E-25 -0.4075E-28 -0.3373E-25 -0.4075E-28 -0.1267E-19 -0.1928E-24 -0.3373E-25 -0.4075E-28 -0.1267E-19 -0.1928E-24
     -3.342 -0.2426E-08 -0.2277E-11 -0.2200E-14 -0.1954E-18 -0.2200E-14 -0.1954E-18 -0.2200E-14 -0.1954E-18 -0.3828E-21 -0.1157E-24 -0.3828E-21 -0.1157E-24 -0.7003E-16 -0.4319E-20 -0.3828E-21 -0.1157E-24 -0.7003E-16 -0.4319E-20
     -3.180 -0.4041E-06 -0.1648E-08 -0.3209E-11 -0.1219E-14 -0.3209E-11 -0.1219E-14 -0.3209E-11 -0.1219E-14 -0.4130E-17 -0.1877E-21 -0.4130E-17 -0.1877E-21 -0.1021E-12 -0.2695E-16 -0.4130E-17 -0.1877E-21 -0.1021E-12 -0.2695E-16
     -3.019 -0.1568E-04 -0.3012E-06 -0.1202E-08 -0.1965E-11 -0.1202E-08 -0.1965E-11 -0.1202E-08 -0.1965E-11 -0.1257E-13 -0.1353E-17 -0.1257E-13 -0.1353E-17 -0.3826E-10 -0.4344E-13 -0.1257E-13 -0.1353E-17 -0.3826E-10 -0.4344E-13
     -2.857 -0.1037E-03 -0.1292E-04 -0.1108E-06 -0.8152E-09 -0.1108E-06 -0.8152E-09 -0.1108E-06 -0.8152E-09 -0.9960E-11 -0.4589E-14 -0.9960E-11 -0.4589E-14 -0.3522E-08 -0.1802E-10 -0.9960E-11 -0.4589E-14 -0.3522E-08 -0.1802E-10
     -2.695  0.2309E-03 -0.9835E-04 -0.2200E-05 -0.8357E-07 -0.2200E-05 -0.8357E-07 -0.2200E-05 -0.8357E-07 -0.1996E-08 -0.4096E-11 -0.1996E-08 -0.4096E-11 -0.6943E-07 -0.1846E-08 -0.1996E-08 -0.4096E-11 -0.6943E-07 -0.1846E-08
     -2.534  0.1635E-02  0.1796E-03 -0.3430E-05 -0.1877E-05 -0.3430E-05 -0.1877E-05 -0.3430E-05 -0.1877E-05 -0.9440E-07 -0.9283E-09 -0.9440E-07 -0.9283E-09 -0.8232E-07 -0.4120E-07 -0.9440E-07 -0.9283E-09 -0.8232E-07 -0.4120E-07
     -2.372  0.6799E-02  0.1480E-02  0.4155E-04 -0.4179E-05  0.4155E-04 -0.4179E-05  0.4155E-04 -0.4179E-05 -0.7886E-06 -0.5012E-07 -0.7886E-06 -0.5012E-07  0.1549E-05 -0.7725E-07 -0.7886E-06 -0.5012E-07  0.1549E-05 -0.7725E-07
     -2.210  0.1386E-01  0.6235E-02  0.1440E-03  0.3662E-04  0.1440E-03  0.3662E-04  0.1440E-03  0.3662E-04  0.2215E-05 -0.5035E-06  0.2215E-05 -0.5035E-06  0.3998E-05  0.9619E-06  0.2215E-05 -0.5035E-06  0.3998E-05  0.9619E-06
     -2.048  0.2211E-01  0.1320E-01  0.3557E-03  0.1307E-03  0.3557E-03  0.1307E-03  0.3557E-03  0.1307E-03  0.1551E-04  0.1035E-05  0.1551E-04  0.1035E-05  0.6753E-05  0.2596E-05  0.1551E-04  0.1035E-05  0.6753E-05  0.2596E-05
     -1.887  0.1995E-01  0.2140E-01  0.3986E-03  0.3409E-03  0.3986E-03  0.3409E-03  0.3986E-03  0.3409E-03  0.2742E-04  0.1000E-04  0.2742E-04  0.1000E-04  0.1405E-05  0.4475E-05  0.2742E-04  0.1000E-04  0.1405E-05  0.4475E-05
     -1.725  0.1409E-01  0.2038E-01  0.3616E-03  0.4004E-03  0.3616E-03  0.4004E-03  0.3616E-03  0.4004E-03  0.2657E-04  0.1829E-04  0.2657E-04  0.1829E-04  0.3626E-05  0.1609E-05  0.2657E-04  0.1829E-04  0.3626E-05  0.1609E-05
     -1.563  0.1131E-01  0.1452E-01  0.3708E-03  0.3712E-03  0.3708E-03  0.3712E-03  0.3708E-03  0.3712E-03  0.1273E-05  0.2084E-04  0.1273E-05  0.2084E-04  0.4738E-04  0.9995E-06  0.1273E-05  0.2084E-04  0.4738E-04  0.9995E-06
     -1.402  0.2888E-01  0.1056E-01  0.1194E-02  0.3314E-03  0.1194E-02  0.3314E-03  0.1194E-02  0.3314E-03  0.8553E-04  0.7937E-06  0.8553E-04  0.7937E-06  0.1495E-03  0.2561E-04  0.8553E-04  0.7937E-06  0.1495E-03  0.2561E-04
     -1.240  0.4774E-01  0.2399E-01  0.2152E-02  0.9869E-03  0.2152E-02  0.9869E-03  0.2152E-02  0.9869E-03  0.2388E-03  0.4015E-04  0.2388E-03  0.4015E-04  0.2219E-03  0.8117E-04  0.2388E-03  0.4015E-04  0.2219E-03  0.8117E-04
     -1.078  0.4451E-01  0.4555E-01  0.2249E-02  0.2042E-02  0.2249E-02  0.2042E-02  0.2249E-02  0.2042E-02  0.3398E-03  0.1363E-03  0.3398E-03  0.1363E-03  0.1674E-03  0.1387E-03  0.3398E-03  0.1363E-03  0.1674E-03  0.1387E-03
     -0.917  0.1606E-01  0.4616E-01  0.8339E-03  0.2341E-02  0.8339E-03  0.2341E-02  0.8339E-03  0.2341E-02  0.1337E-03  0.2266E-03  0.1337E-03  0.2266E-03  0.5285E-04  0.1138E-03  0.1337E-03  0.2266E-03  0.5285E-04  0.1138E-03
     -0.755  0.7981E-02  0.2286E-01  0.5240E-03  0.1205E-02  0.5240E-03  0.1205E-02  0.5240E-03  0.1205E-02  0.2014E-03  0.1252E-03  0.2014E-03  0.1252E-03  0.8698E-04  0.4722E-04  0.2014E-03  0.1252E-03  0.8698E-04  0.4722E-04
     -0.593  0.2760E-01  0.3714E-02  0.1951E-02  0.2486E-03  0.1951E-02  0.2486E-03  0.1951E-02  0.2486E-03  0.6366E-03  0.5339E-04  0.6366E-03  0.5339E-04  0.2685E-03  0.2090E-04  0.6366E-03  0.5339E-04  0.2685E-03  0.2090E-04
     -0.432  0.5093E-01  0.1947E-01  0.4005E-02  0.1372E-02  0.4005E-02  0.1372E-02  0.4005E-02  0.1372E-02  0.1070E-02  0.2769E-03  0.1070E-02  0.2769E-03  0.7547E-03  0.1053E-03  0.1070E-02  0.2769E-03  0.7547E-03  0.1053E-03
     -0.270  0.5152E-01  0.4228E-01  0.4481E-02  0.3306E-02  0.4481E-02  0.3306E-02  0.4481E-02  0.3306E-02  0.8734E-03  0.5958E-03  0.8734E-03  0.5958E-03  0.1557E-02  0.2680E-03  0.8734E-03  0.5958E-03  0.1557E-02  0.2680E-03
     -0.108  0.4359E-01  0.5069E-01  0.4165E-02  0.4294E-02  0.4165E-02  0.4294E-02  0.4165E-02  0.4294E-02  0.8625E-03  0.5932E-03  0.8625E-03  0.5932E-03  0.1697E-02  0.6329E-03  0.8625E-03  0.5932E-03  0.1697E-02  0.6329E-03
      0.054  0.3435E-01  0.4452E-01  0.3424E-02  0.4200E-02  0.3424E-02  0.4200E-02  0.3424E-02  0.4200E-02  0.1360E-02  0.4437E-03  0.1360E-02  0.4437E-03  0.1265E-02  0.9809E-03  0.1360E-02  0.4437E-03  0.1265E-02  0.9809E-03
      0.215  0.4459E-01  0.3909E-01  0.4623E-02  0.3934E-02  0.4623E-02  0.3934E-02  0.4623E-02  0.3934E-02  0.3334E-02  0.5638E-03  0.3334E-02  0.5638E-03  0.1992E-02  0.8312E-03  0.3334E-02  0.5638E-03  0.1992E-02  0.8312E-03
      0.377  0.6249E-01  0.2544E-01  0.6925E-02  0.2699E-02  0.6925E-02  0.2699E-02  0.6925E-02  0.2699E-02  0.5543E-02  0.6617E-03  0.5543E-02  0.6617E-03  0.3054E-02  0.3809E-03  0.5543E-02  0.6617E-03  0.3054E-02  0.3809E-03
      0.539  0.3979E-01  0.3692E-01  0.4415E-02  0.4128E-02  0.4415E-02  0.4128E-02  0.4415E-02  0.4128E-02  0.4004E-02  0.1587E-02  0.4004E-02  0.1587E-02  0.1974E-02  0.8482E-03  0.4004E-02  0.1587E-02  0.1974E-02  0.8482E-03
      0.700  0.1703E-01  0.6181E-01  0.2192E-02  0.7432E-02  0.2192E-02  0.7432E-02  0.2192E-02  0.7432E-02  0.2166E-02  0.3059E-02  0.2166E-02  0.3059E-02  0.2388E-02  0.1576E-02  0.2166E-02  0.3059E-02  0.2388E-02  0.1576E-02
      0.862  0.7511E-01  0.5024E-01  0.1071E-01  0.6218E-02  0.1071E-01  0.6218E-02  0.1071E-01  0.6218E-02  0.1401E-01  0.2602E-02  0.1401E-01  0.2602E-02  0.1502E-01  0.1154E-02  0.1401E-01  0.2602E-02  0.1502E-01  0.1154E-02
      1.024  0.1266E+00  0.3144E-02  0.1657E-01  0.3597E-03  0.1657E-01  0.3597E-03  0.1657E-01  0.3597E-03  0.4125E-01  0.5917E-05  0.4125E-01  0.5917E-05  0.4624E-01  0.8434E-04  0.4125E-01  0.5917E-05  0.4624E-01  0.8434E-04
      1.185  0.1042E+00  0.2171E-01  0.1199E-01  0.3585E-02  0.1199E-01  0.3585E-02  0.1199E-01  0.3585E-02  0.6100E-01  0.1164E-02  0.6100E-01  0.1164E-02  0.8832E-01  0.1985E-02  0.6100E-01  0.1164E-02  0.8832E-01  0.1985E-02
      1.347  0.5699E-01  0.7930E-01  0.6882E-02  0.1291E-01  0.6882E-02  0.1291E-01  0.6882E-02  0.1291E-01  0.4509E-01  0.5662E-02  0.4509E-01  0.5662E-02  0.9851E-01  0.5794E-02  0.4509E-01  0.5662E-02  0.9851E-01  0.5794E-02
      1.509  0.6739E-01  0.7822E-01  0.1471E-01  0.1286E-01  0.1471E-01  0.1286E-01  0.1471E-01  0.1286E-01  0.5108E-01  0.7052E-02  0.5108E-01  0.7052E-02  0.1565E+00  0.6381E-02  0.5108E-01  0.7052E-02  0.1565E+00  0.6381E-02
      1.670  0.1027E+00  0.4502E-01  0.2729E-01  0.7560E-02  0.2729E-01  0.7560E-02  0.2729E-01  0.7560E-02  0.8952E-01  0.5409E-02  0.8952E-01  0.5409E-02  0.2543E+00  0.5167E-02  0.8952E-01  0.5409E-02  0.2543E+00  0.5167E-02
      1.832  0.6196E-01  0.4950E-01  0.1952E-01  0.8811E-02  0.1952E-01  0.8811E-02  0.1952E-01  0.8811E-02  0.7065E-01  0.7800E-02  0.7065E-01  0.7800E-02  0.2043E+00  0.7013E-02  0.7065E-01  0.7800E-02  0.2043E+00  0.7013E-02
      1.994  0.2178E-01  0.5703E-01  0.1020E-01  0.9490E-02  0.1020E-01  0.9490E-02  0.1020E-01  0.9490E-02  0.4652E-01  0.1395E-01  0.4652E-01  0.1395E-01  0.1516E+00  0.9042E-02  0.4652E-01  0.1395E-01  0.1516E+00  0.9042E-02
      2.156  0.2071E-01  0.6642E-01  0.9471E-02  0.1018E-01  0.9471E-02  0.1018E-01  0.9471E-02  0.1018E-01  0.7072E-01  0.2520E-01  0.7072E-01  0.2520E-01  0.9345E-01  0.1284E-01  0.7072E-01  0.2520E-01  0.9345E-01  0.1284E-01
      2.317  0.1616E-01  0.6469E-01  0.1130E-01  0.9537E-02  0.1130E-01  0.9537E-02  0.1130E-01  0.9537E-02  0.6401E-01  0.3040E-01  0.6401E-01  0.3040E-01  0.7544E-01  0.1843E-01  0.6401E-01  0.3040E-01  0.7544E-01  0.1843E-01
      2.479  0.3629E-02  0.5805E-01  0.1747E-01  0.1036E-01  0.1747E-01  0.1036E-01  0.1747E-01  0.1036E-01  0.1818E+00  0.2919E-01  0.1818E+00  0.2919E-01  0.1517E+00  0.3106E-01  0.1818E+00  0.2919E-01  0.1517E+00  0.3106E-01
      2.641  0.1647E-02  0.8692E-01  0.1922E-01  0.1920E-01  0.1922E-01  0.1920E-01  0.1922E-01  0.1920E-01  0.3329E+00  0.4401E-01  0.3329E+00  0.4401E-01  0.1514E+00  0.4775E-01  0.3329E+00  0.4401E-01  0.1514E+00  0.4775E-01
      2.802  0.4439E-02  0.8930E-01  0.1564E-01  0.2063E-01  0.1564E-01  0.2063E-01  0.1564E-01  0.2063E-01  0.2767E+00  0.5257E-01  0.2767E+00  0.5257E-01  0.1050E+00  0.4370E-01  0.2767E+00  0.5257E-01  0.1050E+00  0.4370E-01
      2.964  0.9605E-02  0.4392E-01  0.1980E-01  0.1044E-01  0.1980E-01  0.1044E-01  0.1980E-01  0.1044E-01  0.2324E+00  0.3905E-01  0.2324E+00  0.3905E-01  0.1206E+00  0.5192E-01  0.2324E+00  0.3905E-01  0.1206E+00  0.5192E-01
      3.126  0.1137E-01  0.4330E-01  0.2342E-01  0.1444E-01  0.2342E-01  0.1444E-01  0.2342E-01  0.1444E-01  0.2199E+00  0.4660E-01  0.2199E+00  0.4660E-01  0.1190E+00  0.1124E+00  0.2199E+00  0.4660E-01  0.1190E+00  0.1124E+00
      3.287  0.1832E-01  0.4456E-01  0.3442E-01  0.2107E-01  0.3442E-01  0.2107E-01  0.3442E-01  0.2107E-01  0.3073E+00  0.4064E-01  0.3073E+00  0.4064E-01  0.1213E+00  0.1491E+00  0.3073E+00  0.4064E-01  0.1213E+00  0.1491E+00