 running on    4 total cores
 distrk:  each k-point on    4 cores,    1 groups
 distr:  one band on    1 cores,    4 groups
 vasp.6.2.0 18Jan21 (build Aug 12 2022 13:00:08) complex                        
  
 POSCAR found type information on POSCAR Fe
 POSCAR found :  1 types and       2 ions
 scaLAPACK will be used
 LDA part: xc-table for Pade appr. of Perdew
 -----------------------------------------------------------------------------
|                                                                             |
|           W    W    AA    RRRRR   N    N  II  N    N   GGGG   !!!           |
|           W    W   A  A   R    R  NN   N  II  NN   N  G    G  !!!           |
|           W    W  A    A  R    R  N N  N  II  N N  N  G       !!!           |
|           W WW W  AAAAAA  RRRRR   N  N N  II  N  N N  G  GGG   !            |
|           WW  WW  A    A  R   R   N   NN  II  N   NN  G    G                |
|           W    W  A    A  R    R  N    N  II  N    N   GGGG   !!!           |
|                                                                             |
|     The requested file  could not be found or opened for reading            |
|     k-point information. Automatic k-point generation is used as a          |
|     fallback, which may lead to unwanted results.                           |
|                                                                             |
 -----------------------------------------------------------------------------

 POSCAR, INCAR and KPOINTS ok, starting setup
 FFT: planning ...
 WAVECAR not read
 entering main loop
       N       E                     dE             d eps       ncg     rms          rms(c)
DAV:   1     0.654352806599E+02    0.65435E+02   -0.60191E+03  3112   0.817E+02
DAV:   2    -0.133935350621E+02   -0.78829E+02   -0.70139E+02  2868   0.169E+02
DAV:   3    -0.160656945640E+02   -0.26722E+01   -0.26251E+01  3172   0.398E+01
DAV:   4    -0.160853794245E+02   -0.19685E-01   -0.19680E-01  3064   0.319E+00
DAV:   5    -0.160856239296E+02   -0.24451E-03   -0.24450E-03  3184   0.345E-01    0.195E+01
DAV:   6    -0.165634898275E+02   -0.47787E+00   -0.51322E+00  3108   0.440E+01    0.610E+00
DAV:   7    -0.165052594714E+02    0.58230E-01   -0.38453E-01  3308   0.961E+00    0.450E+00
DAV:   8    -0.164882614998E+02    0.16998E-01   -0.10965E-02  3784   0.126E+00    0.158E+00
DAV:   9    -0.164768285107E+02    0.11433E-01   -0.34381E-03  3996   0.111E+00    0.447E-01
DAV:  10    -0.164764358811E+02    0.39263E-03   -0.19824E-03  3312   0.711E-01    0.659E-02
DAV:  11    -0.164764956518E+02   -0.59771E-04   -0.13135E-04  3272   0.932E-02    0.565E-02
DAV:  12    -0.164764738272E+02    0.21825E-04   -0.47180E-06  3224   0.228E-02    0.234E-02
DAV:  13    -0.164764761934E+02   -0.23662E-05   -0.93535E-07  2312   0.144E-02    0.125E-02
DAV:  14    -0.164764747583E+02    0.14351E-05   -0.56324E-07  1540   0.105E-02    0.124E-03
DAV:  15    -0.164764746278E+02    0.13045E-06   -0.10730E-07  1480   0.305E-03
   1 F= -.16476475E+02 E0= -.16476056E+02  d E =-.164765E+02  mag=     4.4266
 curvature:   0.00 expect dE= 0.000E+00 dE for cont linesearch  0.000E+00
 trial: gam= 0.00000 g(F)=  0.137E-61 g(S)=  0.723E-01 ort = 0.000E+00 (trialstep = 0.100E+01)
 search vector abs. value=  0.723E-01
 bond charge predicted
       N       E                     dE             d eps       ncg     rms          rms(c)
DAV:   1    -0.173192196732E+02   -0.84274E+00   -0.78448E+00  3072   0.466E+01    0.858E+00
DAV:   2    -0.165269118797E+02    0.79231E+00   -0.14077E+00  3056   0.266E+01    0.696E+00
DAV:   3    -0.164912059388E+02    0.35706E-01   -0.97303E-02  3264   0.565E+00    0.251E+00
DAV:   4    -0.164824851363E+02    0.87208E-02   -0.53631E-03  3428   0.801E-01    0.583E-01
DAV:   5    -0.164755634452E+02    0.69217E-02   -0.39289E-03  3400   0.512E-01    0.107E-01
DAV:   6    -0.164757028305E+02   -0.13939E-03   -0.36986E-04  3136   0.225E-01    0.523E-02
DAV:   7    -0.164757178149E+02   -0.14984E-04   -0.16233E-05  3128   0.450E-02    0.305E-02
DAV:   8    -0.164757126718E+02    0.51432E-05   -0.25188E-06  2808   0.191E-02    0.115E-02
DAV:   9    -0.164757106974E+02    0.19743E-05   -0.22746E-07  1444   0.101E-02    0.196E-03
DAV:  10    -0.164757107477E+02   -0.50303E-07   -0.59612E-08  1440   0.214E-03
   2 F= -.16475711E+02 E0= -.16475797E+02  d E =0.763880E-03  mag=     4.3067
 trial-energy change:    0.000764  1 .order    0.005071   -0.072338    0.082480
 step:   0.5090(harm=  0.4672)  dis= 0.00000  next Energy=   -16.495451 (dE=-0.190E-01)
 bond charge predicted
       N       E                     dE             d eps       ncg     rms          rms(c)
DAV:   1    -0.167141384888E+02   -0.23843E+00   -0.19962E+00  3052   0.244E+01    0.451E+00
DAV:   2    -0.165200973825E+02    0.19404E+00   -0.57429E-01  3096   0.146E+01    0.435E+00
DAV:   3    -0.165000926396E+02    0.20005E-01   -0.38595E-02  3200   0.392E+00    0.127E+00
DAV:   4    -0.164976939621E+02    0.23987E-02   -0.28649E-03  3732   0.677E-01    0.405E-01
DAV:   5    -0.164958277150E+02    0.18662E-02   -0.12159E-03  3036   0.319E-01    0.820E-02
DAV:   6    -0.164958546605E+02   -0.26946E-04   -0.45780E-05  3328   0.619E-02    0.271E-02
DAV:   7    -0.164958627065E+02   -0.80460E-05   -0.67057E-06  2852   0.243E-02    0.177E-02
DAV:   8    -0.164958672973E+02   -0.45908E-05   -0.10045E-06  2716   0.106E-02    0.301E-03
DAV:   9    -0.164958674094E+02   -0.11204E-06   -0.79661E-08  1420   0.225E-03
   3 F= -.16495867E+02 E0= -.16496202E+02  d E =-.193928E-01  mag=     4.3468
 curvature:  -0.23 expect dE=-0.624E-07 dE for cont linesearch -0.624E-07
 trial: gam=-0.00192 g(F)=  0.211E-61 g(S)=  0.269E-06 ort = 0.139E-03 (trialstep = 0.902E+00)
 search vector abs. value=  0.101E-09
 reached required accuracy - stopping structural energy minimisation
 writing wavefunctions
