   1   1   0   0
  0.1537015E+02  0.2712897E-09  0.2712897E-09  0.2712897E-09  0.5000000E-15
  1.000000000000000E-004
  CAR 
 unknown system                          
     34.63715086     -6.37191193  301      9.27453915      1.00000000
     -6.372  0.0000E+00  0.0000E+00
     -6.235  0.0000E+00  0.0000E+00
     -6.099  0.0000E+00  0.0000E+00
     -5.962  0.0000E+00  0.0000E+00
     -5.825  0.0000E+00  0.0000E+00
     -5.688  0.0000E+00  0.0000E+00
     -5.552  0.0000E+00  0.0000E+00
     -5.415  0.0000E+00  0.0000E+00
     -5.278  0.0000E+00  0.0000E+00
     -5.142  0.0000E+00  0.0000E+00
     -5.005  0.0000E+00  0.0000E+00
     -4.868  0.0000E+00  0.0000E+00
     -4.732  0.1376E-13  0.1881E-14
     -4.595  0.7627E-06  0.1043E-06
     -4.458  0.1004E-03  0.1383E-04
     -4.321  0.7523E-04  0.2411E-04
     -4.185  0.1235E-02  0.1930E-03
     -4.048  0.1541E-03  0.2141E-03
     -3.911  0.5221E-03  0.2854E-03
     -3.775  0.1342E-02  0.4689E-03
     -3.638  0.1298E-02  0.6464E-03
     -3.501  0.1062E-02  0.7916E-03
     -3.365  0.2965E-03  0.8321E-03
     -3.228  0.2483E-02  0.1172E-02
     -3.091  0.2010E-03  0.1199E-02
     -2.954  0.7879E-03  0.1307E-02
     -2.818  0.1788E-02  0.1551E-02
     -2.681  0.3491E-02  0.2028E-02
     -2.544  0.4455E-03  0.2089E-02
     -2.408  0.2383E-03  0.2122E-02
     -2.271  0.3579E-02  0.2611E-02
     -2.134  0.4915E-03  0.2678E-02
     -1.998  0.2468E-02  0.3016E-02
     -1.861  0.6566E-03  0.3105E-02
     -1.724  0.2013E-02  0.3381E-02
     -1.588  0.1521E-02  0.3589E-02
     -1.451  0.1142E-02  0.3745E-02
     -1.314  0.6837E-02  0.4679E-02
     -1.177  0.1054E-02  0.4823E-02
     -1.041  0.7713E-08  0.4823E-02
     -0.904  0.9832E-03  0.4958E-02
     -0.767  0.4286E-02  0.5544E-02
     -0.631  0.7186E-03  0.5642E-02
     -0.494  0.6203E-03  0.5727E-02
     -0.357  0.4471E-02  0.6338E-02
     -0.221  0.8948E-03  0.6460E-02
     -0.084  0.3120E-02  0.6887E-02
      0.053  0.1529E-02  0.7096E-02
      0.190  0.6449E-02  0.7977E-02
      0.326  0.1404E-02  0.8169E-02
      0.463  0.1264E-02  0.8342E-02
      0.600  0.4627E-02  0.8975E-02
      0.736  0.7304E-03  0.9075E-02
      0.873  0.2490E-02  0.9415E-02
      1.010  0.1325E-02  0.9596E-02
      1.146  0.3996E-02  0.1014E-01
      1.283  0.5408E-03  0.1022E-01
      1.420  0.4093E-03  0.1027E-01
      1.557  0.8376E-02  0.1142E-01
      1.693  0.1148E-02  0.1157E-01
      1.830  0.2274E-02  0.1188E-01
      1.967  0.3942E-02  0.1242E-01
      2.103  0.6626E-02  0.1333E-01
      2.240  0.4423E-02  0.1393E-01
      2.377  0.9295E-03  0.1406E-01
      2.513  0.2496E-02  0.1440E-01
      2.650  0.1333E-02  0.1458E-01
      2.787  0.1364E-02  0.1477E-01
      2.923  0.3420E-02  0.1524E-01
      3.060  0.1930E-02  0.1550E-01
      3.197  0.3280E-02  0.1595E-01
      3.334  0.3014E-02  0.1636E-01
      3.470  0.4805E-02  0.1702E-01
      3.607  0.4456E-02  0.1763E-01
      3.744  0.5780E-02  0.1842E-01
      3.880  0.3572E-03  0.1847E-01
      4.017  0.8759E-03  0.1859E-01
      4.154  0.8212E-02  0.1971E-01
      4.290  0.2789E-02  0.2009E-01
      4.427  0.2253E-02  0.2040E-01
      4.564  0.7281E-03  0.2050E-01
      4.701  0.7422E-02  0.2151E-01
      4.837  0.2704E-02  0.2188E-01
      4.974  0.3600E-02  0.2237E-01
      5.111  0.2170E-02  0.2267E-01
      5.247  0.3127E-02  0.2310E-01
      5.384  0.9006E-03  0.2322E-01
      5.521  0.4810E-02  0.2388E-01
      5.657  0.4819E-02  0.2454E-01
      5.794  0.3896E-02  0.2507E-01
      5.931  0.1980E-02  0.2534E-01
      6.068  0.8346E-02  0.2648E-01
      6.204  0.3441E-02  0.2695E-01
      6.341  0.5199E-02  0.2766E-01
      6.478  0.2087E-02  0.2795E-01
      6.614  0.3366E-02  0.2841E-01
      6.751  0.4991E-02  0.2909E-01
      6.888  0.1976E-02  0.2936E-01
      7.024  0.5977E-02  0.3018E-01
      7.161  0.6563E-02  0.3107E-01
      7.298  0.1685E-02  0.3131E-01
      7.434  0.4663E-02  0.3194E-01
      7.571  0.1072E-02  0.3209E-01
      7.708  0.5020E-02  0.3278E-01
      7.845  0.5554E-02  0.3353E-01
      7.981  0.1471E-02  0.3374E-01
      8.118  0.7232E-02  0.3472E-01
      8.255  0.5639E-02  0.3550E-01
      8.391  0.5414E-02  0.3624E-01
      8.528  0.2033E-02  0.3651E-01
      8.665  0.2403E-02  0.3684E-01
      8.801  0.3162E-02  0.3727E-01
      8.938  0.4534E-02  0.3789E-01
      9.075  0.8420E-02  0.3904E-01
      9.212  0.2717E-02  0.3942E-01
      9.348  0.9734E-02  0.4075E-01
      9.485  0.6315E-02  0.4161E-01
      9.622  0.7237E-02  0.4260E-01
      9.758  0.7990E-03  0.4271E-01
      9.895  0.4932E-02  0.4338E-01
     10.032  0.2989E-02  0.4379E-01
     10.168  0.2486E-02  0.4413E-01
     10.305  0.4989E-02  0.4481E-01
     10.442  0.6844E-02  0.4575E-01
     10.579  0.1703E-02  0.4598E-01
     10.715  0.3350E-02  0.4644E-01
     10.852  0.2783E-02  0.4682E-01
     10.989  0.6852E-02  0.4776E-01
     11.125  0.4402E-02  0.4836E-01
     11.262  0.2079E-02  0.4864E-01
     11.399  0.4433E-02  0.4925E-01
     11.535  0.8909E-02  0.5047E-01
     11.672  0.3637E-02  0.5096E-01
     11.809  0.1171E-01  0.5256E-01
     11.945  0.2926E-02  0.5296E-01
     12.082  0.1800E-02  0.5321E-01
     12.219  0.2276E-02  0.5352E-01
     12.356  0.1282E-02  0.5370E-01
     12.492  0.7074E-02  0.5466E-01
     12.629  0.7331E-02  0.5567E-01
     12.766  0.2318E-02  0.5598E-01
     12.902  0.6312E-02  0.5684E-01
     13.039  0.9408E-02  0.5813E-01
     13.176  0.6414E-02  0.5901E-01
     13.312  0.2674E-02  0.5937E-01
     13.449  0.2775E-02  0.5975E-01
     13.586  0.5631E-02  0.6052E-01
     13.723  0.9015E-02  0.6175E-01
     13.859  0.2577E-02  0.6211E-01
     13.996  0.3074E-02  0.6253E-01
     14.133  0.1797E-02  0.6277E-01
     14.269  0.1932E-02  0.6304E-01
     14.406  0.7151E-02  0.6401E-01
     14.543  0.5863E-02  0.6482E-01
     14.679  0.4505E-02  0.6543E-01
     14.816  0.1230E-01  0.6711E-01
     14.953  0.8973E-02  0.6834E-01
     15.089  0.7513E-02  0.6937E-01
     15.226  0.5754E-02  0.7015E-01
     15.363  0.2329E-02  0.7047E-01
     15.500  0.1321E-02  0.7065E-01
     15.636  0.4736E-02  0.7130E-01
     15.773  0.6479E-02  0.7218E-01
     15.910  0.8215E-02  0.7331E-01
     16.046  0.5435E-02  0.7405E-01
     16.183  0.1025E-01  0.7545E-01
     16.320  0.5429E-02  0.7619E-01
     16.456  0.1276E-02  0.7637E-01
     16.593  0.6456E-02  0.7725E-01
     16.730  0.5129E-02  0.7795E-01
     16.867  0.9000E-02  0.7918E-01
     17.003  0.7267E-02  0.8018E-01
     17.140  0.6078E-02  0.8101E-01
     17.277  0.6140E-02  0.8185E-01
     17.413  0.3231E-02  0.8229E-01
     17.550  0.6197E-02  0.8314E-01
     17.687  0.3975E-02  0.8368E-01
     17.823  0.3035E-02  0.8409E-01
     17.960  0.5026E-03  0.8416E-01
     18.097  0.4258E-03  0.8422E-01
     18.234  0.1711E-02  0.8445E-01
     18.370  0.5564E-02  0.8521E-01
     18.507  0.8866E-03  0.8534E-01
     18.644  0.2211E-02  0.8564E-01
     18.780  0.7610E-02  0.8668E-01
     18.917  0.1125E-01  0.8822E-01
     19.054  0.7611E-02  0.8926E-01
     19.190  0.5191E-02  0.8997E-01
     19.327  0.1359E-01  0.9182E-01
     19.464  0.3602E-02  0.9232E-01
     19.600  0.8757E-02  0.9351E-01
     19.737  0.3362E-02  0.9397E-01
     19.874  0.3412E-02  0.9444E-01
     20.011  0.2482E-02  0.9478E-01
     20.147  0.1629E-02  0.9500E-01
     20.284  0.1099E-01  0.9650E-01
     20.421  0.1752E-01  0.9890E-01
     20.557  0.1963E-02  0.9917E-01
     20.694  0.5018E-02  0.9985E-01
     20.831  0.5384E-02  0.1006E+00
     20.967  0.8873E-02  0.1018E+00
     21.104  0.8233E-02  0.1029E+00
     21.241  0.9284E-02  0.1042E+00
     21.378  0.6361E-02  0.1051E+00
     21.514  0.4298E-03  0.1051E+00
     21.651  0.3181E-02  0.1056E+00
     21.788  0.1114E-01  0.1071E+00
     21.924  0.9673E-02  0.1084E+00
     22.061  0.5485E-02  0.1092E+00
     22.198  0.4405E-02  0.1098E+00
     22.334  0.9217E-02  0.1110E+00
     22.471  0.5245E-02  0.1117E+00
     22.608  0.6292E-02  0.1126E+00
     22.745  0.9192E-02  0.1138E+00
     22.881  0.7244E-02  0.1148E+00
     23.018  0.4925E-02  0.1155E+00
     23.155  0.2882E-02  0.1159E+00
     23.291  0.3764E-02  0.1164E+00
     23.428  0.8792E-02  0.1176E+00
     23.565  0.6983E-02  0.1186E+00
     23.701  0.5590E-02  0.1193E+00
     23.838  0.7813E-02  0.1204E+00
     23.975  0.6289E-02  0.1213E+00
     24.111  0.2941E-02  0.1217E+00
     24.248  0.5423E-02  0.1224E+00
     24.385  0.4819E-02  0.1231E+00
     24.522  0.2585E-02  0.1234E+00
     24.658  0.2748E-02  0.1238E+00
     24.795  0.5884E-02  0.1246E+00
     24.932  0.1203E-01  0.1262E+00
     25.068  0.1270E-01  0.1280E+00
     25.205  0.9208E-02  0.1292E+00
     25.342  0.2594E-02  0.1296E+00
     25.478  0.4011E-02  0.1301E+00
     25.615  0.7262E-02  0.1311E+00
     25.752  0.6766E-02  0.1321E+00
     25.889  0.8112E-02  0.1332E+00
     26.025  0.5245E-02  0.1339E+00
     26.162  0.6681E-02  0.1348E+00
     26.299  0.8388E-02  0.1359E+00
     26.435  0.5692E-02  0.1367E+00
     26.572  0.1197E-01  0.1384E+00
     26.709  0.2584E-02  0.1387E+00
     26.845  0.6652E-02  0.1396E+00
     26.982  0.1899E-02  0.1399E+00
     27.119  0.6479E-02  0.1408E+00
     27.256  0.4776E-02  0.1414E+00
     27.392  0.1456E-02  0.1416E+00
     27.529  0.4045E-02  0.1422E+00
     27.666  0.5373E-02  0.1429E+00
     27.802  0.1717E-01  0.1453E+00
     27.939  0.1463E-01  0.1473E+00
     28.076  0.7103E-02  0.1482E+00
     28.212  0.2565E-02  0.1486E+00
     28.349  0.7544E-02  0.1496E+00
     28.486  0.6613E-02  0.1505E+00
     28.622  0.6890E-02  0.1515E+00
     28.759  0.7195E-02  0.1524E+00
     28.896  0.1956E-02  0.1527E+00
     29.033  0.6357E-02  0.1536E+00
     29.169  0.4085E-02  0.1541E+00
     29.306  0.7467E-02  0.1552E+00
     29.443  0.7837E-02  0.1562E+00
     29.579  0.5853E-02  0.1570E+00
     29.716  0.1822E-02  0.1573E+00
     29.853  0.2908E-02  0.1577E+00
     29.989  0.5006E-02  0.1584E+00
     30.126  0.1299E-03  0.1584E+00
     30.263  0.1447E-10  0.1584E+00
     30.400  0.9902E-05  0.1584E+00
     30.536  0.4059E-02  0.1589E+00
     30.673  0.4316E-02  0.1595E+00
     30.810  0.4090E-03  0.1596E+00
     30.946  0.1666E-08  0.1596E+00
     31.083  0.0000E+00  0.1596E+00
     31.220  0.4565E-10  0.1596E+00
     31.356  0.6423E-04  0.1596E+00
     31.493  0.8082E-03  0.1597E+00
     31.630  0.6960E-05  0.1597E+00
     31.767  0.1496E-12  0.1597E+00
     31.903  0.0000E+00  0.1597E+00
     32.040  0.0000E+00  0.1597E+00
     32.177  0.1111E-14  0.1597E+00
     32.313  0.6490E-06  0.1597E+00
     32.450  0.5137E-03  0.1598E+00
     32.587  0.4313E-03  0.1598E+00
     32.723  0.4437E-03  0.1599E+00
     32.860  0.8031E-03  0.1600E+00
     32.997  0.6102E-05  0.1600E+00
     33.133  0.1101E-12  0.1600E+00
     33.270  0.0000E+00  0.1600E+00
     33.407  0.0000E+00  0.1600E+00
     33.544  0.0000E+00  0.1600E+00
     33.680  0.0000E+00  0.1600E+00
     33.817  0.0000E+00  0.1600E+00
     33.954  0.0000E+00  0.1600E+00
     34.090  0.0000E+00  0.1600E+00
     34.227  0.0000E+00  0.1600E+00
     34.364  0.0000E+00  0.1600E+00
     34.500  0.0000E+00  0.1600E+00
     34.637  0.0000E+00  0.1600E+00
