    1    1  100    1
  0.1537015E+02  0.2712897E-09  0.2712897E-09  0.2712897E-09  0.5000000E-15
  1.000000000000000E-004
  CAR 
 unknown system                          
      4     56      8
 
  0.0000000E+00  0.0000000E+00  0.0000000E+00  0.7513148E-03
    1       -4.507864   1.000000
    2       20.026713   0.000000
    3       20.026713   0.000000
    4       20.026713   0.000000
    5       21.605151   0.000000
    6       21.605151   0.000000
    7       21.605151   0.000000
    8       25.186504   0.000000
 
  0.9090909E-01  0.0000000E+00  0.0000000E+00  0.9015778E-02
    1       -4.263432   1.000000
    2       17.776655   0.000000
    3       18.591762   0.000000
    4       19.723332   0.000000
    5       20.867062   0.000000
    6       22.286649   0.000000
    7       23.458924   0.000000
    8       24.077912   0.000000
 
  0.1818182E+00  0.0000000E+00  0.0000000E+00  0.9015778E-02
    1       -3.531890   1.000000
    2       14.185464   0.000000
    3       16.979941   0.000000
    4       18.964964   0.000000
    5       19.493374   0.000000
    6       21.289776   0.000000
    7       24.749195   0.000000
    8       25.072231   0.000000
 
  0.2727273E+00  0.0000000E+00  0.0000000E+00  0.9015778E-02
    1       -2.318710   1.000000
    2       10.534471   0.000000
    3       15.746902   0.000000
    4       18.113093   0.000000
    5       18.250843   0.000000
    6       20.118624   0.000000
    7       25.829881   0.000000
    8       26.123260   0.000000
 
  0.3636364E+00  0.0000000E+00  0.0000000E+00  0.9015778E-02
    1       -0.634104   1.000000
    2        7.151310   1.000000
    3       14.921286   0.000000
    4       17.368544   0.000000
    5       17.445475   0.000000
    6       19.288167   0.000000
    7       27.097824   0.000000
    8       27.730206   0.000000
 
  0.4545455E+00  0.0000000E+00  0.0000000E+00  0.9015778E-02
    1        1.494604   1.000000
    2        4.158772   1.000000
    3       14.508221   0.000000
    4       16.915552   0.000000
    5       17.089350   0.000000
    6       18.861642   0.000000
    7       28.619584   0.000000
    8       29.223074   0.000000
 
  0.9090909E-01  0.9090909E-01  0.0000000E+00  0.1803156E-01
    1       -3.775430   1.000000
    2       15.825882   0.000000
    3       16.480557   0.000000
    4       18.334975   0.000000
    5       21.028492   0.000000
    6       22.389653   0.000000
    7       23.586880   0.000000
    8       24.731696   0.000000
 
  0.1818182E+00  0.9090909E-01 -0.2775558E-16  0.3606311E-01
    1       -2.803024   1.000000
    2       12.475286   0.000000
    3       14.744655   0.000000
    4       17.115462   0.000000
    5       20.376145   0.000000
    6       21.835733   0.000000
    7       24.139573   0.000000
    8       26.507144   0.000000
 
  0.2727273E+00  0.9090909E-01  0.2775558E-16  0.3606311E-01
    1       -1.353752   1.000000
    2        8.964663   1.000000
    3       13.654687   0.000000
    4       16.142947   0.000000
    5       19.514676   0.000000
    6       21.327759   0.000000
    7       24.993360   0.000000
    8       28.293738   0.000000
 
  0.3636364E+00  0.9090909E-01 -0.2775558E-16  0.3606311E-01
    1        0.557997   1.000000
    2        5.771526   1.000000
    3       13.002443   0.000000
    4       15.531293   0.000000
    5       18.923526   0.000000
    6       20.913728   0.000000
    7       26.449987   0.000000
    8       29.331057   0.000000
 
  0.4545455E+00  0.9090909E-01 -0.5551115E-16  0.1803156E-01
    1        2.651559   1.000000
    2        3.245788   1.000000
    3       12.784366   0.000000
    4       15.323216   0.000000
    5       18.719039   0.000000
    6       20.757844   0.000000
    7       28.139284   0.000000
    8       28.332410   0.000000
 
  0.1818182E+00  0.1818182E+00 -0.1387779E-16  0.1803156E-01
    1       -1.594296   1.000000
    2       10.925436   0.000000
    3       11.470179   0.000000
    4       15.946945   0.000000
    5       20.889110   0.000000
    6       21.937297   0.000000
    7       25.629474   0.000000
    8       26.807659   0.000000
 
  0.2727273E+00  0.1818182E+00 -0.2775558E-16  0.3606311E-01
    1        0.084124   1.000000
    2        7.818987   1.000000
    3       10.331846   0.000000
    4       15.141684   0.000000
    5       20.597247   0.000000
    6       22.637389   0.000000
    7       25.878303   0.000000
    8       28.495160   0.000000
 
  0.3636364E+00  0.1818182E+00  0.0000000E+00  0.3606311E-01
    1        2.204855   1.000000
    2        4.853002   1.000000
    3        9.870908   0.000000
    4       14.728351   0.000000
    5       20.260479   0.000000
    6       23.428390   0.000000
    7       26.271989   0.000000
    8       27.977515   0.000000
 
  0.2727273E+00  0.2727273E+00  0.0000000E+00  0.1803156E-01
    1        1.979212   1.000000
    2        6.920187   1.000000
    3        7.401190   1.000000
    4       14.535146   0.000000
    5       21.745766   0.000000
    6       22.830942   0.000000
    7       26.548066   0.000000
    8       28.722071   0.000000
 
  0.3636364E+00  0.2727273E+00  0.0000000E+00  0.1803156E-01
    1        4.046766   1.000000
    2        4.636388   1.000000
    3        6.962965   1.000000
    4       14.328943   0.000000
    5       21.916903   0.000000
    6       23.949564   0.000000
    7       25.037460   0.000000
    8       29.551484   0.000000
 
  0.9090909E-01  0.9090909E-01  0.9090909E-01  0.6010518E-02
    1       -3.045710   1.000000
    2       13.977872   0.000000
    3       15.046798   0.000000
    4       15.046798   0.000000
    5       22.789098   0.000000
    6       22.789098   0.000000
    7       25.016990   0.000000
    8       25.016990   0.000000
 
  0.1818182E+00  0.9090909E-01  0.9090909E-01  0.1803156E-01
    1       -1.835520   1.000000
    2       10.939176   0.000000
    3       13.132322   0.000000
    4       13.808996   0.000000
    5       22.649545   0.000000
    6       23.095048   0.000000
    7       26.078423   0.000000
    8       26.257132   0.000000
 
  0.2727273E+00  0.9090909E-01  0.9090909E-01  0.1803156E-01
    1       -0.154992   1.000000
    2        7.603270   1.000000
    3       12.214361   0.000000
    4       12.945891   0.000000
    5       22.303053   0.000000
    6       22.561538   0.000000
    7       27.524283   0.000000
    8       27.892303   0.000000
 
  0.3636364E+00  0.9090909E-01  0.9090909E-01  0.1803156E-01
    1        1.968625   1.000000
    2        4.623856   1.000000
    3       11.767433   0.000000
    4       12.505547   0.000000
    5       22.055039   0.000000
    6       22.226733   0.000000
    7       28.923543   0.000000
    8       29.444480   0.000000
 
 -0.9090909E-01  0.9090909E-01  0.9090909E-01  0.4507889E-02
    1       -4.019254   1.000000
    2       17.330608   0.000000
    3       17.330608   0.000000
    4       18.386507   0.000000
    5       21.668217   0.000000
    6       22.085789   0.000000
    7       23.172664   0.000000
    8       23.172664   0.000000
 
  0.1818182E+00  0.1818182E+00  0.9090909E-01  0.1803156E-01
    1       -0.393576   1.000000
    2        9.583133   0.000000
    3       10.168386   0.000000
    4       12.429099   0.000000
    5       23.642733   0.000000
    6       24.589527   0.000000
    7       26.734973   0.000000
    8       27.612276   0.000000
 
  0.2727273E+00  0.1818182E+00  0.9090909E-01  0.3606311E-01
    1        1.508188   1.000000
    2        6.679194   1.000000
    3        9.227673   0.907511
    4       11.756827   0.000000
    5       23.777696   0.000000
    6       25.129268   0.000000
    7       27.789919   0.000000
    8       29.172035   0.000000
 
  0.3636364E+00  0.1818182E+00  0.9090909E-01  0.1803156E-01
    1        3.590209   1.000000
    2        4.178413   1.000000
    3        8.990517   1.000000
    4       11.533439   0.000000
    5       23.710412   0.000000
    6       25.312002   0.000000
    7       28.682489   0.000000
    8       29.336188   0.000000
 
 -0.1818182E+00  0.1818182E+00  0.9090909E-01  0.1803156E-01
    1       -3.288532   1.000000
    2       14.309735   0.000000
    3       15.726485   0.000000
    4       17.693227   0.000000
    5       20.363434   0.000000
    6       21.149942   0.000000
    7       23.448924   0.000000
    8       25.597158   0.000000
 
  0.2727273E+00  0.2727273E+00  0.9090909E-01  0.1803156E-01
    1        3.599894   1.000000
    2        6.023031   1.000000
    3        6.496986   1.000000
    4       11.301812   0.000000
    5       24.909348   0.000000
    6       26.337924   0.000000
    7       27.952977   0.000000
    8       29.920441   0.000000
 
 -0.2727273E+00  0.2727273E+00  0.9090909E-01  0.1803156E-01
    1       -2.076744   1.000000
    2       10.736051   0.000000
    3       14.466544   0.000000
    4       16.839761   0.000000
    5       19.966208   0.000000
    6       20.288905   0.000000
    7       23.304008   0.000000
    8       28.740352   0.000000
 
 -0.1818182E+00  0.2727273E+00  0.9090909E-01  0.1803156E-01
    1       -2.318353   1.000000
    2       12.626850   0.000000
    3       13.051082   0.000000
    4       17.208527   0.000000
    5       19.271666   0.000000
    6       20.766472   0.000000
    7       25.025719   0.000000
    8       26.034366   0.000000
 
 -0.3636364E+00  0.3636364E+00  0.9090909E-01  0.1803156E-01
    1       -0.394133   1.000000
    2        7.374179   1.000000
    3       13.614874   0.000000
    4       16.087455   0.000000
    5       19.118056   0.000000
    6       20.314654   0.000000
    7       23.911328   0.000000
    8       29.031859   0.000000
 
 -0.2727273E+00  0.3636364E+00  0.9090909E-01  0.3606311E-01
    1       -0.872518   1.000000
    2        9.384672   0.000920
    3       11.770155   0.000000
    4       16.729961   0.000000
    5       19.252247   0.000000
    6       20.305983   0.000000
    7       24.820183   0.000000
    8       27.891089   0.000000
 
 -0.4545455E+00  0.4545455E+00  0.9090909E-01  0.1803156E-01
    1        1.732150   1.000000
    2        4.389632   1.000000
    3       13.186476   0.000000
    4       15.682496   0.000000
    5       18.681744   0.000000
    6       20.212809   0.000000
    7       25.395187   0.000000
    8       27.388163   0.000000
 
 -0.3636364E+00  0.4545455E+00  0.9090909E-01  0.3606311E-01
    1        1.034465   1.000000
    2        6.224388   1.000000
    3       11.098476   0.000000
    4       16.229205   0.000000
    5       18.922040   0.000000
    6       21.184219   0.000000
    7       24.374828   0.000000
    8       27.018030   0.000000
 
 -0.2727273E+00  0.4545455E+00  0.9090909E-01  0.1803156E-01
    1        0.799111   1.000000
    2        8.275476   1.000000
    3        8.728708   1.000000
    4       16.969087   0.000000
    5       19.427609   0.000000
    6       19.789928   0.000000
    7       25.491105   0.000000
    8       27.759760   0.000000
 
 -0.4545455E+00 -0.4545455E+00  0.9090909E-01  0.1803156E-01
    1        3.127922   1.000000
    2        3.704696   1.000000
    3       10.874566   0.000000
    4       16.043019   0.000000
    5       18.742958   0.000000
    6       21.895763   0.000000
    7       24.257249   0.000000
    8       26.020803   0.000000
 
 -0.3636364E+00 -0.4545455E+00  0.9090909E-01  0.3606311E-01
    1        2.910006   1.000000
    2        5.533185   1.000000
    3        8.070492   1.000000
    4       16.845473   0.000000
    5       19.268660   0.000000
    6       21.035453   0.000000
    7       23.306203   0.000000
    8       28.489746   0.000000
 
 -0.3636364E+00 -0.3636364E+00  0.9090909E-01  0.6010518E-02
    1        4.781681   1.000000
    2        5.546297   1.000000
    3        5.546297   1.000000
    4       16.936873   0.000000
    5       20.542316   0.000000
    6       21.169805   0.000000
    7       21.169805   0.000000
    8       31.407816   0.000000
 
  0.1818182E+00  0.1818182E+00  0.1818182E+00  0.6010518E-02
    1        1.273195   1.000000
    2        8.486754   1.000000
    3        9.276149   0.481841
    4        9.276149   0.481841
    5       26.194190   0.000000
    6       26.194190   0.000000
    7       28.353830   0.000000
    8       28.353830   0.000000
 
  0.2727273E+00  0.1818182E+00  0.1818182E+00  0.1803156E-01
    1        3.375906   1.000000
    2        5.993254   1.000000
    3        8.355253   1.000000
    4        8.825236   1.000000
    5       26.799823   0.000000
    6       27.144689   0.000000
    7       29.558181   0.000000
    8       29.760125   0.000000
 
 -0.1818182E+00  0.1818182E+00  0.1818182E+00  0.4507889E-02
    1       -2.560292   1.000000
    2       14.101731   0.000000
    3       14.101731   0.000000
    4       15.658293   0.000000
    5       17.830204   0.000000
    6       23.509958   0.000000
    7       24.827689   0.000000
    8       24.827689   0.000000
 
  0.2727273E+00  0.2727273E+00  0.1818182E+00  0.6010518E-02
    1        5.193990   1.000000
    2        6.041186   1.000000
    3        6.041186   1.000000
    4        8.390023   1.000000
    5       27.861231   0.000000
    6       29.235042   0.000000
    7       29.235043   0.000000
    8       30.645283   0.000000
 
 -0.2727273E+00  0.2727273E+00  0.1818182E+00  0.1803156E-01
    1       -1.352755   1.000000
    2       11.290528   0.000000
    3       12.820658   0.000000
    4       15.043215   0.000000
    5       17.244089   0.000000
    6       22.890075   0.000000
    7       24.821256   0.000000
    8       27.527343   0.000000
 
 -0.3636364E+00  0.3636364E+00  0.1818182E+00  0.1803156E-01
    1        0.323766   1.000000
    2        8.031838   1.000000
    3       11.955622   0.000000
    4       14.368708   0.000000
    5       18.269877   0.000000
    6       22.094753   0.000000
    7       23.846091   0.000000
    8       26.565532   0.000000
 
 -0.2727273E+00  0.3636364E+00  0.1818182E+00  0.1803156E-01
    1        0.085914   1.000000
    2       10.019270   0.000000
    3       10.372404   0.000000
    4       15.054887   0.000000
    5       16.483938   0.000000
    6       22.643235   0.000000
    7       24.869317   0.000000
    8       27.165418   0.000000
 
 -0.4545455E+00  0.4545455E+00  0.1818182E+00  0.1803156E-01
    1        2.442162   1.000000
    2        5.078270   1.000000
    3       11.521054   0.000000
    4       13.958072   0.000000
    5       19.706354   0.000000
    6       21.677253   0.000000
    7       22.500337   0.000000
    8       25.656491   0.000000
 
 -0.3636364E+00  0.4545455E+00  0.1818182E+00  0.3606311E-01
    1        1.982461   1.000000
    2        7.112747   1.000000
    3        9.544683   0.000000
    4       14.893421   0.000000
    5       17.496588   0.000000
    6       21.666832   0.000000
    7       22.888958   0.000000
    8       27.734444   0.000000
 
 -0.4545455E+00 -0.4545455E+00  0.1818182E+00  0.1803156E-01
    1        4.071853   1.000000
    2        4.616886   1.000000
    3        9.315597   0.122764
    4       14.728334   0.000000
    5       18.827811   0.000000
    6       20.290052   0.000000
    7       22.338670   0.000000
    8       27.711574   0.000000
 
 -0.3636364E+00 -0.4545455E+00  0.1818182E+00  0.1803156E-01
    1        4.068943   1.000000
    2        6.477729   1.000000
    3        6.886689   1.000000
    4       16.057093   0.000000
    5       17.614753   0.000000
    6       19.544812   0.000000
    7       22.281705   0.000000
    8       30.494944   0.000000
 
 -0.2727273E+00  0.2727273E+00  0.2727273E+00  0.4507889E-02
    1       -0.152576   1.000000
    2       11.528591   0.000000
    3       11.528591   0.000000
    4       13.236137   0.000000
    5       14.888961   0.000000
    6       24.502394   0.000000
    7       25.850977   0.000000
    8       26.966506   0.000000
 
 -0.3636364E+00  0.3636364E+00  0.2727273E+00  0.1803156E-01
    1        1.512778   1.000000
    2        9.060953   1.000000
    3       10.655999   0.000000
    4       12.897700   0.000000
    5       14.921855   0.000000
    6       21.690745   0.000000
    7       25.542783   0.000000
    8       27.745589   0.000000
 
 -0.4545455E+00  0.4545455E+00  0.2727273E+00  0.1803156E-01
    1        3.615038   1.000000
    2        6.207717   1.000000
    3       10.218147   0.000000
    4       12.568605   0.000000
    5       16.543653   0.000000
    6       19.100027   0.000000
    7       25.154086   0.000000
    8       27.858237   0.000000
 
 -0.3636364E+00  0.4545455E+00  0.2727273E+00  0.1803156E-01
    1        3.390160   1.000000
    2        8.232956   1.000000
    3        8.562763   1.000000
    4       13.388527   0.000000
    5       14.584891   0.000000
    6       18.831947   0.000000
    7       25.850402   0.000000
    8       29.919402   0.000000
 
 -0.4545455E+00 -0.4545455E+00  0.2727273E+00  0.1803156E-01
    1        5.459082   1.000000
    2        5.962695   1.000000
    3        8.194354   1.000000
    4       13.545711   0.000000
    5       15.865320   0.000000
    6       16.690886   0.000000
    7       25.733696   0.000000
    8       30.521967   0.000000
 
 -0.3636364E+00  0.3636364E+00  0.3636364E+00  0.4507889E-02
    1        3.159458   1.000000
    2        9.780265   0.000000
    3        9.780265   0.000000
    4       11.486166   0.000000
    5       12.912964   0.000000
    6       18.602619   0.000000
    7       29.005615   0.000000
    8       29.727032   0.000000
 
 -0.4545455E+00  0.4545455E+00  0.3636364E+00  0.1803156E-01
    1        5.229045   1.000000
    2        7.710944   1.000000
    3        9.340617   0.030814
    4       11.513430   0.000000
    5       13.493727   0.000000
    6       15.850608   0.000000
    7       28.949384   0.000000
    8       30.623896   0.000000
 
 -0.4545455E+00 -0.4545455E+00  0.3636364E+00  0.6010518E-02
    1        7.110141   1.000000
    2        7.653000   1.000000
    3        7.653000   1.000000
    4       12.161137   0.000000
    5       13.629104   0.000000
    6       13.629104   0.000000
    7       29.447949   0.000000
    8       32.773103   0.000000
 
 -0.4545455E+00  0.4545455E+00  0.4545455E+00  0.4507889E-02
    1        7.211935   1.000000
    2        8.900347   1.000000
    3        8.900347   1.000000
    4       10.454573   0.000000
    5       11.922843   0.000000
    6       13.136680   0.000000
    7       32.422729   0.000000
    8       32.592605   0.000000
