       N       E                     dE             d eps       ncg     rms          rms(c)
DAV:   1    -0.338660281225E+01   -0.33866E+01   -0.13741E+03   992   0.272E+02
DAV:   2    -0.488046997735E+01   -0.14939E+01   -0.13605E+01  1312   0.222E+01
DAV:   3    -0.488795137398E+01   -0.74814E-02   -0.74813E-02  1080   0.160E+00
DAV:   4    -0.488795758220E+01   -0.62082E-05   -0.62065E-05  1368   0.471E-02
DAV:   5    -0.488795758250E+01   -0.30406E-09   -0.14255E-08  1080   0.415E-04    0.235E+00
DAV:   6    -0.487714661287E+01    0.10811E-01   -0.41543E-03   920   0.281E-01    0.129E+00
DAV:   7    -0.487118272103E+01    0.59639E-02   -0.81494E-03   992   0.391E-01    0.128E-01
DAV:   8    -0.487116975863E+01    0.12962E-04   -0.38520E-05  1256   0.461E-02    0.134E-02
DAV:   9    -0.487117052235E+01   -0.76372E-06   -0.46686E-07  1104   0.391E-03
   1 F= -.48711705E+01 E0= -.48706119E+01  d E =-.487117E+01
