 vasp.6.2.0 18Jan21 (build Aug 12 2022 13:00:08) complex                        
  
 executed on             LinuxIFC date 2024.11.05  05:45:47
 running on    4 total cores
 distrk:  each k-point on    4 cores,    1 groups
 distr:  one band on NCORE=   1 cores,    4 groups


--------------------------------------------------------------------------------------------------------


 INCAR:
   ISTART = 0            (Read existing wavefunction, if there)
   ISPIN = 1            (Non-Spin polarised DFT)
   LREAL = .FALSE.       (Projection operators: automatic)
   LWAVE = .FALSE.        (Write WAVECAR or not)
   LCHARG = .FALSE.        (Write CHGCAR or not)
   ADDGRID = .TRUE.        (Increase grid, helps GGA convergence)
   LASPH = .TRUE.        (Give more accurate total energies and band structure calculations)
   PREC = Accurate      (Accurate strictly avoids any aliasing or wrap around errors)
   ENCUT = 350          (Cut-off energy for plane wave basis set, in eV)
   ISMEAR = 0            (Gaussian smearing, metals:1)
   SIGMA = 0.05         (Smearing value in eV, metals:0.2)
   NELM = 90           (Max electronic SCF steps)
   NELMIN = 6            (Min electronic SCF steps)
   EDIFF = 1E-06        (SCF energy convergence, in eV)
   NSW = 100          (Max ionic steps)
   IBRION = 2            (Algorithm: 0-MD, 1-Quasi-New, 2-CG)
   ISIF = 2            (Stress/relaxation: 2-Ions, 3-Shape/Ions/V, 4-Shape/Ions)
   EDIFFG = -2E-03        (Ionic convergence, eV/AA)
   ISYM = 2              (Symmetry: 0\=none, 2\=GGA, 3\=hybrids)

 POTCAR:    PAW_PBE Si 05Jan2001                  
 POTCAR:    PAW_PBE Si 05Jan2001                  
   VRHFIN =Si: s2p2                                                                                 
   LEXCH  = PE                                                                                      
   EATOM  =   103.0669 eV,    7.5752 Ry                                                             
                                                                                                    
   TITEL  = PAW_PBE Si 05Jan2001                                                                    
   LULTRA =        F    use ultrasoft PP ?                                                          
   IUNSCR =        1    unscreen: 0-lin 1-nonlin 2-no                                               
   RPACOR =    1.500    partial core radius                                                         
   POMASS =   28.085; ZVAL   =    4.000    mass and valenz                                          
   RCORE  =    1.900    outmost cutoff radius                                                       
   RWIGS  =    2.480; RWIGS  =    1.312    wigner-seitz radius (au A)                               
   ENMAX  =  245.345; ENMIN  =  184.009 eV                                                          
   ICORE  =        2    local potential                                                             
   LCOR   =        T    correct aug charges                                                         
   LPAW   =        T    paw PP                                                                      
   EAUG   =  322.069                                                                                
   DEXC   =    0.000                                                                                
   RMAX   =    1.950    core radius for proj-oper                                                   
   RAUG   =    1.300    factor for augmentation sphere                                              
   RDEP   =    1.993    radius for radial grids                                                     
   RDEPT  =    1.837    core radius for aug-charge                                                  
                                                                                                    
   Atomic configuration                                                                             
    6 entries                                                                                       
     n  l   j            E        occ.                                                              
     1  0  0.50     -1785.8828   2.0000                                                             
     2  0  0.50      -139.4969   2.0000                                                             
     2  1  1.50       -95.5546   6.0000                                                             
     3  0  0.50       -10.8127   2.0000                                                             
     3  1  0.50        -4.0811   2.0000                                                             
     3  2  1.50        -4.0817   0.0000                                                             
   Description                                                                                      
     l       E           TYP  RCUT    TYP  RCUT                                                     
     0    -10.8127223     23  1.900                                                                 
     0     -7.6451159     23  1.900                                                                 
     1     -4.0811372     23  1.900                                                                 
     1      2.4879257     23  1.900                                                                 
     2     -4.0817478      7  1.900                                                                 
  local pseudopotential read in
  partial core-charges read in
  partial kinetic energy density read in
  atomic valenz-charges read in
  non local Contribution for L=           0  read in
    real space projection operators read in
  non local Contribution for L=           0  read in
    real space projection operators read in
  non local Contribution for L=           1  read in
    real space projection operators read in
  non local Contribution for L=           1  read in
    real space projection operators read in
    PAW grid and wavefunctions read in
 
   number of l-projection  operators is LMAX  =           4
   number of lm-projection operators is LMMAX =           8
 
  PAW_PBE Si 05Jan2001                  :
 energy of atom  1       EATOM= -103.0669
 kinetic energy error for atom=    0.0013 (will be added to EATOM!!)
 
 
 POSCAR: Si1
  positions in direct lattice
  No initial velocities read in
 exchange correlation table for  LEXCH =        8
   RHO(1)=    0.500       N(1)  =     2000
   RHO(2)=  100.500       N(2)  =     4000
 


--------------------------------------------------------------------------------------------------------


 ion  position               nearest neighbor table
   1  0.000  0.000  0.000-
 
  LATTYP: Found a body centered cubic cell.
 ALAT       =     3.1325840541
  
  Lattice vectors:
  
 A1 = (   1.5662920270,   1.5662920270,   1.5662920270)
 A2 = (   1.5662920270,  -1.5662920270,  -1.5662920270)
 A3 = (  -1.5662920270,   1.5662920270,  -1.5662920270)


Analysis of symmetry for initial positions (statically):
=====================================================================
 Subroutine PRICEL returns:
 Original cell was already a primitive cell.
 

 Routine SETGRP: Setting up the symmetry group for a 
 body centered cubic supercell.


 Subroutine GETGRP returns: Found 48 space group operations
 (whereof 48 operations were pure point group operations)
 out of a pool of 48 trial point group operations.


The static configuration has the point symmetry O_h .


Analysis of symmetry for dynamics (positions and initial velocities):
=====================================================================
 Subroutine PRICEL returns:
 Original cell was already a primitive cell.
 

 Routine SETGRP: Setting up the symmetry group for a 
 body centered cubic supercell.


 Subroutine GETGRP returns: Found 48 space group operations
 (whereof 48 operations were pure point group operations)
 out of a pool of 48 trial point group operations.


The dynamic configuration has the point symmetry O_h .


 Subroutine INISYM returns: Found 48 space group operations
 (whereof 48 operations are pure point group operations),
 and found     1 'primitive' translations


----------------------------------------------------------------------------------------

                                     Primitive cell                                     

  volume of cell :      15.3702

  direct lattice vectors                    reciprocal lattice vectors
     1.566292027  1.566292027  1.566292027     0.319225273  0.319225273  0.000000000
     1.566292027 -1.566292027 -1.566292027     0.319225273  0.000000000 -0.319225273
    -1.566292027  1.566292027 -1.566292027     0.000000000  0.319225273 -0.319225273

  length of vectors
     2.712897370  2.712897370  2.712897370     0.451452711  0.451452711  0.451452711

  position of ions in fractional coordinates (direct lattice)
     0.000000000  0.000000000  0.000000000

  ion indices of the primitive-cell ions
   primitive index   ion index
                 1           1

----------------------------------------------------------------------------------------

 
 
 KPOINTS: Automatic                               

Automatic generation of k-mesh.
 Grid dimensions read from file:
 generate k-points for:   11   11   11

 Generating k-lattice:

  Cartesian coordinates                     Fractional coordinates (reciprocal lattice)
     0.029020479  0.029020479  0.000000000     0.090909091  0.000000000  0.000000000
     0.029020479  0.000000000 -0.029020479     0.000000000  0.090909091  0.000000000
     0.000000000  0.029020479 -0.029020479     0.000000000  0.000000000  0.090909091

  Length of vectors
     0.041041156  0.041041156  0.041041156

  Shift w.r.t. Gamma in fractional coordinates (k-lattice)
     0.000000000  0.000000000  0.000000000

 
 Subroutine IBZKPT returns following result:
 ===========================================
 
 Found     56 irreducible k-points:
 
 Following reciprocal coordinates:
            Coordinates               Weight
  0.000000  0.000000  0.000000      1.000000
  0.090909  0.000000  0.000000     12.000000
  0.181818  0.000000  0.000000     12.000000
  0.272727  0.000000  0.000000     12.000000
  0.363636  0.000000  0.000000     12.000000
  0.454545  0.000000  0.000000     12.000000
  0.090909  0.090909  0.000000     24.000000
  0.181818  0.090909 -0.000000     48.000000
  0.272727  0.090909  0.000000     48.000000
  0.363636  0.090909 -0.000000     48.000000
  0.454545  0.090909 -0.000000     24.000000
  0.181818  0.181818 -0.000000     24.000000
  0.272727  0.181818 -0.000000     48.000000
  0.363636  0.181818  0.000000     48.000000
  0.272727  0.272727  0.000000     24.000000
  0.363636  0.272727  0.000000     24.000000
  0.090909  0.090909  0.090909      8.000000
  0.181818  0.090909  0.090909     24.000000
  0.272727  0.090909  0.090909     24.000000
  0.363636  0.090909  0.090909     24.000000
 -0.090909  0.090909  0.090909      6.000000
  0.181818  0.181818  0.090909     24.000000
  0.272727  0.181818  0.090909     48.000000
  0.363636  0.181818  0.090909     24.000000
 -0.181818  0.181818  0.090909     24.000000
  0.272727  0.272727  0.090909     24.000000
 -0.272727  0.272727  0.090909     24.000000
 -0.181818  0.272727  0.090909     24.000000
 -0.363636  0.363636  0.090909     24.000000
 -0.272727  0.363636  0.090909     48.000000
 -0.454545  0.454545  0.090909     24.000000
 -0.363636  0.454545  0.090909     48.000000
 -0.272727  0.454545  0.090909     24.000000
 -0.454545 -0.454545  0.090909     24.000000
 -0.363636 -0.454545  0.090909     48.000000
 -0.363636 -0.363636  0.090909      8.000000
  0.181818  0.181818  0.181818      8.000000
  0.272727  0.181818  0.181818     24.000000
 -0.181818  0.181818  0.181818      6.000000
  0.272727  0.272727  0.181818      8.000000
 -0.272727  0.272727  0.181818     24.000000
 -0.363636  0.363636  0.181818     24.000000
 -0.272727  0.363636  0.181818     24.000000
 -0.454545  0.454545  0.181818     24.000000
 -0.363636  0.454545  0.181818     48.000000
 -0.454545 -0.454545  0.181818     24.000000
 -0.363636 -0.454545  0.181818     24.000000
 -0.272727  0.272727  0.272727      6.000000
 -0.363636  0.363636  0.272727     24.000000
 -0.454545  0.454545  0.272727     24.000000
 -0.363636  0.454545  0.272727     24.000000
 -0.454545 -0.454545  0.272727     24.000000
 -0.363636  0.363636  0.363636      6.000000
 -0.454545  0.454545  0.363636     24.000000
 -0.454545 -0.454545  0.363636      8.000000
 -0.454545  0.454545  0.454545      6.000000
 
 Following cartesian coordinates:
            Coordinates               Weight
  0.000000  0.000000  0.000000      1.000000
  0.030036  0.030036  0.000000     12.000000
  0.060072  0.060072  0.000000     12.000000
  0.090109  0.090109  0.000000     12.000000
  0.120145  0.120145  0.000000     12.000000
  0.150181  0.150181  0.000000     12.000000
  0.060072  0.030036 -0.030036     24.000000
  0.090109  0.060072 -0.030036     48.000000
  0.120145  0.090109 -0.030036     48.000000
  0.150181  0.120145 -0.030036     48.000000
  0.180217  0.150181 -0.030036     24.000000
  0.120145  0.060072 -0.060072     24.000000
  0.150181  0.090109 -0.060072     48.000000
  0.180217  0.120145 -0.060072     48.000000
  0.180217  0.090109 -0.090109     24.000000
  0.210253  0.120145 -0.090109     24.000000
  0.060072  0.060072 -0.060072      8.000000
  0.090109  0.090109 -0.060072     24.000000
  0.120145  0.120145 -0.060072     24.000000
  0.150181  0.150181 -0.060072     24.000000
  0.000000  0.000000 -0.060072      6.000000
  0.120145  0.090109 -0.090109     24.000000
  0.150181  0.120145 -0.090109     48.000000
  0.180217  0.150181 -0.090109     24.000000
  0.000000 -0.030036 -0.090109     24.000000
  0.180217  0.120145 -0.120145     24.000000
  0.000000 -0.060072 -0.120145     24.000000
  0.030036 -0.030036 -0.120145     24.000000
  0.000000 -0.090109 -0.150181     24.000000
  0.030036 -0.060072 -0.150181     48.000000
  0.000000 -0.120145 -0.180217     24.000000
  0.030036 -0.090109 -0.180217     48.000000
  0.060072 -0.060072 -0.180217     24.000000
 -0.300362 -0.120145  0.120145     24.000000
 -0.270326 -0.090109  0.120145     48.000000
 -0.240290 -0.090109  0.090109      8.000000
  0.120145  0.120145 -0.120145      8.000000
  0.150181  0.150181 -0.120145     24.000000
  0.000000  0.000000 -0.120145      6.000000
  0.180217  0.150181 -0.150181      8.000000
  0.000000 -0.030036 -0.150181     24.000000
  0.000000 -0.060072 -0.180217     24.000000
  0.030036 -0.030036 -0.180217     24.000000
  0.000000 -0.090109 -0.210253     24.000000
  0.030036 -0.060072 -0.210253     48.000000
 -0.300362 -0.090109  0.090109     24.000000
 -0.270326 -0.060072  0.090109     24.000000
  0.000000  0.000000 -0.180217      6.000000
  0.000000 -0.030036 -0.210253     24.000000
  0.000000 -0.060072 -0.240290     24.000000
  0.030036 -0.030036 -0.240290     24.000000
 -0.300362 -0.060072  0.060072     24.000000
  0.000000  0.000000 -0.240290      6.000000
  0.000000 -0.030036 -0.270326     24.000000
 -0.300362 -0.030036  0.030036      8.000000
  0.000000  0.000000 -0.300362      6.000000
 


--------------------------------------------------------------------------------------------------------




 Dimension of arrays:
   k-points           NKPTS =     56   k-points in BZ     NKDIM =     56   number of bands    NBANDS=      8
   number of dos      NEDOS =    301   number of ions     NIONS =      1
   non local maximal  LDIM  =      4   non local SUM 2l+1 LMDIM =      8
   total plane-waves  NPLWV =   5832
   max r-space proj   IRMAX =      1   max aug-charges    IRDMAX= 101679
   dimension x,y,z NGX =    18 NGY =   18 NGZ =   18
   dimension x,y,z NGXF=    36 NGYF=   36 NGZF=   36
   support grid    NGXF=    72 NGYF=   72 NGZF=   72
   ions per type =               1
   NGX,Y,Z   is equivalent  to a cutoff of  11.03, 11.03, 11.03 a.u.
   NGXF,Y,Z  is equivalent  to a cutoff of  22.06, 22.06, 22.06 a.u.

 SYSTEM =  unknown system                          
 POSCAR =  Si1                                     

 Startparameter for this run:
   NWRITE =      2    write-flag & timer
   PREC   = accura    normal or accurate (medium, high low for compatibility)
   ISTART =      0    job   : 0-new  1-cont  2-samecut
   ICHARG =      2    charge: 1-file 2-atom 10-const
   ISPIN  =      1    spin polarized calculation?
   LNONCOLLINEAR =      F non collinear calculations
   LSORBIT =      F    spin-orbit coupling
   INIWAV =      1    electr: 0-lowe 1-rand  2-diag
   LASPH  =      T    aspherical Exc in radial PAW
   METAGGA=      F    non-selfconsistent MetaGGA calc.

 Electronic Relaxation 1
   ENCUT  =  350.0 eV  25.72 Ry    5.07 a.u.   4.14  4.14  4.14*2*pi/ulx,y,z
   ENINI  =  350.0     initial cutoff
   ENAUG  =  322.1 eV  augmentation charge cutoff
   NELM   =     90;   NELMIN=  6; NELMDL= -5     # of ELM steps 
   EDIFF  = 0.1E-05   stopping-criterion for ELM
   LREAL  =      F    real-space projection
   NLSPLINE    = F    spline interpolate recip. space projectors
   LCOMPAT=      F    compatible to vasp.4.4
   GGA_COMPAT  = T    GGA compatible to vasp.4.4-vasp.4.6
   LMAXPAW     = -100 max onsite density
   LMAXMIX     =    2 max onsite mixed and CHGCAR
   VOSKOWN=      0    Vosko Wilk Nusair interpolation
   ROPT   =    0.00000
 Ionic relaxation
   EDIFFG = -.2E-02   stopping-criterion for IOM
   NSW    =    100    number of steps for IOM
   NBLOCK =      1;   KBLOCK =    100    inner block; outer block 
   IBRION =      2    ionic relax: 0-MD 1-quasi-New 2-CG
   NFREE  =      1    steps in history (QN), initial steepest desc. (CG)
   ISIF   =      2    stress and relaxation
   IWAVPR =     11    prediction:  0-non 1-charg 2-wave 3-comb
   ISYM   =      2    0-nonsym 1-usesym 2-fastsym
   LCORR  =      T    Harris-Foulkes like correction to forces

   POTIM  = 0.5000    time-step for ionic-motion
   TEIN   =    0.0    initial temperature
   TEBEG  =    0.0;   TEEND  =   0.0 temperature during run
   SMASS  =  -3.00    Nose mass-parameter (am)
   estimated Nose-frequenzy (Omega)   =  0.10E-29 period in steps = 0.13E+47 mass=  -0.168E-27a.u.
   SCALEE = 1.0000    scale energy and forces
   NPACO  =    256;   APACO  = 16.0  distance and # of slots for P.C.
   PSTRESS=    0.0 pullay stress

  Mass of Ions in am
   POMASS =  28.09
  Ionic Valenz
   ZVAL   =   4.00
  Atomic Wigner-Seitz radii
   RWIGS  =  -1.00
  virtual crystal weights 
   VCA    =   1.00
   NELECT =       4.0000    total number of electrons
   NUPDOWN=      -1.0000    fix difference up-down

 DOS related values:
   EMIN   =  10.00;   EMAX   =-10.00  energy-range for DOS
   EFERMI =   0.00
   ISMEAR =     0;   SIGMA  =   0.05  broadening in eV -4-tet -1-fermi 0-gaus

 Electronic relaxation 2 (details)
   IALGO  =     38    algorithm
   LDIAG  =      T    sub-space diagonalisation (order eigenvalues)
   LSUBROT=      F    optimize rotation matrix (better conditioning)
   TURBO    =      0    0=normal 1=particle mesh
   IRESTART =      0    0=no restart 2=restart with 2 vectors
   NREBOOT  =      0    no. of reboots
   NMIN     =      0    reboot dimension
   EREF     =   0.00    reference energy to select bands
   IMIX   =      4    mixing-type and parameters
     AMIX     =   0.40;   BMIX     =  1.00
     AMIX_MAG =   1.60;   BMIX_MAG =  1.00
     AMIN     =   0.10
     WC   =   100.;   INIMIX=   1;  MIXPRE=   1;  MAXMIX= -45

 Intra band minimization:
   WEIMIN = 0.0010     energy-eigenvalue tresh-hold
   EBREAK =  0.31E-07  absolut break condition
   DEPER  =   0.30     relativ break condition  

   TIME   =   0.40     timestep for ELM

  volume/ion in A,a.u.               =      15.37       103.72
  Fermi-wavevector in a.u.,A,eV,Ry     =   1.045206  1.975154 14.863774  1.092457
  Thomas-Fermi vector in A             =   2.179992
 
 Write flags
   LWAVE        =      F    write WAVECAR
   LDOWNSAMPLE  =      F    k-point downsampling of WAVECAR
   LCHARG       =      F    write CHGCAR
   LVTOT        =      F    write LOCPOT, total local potential
   LVHAR        =      F    write LOCPOT, Hartree potential only
   LELF         =      F    write electronic localiz. function (ELF)
   LORBIT       =      0    0 simple, 1 ext, 2 COOP (PROOUT), +10 PAW based schemes


 Dipole corrections
   LMONO  =      F    monopole corrections only (constant potential shift)
   LDIPOL =      F    correct potential (dipole corrections)
   IDIPOL =      0    1-x, 2-y, 3-z, 4-all directions 
   EPSILON=  1.0000000 bulk dielectric constant

 Exchange correlation treatment:
   GGA     =    --    GGA type
   LEXCH   =     8    internal setting for exchange type
   VOSKOWN=      0    Vosko Wilk Nusair interpolation
   LHFCALC =     F    Hartree Fock is set to
   LHFONE  =     F    Hartree Fock one center treatment
   AEXX    =    0.0000 exact exchange contribution

 Linear response parameters
   LEPSILON=     F    determine dielectric tensor
   LRPA    =     F    only Hartree local field effects (RPA)
   LNABLA  =     F    use nabla operator in PAW spheres
   LVEL    =     F    velocity operator in full k-point grid
   LINTERFAST=   F  fast interpolation
   KINTER  =     0    interpolate to denser k-point grid
   CSHIFT  =0.1000    complex shift for real part using Kramers Kronig
   OMEGAMAX=  -1.0    maximum frequency
   DEG_THRESHOLD= 0.2000000E-02 threshold for treating states as degnerate
   RTIME   =   -0.100 relaxation time in fs
  (WPLASMAI=    0.000 imaginary part of plasma frequency in eV, 0.658/RTIME)
   DFIELD  = 0.0000000 0.0000000 0.0000000 field for delta impulse in time
 
 Orbital magnetization related:
   ORBITALMAG=     F  switch on orbital magnetization
   LCHIMAG   =     F  perturbation theory with respect to B field
   DQ        =  0.001000  dq finite difference perturbation B field
   LLRAUG    =     F  two centre corrections for induced B field



--------------------------------------------------------------------------------------------------------


 conjugate gradient relaxation of ions
 charge density and potential will be updated during run
 non-spin polarized calculation
 Variant of blocked Davidson
 Davidson routine will perform the subspace rotation
 perform sub-space diagonalisation
    after iterative eigenvector-optimisation
 modified Broyden-mixing scheme, WC =      100.0
 initial mixing is a Kerker type mixing with AMIX =  0.4000 and BMIX =      1.0000
 Hartree-type preconditioning will be used
 using additional bands            6
 reciprocal scheme for non local part
 use partial core corrections
 calculate Harris-corrections to forces 
   (improved forces if not selfconsistent)
 use gradient corrections 
 use of overlap-Matrix (Vanderbilt PP)
 Gauss-broadening in eV      SIGMA  =   0.05


--------------------------------------------------------------------------------------------------------


  energy-cutoff  :      350.00
  volume of cell :       15.37
      direct lattice vectors                 reciprocal lattice vectors
     1.566292027  1.566292027  1.566292027     0.319225273  0.319225273  0.000000000
     1.566292027 -1.566292027 -1.566292027     0.319225273  0.000000000 -0.319225273
    -1.566292027  1.566292027 -1.566292027     0.000000000  0.319225273 -0.319225273

  length of vectors
     2.712897370  2.712897370  2.712897370     0.451452711  0.451452711  0.451452711


 
 k-points in units of 2pi/SCALE and weight: Automatic                               
   0.00000000  0.00000000  0.00000000       0.001
   0.03003620  0.03003620  0.00000000       0.009
   0.06007239  0.06007239  0.00000000       0.009
   0.09010859  0.09010859  0.00000000       0.009
   0.12014478  0.12014478  0.00000000       0.009
   0.15018098  0.15018098  0.00000000       0.009
   0.06007239  0.03003620 -0.03003620       0.018
   0.09010859  0.06007239 -0.03003620       0.036
   0.12014478  0.09010859 -0.03003620       0.036
   0.15018098  0.12014478 -0.03003620       0.036
   0.18021718  0.15018098 -0.03003620       0.018
   0.12014478  0.06007239 -0.06007239       0.018
   0.15018098  0.09010859 -0.06007239       0.036
   0.18021718  0.12014478 -0.06007239       0.036
   0.18021718  0.09010859 -0.09010859       0.018
   0.21025337  0.12014478 -0.09010859       0.018
   0.06007239  0.06007239 -0.06007239       0.006
   0.09010859  0.09010859 -0.06007239       0.018
   0.12014478  0.12014478 -0.06007239       0.018
   0.15018098  0.15018098 -0.06007239       0.018
   0.00000000  0.00000000 -0.06007239       0.005
   0.12014478  0.09010859 -0.09010859       0.018
   0.15018098  0.12014478 -0.09010859       0.036
   0.18021718  0.15018098 -0.09010859       0.018
   0.00000000 -0.03003620 -0.09010859       0.018
   0.18021718  0.12014478 -0.12014478       0.018
   0.00000000 -0.06007239 -0.12014478       0.018
   0.03003620 -0.03003620 -0.12014478       0.018
   0.00000000 -0.09010859 -0.15018098       0.018
   0.03003620 -0.06007239 -0.15018098       0.036
   0.00000000 -0.12014478 -0.18021718       0.018
   0.03003620 -0.09010859 -0.18021718       0.036
   0.06007239 -0.06007239 -0.18021718       0.018
  -0.30036196 -0.12014478  0.12014478       0.018
  -0.27032577 -0.09010859  0.12014478       0.036
  -0.24028957 -0.09010859  0.09010859       0.006
   0.12014478  0.12014478 -0.12014478       0.006
   0.15018098  0.15018098 -0.12014478       0.018
   0.00000000  0.00000000 -0.12014478       0.005
   0.18021718  0.15018098 -0.15018098       0.006
   0.00000000 -0.03003620 -0.15018098       0.018
   0.00000000 -0.06007239 -0.18021718       0.018
   0.03003620 -0.03003620 -0.18021718       0.018
   0.00000000 -0.09010859 -0.21025337       0.018
   0.03003620 -0.06007239 -0.21025337       0.036
  -0.30036196 -0.09010859  0.09010859       0.018
  -0.27032577 -0.06007239  0.09010859       0.018
   0.00000000  0.00000000 -0.18021718       0.005
   0.00000000 -0.03003620 -0.21025337       0.018
   0.00000000 -0.06007239 -0.24028957       0.018
   0.03003620 -0.03003620 -0.24028957       0.018
  -0.30036196 -0.06007239  0.06007239       0.018
   0.00000000  0.00000000 -0.24028957       0.005
   0.00000000 -0.03003620 -0.27032577       0.018
  -0.30036196 -0.03003620  0.03003620       0.006
   0.00000000  0.00000000 -0.30036196       0.005
 
 k-points in reciprocal lattice and weights: Automatic                               
   0.00000000  0.00000000  0.00000000       0.001
   0.09090909  0.00000000  0.00000000       0.009
   0.18181818  0.00000000  0.00000000       0.009
   0.27272727  0.00000000  0.00000000       0.009
   0.36363636  0.00000000  0.00000000       0.009
   0.45454545  0.00000000  0.00000000       0.009
   0.09090909  0.09090909  0.00000000       0.018
   0.18181818  0.09090909 -0.00000000       0.036
   0.27272727  0.09090909  0.00000000       0.036
   0.36363636  0.09090909 -0.00000000       0.036
   0.45454545  0.09090909 -0.00000000       0.018
   0.18181818  0.18181818 -0.00000000       0.018
   0.27272727  0.18181818 -0.00000000       0.036
   0.36363636  0.18181818  0.00000000       0.036
   0.27272727  0.27272727  0.00000000       0.018
   0.36363636  0.27272727  0.00000000       0.018
   0.09090909  0.09090909  0.09090909       0.006
   0.18181818  0.09090909  0.09090909       0.018
   0.27272727  0.09090909  0.09090909       0.018
   0.36363636  0.09090909  0.09090909       0.018
  -0.09090909  0.09090909  0.09090909       0.005
   0.18181818  0.18181818  0.09090909       0.018
   0.27272727  0.18181818  0.09090909       0.036
   0.36363636  0.18181818  0.09090909       0.018
  -0.18181818  0.18181818  0.09090909       0.018
   0.27272727  0.27272727  0.09090909       0.018
  -0.27272727  0.27272727  0.09090909       0.018
  -0.18181818  0.27272727  0.09090909       0.018
  -0.36363636  0.36363636  0.09090909       0.018
  -0.27272727  0.36363636  0.09090909       0.036
  -0.45454545  0.45454545  0.09090909       0.018
  -0.36363636  0.45454545  0.09090909       0.036
  -0.27272727  0.45454545  0.09090909       0.018
  -0.45454545 -0.45454545  0.09090909       0.018
  -0.36363636 -0.45454545  0.09090909       0.036
  -0.36363636 -0.36363636  0.09090909       0.006
   0.18181818  0.18181818  0.18181818       0.006
   0.27272727  0.18181818  0.18181818       0.018
  -0.18181818  0.18181818  0.18181818       0.005
   0.27272727  0.27272727  0.18181818       0.006
  -0.27272727  0.27272727  0.18181818       0.018
  -0.36363636  0.36363636  0.18181818       0.018
  -0.27272727  0.36363636  0.18181818       0.018
  -0.45454545  0.45454545  0.18181818       0.018
  -0.36363636  0.45454545  0.18181818       0.036
  -0.45454545 -0.45454545  0.18181818       0.018
  -0.36363636 -0.45454545  0.18181818       0.018
  -0.27272727  0.27272727  0.27272727       0.005
  -0.36363636  0.36363636  0.27272727       0.018
  -0.45454545  0.45454545  0.27272727       0.018
  -0.36363636  0.45454545  0.27272727       0.018
  -0.45454545 -0.45454545  0.27272727       0.018
  -0.36363636  0.36363636  0.36363636       0.005
  -0.45454545  0.45454545  0.36363636       0.018
  -0.45454545 -0.45454545  0.36363636       0.006
  -0.45454545  0.45454545  0.45454545       0.005
 
 position of ions in fractional coordinates (direct lattice) 
   0.00000000  0.00000000  0.00000000
 
 position of ions in cartesian coordinates  (Angst):
   0.00000000  0.00000000  0.00000000
 


--------------------------------------------------------------------------------------------------------


 k-point   1 :   0.0000 0.0000 0.0000  plane waves:     225
 k-point   2 :   0.0909 0.0000 0.0000  plane waves:     219
 k-point   3 :   0.1818 0.0000 0.0000  plane waves:     225
 k-point   4 :   0.2727 0.0000 0.0000  plane waves:     227
 k-point   5 :   0.3636 0.0000 0.0000  plane waves:     233
 k-point   6 :   0.4545 0.0000 0.0000  plane waves:     234
 k-point   7 :   0.0909 0.0909 0.0000  plane waves:     223
 k-point   8 :   0.1818 0.0909-0.0000  plane waves:     223
 k-point   9 :   0.2727 0.0909 0.0000  plane waves:     232
 k-point  10 :   0.3636 0.0909-0.0000  plane waves:     229
 k-point  11 :   0.4545 0.0909-0.0000  plane waves:     228
 k-point  12 :   0.1818 0.1818-0.0000  plane waves:     227
 k-point  13 :   0.2727 0.1818-0.0000  plane waves:     228
 k-point  14 :   0.3636 0.1818 0.0000  plane waves:     229
 k-point  15 :   0.2727 0.2727 0.0000  plane waves:     226
 k-point  16 :   0.3636 0.2727 0.0000  plane waves:     228
 k-point  17 :   0.0909 0.0909 0.0909  plane waves:     228
 k-point  18 :   0.1818 0.0909 0.0909  plane waves:     228
 k-point  19 :   0.2727 0.0909 0.0909  plane waves:     228
 k-point  20 :   0.3636 0.0909 0.0909  plane waves:     230
 k-point  21 :  -0.0909 0.0909 0.0909  plane waves:     221
 k-point  22 :   0.1818 0.1818 0.0909  plane waves:     232
 k-point  23 :   0.2727 0.1818 0.0909  plane waves:     232
 k-point  24 :   0.3636 0.1818 0.0909  plane waves:     230
 k-point  25 :  -0.1818 0.1818 0.0909  plane waves:     223
 k-point  26 :   0.2727 0.2727 0.0909  plane waves:     226
 k-point  27 :  -0.2727 0.2727 0.0909  plane waves:     226
 k-point  28 :  -0.1818 0.2727 0.0909  plane waves:     226
 k-point  29 :  -0.3636 0.3636 0.0909  plane waves:     230
 k-point  30 :  -0.2727 0.3636 0.0909  plane waves:     230
 k-point  31 :  -0.4545 0.4545 0.0909  plane waves:     232
 k-point  32 :  -0.3636 0.4545 0.0909  plane waves:     227
 k-point  33 :  -0.2727 0.4545 0.0909  plane waves:     231
 k-point  34 :  -0.4545-0.4545 0.0909  plane waves:     229
 k-point  35 :  -0.3636-0.4545 0.0909  plane waves:     228
 k-point  36 :  -0.3636-0.3636 0.0909  plane waves:     225
 k-point  37 :   0.1818 0.1818 0.1818  plane waves:     234
 k-point  38 :   0.2727 0.1818 0.1818  plane waves:     230
 k-point  39 :  -0.1818 0.1818 0.1818  plane waves:     225
 k-point  40 :   0.2727 0.2727 0.1818  plane waves:     228
 k-point  41 :  -0.2727 0.2727 0.1818  plane waves:     231
 k-point  42 :  -0.3636 0.3636 0.1818  plane waves:     228
 k-point  43 :  -0.2727 0.3636 0.1818  plane waves:     232
 k-point  44 :  -0.4545 0.4545 0.1818  plane waves:     224
 k-point  45 :  -0.3636 0.4545 0.1818  plane waves:     227
 k-point  46 :  -0.4545-0.4545 0.1818  plane waves:     232
 k-point  47 :  -0.3636-0.4545 0.1818  plane waves:     231
 k-point  48 :  -0.2727 0.2727 0.2727  plane waves:     233
 k-point  49 :  -0.3636 0.3636 0.2727  plane waves:     232
 k-point  50 :  -0.4545 0.4545 0.2727  plane waves:     229
 k-point  51 :  -0.3636 0.4545 0.2727  plane waves:     233
 k-point  52 :  -0.4545-0.4545 0.2727  plane waves:     230
 k-point  53 :  -0.3636 0.3636 0.3636  plane waves:     229
 k-point  54 :  -0.4545 0.4545 0.3636  plane waves:     234
 k-point  55 :  -0.4545-0.4545 0.3636  plane waves:     236
 k-point  56 :  -0.4545 0.4545 0.4545  plane waves:     236

 maximum and minimum number of plane-waves per node :       236      219

 maximum number of plane-waves:       236
 maximum index in each direction: 
   IXMAX=    4   IYMAX=    4   IZMAX=    4
   IXMIN=   -4   IYMIN=   -4   IZMIN=   -4


 serial   3D FFT for wavefunctions
 parallel 3D FFT for charge:
    minimum data exchange during FFTs selected (reduces bandwidth)


 total amount of memory used by VASP MPI-rank0    33883. kBytes
=======================================================================

   base      :      30000. kBytes
   nonl-proj :        849. kBytes
   fftplans  :       1775. kBytes
   grid      :        819. kBytes
   one-center:          3. kBytes
   wavefun   :        437. kBytes
 
     INWAV:  cpu time    0.0000: real time    0.0005
 Broyden mixing: mesh for mixing (old mesh)
   NGX =  9   NGY =  9   NGZ =  9
  (NGX  = 36   NGY  = 36   NGZ  = 36)
  gives a total of    729 points

 initial charge density was supplied:
 charge density of overlapping atoms calculated
 number of electron       4.0000000 magnetization 
 keeping initial charge density in first step


--------------------------------------------------------------------------------------------------------


 Maximum index for augmentation-charges        24529 (set IRDMAX)


--------------------------------------------------------------------------------------------------------


 First call to EWALD:  gamma=   0.713
 Maximum number of real-space cells 3x 3x 3
 Maximum number of reciprocal cells 3x 3x 3

    FEWALD:  cpu time    0.0030: real time    0.0034


--------------------------------------- Iteration      1(   1)  ---------------------------------------


    POTLOK:  cpu time    0.0140: real time    0.0173
    SETDIJ:  cpu time    0.1670: real time    0.1666
     EDDAV:  cpu time    0.2800: real time    0.2811
       DOS:  cpu time    0.0010: real time    0.0014
    --------------------------------------------
      LOOP:  cpu time    0.4629: real time    0.4667

 eigenvalue-minimisations  :   992
 total energy-change (2. order) :-0.3386603E+01  (-0.1374100E+03)
 number of electron       4.0000000 magnetization 
 augmentation part        4.0000000 magnetization 

 Free energy of the ion-electron system (eV)
  ---------------------------------------------------
  alpha Z        PSCENC =         2.19016231
  Ewald energy   TEWEN  =      -133.82992753
  -Hartree energ DENC   =        -0.70862567
  -exchange      EXHF   =         0.00000000
  -V(xc)+E(xc)   XCENC  =        -8.96511584
  PAW double counting   =        88.12379961      -70.53051779
  entropy T*S    EENTRO =        -0.00206073
  eigenvalues    EBANDS =        17.27005575
  atomic energy  EATOM  =       103.06562707
  Solvation  Ediel_sol  =         0.00000000
  ---------------------------------------------------
  free energy    TOTEN  =        -3.38660281 eV

  energy without entropy =       -3.38454208  energy(sigma->0) =       -3.38557245


--------------------------------------------------------------------------------------------------------




--------------------------------------- Iteration      1(   2)  ---------------------------------------


     EDDAV:  cpu time    0.3639: real time    0.3730
       DOS:  cpu time    0.0010: real time    0.0013
    --------------------------------------------
      LOOP:  cpu time    0.3649: real time    0.3743

 eigenvalue-minimisations  :  1312
 total energy-change (2. order) :-0.1493867E+01  (-0.1360545E+01)
 number of electron       4.0000000 magnetization 
 augmentation part        4.0000000 magnetization 

 Free energy of the ion-electron system (eV)
  ---------------------------------------------------
  alpha Z        PSCENC =         2.19016231
  Ewald energy   TEWEN  =      -133.82992753
  -Hartree energ DENC   =        -0.70862567
  -exchange      EXHF   =         0.00000000
  -V(xc)+E(xc)   XCENC  =        -8.96511584
  PAW double counting   =        88.12379961      -70.53051779
  entropy T*S    EENTRO =        -0.00101868
  eigenvalues    EBANDS =        15.77514654
  atomic energy  EATOM  =       103.06562707
  Solvation  Ediel_sol  =         0.00000000
  ---------------------------------------------------
  free energy    TOTEN  =        -4.88046998 eV

  energy without entropy =       -4.87945129  energy(sigma->0) =       -4.87996064


--------------------------------------------------------------------------------------------------------




--------------------------------------- Iteration      1(   3)  ---------------------------------------


     EDDAV:  cpu time    0.3050: real time    0.3184
       DOS:  cpu time    0.0000: real time    0.0012
    --------------------------------------------
      LOOP:  cpu time    0.3050: real time    0.3196

 eigenvalue-minimisations  :  1080
 total energy-change (2. order) :-0.7481397E-02  (-0.7481286E-02)
 number of electron       4.0000000 magnetization 
 augmentation part        4.0000000 magnetization 

 Free energy of the ion-electron system (eV)
  ---------------------------------------------------
  alpha Z        PSCENC =         2.19016231
  Ewald energy   TEWEN  =      -133.82992753
  -Hartree energ DENC   =        -0.70862567
  -exchange      EXHF   =         0.00000000
  -V(xc)+E(xc)   XCENC  =        -8.96511584
  PAW double counting   =        88.12379961      -70.53051779
  entropy T*S    EENTRO =        -0.00102029
  eigenvalues    EBANDS =        15.76766675
  atomic energy  EATOM  =       103.06562707
  Solvation  Ediel_sol  =         0.00000000
  ---------------------------------------------------
  free energy    TOTEN  =        -4.88795137 eV

  energy without entropy =       -4.88693108  energy(sigma->0) =       -4.88744123


--------------------------------------------------------------------------------------------------------




--------------------------------------- Iteration      1(   4)  ---------------------------------------


     EDDAV:  cpu time    0.3799: real time    0.3872
       DOS:  cpu time    0.0010: real time    0.0012
    --------------------------------------------
      LOOP:  cpu time    0.3799: real time    0.3884

 eigenvalue-minimisations  :  1368
 total energy-change (2. order) :-0.6208219E-05  (-0.6206530E-05)
 number of electron       4.0000000 magnetization 
 augmentation part        4.0000000 magnetization 

 Free energy of the ion-electron system (eV)
  ---------------------------------------------------
  alpha Z        PSCENC =         2.19016231
  Ewald energy   TEWEN  =      -133.82992753
  -Hartree energ DENC   =        -0.70862567
  -exchange      EXHF   =         0.00000000
  -V(xc)+E(xc)   XCENC  =        -8.96511584
  PAW double counting   =        88.12379961      -70.53051779
  entropy T*S    EENTRO =        -0.00102031
  eigenvalues    EBANDS =        15.76766056
  atomic energy  EATOM  =       103.06562707
  Solvation  Ediel_sol  =         0.00000000
  ---------------------------------------------------
  free energy    TOTEN  =        -4.88795758 eV

  energy without entropy =       -4.88693727  energy(sigma->0) =       -4.88744743


--------------------------------------------------------------------------------------------------------




--------------------------------------- Iteration      1(   5)  ---------------------------------------


     EDDAV:  cpu time    0.3040: real time    0.3130
       DOS:  cpu time    0.0010: real time    0.0013
    CHARGE:  cpu time    0.0240: real time    0.0244
    MIXING:  cpu time    0.0010: real time    0.0009
    --------------------------------------------
      LOOP:  cpu time    0.3300: real time    0.3395

 eigenvalue-minimisations  :  1080
 total energy-change (2. order) :-0.3040554E-09  (-0.1425454E-08)
 number of electron       4.0000000 magnetization 
 augmentation part       -0.2422024 magnetization 

 Broyden mixing:
  rms(total) = 0.23496E+00    rms(broyden)= 0.23496E+00
  rms(prec ) = 0.37098E+00
  weight for this iteration     100.00

 Free energy of the ion-electron system (eV)
  ---------------------------------------------------
  alpha Z        PSCENC =         2.19016231
  Ewald energy   TEWEN  =      -133.82992753
  -Hartree energ DENC   =        -0.70862567
  -exchange      EXHF   =         0.00000000
  -V(xc)+E(xc)   XCENC  =        -8.96511584
  PAW double counting   =        88.12379961      -70.53051779
  entropy T*S    EENTRO =        -0.00102031
  eigenvalues    EBANDS =        15.76766056
  atomic energy  EATOM  =       103.06562707
  Solvation  Ediel_sol  =         0.00000000
  ---------------------------------------------------
  free energy    TOTEN  =        -4.88795758 eV

  energy without entropy =       -4.88693728  energy(sigma->0) =       -4.88744743


--------------------------------------------------------------------------------------------------------




--------------------------------------- Iteration      1(   6)  ---------------------------------------


    POTLOK:  cpu time    0.0140: real time    0.0296
    SETDIJ:  cpu time    0.1650: real time    0.1647
     EDDAV:  cpu time    0.2590: real time    0.2590
       DOS:  cpu time    0.0010: real time    0.0015
    CHARGE:  cpu time    0.0220: real time    0.0226
    MIXING:  cpu time    0.0020: real time    0.0010
    --------------------------------------------
      LOOP:  cpu time    0.4629: real time    0.4784

 eigenvalue-minimisations  :   920
 total energy-change (2. order) : 0.1081097E-01  (-0.4154297E-03)
 number of electron       4.0000000 magnetization 
 augmentation part       -0.2443141 magnetization 

 Broyden mixing:
  rms(total) = 0.12918E+00    rms(broyden)= 0.12918E+00
  rms(prec ) = 0.21415E+00
  weight for this iteration     100.00

 eigenvalues of (default mixing * dielectric matrix)
  average eigenvalue GAMMA=   2.2071
  2.2071

 Free energy of the ion-electron system (eV)
  ---------------------------------------------------
  alpha Z        PSCENC =         2.19016231
  Ewald energy   TEWEN  =      -133.82992753
  -Hartree energ DENC   =        -0.61550284
  -exchange      EXHF   =         0.00000000
  -V(xc)+E(xc)   XCENC  =        -8.95149583
  PAW double counting   =       155.88214824     -138.28570439
  entropy T*S    EENTRO =        -0.00105824
  eigenvalues    EBANDS =        15.66860459
  atomic energy  EATOM  =       103.06562707
  Solvation  Ediel_sol  =         0.00000000
  ---------------------------------------------------
  free energy    TOTEN  =        -4.87714661 eV

  energy without entropy =       -4.87608838  energy(sigma->0) =       -4.87661749


--------------------------------------------------------------------------------------------------------




--------------------------------------- Iteration      1(   7)  ---------------------------------------


    POTLOK:  cpu time    0.0150: real time    0.0224
    SETDIJ:  cpu time    0.1650: real time    0.1653
     EDDAV:  cpu time    0.2780: real time    0.2787
       DOS:  cpu time    0.0010: real time    0.0013
    CHARGE:  cpu time    0.0220: real time    0.0226
    MIXING:  cpu time    0.0010: real time    0.0010
    --------------------------------------------
      LOOP:  cpu time    0.4829: real time    0.4913

 eigenvalue-minimisations  :   992
 total energy-change (2. order) : 0.5963892E-02  (-0.8149369E-03)
 number of electron       4.0000000 magnetization 
 augmentation part       -0.2473430 magnetization 

 Broyden mixing:
  rms(total) = 0.12850E-01    rms(broyden)= 0.12849E-01
  rms(prec ) = 0.16819E-01
  weight for this iteration     100.00

 eigenvalues of (default mixing * dielectric matrix)
  average eigenvalue GAMMA=   2.4184
  2.4184  2.4184

 Free energy of the ion-electron system (eV)
  ---------------------------------------------------
  alpha Z        PSCENC =         2.19016231
  Ewald energy   TEWEN  =      -133.82992753
  -Hartree energ DENC   =        -0.50964747
  -exchange      EXHF   =         0.00000000
  -V(xc)+E(xc)   XCENC  =        -8.92773569
  PAW double counting   =       278.94484688     -261.34817094
  entropy T*S    EENTRO =        -0.00111415
  eigenvalues    EBANDS =        15.54477680
  atomic energy  EATOM  =       103.06562707
  Solvation  Ediel_sol  =         0.00000000
  ---------------------------------------------------
  free energy    TOTEN  =        -4.87118272 eV

  energy without entropy =       -4.87006857  energy(sigma->0) =       -4.87062565


--------------------------------------------------------------------------------------------------------




--------------------------------------- Iteration      1(   8)  ---------------------------------------


    POTLOK:  cpu time    0.0150: real time    0.0232
    SETDIJ:  cpu time    0.1650: real time    0.1649
     EDDAV:  cpu time    0.3479: real time    0.3485
       DOS:  cpu time    0.0010: real time    0.0013
    CHARGE:  cpu time    0.0220: real time    0.0227
    MIXING:  cpu time    0.0010: real time    0.0009
    --------------------------------------------
      LOOP:  cpu time    0.5519: real time    0.5614

 eigenvalue-minimisations  :  1256
 total energy-change (2. order) : 0.1296240E-04  (-0.3852011E-05)
 number of electron       4.0000000 magnetization 
 augmentation part       -0.2474205 magnetization 

 Broyden mixing:
  rms(total) = 0.13364E-02    rms(broyden)= 0.13364E-02
  rms(prec ) = 0.20765E-02
  weight for this iteration     100.00

 eigenvalues of (default mixing * dielectric matrix)
  average eigenvalue GAMMA=   2.0205
  0.9873  2.3914  2.6827

 Free energy of the ion-electron system (eV)
  ---------------------------------------------------
  alpha Z        PSCENC =         2.19016231
  Ewald energy   TEWEN  =      -133.82992753
  -Hartree energ DENC   =        -0.50986251
  -exchange      EXHF   =         0.00000000
  -V(xc)+E(xc)   XCENC  =        -8.92430800
  PAW double counting   =       266.07293445     -248.48276373
  entropy T*S    EENTRO =        -0.00111656
  eigenvalues    EBANDS =        15.54808473
  atomic energy  EATOM  =       103.06562707
  Solvation  Ediel_sol  =         0.00000000
  ---------------------------------------------------
  free energy    TOTEN  =        -4.87116976 eV

  energy without entropy =       -4.87005320  energy(sigma->0) =       -4.87061148


--------------------------------------------------------------------------------------------------------




--------------------------------------- Iteration      1(   9)  ---------------------------------------


    POTLOK:  cpu time    0.0160: real time    0.0307
    SETDIJ:  cpu time    0.1640: real time    0.1648
     EDDAV:  cpu time    0.3110: real time    0.3113
       DOS:  cpu time    0.0010: real time    0.0012
    --------------------------------------------
      LOOP:  cpu time    0.4909: real time    0.5080

 eigenvalue-minimisations  :  1104
 total energy-change (2. order) :-0.7637196E-06  (-0.4668553E-07)
 number of electron       4.0000000 magnetization 
 augmentation part       -0.2474205 magnetization 

 Free energy of the ion-electron system (eV)
  ---------------------------------------------------
  alpha Z        PSCENC =         2.19016231
  Ewald energy   TEWEN  =      -133.82992753
  -Hartree energ DENC   =        -0.50969393
  -exchange      EXHF   =         0.00000000
  -V(xc)+E(xc)   XCENC  =        -8.92388268
  PAW double counting   =       264.56702518     -246.97742874
  entropy T*S    EENTRO =        -0.00111715
  eigenvalues    EBANDS =        15.54806494
  atomic energy  EATOM  =       103.06562707
  Solvation  Ediel_sol  =         0.00000000
  ---------------------------------------------------
  free energy    TOTEN  =        -4.87117052 eV

  energy without entropy =       -4.87005338  energy(sigma->0) =       -4.87061195


--------------------------------------------------------------------------------------------------------




 average (electrostatic) potential at core
  the test charge radii are     0.9892
  (the norm of the test charge is              1.0000)
       1 -80.7110
 
 
 
 E-fermi :   9.2745     XC(G=0): -10.9549     alpha+bet :-15.6046

 Fermi energy:         9.2745391543

 k-point     1 :       0.0000    0.0000    0.0000
  band No.  band energies     occupation 
      1      -4.5079      2.00000
      2      20.0267      0.00000
      3      20.0267      0.00000
      4      20.0267      0.00000
      5      21.6052      0.00000
      6      21.6052      0.00000
      7      21.6052      0.00000
      8      25.1865      0.00000

 k-point     2 :       0.0909    0.0000    0.0000
  band No.  band energies     occupation 
      1      -4.2634      2.00000
      2      17.7767      0.00000
      3      18.5918      0.00000
      4      19.7233      0.00000
      5      20.8671      0.00000
      6      22.2866      0.00000
      7      23.4589      0.00000
      8      24.0779      0.00000

 k-point     3 :       0.1818    0.0000    0.0000
  band No.  band energies     occupation 
      1      -3.5319      2.00000
      2      14.1855      0.00000
      3      16.9799      0.00000
      4      18.9650      0.00000
      5      19.4934      0.00000
      6      21.2898      0.00000
      7      24.7492      0.00000
      8      25.0722      0.00000

 k-point     4 :       0.2727    0.0000    0.0000
  band No.  band energies     occupation 
      1      -2.3187      2.00000
      2      10.5345      0.00000
      3      15.7469      0.00000
      4      18.1131      0.00000
      5      18.2508      0.00000
      6      20.1186      0.00000
      7      25.8299      0.00000
      8      26.1233      0.00000

 k-point     5 :       0.3636    0.0000    0.0000
  band No.  band energies     occupation 
      1      -0.6341      2.00000
      2       7.1513      2.00000
      3      14.9213      0.00000
      4      17.3685      0.00000
      5      17.4455      0.00000
      6      19.2882      0.00000
      7      27.0978      0.00000
      8      27.7302      0.00000

 k-point     6 :       0.4545    0.0000    0.0000
  band No.  band energies     occupation 
      1       1.4946      2.00000
      2       4.1588      2.00000
      3      14.5082      0.00000
      4      16.9156      0.00000
      5      17.0894      0.00000
      6      18.8616      0.00000
      7      28.6196      0.00000
      8      29.2231      0.00000

 k-point     7 :       0.0909    0.0909    0.0000
  band No.  band energies     occupation 
      1      -3.7754      2.00000
      2      15.8259      0.00000
      3      16.4806      0.00000
      4      18.3350      0.00000
      5      21.0285      0.00000
      6      22.3897      0.00000
      7      23.5869      0.00000
      8      24.7317      0.00000

 k-point     8 :       0.1818    0.0909   -0.0000
  band No.  band energies     occupation 
      1      -2.8030      2.00000
      2      12.4753      0.00000
      3      14.7447      0.00000
      4      17.1155      0.00000
      5      20.3761      0.00000
      6      21.8357      0.00000
      7      24.1396      0.00000
      8      26.5071      0.00000

 k-point     9 :       0.2727    0.0909    0.0000
  band No.  band energies     occupation 
      1      -1.3538      2.00000
      2       8.9647      2.00000
      3      13.6547      0.00000
      4      16.1429      0.00000
      5      19.5147      0.00000
      6      21.3278      0.00000
      7      24.9934      0.00000
      8      28.2937      0.00000

 k-point    10 :       0.3636    0.0909   -0.0000
  band No.  band energies     occupation 
      1       0.5580      2.00000
      2       5.7715      2.00000
      3      13.0024      0.00000
      4      15.5313      0.00000
      5      18.9235      0.00000
      6      20.9137      0.00000
      7      26.4500      0.00000
      8      29.3311      0.00000

 k-point    11 :       0.4545    0.0909   -0.0000
  band No.  band energies     occupation 
      1       2.6516      2.00000
      2       3.2458      2.00000
      3      12.7844      0.00000
      4      15.3232      0.00000
      5      18.7190      0.00000
      6      20.7578      0.00000
      7      28.1393      0.00000
      8      28.3324      0.00000

 k-point    12 :       0.1818    0.1818   -0.0000
  band No.  band energies     occupation 
      1      -1.5943      2.00000
      2      10.9254      0.00000
      3      11.4702      0.00000
      4      15.9469      0.00000
      5      20.8891      0.00000
      6      21.9373      0.00000
      7      25.6295      0.00000
      8      26.8077      0.00000

 k-point    13 :       0.2727    0.1818   -0.0000
  band No.  band energies     occupation 
      1       0.0841      2.00000
      2       7.8190      2.00000
      3      10.3318      0.00000
      4      15.1417      0.00000
      5      20.5972      0.00000
      6      22.6374      0.00000
      7      25.8783      0.00000
      8      28.4952      0.00000

 k-point    14 :       0.3636    0.1818    0.0000
  band No.  band energies     occupation 
      1       2.2049      2.00000
      2       4.8530      2.00000
      3       9.8709      0.00000
      4      14.7284      0.00000
      5      20.2605      0.00000
      6      23.4284      0.00000
      7      26.2720      0.00000
      8      27.9775      0.00000

 k-point    15 :       0.2727    0.2727    0.0000
  band No.  band energies     occupation 
      1       1.9792      2.00000
      2       6.9202      2.00000
      3       7.4012      2.00000
      4      14.5351      0.00000
      5      21.7458      0.00000
      6      22.8309      0.00000
      7      26.5481      0.00000
      8      28.7221      0.00000

 k-point    16 :       0.3636    0.2727    0.0000
  band No.  band energies     occupation 
      1       4.0468      2.00000
      2       4.6364      2.00000
      3       6.9630      2.00000
      4      14.3289      0.00000
      5      21.9169      0.00000
      6      23.9496      0.00000
      7      25.0375      0.00000
      8      29.5515      0.00000

 k-point    17 :       0.0909    0.0909    0.0909
  band No.  band energies     occupation 
      1      -3.0457      2.00000
      2      13.9779      0.00000
      3      15.0468      0.00000
      4      15.0468      0.00000
      5      22.7891      0.00000
      6      22.7891      0.00000
      7      25.0170      0.00000
      8      25.0170      0.00000

 k-point    18 :       0.1818    0.0909    0.0909
  band No.  band energies     occupation 
      1      -1.8355      2.00000
      2      10.9392      0.00000
      3      13.1323      0.00000
      4      13.8090      0.00000
      5      22.6495      0.00000
      6      23.0950      0.00000
      7      26.0784      0.00000
      8      26.2571      0.00000

 k-point    19 :       0.2727    0.0909    0.0909
  band No.  band energies     occupation 
      1      -0.1550      2.00000
      2       7.6033      2.00000
      3      12.2144      0.00000
      4      12.9459      0.00000
      5      22.3031      0.00000
      6      22.5615      0.00000
      7      27.5243      0.00000
      8      27.8923      0.00000

 k-point    20 :       0.3636    0.0909    0.0909
  band No.  band energies     occupation 
      1       1.9686      2.00000
      2       4.6239      2.00000
      3      11.7674      0.00000
      4      12.5055      0.00000
      5      22.0550      0.00000
      6      22.2267      0.00000
      7      28.9235      0.00000
      8      29.4445      0.00000

 k-point    21 :      -0.0909    0.0909    0.0909
  band No.  band energies     occupation 
      1      -4.0193      2.00000
      2      17.3306      0.00000
      3      17.3306      0.00000
      4      18.3865      0.00000
      5      21.6682      0.00000
      6      22.0858      0.00000
      7      23.1727      0.00000
      8      23.1727      0.00000

 k-point    22 :       0.1818    0.1818    0.0909
  band No.  band energies     occupation 
      1      -0.3936      2.00000
      2       9.5831      0.00000
      3      10.1684      0.00000
      4      12.4291      0.00000
      5      23.6427      0.00000
      6      24.5895      0.00000
      7      26.7350      0.00000
      8      27.6123      0.00000

 k-point    23 :       0.2727    0.1818    0.0909
  band No.  band energies     occupation 
      1       1.5082      2.00000
      2       6.6792      2.00000
      3       9.2277      1.81502
      4      11.7568      0.00000
      5      23.7777      0.00000
      6      25.1293      0.00000
      7      27.7899      0.00000
      8      29.1720      0.00000

 k-point    24 :       0.3636    0.1818    0.0909
  band No.  band energies     occupation 
      1       3.5902      2.00000
      2       4.1784      2.00000
      3       8.9905      2.00000
      4      11.5334      0.00000
      5      23.7104      0.00000
      6      25.3120      0.00000
      7      28.6825      0.00000
      8      29.3362      0.00000

 k-point    25 :      -0.1818    0.1818    0.0909
  band No.  band energies     occupation 
      1      -3.2885      2.00000
      2      14.3097      0.00000
      3      15.7265      0.00000
      4      17.6932      0.00000
      5      20.3634      0.00000
      6      21.1499      0.00000
      7      23.4489      0.00000
      8      25.5972      0.00000

 k-point    26 :       0.2727    0.2727    0.0909
  band No.  band energies     occupation 
      1       3.5999      2.00000
      2       6.0230      2.00000
      3       6.4970      2.00000
      4      11.3018      0.00000
      5      24.9093      0.00000
      6      26.3379      0.00000
      7      27.9530      0.00000
      8      29.9204      0.00000

 k-point    27 :      -0.2727    0.2727    0.0909
  band No.  band energies     occupation 
      1      -2.0767      2.00000
      2      10.7361      0.00000
      3      14.4665      0.00000
      4      16.8398      0.00000
      5      19.9662      0.00000
      6      20.2889      0.00000
      7      23.3040      0.00000
      8      28.7404      0.00000

 k-point    28 :      -0.1818    0.2727    0.0909
  band No.  band energies     occupation 
      1      -2.3184      2.00000
      2      12.6269      0.00000
      3      13.0511      0.00000
      4      17.2085      0.00000
      5      19.2717      0.00000
      6      20.7665      0.00000
      7      25.0257      0.00000
      8      26.0344      0.00000

 k-point    29 :      -0.3636    0.3636    0.0909
  band No.  band energies     occupation 
      1      -0.3941      2.00000
      2       7.3742      2.00000
      3      13.6149      0.00000
      4      16.0875      0.00000
      5      19.1181      0.00000
      6      20.3147      0.00000
      7      23.9113      0.00000
      8      29.0319      0.00000

 k-point    30 :      -0.2727    0.3636    0.0909
  band No.  band energies     occupation 
      1      -0.8725      2.00000
      2       9.3847      0.00184
      3      11.7702      0.00000
      4      16.7300      0.00000
      5      19.2522      0.00000
      6      20.3060      0.00000
      7      24.8202      0.00000
      8      27.8911      0.00000

 k-point    31 :      -0.4545    0.4545    0.0909
  band No.  band energies     occupation 
      1       1.7321      2.00000
      2       4.3896      2.00000
      3      13.1865      0.00000
      4      15.6825      0.00000
      5      18.6817      0.00000
      6      20.2128      0.00000
      7      25.3952      0.00000
      8      27.3882      0.00000

 k-point    32 :      -0.3636    0.4545    0.0909
  band No.  band energies     occupation 
      1       1.0345      2.00000
      2       6.2244      2.00000
      3      11.0985      0.00000
      4      16.2292      0.00000
      5      18.9220      0.00000
      6      21.1842      0.00000
      7      24.3748      0.00000
      8      27.0180      0.00000

 k-point    33 :      -0.2727    0.4545    0.0909
  band No.  band energies     occupation 
      1       0.7991      2.00000
      2       8.2755      2.00000
      3       8.7287      2.00000
      4      16.9691      0.00000
      5      19.4276      0.00000
      6      19.7899      0.00000
      7      25.4911      0.00000
      8      27.7598      0.00000

 k-point    34 :      -0.4545   -0.4545    0.0909
  band No.  band energies     occupation 
      1       3.1279      2.00000
      2       3.7047      2.00000
      3      10.8746      0.00000
      4      16.0430      0.00000
      5      18.7430      0.00000
      6      21.8958      0.00000
      7      24.2572      0.00000
      8      26.0208      0.00000

 k-point    35 :      -0.3636   -0.4545    0.0909
  band No.  band energies     occupation 
      1       2.9100      2.00000
      2       5.5332      2.00000
      3       8.0705      2.00000
      4      16.8455      0.00000
      5      19.2687      0.00000
      6      21.0355      0.00000
      7      23.3062      0.00000
      8      28.4897      0.00000

 k-point    36 :      -0.3636   -0.3636    0.0909
  band No.  band energies     occupation 
      1       4.7817      2.00000
      2       5.5463      2.00000
      3       5.5463      2.00000
      4      16.9369      0.00000
      5      20.5423      0.00000
      6      21.1698      0.00000
      7      21.1698      0.00000
      8      31.4078      0.00000

 k-point    37 :       0.1818    0.1818    0.1818
  band No.  band energies     occupation 
      1       1.2732      2.00000
      2       8.4868      2.00000
      3       9.2761      0.96368
      4       9.2761      0.96368
      5      26.1942      0.00000
      6      26.1942      0.00000
      7      28.3538      0.00000
      8      28.3538      0.00000

 k-point    38 :       0.2727    0.1818    0.1818
  band No.  band energies     occupation 
      1       3.3759      2.00000
      2       5.9933      2.00000
      3       8.3553      2.00000
      4       8.8252      2.00000
      5      26.7998      0.00000
      6      27.1447      0.00000
      7      29.5582      0.00000
      8      29.7601      0.00000

 k-point    39 :      -0.1818    0.1818    0.1818
  band No.  band energies     occupation 
      1      -2.5603      2.00000
      2      14.1017      0.00000
      3      14.1017      0.00000
      4      15.6583      0.00000
      5      17.8302      0.00000
      6      23.5100      0.00000
      7      24.8277      0.00000
      8      24.8277      0.00000

 k-point    40 :       0.2727    0.2727    0.1818
  band No.  band energies     occupation 
      1       5.1940      2.00000
      2       6.0412      2.00000
      3       6.0412      2.00000
      4       8.3900      2.00000
      5      27.8612      0.00000
      6      29.2350      0.00000
      7      29.2350      0.00000
      8      30.6453      0.00000

 k-point    41 :      -0.2727    0.2727    0.1818
  band No.  band energies     occupation 
      1      -1.3528      2.00000
      2      11.2905      0.00000
      3      12.8207      0.00000
      4      15.0432      0.00000
      5      17.2441      0.00000
      6      22.8901      0.00000
      7      24.8213      0.00000
      8      27.5273      0.00000

 k-point    42 :      -0.3636    0.3636    0.1818
  band No.  band energies     occupation 
      1       0.3238      2.00000
      2       8.0318      2.00000
      3      11.9556      0.00000
      4      14.3687      0.00000
      5      18.2699      0.00000
      6      22.0948      0.00000
      7      23.8461      0.00000
      8      26.5655      0.00000

 k-point    43 :      -0.2727    0.3636    0.1818
  band No.  band energies     occupation 
      1       0.0859      2.00000
      2      10.0193      0.00000
      3      10.3724      0.00000
      4      15.0549      0.00000
      5      16.4839      0.00000
      6      22.6432      0.00000
      7      24.8693      0.00000
      8      27.1654      0.00000

 k-point    44 :      -0.4545    0.4545    0.1818
  band No.  band energies     occupation 
      1       2.4422      2.00000
      2       5.0783      2.00000
      3      11.5211      0.00000
      4      13.9581      0.00000
      5      19.7064      0.00000
      6      21.6773      0.00000
      7      22.5003      0.00000
      8      25.6565      0.00000

 k-point    45 :      -0.3636    0.4545    0.1818
  band No.  band energies     occupation 
      1       1.9825      2.00000
      2       7.1127      2.00000
      3       9.5447      0.00000
      4      14.8934      0.00000
      5      17.4966      0.00000
      6      21.6668      0.00000
      7      22.8890      0.00000
      8      27.7344      0.00000

 k-point    46 :      -0.4545   -0.4545    0.1818
  band No.  band energies     occupation 
      1       4.0719      2.00000
      2       4.6169      2.00000
      3       9.3156      0.24553
      4      14.7283      0.00000
      5      18.8278      0.00000
      6      20.2901      0.00000
      7      22.3387      0.00000
      8      27.7116      0.00000

 k-point    47 :      -0.3636   -0.4545    0.1818
  band No.  band energies     occupation 
      1       4.0689      2.00000
      2       6.4777      2.00000
      3       6.8867      2.00000
      4      16.0571      0.00000
      5      17.6148      0.00000
      6      19.5448      0.00000
      7      22.2817      0.00000
      8      30.4949      0.00000

 k-point    48 :      -0.2727    0.2727    0.2727
  band No.  band energies     occupation 
      1      -0.1526      2.00000
      2      11.5286      0.00000
      3      11.5286      0.00000
      4      13.2361      0.00000
      5      14.8890      0.00000
      6      24.5024      0.00000
      7      25.8510      0.00000
      8      26.9665      0.00000

 k-point    49 :      -0.3636    0.3636    0.2727
  band No.  band energies     occupation 
      1       1.5128      2.00000
      2       9.0610      2.00000
      3      10.6560      0.00000
      4      12.8977      0.00000
      5      14.9219      0.00000
      6      21.6907      0.00000
      7      25.5428      0.00000
      8      27.7456      0.00000

 k-point    50 :      -0.4545    0.4545    0.2727
  band No.  band energies     occupation 
      1       3.6150      2.00000
      2       6.2077      2.00000
      3      10.2181      0.00000
      4      12.5686      0.00000
      5      16.5437      0.00000
      6      19.1000      0.00000
      7      25.1541      0.00000
      8      27.8582      0.00000

 k-point    51 :      -0.3636    0.4545    0.2727
  band No.  band energies     occupation 
      1       3.3902      2.00000
      2       8.2330      2.00000
      3       8.5628      2.00000
      4      13.3885      0.00000
      5      14.5849      0.00000
      6      18.8319      0.00000
      7      25.8504      0.00000
      8      29.9194      0.00000

 k-point    52 :      -0.4545   -0.4545    0.2727
  band No.  band energies     occupation 
      1       5.4591      2.00000
      2       5.9627      2.00000
      3       8.1944      2.00000
      4      13.5457      0.00000
      5      15.8653      0.00000
      6      16.6909      0.00000
      7      25.7337      0.00000
      8      30.5220      0.00000

 k-point    53 :      -0.3636    0.3636    0.3636
  band No.  band energies     occupation 
      1       3.1595      2.00000
      2       9.7803      0.00000
      3       9.7803      0.00000
      4      11.4862      0.00000
      5      12.9130      0.00000
      6      18.6026      0.00000
      7      29.0056      0.00000
      8      29.7270      0.00000

 k-point    54 :      -0.4545    0.4545    0.3636
  band No.  band energies     occupation 
      1       5.2290      2.00000
      2       7.7109      2.00000
      3       9.3406      0.06163
      4      11.5134      0.00000
      5      13.4937      0.00000
      6      15.8506      0.00000
      7      28.9494      0.00000
      8      30.6239      0.00000

 k-point    55 :      -0.4545   -0.4545    0.3636
  band No.  band energies     occupation 
      1       7.1101      2.00000
      2       7.6530      2.00000
      3       7.6530      2.00000
      4      12.1611      0.00000
      5      13.6291      0.00000
      6      13.6291      0.00000
      7      29.4479      0.00000
      8      32.7731      0.00000

 k-point    56 :      -0.4545    0.4545    0.4545
  band No.  band energies     occupation 
      1       7.2119      2.00000
      2       8.9003      2.00000
      3       8.9003      2.00000
      4      10.4546      0.00000
      5      11.9228      0.00000
      6      13.1367      0.00000
      7      32.4227      0.00000
      8      32.5926      0.00000


--------------------------------------------------------------------------------------------------------


 soft charge-density along one line, spin component           1
         0         1         2         3         4         5         6         7         8         9
 total charge-density along one line
 
 pseudopotential strength for first ion, spin component:           1
 18.060  25.195   0.000  -0.000   0.000   0.000  -0.000   0.000
 25.195  35.154   0.000  -0.000   0.000   0.000  -0.000   0.000
  0.000   0.000   4.109  -0.000   0.000   7.656  -0.000   0.000
 -0.000  -0.000  -0.000   4.109  -0.000  -0.000   7.656  -0.000
  0.000   0.000   0.000  -0.000   4.109   0.000  -0.000   7.656
  0.000   0.000   7.656  -0.000   0.000  14.274  -0.000   0.000
 -0.000  -0.000  -0.000   7.656  -0.000  -0.000  14.274  -0.000
  0.000   0.000   0.000  -0.000   7.656   0.000  -0.000  14.274
 total augmentation occupancy for first ion, spin component:           1
  4.397  -1.713   0.000   0.000   0.000   0.000   0.000   0.000
 -1.713   1.098   0.000   0.000   0.000   0.000   0.000   0.000
  0.000   0.000   2.135   0.000  -0.000  -0.483  -0.000   0.000
  0.000   0.000   0.000   2.135  -0.000  -0.000  -0.483   0.000
  0.000   0.000   0.000  -0.000   2.135   0.000  -0.000  -0.483
  0.000   0.000  -0.483  -0.000   0.000   0.123  -0.000  -0.000
  0.000   0.000  -0.000  -0.483  -0.000   0.000   0.123  -0.000
  0.000   0.000   0.000  -0.000  -0.483  -0.000  -0.000   0.123


------------------------ aborting loop because EDIFF is reached ----------------------------------------


    CHARGE:  cpu time    0.0220: real time    0.0227
    FORLOC:  cpu time    0.0000: real time    0.0006
    FORNL :  cpu time    0.0510: real time    0.0508
    STRESS:  cpu time    0.2590: real time    0.2596
    FORCOR:  cpu time    0.0130: real time    0.0140
    FORHAR:  cpu time    0.0030: real time    0.0028
    MIXING:  cpu time    0.0010: real time    0.0007
    OFIELD:  cpu time    0.0000: real time    0.0002

  FORCE on cell =-STRESS in cart. coord.  units (eV):
  Direction    XX          YY          ZZ          XY          YZ          ZX
  --------------------------------------------------------------------------------------
  Alpha Z     2.19016     2.19016     2.19016
  Ewald     -44.60997   -44.60997   -44.60997    -0.00000     0.00000    -0.00000
  Hartree     0.16989     0.16989     0.16989    -0.00000     0.00000     0.00000
  E(xc)     -12.51051   -12.51051   -12.51051     0.00000    -0.00000    -0.00000
  Local      -5.50524    -5.50524    -5.50524    -0.00000     0.00000     0.00000
  n-local    38.52747    38.35107    38.16780    -0.92734    -0.88905     0.35847
  augment    -6.30989    -6.30989    -6.30989     0.00000    -0.00000    -0.00000
  Kinetic    24.08994    33.49269    25.78583    12.11892    11.53904    -5.28549
  Fock        0.00000     0.00000     0.00000     0.00000     0.00000     0.00000
  -------------------------------------------------------------------------------------
  Total      -0.43729    -0.43729    -0.43729     0.00000     0.00000     0.00000
  in kB     -45.58262   -45.58262   -45.58262     0.00000     0.00000     0.00000
  external pressure =      -45.58 kB  Pullay stress =        0.00 kB


 VOLUME and BASIS-vectors are now :
 -----------------------------------------------------------------------------
  energy-cutoff  :      350.00
  volume of cell :       15.37
      direct lattice vectors                 reciprocal lattice vectors
     1.566292027  1.566292027  1.566292027     0.319225273  0.319225273  0.000000000
     1.566292027 -1.566292027 -1.566292027     0.319225273  0.000000000 -0.319225273
    -1.566292027  1.566292027 -1.566292027     0.000000000  0.319225273 -0.319225273

  length of vectors
     2.712897370  2.712897370  2.712897370     0.451452711  0.451452711  0.451452711


 FORCES acting on ions
    electron-ion (+dipol)            ewald-force                    non-local-force                 convergence-correction
 -----------------------------------------------------------------------------------------------
   0.555E-15 0.776E-15 -.228E-15   0.136E-15 0.490E-17 -.924E-16   0.265E-22 -.662E-23 -.993E-23   0.141E-15 0.143E-15 0.201E-16
 -----------------------------------------------------------------------------------------------
   0.555E-15 0.776E-15 -.228E-15   0.136E-15 0.490E-17 -.924E-16   0.265E-22 -.662E-23 -.993E-23   0.141E-15 0.143E-15 0.201E-16
 
 
 POSITION                                       TOTAL-FORCE (eV/Angst)
 -----------------------------------------------------------------------------------
      0.00000      0.00000      0.00000         0.000000     -0.000000     -0.000000
 -----------------------------------------------------------------------------------
    total drift:                                0.000000      0.000000     -0.000000


--------------------------------------------------------------------------------------------------------



  FREE ENERGIE OF THE ION-ELECTRON SYSTEM (eV)
  ---------------------------------------------------
  free  energy   TOTEN  =        -4.87117052 eV

  energy  without entropy=       -4.87005338  energy(sigma->0) =       -4.87061195
 


--------------------------------------------------------------------------------------------------------


    POTLOK:  cpu time    0.1800: real time    0.1863


--------------------------------------------------------------------------------------------------------




--------------------------------------------------------------------------------------------------------


  
 reached required accuracy - stopping structural energy minimisation
     LOOP+:  cpu time    4.5483: real time    4.7185
    4ORBIT:  cpu time    0.0000: real time    0.0000

 total amount of memory used by VASP MPI-rank0    33883. kBytes
=======================================================================

   base      :      30000. kBytes
   nonl-proj :        849. kBytes
   fftplans  :       1775. kBytes
   grid      :        819. kBytes
   one-center:          3. kBytes
   wavefun   :        437. kBytes
 
  
  
 General timing and accounting informations for this job:
 ========================================================
  
                  Total CPU time used (sec):        5.105
                            User time (sec):        4.916
                          System time (sec):        0.189
                         Elapsed time (sec):        5.879
  
                   Maximum memory used (kb):       55232.
                   Average memory used (kb):          N/A
  
                          Minor page faults:         9410
                          Major page faults:            1
                 Voluntary context switches:         9854
