<?xml version="1.0" encoding="ISO-8859-1"?>
<modeling>
 <generator>
  <i name="program" type="string">vasp </i>
  <i name="version" type="string">6.2.0  </i>
  <i name="subversion" type="string">18Jan21 (build Aug 12 2022 13:00:08) complex                          parallel </i>
  <i name="platform" type="string">LinuxIFC </i>
  <i name="date" type="string">2024 11 05 </i>
  <i name="time" type="string">05:45:47 </i>
 </generator>
 <incar>
  <i type="int" name="ISTART">     0</i>
  <i type="string" name="PREC">Accurate      (Accurate strictly avoids</i>
  <i type="logical" name="ADDGRID"> T  </i>
  <i type="int" name="ISPIN">     1</i>
  <i type="int" name="NELM">    90</i>
  <i type="int" name="NELMIN">     6</i>
  <i type="int" name="IBRION">     2</i>
  <i name="EDIFF">      0.00000100</i>
  <i name="EDIFFG">     -0.00200000</i>
  <i type="int" name="NSW">   100</i>
  <i type="int" name="ISIF">     2</i>
  <i type="int" name="ISYM">     2</i>
  <i name="ENCUT">    350.00000000</i>
  <i type="logical" name="LREAL"> F  </i>
  <i type="int" name="ISMEAR">     0</i>
  <i name="SIGMA">      0.05000000</i>
  <i type="logical" name="LWAVE"> F  </i>
  <i type="logical" name="LCHARG"> F  </i>
  <i type="logical" name="LASPH"> T  </i>
 </incar>
 <primitive_cell>
  <structure name="primitive_cell" >
   <crystal>
    <varray name="basis" >
     <v>       1.56629203       1.56629203       1.56629203 </v>
     <v>       1.56629203      -1.56629203      -1.56629203 </v>
     <v>      -1.56629203       1.56629203      -1.56629203 </v>
    </varray>
    <i name="volume">     15.37015344 </i>
    <varray name="rec_basis" >
     <v>       0.31922527       0.31922527       0.00000000 </v>
     <v>       0.31922527       0.00000000      -0.31922527 </v>
     <v>       0.00000000       0.31922527      -0.31922527 </v>
    </varray>
   </crystal>
   <varray name="positions" >
    <v>       0.00000000       0.00000000       0.00000000 </v>
   </varray>
  </structure>
  <varray name="primitive_index" >
   <v type="int" >        1 </v>
  </varray>
 </primitive_cell>
 <kpoints>
  <generation param="Monkhorst-Pack">
   <v type="int" name="divisions">      11       11       11 </v>
   <v name="usershift">      0.00000000       0.00000000       0.00000000 </v>
   <v name="genvec1">      0.09090909       0.00000000       0.00000000 </v>
   <v name="genvec2">      0.00000000       0.09090909       0.00000000 </v>
   <v name="genvec3">      0.00000000       0.00000000       0.09090909 </v>
   <v name="shift">      0.00000000       0.00000000       0.00000000 </v>
  </generation>
  <varray name="kpointlist" >
   <v>       0.00000000       0.00000000       0.00000000 </v>
   <v>       0.09090909       0.00000000       0.00000000 </v>
   <v>       0.18181818       0.00000000       0.00000000 </v>
   <v>       0.27272727       0.00000000       0.00000000 </v>
   <v>       0.36363636       0.00000000       0.00000000 </v>
   <v>       0.45454545       0.00000000       0.00000000 </v>
   <v>       0.09090909       0.09090909       0.00000000 </v>
   <v>       0.18181818       0.09090909      -0.00000000 </v>
   <v>       0.27272727       0.09090909       0.00000000 </v>
   <v>       0.36363636       0.09090909      -0.00000000 </v>
   <v>       0.45454545       0.09090909      -0.00000000 </v>
   <v>       0.18181818       0.18181818      -0.00000000 </v>
   <v>       0.27272727       0.18181818      -0.00000000 </v>
   <v>       0.36363636       0.18181818       0.00000000 </v>
   <v>       0.27272727       0.27272727       0.00000000 </v>
   <v>       0.36363636       0.27272727       0.00000000 </v>
   <v>       0.09090909       0.09090909       0.09090909 </v>
   <v>       0.18181818       0.09090909       0.09090909 </v>
   <v>       0.27272727       0.09090909       0.09090909 </v>
   <v>       0.36363636       0.09090909       0.09090909 </v>
   <v>      -0.09090909       0.09090909       0.09090909 </v>
   <v>       0.18181818       0.18181818       0.09090909 </v>
   <v>       0.27272727       0.18181818       0.09090909 </v>
   <v>       0.36363636       0.18181818       0.09090909 </v>
   <v>      -0.18181818       0.18181818       0.09090909 </v>
   <v>       0.27272727       0.27272727       0.09090909 </v>
   <v>      -0.27272727       0.27272727       0.09090909 </v>
   <v>      -0.18181818       0.27272727       0.09090909 </v>
   <v>      -0.36363636       0.36363636       0.09090909 </v>
   <v>      -0.27272727       0.36363636       0.09090909 </v>
   <v>      -0.45454545       0.45454545       0.09090909 </v>
   <v>      -0.36363636       0.45454545       0.09090909 </v>
   <v>      -0.27272727       0.45454545       0.09090909 </v>
   <v>      -0.45454545      -0.45454545       0.09090909 </v>
   <v>      -0.36363636      -0.45454545       0.09090909 </v>
   <v>      -0.36363636      -0.36363636       0.09090909 </v>
   <v>       0.18181818       0.18181818       0.18181818 </v>
   <v>       0.27272727       0.18181818       0.18181818 </v>
   <v>      -0.18181818       0.18181818       0.18181818 </v>
   <v>       0.27272727       0.27272727       0.18181818 </v>
   <v>      -0.27272727       0.27272727       0.18181818 </v>
   <v>      -0.36363636       0.36363636       0.18181818 </v>
   <v>      -0.27272727       0.36363636       0.18181818 </v>
   <v>      -0.45454545       0.45454545       0.18181818 </v>
   <v>      -0.36363636       0.45454545       0.18181818 </v>
   <v>      -0.45454545      -0.45454545       0.18181818 </v>
   <v>      -0.36363636      -0.45454545       0.18181818 </v>
   <v>      -0.27272727       0.27272727       0.27272727 </v>
   <v>      -0.36363636       0.36363636       0.27272727 </v>
   <v>      -0.45454545       0.45454545       0.27272727 </v>
   <v>      -0.36363636       0.45454545       0.27272727 </v>
   <v>      -0.45454545      -0.45454545       0.27272727 </v>
   <v>      -0.36363636       0.36363636       0.36363636 </v>
   <v>      -0.45454545       0.45454545       0.36363636 </v>
   <v>      -0.45454545      -0.45454545       0.36363636 </v>
   <v>      -0.45454545       0.45454545       0.45454545 </v>
  </varray>
  <varray name="weights" >
   <v>       0.00075131 </v>
   <v>       0.00901578 </v>
   <v>       0.00901578 </v>
   <v>       0.00901578 </v>
   <v>       0.00901578 </v>
   <v>       0.00901578 </v>
   <v>       0.01803156 </v>
   <v>       0.03606311 </v>
   <v>       0.03606311 </v>
   <v>       0.03606311 </v>
   <v>       0.01803156 </v>
   <v>       0.01803156 </v>
   <v>       0.03606311 </v>
   <v>       0.03606311 </v>
   <v>       0.01803156 </v>
   <v>       0.01803156 </v>
   <v>       0.00601052 </v>
   <v>       0.01803156 </v>
   <v>       0.01803156 </v>
   <v>       0.01803156 </v>
   <v>       0.00450789 </v>
   <v>       0.01803156 </v>
   <v>       0.03606311 </v>
   <v>       0.01803156 </v>
   <v>       0.01803156 </v>
   <v>       0.01803156 </v>
   <v>       0.01803156 </v>
   <v>       0.01803156 </v>
   <v>       0.01803156 </v>
   <v>       0.03606311 </v>
   <v>       0.01803156 </v>
   <v>       0.03606311 </v>
   <v>       0.01803156 </v>
   <v>       0.01803156 </v>
   <v>       0.03606311 </v>
   <v>       0.00601052 </v>
   <v>       0.00601052 </v>
   <v>       0.01803156 </v>
   <v>       0.00450789 </v>
   <v>       0.00601052 </v>
   <v>       0.01803156 </v>
   <v>       0.01803156 </v>
   <v>       0.01803156 </v>
   <v>       0.01803156 </v>
   <v>       0.03606311 </v>
   <v>       0.01803156 </v>
   <v>       0.01803156 </v>
   <v>       0.00450789 </v>
   <v>       0.01803156 </v>
   <v>       0.01803156 </v>
   <v>       0.01803156 </v>
   <v>       0.01803156 </v>
   <v>       0.00450789 </v>
   <v>       0.01803156 </v>
   <v>       0.00601052 </v>
   <v>       0.00450789 </v>
  </varray>
 </kpoints>
 <parameters>
  <separator name="general" >
   <i type="string" name="SYSTEM">unknown system</i>
   <i type="logical" name="LCOMPAT"> F  </i>
  </separator>
  <separator name="electronic" >
   <i type="string" name="PREC">accura</i>
   <i name="ENMAX">    350.00000000</i>
   <i name="ENAUG">    322.06900000</i>
   <i name="EDIFF">      0.00000100</i>
   <i type="int" name="IALGO">    38</i>
   <i type="int" name="IWAVPR">    11</i>
   <i type="int" name="NBANDS">     8</i>
   <i type="int" name="NBANDSLOW">    -1</i>
   <i type="int" name="NBANDSHIGH">    -1</i>
   <i name="NELECT">      4.00000000</i>
   <i type="int" name="TURBO">     0</i>
   <i type="int" name="IRESTART">     0</i>
   <i type="int" name="NREBOOT">     0</i>
   <i type="int" name="NMIN">     0</i>
   <i name="EREF">      0.00000000</i>
   <separator name="electronic smearing" >
    <i type="int" name="ISMEAR">     0</i>
    <i name="SIGMA">      0.05000000</i>
    <i name="KSPACING">      0.50000000</i>
    <i type="logical" name="KGAMMA"> T  </i>
    <i type="logical" name="KBLOWUP"> T  </i>
   </separator>
   <separator name="electronic projectors" >
    <i type="logical" name="LREAL"> F  </i>
    <v name="ROPT">      0.00000000</v>
    <i type="int" name="LMAXPAW">  -100</i>
    <i type="int" name="LMAXMIX">     2</i>
    <i type="logical" name="NLSPLINE"> F  </i>
   </separator>
   <separator name="electronic startup" >
    <i type="int" name="ISTART">     0</i>
    <i type="int" name="ICHARG">     2</i>
    <i type="int" name="INIWAV">     1</i>
   </separator>
   <separator name="electronic spin" >
    <i type="int" name="ISPIN">     1</i>
    <i type="logical" name="LNONCOLLINEAR"> F  </i>
    <v name="MAGMOM">      1.00000000</v>
    <i name="NUPDOWN">     -1.00000000</i>
    <i type="logical" name="LSORBIT"> F  </i>
    <v name="SAXIS">      0.00000000      0.00000000      1.00000000</v>
    <i type="logical" name="LSPIRAL"> F  </i>
    <v name="QSPIRAL">      0.00000000      0.00000000      0.00000000</v>
    <i type="logical" name="LZEROZ"> F  </i>
   </separator>
   <separator name="electronic exchange-correlation" >
    <i type="logical" name="LASPH"> T  </i>
    <i type="logical" name="LMETAGGA"> F  </i>
   </separator>
   <separator name="electronic convergence" >
    <i type="int" name="NELM">    90</i>
    <i type="int" name="NELMDL">    -5</i>
    <i type="int" name="NELMIN">     6</i>
    <i name="ENINI">    350.00000000</i>
    <separator name="electronic convergence detail" >
     <i type="logical" name="LDIAG"> T  </i>
     <i type="logical" name="LSUBROT"> F  </i>
     <i name="WEIMIN">      0.00100000</i>
     <i name="EBREAK">      0.00000003</i>
     <i name="DEPER">      0.30000000</i>
     <i type="int" name="NRMM">     4</i>
     <i name="TIME">      0.40000000</i>
    </separator>
   </separator>
   <separator name="electronic mixer" >
    <i name="AMIX">      0.40000000</i>
    <i name="BMIX">      1.00000000</i>
    <i name="AMIN">      0.10000000</i>
    <i name="AMIX_MAG">      1.60000000</i>
    <i name="BMIX_MAG">      1.00000000</i>
    <separator name="electronic mixer details" >
     <i type="int" name="IMIX">     4</i>
     <i type="logical" name="MIXFIRST"> F  </i>
     <i type="int" name="MAXMIX">   -45</i>
     <i name="WC">    100.00000000</i>
     <i type="int" name="INIMIX">     1</i>
     <i type="int" name="MIXPRE">     1</i>
     <i type="int" name="MREMOVE">     5</i>
    </separator>
   </separator>
   <separator name="electronic dipolcorrection" >
    <i type="logical" name="LDIPOL"> F  </i>
    <i type="logical" name="LMONO"> F  </i>
    <i type="int" name="IDIPOL">     0</i>
    <i name="EPSILON">      1.00000000</i>
    <v name="DIPOL">   -100.00000000   -100.00000000   -100.00000000</v>
    <i name="EFIELD">      0.00000000</i>
   </separator>
  </separator>
  <separator name="grids" >
   <i type="int" name="NGX">    18</i>
   <i type="int" name="NGY">    18</i>
   <i type="int" name="NGZ">    18</i>
   <i type="int" name="NGXF">    36</i>
   <i type="int" name="NGYF">    36</i>
   <i type="int" name="NGZF">    36</i>
   <i type="logical" name="ADDGRID"> T  </i>
  </separator>
  <separator name="ionic" >
   <i type="int" name="NSW">   100</i>
   <i type="int" name="IBRION">     2</i>
   <i type="int" name="MDALGO">     0</i>
   <i type="int" name="ISIF">     2</i>
   <i name="PSTRESS">      0.00000000</i>
   <i name="EDIFFG">     -0.00200000</i>
   <i type="int" name="NFREE">     1</i>
   <i name="POTIM">      0.50000000</i>
   <i name="SMASS">     -3.00000000</i>
   <i name="SCALEE">      1.00000000</i>
  </separator>
  <separator name="ionic md" >
   <i name="TEBEG">      0.00010000</i>
   <i name="TEEND">      0.00010000</i>
   <i type="int" name="NBLOCK">     1</i>
   <i type="int" name="KBLOCK">   100</i>
   <i type="int" name="NPACO">   256</i>
   <i name="APACO">     16.00000000</i>
  </separator>
  <separator name="symmetry" >
   <i type="int" name="ISYM">     2</i>
   <i name="SYMPREC">      0.00001000</i>
  </separator>
  <separator name="dos" >
   <i type="int" name="LORBIT">     0</i>
   <v name="RWIGS">     -1.00000000</v>
   <i type="int" name="NEDOS">   301</i>
   <i name="EMIN">     10.00000000</i>
   <i name="EMAX">    -10.00000000</i>
   <i name="EFERMI">      0.00000000</i>
  </separator>
  <separator name="writing" >
   <i type="int" name="NWRITE">     2</i>
   <i type="logical" name="LWAVE"> F  </i>
   <i type="logical" name="LDOWNSAMPLE"> F  </i>
   <i type="logical" name="LCHARG"> F  </i>
   <i type="logical" name="LPARD"> F  </i>
   <i type="logical" name="LVTOT"> F  </i>
   <i type="logical" name="LVHAR"> F  </i>
   <i type="logical" name="LELF"> F  </i>
   <i type="logical" name="LOPTICS"> F  </i>
   <v name="STM">      0.00000000      0.00000000      0.00000000      0.00000000      0.00000000      0.00000000      0.00000000</v>
  </separator>
  <separator name="performance" >
   <i type="int" name="NPAR">     4</i>
   <i type="int" name="NSIM">     4</i>
   <i type="int" name="NBLK">    -1</i>
   <i type="logical" name="LPLANE"> T  </i>
   <i type="logical" name="LSCALAPACK"> T  </i>
   <i type="logical" name="LSCAAWARE"> F  </i>
   <i type="logical" name="LSCALU"> F  </i>
   <i type="logical" name="LASYNC"> F  </i>
   <i type="logical" name="LORBITALREAL"> F  </i>
  </separator>
  <separator name="miscellaneous" >
   <i type="int" name="IDIOT">     3</i>
   <i type="int" name="PHON_NSTRUCT">    -1</i>
   <i type="logical" name="LMUSIC"> F  </i>
   <v name="POMASS">     28.08500000</v>
   <v name="DARWINR">      0.00000000</v>
   <v name="DARWINV">      1.00000000</v>
   <i type="logical" name="LCORR"> T  </i>
  </separator>
  <i type="logical" name="GGA_COMPAT"> T  </i>
  <i type="logical" name="LBERRY"> F  </i>
  <i type="int" name="ICORELEVEL">     0</i>
  <i type="logical" name="LDAU"> F  </i>
  <i type="int" name="I_CONSTRAINED_M">     0</i>
  <separator name="electronic exchange-correlation" >
   <i type="string" name="GGA">--</i>
   <i type="int" name="VOSKOWN">     0</i>
   <i type="logical" name="LHFCALC"> F  </i>
   <i type="string" name="PRECFOCK"></i>
   <i type="logical" name="LSYMGRAD"> F  </i>
   <i type="logical" name="LHFONE"> F  </i>
   <i type="logical" name="LRHFCALC"> F  </i>
   <i type="logical" name="LTHOMAS"> F  </i>
   <i type="logical" name="LMODELHF"> F  </i>
   <i type="logical" name="LFOCKACE"> F  </i>
   <i name="ENCUT4O">     -1.00000000</i>
   <i type="int" name="EXXOEP">     0</i>
   <i type="int" name="FOURORBIT">     0</i>
   <i name="AEXX">      0.00000000</i>
   <i name="HFALPHA">      0.00000000</i>
   <i name="MCALPHA">      0.00000000</i>
   <i name="ALDAX">      1.00000000</i>
   <i name="AGGAX">      1.00000000</i>
   <i name="ALDAC">      1.00000000</i>
   <i name="AGGAC">      1.00000000</i>
   <i type="int" name="NKREDX">     1</i>
   <i type="int" name="NKREDY">     1</i>
   <i type="int" name="NKREDZ">     1</i>
   <i type="logical" name="SHIFTRED"> F  </i>
   <i type="logical" name="ODDONLY"> F  </i>
   <i type="logical" name="EVENONLY"> F  </i>
   <i type="int" name="LMAXFOCK">     0</i>
   <i type="int" name="NMAXFOCKAE">     0</i>
   <i type="logical" name="LFOCKAEDFT"> F  </i>
   <i name="HFSCREEN">      0.00000000</i>
   <i name="HFSCREENC">      0.00000000</i>
   <i type="int" name="NBANDSGWLOW">     0</i>
  </separator>
  <separator name="vdW DFT" >
   <i type="logical" name="LUSE_VDW"> F  </i>
   <i name="Zab_VDW">     -0.84910000</i>
   <i name="PARAM1">      0.12340000</i>
   <i name="PARAM2">      1.00000000</i>
   <i name="PARAM3">      0.00000000</i>
  </separator>
  <separator name="model GW" >
   <i type="int" name="MODEL_GW">     0</i>
   <i name="MODEL_EPS0">      9.22209206</i>
   <i name="MODEL_ALPHA">      1.00000000</i>
  </separator>
  <separator name="linear response parameters" >
   <i type="logical" name="LEPSILON"> F  </i>
   <i type="logical" name="LRPA"> F  </i>
   <i type="logical" name="LNABLA"> F  </i>
   <i type="logical" name="LVEL"> F  </i>
   <i type="int" name="KINTER">     0</i>
   <i name="CSHIFT">      0.10000000</i>
   <i name="OMEGAMAX">     -1.00000000</i>
   <i name="DEG_THRESHOLD">      0.00200000</i>
   <i name="RTIME">     -0.10000000</i>
   <i name="WPLASMAI">      0.00000000</i>
   <v name="DFIELD">      0.00000000      0.00000000      0.00000000</v>
   <v name="WPLASMA">      0.00000000      0.00000000      0.00000000      0.00000000      0.00000000      0.00000000      0.00000000      0.00000000      0.00000000</v>
  </separator>
  <separator name="orbital magnetization" >
   <i type="logical" name="NUCIND"> F  </i>
   <v name="MAGPOS">      0.00000000      0.00000000      0.00000000</v>
   <i type="logical" name="LNICSALL"> T  </i>
   <i type="logical" name="ORBITALMAG"> F  </i>
   <i type="logical" name="LMAGBLOCH"> F  </i>
   <i type="logical" name="LCHIMAG"> F  </i>
   <i type="logical" name="LGAUGE"> T  </i>
   <i type="int" name="MAGATOM">     0</i>
   <v name="MAGDIPOL">      0.00000000      0.00000000      0.00000000</v>
   <v name="AVECCONST">      0.00000000      0.00000000      0.00000000</v>
  </separator>
  <separator name="response functions" >
   <i type="logical" name="LFINITE_TEMPERATURE"> F  </i>
   <i type="logical" name="LADDER"> F  </i>
   <i type="logical" name="LRPAFORCE"> F  </i>
   <i type="logical" name="LFXC"> F  </i>
   <i type="logical" name="LHARTREE"> T  </i>
   <i type="int" name="IBSE">     0</i>
   <v type="int" name="KPOINT">    -1     0     0     0</v>
   <i type="logical" name="LTCTC"> F  </i>
   <i type="logical" name="LTCTE"> F  </i>
   <i type="logical" name="LTETE"> F  </i>
   <i type="logical" name="LTRIPLET"> F  </i>
   <i type="logical" name="LFXCEPS"> F  </i>
   <i type="logical" name="LFXHEG"> F  </i>
   <i type="int" name="NATURALO">     2</i>
   <i type="logical" name="LHOLEGF"> F  </i>
   <i type="logical" name="L2ORDER"> F  </i>
   <i type="logical" name="LDMP1"> F  </i>
   <i type="logical" name="LMP2LT"> F  </i>
   <i type="logical" name="LSMP2LT"> F  </i>
   <i type="logical" name="LGWLF"> F  </i>
   <i name="ENCUTGW">     -2.00000000</i>
   <i name="ENCUTGWSOFT">     -2.00000000</i>
   <i name="ENCUTLF">     -1.00000000</i>
   <i type="logical" name="LESF_SPLINES"> F  </i>
   <i type="int" name="LMAXMP2">    -1</i>
   <i name="SCISSOR">      0.00000000</i>
   <i type="int" name="NOMEGA">     0</i>
   <i type="int" name="NOMEGAR">     0</i>
   <i type="int" name="NBANDSGW">    -1</i>
   <i type="int" name="NBANDSO">    -1</i>
   <i type="int" name="NBANDSV">    -1</i>
   <i type="int" name="NELM">    90</i>
   <i type="int" name="NELMHF">     1</i>
   <i type="int" name="DIM">     3</i>
   <i type="int" name="IESPILON">     4</i>
   <i type="int" name="ANTIRES">     0</i>
   <i name="OMEGAMAX">    -30.00000000</i>
   <i name="OMEGAMIN">    -30.00000000</i>
   <i name="OMEGATL">   -200.00000000</i>
   <i type="int" name="OMEGAGRID">     0</i>
   <i name="CSHIFT">     -0.10000000</i>
   <i type="logical" name="LSELFENERGY"> F  </i>
   <i type="logical" name="LSPECTRAL"> F  </i>
   <i type="logical" name="LSPECTRALGW"> F  </i>
   <i type="logical" name="LSINGLES"> F  </i>
   <i type="logical" name="LFERMIGW"> F  </i>
   <i type="logical" name="ODDONLYGW"> F  </i>
   <i type="logical" name="EVENONLYGW"> F  </i>
   <i type="int" name="NKREDLFX">     1</i>
   <i type="int" name="NKREDLFY">     1</i>
   <i type="int" name="NKREDLFZ">     1</i>
   <i type="int" name="MAXMEM">  2800</i>
   <i type="int" name="TELESCOPE">     0</i>
   <i type="int" name="NTAUPAR">    -1</i>
   <i type="int" name="NOMEGAPAR">    -1</i>
   <i name="DAMP_NEWTON">      0.80000001</i>
   <i name="LAMBDA">      1.00000000</i>
  </separator>
  <separator name="External order field" >
   <i name="OFIELD_KAPPA">      0.00000000</i>
   <v name="OFIELD_K">      0.00000000      0.00000000      0.00000000</v>
   <i name="OFIELD_Q6_NEAR">      0.00000000</i>
   <i name="OFIELD_Q6_FAR">      0.00000000</i>
   <i name="OFIELD_A">      0.00000000</i>
  </separator>
 </parameters>
 <atominfo>
  <atoms>       1 </atoms>
  <types>       1 </types>
  <array name="atoms" >
   <dimension dim="1">ion</dimension>
   <field type="string">element</field>
   <field type="int">atomtype</field>
   <set>
    <rc><c>Si</c><c>   1</c></rc>
   </set>
  </array>
  <array name="atomtypes" >
   <dimension dim="1">type</dimension>
   <field type="int">atomspertype</field>
   <field type="string">element</field>
   <field>mass</field>
   <field>valence</field>
   <field type="string">pseudopotential</field>
   <set>
    <rc><c>   1</c><c>Si</c><c>     28.08500000</c><c>      4.00000000</c><c>  PAW_PBE Si 05Jan2001                  </c></rc>
   </set>
  </array>
 </atominfo>
 <structure name="initialpos" >
  <crystal>
   <varray name="basis" >
    <v>       1.56629203       1.56629203       1.56629203 </v>
    <v>       1.56629203      -1.56629203      -1.56629203 </v>
    <v>      -1.56629203       1.56629203      -1.56629203 </v>
   </varray>
   <i name="volume">     15.37015344 </i>
   <varray name="rec_basis" >
    <v>       0.31922527       0.31922527       0.00000000 </v>
    <v>       0.31922527       0.00000000      -0.31922527 </v>
    <v>       0.00000000       0.31922527      -0.31922527 </v>
   </varray>
  </crystal>
  <varray name="positions" >
   <v>       0.00000000       0.00000000       0.00000000 </v>
  </varray>
 </structure>
 <calculation>
  <scstep>
   <time name="dav">    0.28    0.28</time>
   <time name="total">    0.46    0.47</time>
   <energy>
    <i name="alphaZ">      2.19016231 </i>
    <i name="ewald">   -133.82992753 </i>
    <i name="hartreedc">     -0.70862567 </i>
    <i name="XCdc">     -8.96511584 </i>
    <i name="pawpsdc">     88.12379961 </i>
    <i name="pawaedc">    -70.53051779 </i>
    <i name="eentropy">     -0.00206073 </i>
    <i name="bandstr">     17.27005575 </i>
    <i name="atom">    103.06562707 </i>
    <i name="e_fr_energy">     -3.38660281 </i>
    <i name="e_wo_entrp">     -3.38454208 </i>
    <i name="e_0_energy">     -3.38557245 </i>
   </energy>
  </scstep>
  <scstep>
   <time name="dav">    0.36    0.37</time>
   <time name="total">    0.36    0.37</time>
   <energy>
    <i name="e_fr_energy">     -4.88046998 </i>
    <i name="e_wo_entrp">     -4.87945129 </i>
    <i name="e_0_energy">     -4.87996064 </i>
   </energy>
  </scstep>
  <scstep>
   <time name="dav">    0.30    0.32</time>
   <time name="total">    0.30    0.32</time>
   <energy>
    <i name="e_fr_energy">     -4.88795137 </i>
    <i name="e_wo_entrp">     -4.88693108 </i>
    <i name="e_0_energy">     -4.88744123 </i>
   </energy>
  </scstep>
  <scstep>
   <time name="dav">    0.38    0.39</time>
   <time name="total">    0.38    0.39</time>
   <energy>
    <i name="e_fr_energy">     -4.88795758 </i>
    <i name="e_wo_entrp">     -4.88693727 </i>
    <i name="e_0_energy">     -4.88744743 </i>
   </energy>
  </scstep>
  <scstep>
   <time name="dav">    0.30    0.31</time>
   <time name="total">    0.33    0.34</time>
   <energy>
    <i name="e_fr_energy">     -4.88795758 </i>
    <i name="e_wo_entrp">     -4.88693728 </i>
    <i name="e_0_energy">     -4.88744743 </i>
   </energy>
  </scstep>
  <scstep>
   <time name="dav">    0.26    0.26</time>
   <time name="total">    0.46    0.48</time>
   <energy>
    <i name="e_fr_energy">     -4.87714661 </i>
    <i name="e_wo_entrp">     -4.87608838 </i>
    <i name="e_0_energy">     -4.87661749 </i>
   </energy>
  </scstep>
  <scstep>
   <time name="dav">    0.28    0.28</time>
   <time name="total">    0.48    0.49</time>
   <energy>
    <i name="e_fr_energy">     -4.87118272 </i>
    <i name="e_wo_entrp">     -4.87006857 </i>
    <i name="e_0_energy">     -4.87062565 </i>
   </energy>
  </scstep>
  <scstep>
   <time name="dav">    0.35    0.35</time>
   <time name="total">    0.55    0.56</time>
   <energy>
    <i name="e_fr_energy">     -4.87116976 </i>
    <i name="e_wo_entrp">     -4.87005320 </i>
    <i name="e_0_energy">     -4.87061148 </i>
   </energy>
  </scstep>
  <scstep>
   <time name="dav">    0.31    0.31</time>
   <time name="total">    0.49    0.51</time>
   <energy>
    <i name="alphaZ">      2.19016231 </i>
    <i name="ewald">   -133.82992753 </i>
    <i name="hartreedc">     -0.50969393 </i>
    <i name="XCdc">     -8.92388268 </i>
    <i name="pawpsdc">    264.56702518 </i>
    <i name="pawaedc">   -246.97742874 </i>
    <i name="eentropy">     -0.00111715 </i>
    <i name="bandstr">     15.54806494 </i>
    <i name="atom">    103.06562707 </i>
    <i name="e_fr_energy">     -4.87117052 </i>
    <i name="e_wo_entrp">     -4.87005338 </i>
    <i name="e_0_energy">     -4.87061195 </i>
   </energy>
  </scstep>
  <structure>
   <crystal>
    <varray name="basis" >
     <v>       1.56629203       1.56629203       1.56629203 </v>
     <v>       1.56629203      -1.56629203      -1.56629203 </v>
     <v>      -1.56629203       1.56629203      -1.56629203 </v>
    </varray>
    <i name="volume">     15.37015344 </i>
    <varray name="rec_basis" >
     <v>       0.31922527       0.31922527       0.00000000 </v>
     <v>       0.31922527       0.00000000      -0.31922527 </v>
     <v>       0.00000000       0.31922527      -0.31922527 </v>
    </varray>
   </crystal>
   <varray name="positions" >
    <v>       0.00000000       0.00000000       0.00000000 </v>
   </varray>
  </structure>
  <varray name="forces" >
   <v>       0.00000000      -0.00000000      -0.00000000 </v>
  </varray>
  <varray name="stress" >
   <v>     -45.58261593       0.00000000       0.00000000 </v>
   <v>       0.00000000     -45.58261593      -0.00000000 </v>
   <v>      -0.00000000       0.00000000     -45.58261593 </v>
  </varray>
  <energy>
   <i name="e_fr_energy">     -4.87117052 </i>
   <i name="e_wo_entrp">     -4.87005338 </i>
   <i name="e_0_energy">     -4.87061195 </i>
  </energy>
  <time name="totalsc">    4.55    4.72</time>
  <eigenvalues>
   <array>
    <dimension dim="1">band</dimension>
    <dimension dim="2">kpoint</dimension>
    <dimension dim="3">spin</dimension>
    <field>eigene</field>
    <field>occ</field>
    <set>
     <set comment="spin 1">
      <set comment="kpoint 1">
       <r>   -4.5079    1.0000 </r>
       <r>   20.0267    0.0000 </r>
       <r>   20.0267    0.0000 </r>
       <r>   20.0267    0.0000 </r>
       <r>   21.6052    0.0000 </r>
       <r>   21.6052    0.0000 </r>
       <r>   21.6052    0.0000 </r>
       <r>   25.1865    0.0000 </r>
      </set>
      <set comment="kpoint 2">
       <r>   -4.2634    1.0000 </r>
       <r>   17.7767    0.0000 </r>
       <r>   18.5918    0.0000 </r>
       <r>   19.7233    0.0000 </r>
       <r>   20.8671    0.0000 </r>
       <r>   22.2866    0.0000 </r>
       <r>   23.4589    0.0000 </r>
       <r>   24.0779    0.0000 </r>
      </set>
      <set comment="kpoint 3">
       <r>   -3.5319    1.0000 </r>
       <r>   14.1855    0.0000 </r>
       <r>   16.9799    0.0000 </r>
       <r>   18.9650    0.0000 </r>
       <r>   19.4934    0.0000 </r>
       <r>   21.2898    0.0000 </r>
       <r>   24.7492    0.0000 </r>
       <r>   25.0722    0.0000 </r>
      </set>
      <set comment="kpoint 4">
       <r>   -2.3187    1.0000 </r>
       <r>   10.5345    0.0000 </r>
       <r>   15.7469    0.0000 </r>
       <r>   18.1131    0.0000 </r>
       <r>   18.2508    0.0000 </r>
       <r>   20.1186    0.0000 </r>
       <r>   25.8299    0.0000 </r>
       <r>   26.1233    0.0000 </r>
      </set>
      <set comment="kpoint 5">
       <r>   -0.6341    1.0000 </r>
       <r>    7.1513    1.0000 </r>
       <r>   14.9213    0.0000 </r>
       <r>   17.3685    0.0000 </r>
       <r>   17.4455    0.0000 </r>
       <r>   19.2882    0.0000 </r>
       <r>   27.0978    0.0000 </r>
       <r>   27.7302    0.0000 </r>
      </set>
      <set comment="kpoint 6">
       <r>    1.4946    1.0000 </r>
       <r>    4.1588    1.0000 </r>
       <r>   14.5082    0.0000 </r>
       <r>   16.9156    0.0000 </r>
       <r>   17.0894    0.0000 </r>
       <r>   18.8616    0.0000 </r>
       <r>   28.6196    0.0000 </r>
       <r>   29.2231    0.0000 </r>
      </set>
      <set comment="kpoint 7">
       <r>   -3.7754    1.0000 </r>
       <r>   15.8259    0.0000 </r>
       <r>   16.4806    0.0000 </r>
       <r>   18.3350    0.0000 </r>
       <r>   21.0285    0.0000 </r>
       <r>   22.3897    0.0000 </r>
       <r>   23.5869    0.0000 </r>
       <r>   24.7317    0.0000 </r>
      </set>
      <set comment="kpoint 8">
       <r>   -2.8030    1.0000 </r>
       <r>   12.4753    0.0000 </r>
       <r>   14.7447    0.0000 </r>
       <r>   17.1155    0.0000 </r>
       <r>   20.3761    0.0000 </r>
       <r>   21.8357    0.0000 </r>
       <r>   24.1396    0.0000 </r>
       <r>   26.5071    0.0000 </r>
      </set>
      <set comment="kpoint 9">
       <r>   -1.3538    1.0000 </r>
       <r>    8.9647    1.0000 </r>
       <r>   13.6547    0.0000 </r>
       <r>   16.1429    0.0000 </r>
       <r>   19.5147    0.0000 </r>
       <r>   21.3278    0.0000 </r>
       <r>   24.9934    0.0000 </r>
       <r>   28.2937    0.0000 </r>
      </set>
      <set comment="kpoint 10">
       <r>    0.5580    1.0000 </r>
       <r>    5.7715    1.0000 </r>
       <r>   13.0024    0.0000 </r>
       <r>   15.5313    0.0000 </r>
       <r>   18.9235    0.0000 </r>
       <r>   20.9137    0.0000 </r>
       <r>   26.4500    0.0000 </r>
       <r>   29.3311    0.0000 </r>
      </set>
      <set comment="kpoint 11">
       <r>    2.6516    1.0000 </r>
       <r>    3.2458    1.0000 </r>
       <r>   12.7844    0.0000 </r>
       <r>   15.3232    0.0000 </r>
       <r>   18.7190    0.0000 </r>
       <r>   20.7578    0.0000 </r>
       <r>   28.1393    0.0000 </r>
       <r>   28.3324    0.0000 </r>
      </set>
      <set comment="kpoint 12">
       <r>   -1.5943    1.0000 </r>
       <r>   10.9254    0.0000 </r>
       <r>   11.4702    0.0000 </r>
       <r>   15.9469    0.0000 </r>
       <r>   20.8891    0.0000 </r>
       <r>   21.9373    0.0000 </r>
       <r>   25.6295    0.0000 </r>
       <r>   26.8077    0.0000 </r>
      </set>
      <set comment="kpoint 13">
       <r>    0.0841    1.0000 </r>
       <r>    7.8190    1.0000 </r>
       <r>   10.3318    0.0000 </r>
       <r>   15.1417    0.0000 </r>
       <r>   20.5972    0.0000 </r>
       <r>   22.6374    0.0000 </r>
       <r>   25.8783    0.0000 </r>
       <r>   28.4952    0.0000 </r>
      </set>
      <set comment="kpoint 14">
       <r>    2.2049    1.0000 </r>
       <r>    4.8530    1.0000 </r>
       <r>    9.8709    0.0000 </r>
       <r>   14.7284    0.0000 </r>
       <r>   20.2605    0.0000 </r>
       <r>   23.4284    0.0000 </r>
       <r>   26.2720    0.0000 </r>
       <r>   27.9775    0.0000 </r>
      </set>
      <set comment="kpoint 15">
       <r>    1.9792    1.0000 </r>
       <r>    6.9202    1.0000 </r>
       <r>    7.4012    1.0000 </r>
       <r>   14.5351    0.0000 </r>
       <r>   21.7458    0.0000 </r>
       <r>   22.8309    0.0000 </r>
       <r>   26.5481    0.0000 </r>
       <r>   28.7221    0.0000 </r>
      </set>
      <set comment="kpoint 16">
       <r>    4.0468    1.0000 </r>
       <r>    4.6364    1.0000 </r>
       <r>    6.9630    1.0000 </r>
       <r>   14.3289    0.0000 </r>
       <r>   21.9169    0.0000 </r>
       <r>   23.9496    0.0000 </r>
       <r>   25.0375    0.0000 </r>
       <r>   29.5515    0.0000 </r>
      </set>
      <set comment="kpoint 17">
       <r>   -3.0457    1.0000 </r>
       <r>   13.9779    0.0000 </r>
       <r>   15.0468    0.0000 </r>
       <r>   15.0468    0.0000 </r>
       <r>   22.7891    0.0000 </r>
       <r>   22.7891    0.0000 </r>
       <r>   25.0170    0.0000 </r>
       <r>   25.0170    0.0000 </r>
      </set>
      <set comment="kpoint 18">
       <r>   -1.8355    1.0000 </r>
       <r>   10.9392    0.0000 </r>
       <r>   13.1323    0.0000 </r>
       <r>   13.8090    0.0000 </r>
       <r>   22.6495    0.0000 </r>
       <r>   23.0950    0.0000 </r>
       <r>   26.0784    0.0000 </r>
       <r>   26.2571    0.0000 </r>
      </set>
      <set comment="kpoint 19">
       <r>   -0.1550    1.0000 </r>
       <r>    7.6033    1.0000 </r>
       <r>   12.2144    0.0000 </r>
       <r>   12.9459    0.0000 </r>
       <r>   22.3031    0.0000 </r>
       <r>   22.5615    0.0000 </r>
       <r>   27.5243    0.0000 </r>
       <r>   27.8923    0.0000 </r>
      </set>
      <set comment="kpoint 20">
       <r>    1.9686    1.0000 </r>
       <r>    4.6239    1.0000 </r>
       <r>   11.7674    0.0000 </r>
       <r>   12.5055    0.0000 </r>
       <r>   22.0550    0.0000 </r>
       <r>   22.2267    0.0000 </r>
       <r>   28.9235    0.0000 </r>
       <r>   29.4445    0.0000 </r>
      </set>
      <set comment="kpoint 21">
       <r>   -4.0193    1.0000 </r>
       <r>   17.3306    0.0000 </r>
       <r>   17.3306    0.0000 </r>
       <r>   18.3865    0.0000 </r>
       <r>   21.6682    0.0000 </r>
       <r>   22.0858    0.0000 </r>
       <r>   23.1727    0.0000 </r>
       <r>   23.1727    0.0000 </r>
      </set>
      <set comment="kpoint 22">
       <r>   -0.3936    1.0000 </r>
       <r>    9.5831    0.0000 </r>
       <r>   10.1684    0.0000 </r>
       <r>   12.4291    0.0000 </r>
       <r>   23.6427    0.0000 </r>
       <r>   24.5895    0.0000 </r>
       <r>   26.7350    0.0000 </r>
       <r>   27.6123    0.0000 </r>
      </set>
      <set comment="kpoint 23">
       <r>    1.5082    1.0000 </r>
       <r>    6.6792    1.0000 </r>
       <r>    9.2277    0.9075 </r>
       <r>   11.7568    0.0000 </r>
       <r>   23.7777    0.0000 </r>
       <r>   25.1293    0.0000 </r>
       <r>   27.7899    0.0000 </r>
       <r>   29.1720    0.0000 </r>
      </set>
      <set comment="kpoint 24">
       <r>    3.5902    1.0000 </r>
       <r>    4.1784    1.0000 </r>
       <r>    8.9905    1.0000 </r>
       <r>   11.5334    0.0000 </r>
       <r>   23.7104    0.0000 </r>
       <r>   25.3120    0.0000 </r>
       <r>   28.6825    0.0000 </r>
       <r>   29.3362    0.0000 </r>
      </set>
      <set comment="kpoint 25">
       <r>   -3.2885    1.0000 </r>
       <r>   14.3097    0.0000 </r>
       <r>   15.7265    0.0000 </r>
       <r>   17.6932    0.0000 </r>
       <r>   20.3634    0.0000 </r>
       <r>   21.1499    0.0000 </r>
       <r>   23.4489    0.0000 </r>
       <r>   25.5972    0.0000 </r>
      </set>
      <set comment="kpoint 26">
       <r>    3.5999    1.0000 </r>
       <r>    6.0230    1.0000 </r>
       <r>    6.4970    1.0000 </r>
       <r>   11.3018    0.0000 </r>
       <r>   24.9093    0.0000 </r>
       <r>   26.3379    0.0000 </r>
       <r>   27.9530    0.0000 </r>
       <r>   29.9204    0.0000 </r>
      </set>
      <set comment="kpoint 27">
       <r>   -2.0767    1.0000 </r>
       <r>   10.7361    0.0000 </r>
       <r>   14.4665    0.0000 </r>
       <r>   16.8398    0.0000 </r>
       <r>   19.9662    0.0000 </r>
       <r>   20.2889    0.0000 </r>
       <r>   23.3040    0.0000 </r>
       <r>   28.7404    0.0000 </r>
      </set>
      <set comment="kpoint 28">
       <r>   -2.3184    1.0000 </r>
       <r>   12.6269    0.0000 </r>
       <r>   13.0511    0.0000 </r>
       <r>   17.2085    0.0000 </r>
       <r>   19.2717    0.0000 </r>
       <r>   20.7665    0.0000 </r>
       <r>   25.0257    0.0000 </r>
       <r>   26.0344    0.0000 </r>
      </set>
      <set comment="kpoint 29">
       <r>   -0.3941    1.0000 </r>
       <r>    7.3742    1.0000 </r>
       <r>   13.6149    0.0000 </r>
       <r>   16.0875    0.0000 </r>
       <r>   19.1181    0.0000 </r>
       <r>   20.3147    0.0000 </r>
       <r>   23.9113    0.0000 </r>
       <r>   29.0319    0.0000 </r>
      </set>
      <set comment="kpoint 30">
       <r>   -0.8725    1.0000 </r>
       <r>    9.3847    0.0009 </r>
       <r>   11.7702    0.0000 </r>
       <r>   16.7300    0.0000 </r>
       <r>   19.2522    0.0000 </r>
       <r>   20.3060    0.0000 </r>
       <r>   24.8202    0.0000 </r>
       <r>   27.8911    0.0000 </r>
      </set>
      <set comment="kpoint 31">
       <r>    1.7321    1.0000 </r>
       <r>    4.3896    1.0000 </r>
       <r>   13.1865    0.0000 </r>
       <r>   15.6825    0.0000 </r>
       <r>   18.6817    0.0000 </r>
       <r>   20.2128    0.0000 </r>
       <r>   25.3952    0.0000 </r>
       <r>   27.3882    0.0000 </r>
      </set>
      <set comment="kpoint 32">
       <r>    1.0345    1.0000 </r>
       <r>    6.2244    1.0000 </r>
       <r>   11.0985    0.0000 </r>
       <r>   16.2292    0.0000 </r>
       <r>   18.9220    0.0000 </r>
       <r>   21.1842    0.0000 </r>
       <r>   24.3748    0.0000 </r>
       <r>   27.0180    0.0000 </r>
      </set>
      <set comment="kpoint 33">
       <r>    0.7991    1.0000 </r>
       <r>    8.2755    1.0000 </r>
       <r>    8.7287    1.0000 </r>
       <r>   16.9691    0.0000 </r>
       <r>   19.4276    0.0000 </r>
       <r>   19.7899    0.0000 </r>
       <r>   25.4911    0.0000 </r>
       <r>   27.7598    0.0000 </r>
      </set>
      <set comment="kpoint 34">
       <r>    3.1279    1.0000 </r>
       <r>    3.7047    1.0000 </r>
       <r>   10.8746    0.0000 </r>
       <r>   16.0430    0.0000 </r>
       <r>   18.7430    0.0000 </r>
       <r>   21.8958    0.0000 </r>
       <r>   24.2572    0.0000 </r>
       <r>   26.0208    0.0000 </r>
      </set>
      <set comment="kpoint 35">
       <r>    2.9100    1.0000 </r>
       <r>    5.5332    1.0000 </r>
       <r>    8.0705    1.0000 </r>
       <r>   16.8455    0.0000 </r>
       <r>   19.2687    0.0000 </r>
       <r>   21.0355    0.0000 </r>
       <r>   23.3062    0.0000 </r>
       <r>   28.4897    0.0000 </r>
      </set>
      <set comment="kpoint 36">
       <r>    4.7817    1.0000 </r>
       <r>    5.5463    1.0000 </r>
       <r>    5.5463    1.0000 </r>
       <r>   16.9369    0.0000 </r>
       <r>   20.5423    0.0000 </r>
       <r>   21.1698    0.0000 </r>
       <r>   21.1698    0.0000 </r>
       <r>   31.4078    0.0000 </r>
      </set>
      <set comment="kpoint 37">
       <r>    1.2732    1.0000 </r>
       <r>    8.4868    1.0000 </r>
       <r>    9.2761    0.4818 </r>
       <r>    9.2761    0.4818 </r>
       <r>   26.1942    0.0000 </r>
       <r>   26.1942    0.0000 </r>
       <r>   28.3538    0.0000 </r>
       <r>   28.3538    0.0000 </r>
      </set>
      <set comment="kpoint 38">
       <r>    3.3759    1.0000 </r>
       <r>    5.9933    1.0000 </r>
       <r>    8.3553    1.0000 </r>
       <r>    8.8252    1.0000 </r>
       <r>   26.7998    0.0000 </r>
       <r>   27.1447    0.0000 </r>
       <r>   29.5582    0.0000 </r>
       <r>   29.7601    0.0000 </r>
      </set>
      <set comment="kpoint 39">
       <r>   -2.5603    1.0000 </r>
       <r>   14.1017    0.0000 </r>
       <r>   14.1017    0.0000 </r>
       <r>   15.6583    0.0000 </r>
       <r>   17.8302    0.0000 </r>
       <r>   23.5100    0.0000 </r>
       <r>   24.8277    0.0000 </r>
       <r>   24.8277    0.0000 </r>
      </set>
      <set comment="kpoint 40">
       <r>    5.1940    1.0000 </r>
       <r>    6.0412    1.0000 </r>
       <r>    6.0412    1.0000 </r>
       <r>    8.3900    1.0000 </r>
       <r>   27.8612    0.0000 </r>
       <r>   29.2350    0.0000 </r>
       <r>   29.2350    0.0000 </r>
       <r>   30.6453    0.0000 </r>
      </set>
      <set comment="kpoint 41">
       <r>   -1.3528    1.0000 </r>
       <r>   11.2905    0.0000 </r>
       <r>   12.8207    0.0000 </r>
       <r>   15.0432    0.0000 </r>
       <r>   17.2441    0.0000 </r>
       <r>   22.8901    0.0000 </r>
       <r>   24.8213    0.0000 </r>
       <r>   27.5273    0.0000 </r>
      </set>
      <set comment="kpoint 42">
       <r>    0.3238    1.0000 </r>
       <r>    8.0318    1.0000 </r>
       <r>   11.9556    0.0000 </r>
       <r>   14.3687    0.0000 </r>
       <r>   18.2699    0.0000 </r>
       <r>   22.0948    0.0000 </r>
       <r>   23.8461    0.0000 </r>
       <r>   26.5655    0.0000 </r>
      </set>
      <set comment="kpoint 43">
       <r>    0.0859    1.0000 </r>
       <r>   10.0193    0.0000 </r>
       <r>   10.3724    0.0000 </r>
       <r>   15.0549    0.0000 </r>
       <r>   16.4839    0.0000 </r>
       <r>   22.6432    0.0000 </r>
       <r>   24.8693    0.0000 </r>
       <r>   27.1654    0.0000 </r>
      </set>
      <set comment="kpoint 44">
       <r>    2.4422    1.0000 </r>
       <r>    5.0783    1.0000 </r>
       <r>   11.5211    0.0000 </r>
       <r>   13.9581    0.0000 </r>
       <r>   19.7064    0.0000 </r>
       <r>   21.6773    0.0000 </r>
       <r>   22.5003    0.0000 </r>
       <r>   25.6565    0.0000 </r>
      </set>
      <set comment="kpoint 45">
       <r>    1.9825    1.0000 </r>
       <r>    7.1127    1.0000 </r>
       <r>    9.5447    0.0000 </r>
       <r>   14.8934    0.0000 </r>
       <r>   17.4966    0.0000 </r>
       <r>   21.6668    0.0000 </r>
       <r>   22.8890    0.0000 </r>
       <r>   27.7344    0.0000 </r>
      </set>
      <set comment="kpoint 46">
       <r>    4.0719    1.0000 </r>
       <r>    4.6169    1.0000 </r>
       <r>    9.3156    0.1228 </r>
       <r>   14.7283    0.0000 </r>
       <r>   18.8278    0.0000 </r>
       <r>   20.2901    0.0000 </r>
       <r>   22.3387    0.0000 </r>
       <r>   27.7116    0.0000 </r>
      </set>
      <set comment="kpoint 47">
       <r>    4.0689    1.0000 </r>
       <r>    6.4777    1.0000 </r>
       <r>    6.8867    1.0000 </r>
       <r>   16.0571    0.0000 </r>
       <r>   17.6148    0.0000 </r>
       <r>   19.5448    0.0000 </r>
       <r>   22.2817    0.0000 </r>
       <r>   30.4949    0.0000 </r>
      </set>
      <set comment="kpoint 48">
       <r>   -0.1526    1.0000 </r>
       <r>   11.5286    0.0000 </r>
       <r>   11.5286    0.0000 </r>
       <r>   13.2361    0.0000 </r>
       <r>   14.8890    0.0000 </r>
       <r>   24.5024    0.0000 </r>
       <r>   25.8510    0.0000 </r>
       <r>   26.9665    0.0000 </r>
      </set>
      <set comment="kpoint 49">
       <r>    1.5128    1.0000 </r>
       <r>    9.0610    1.0000 </r>
       <r>   10.6560    0.0000 </r>
       <r>   12.8977    0.0000 </r>
       <r>   14.9219    0.0000 </r>
       <r>   21.6907    0.0000 </r>
       <r>   25.5428    0.0000 </r>
       <r>   27.7456    0.0000 </r>
      </set>
      <set comment="kpoint 50">
       <r>    3.6150    1.0000 </r>
       <r>    6.2077    1.0000 </r>
       <r>   10.2181    0.0000 </r>
       <r>   12.5686    0.0000 </r>
       <r>   16.5437    0.0000 </r>
       <r>   19.1000    0.0000 </r>
       <r>   25.1541    0.0000 </r>
       <r>   27.8582    0.0000 </r>
      </set>
      <set comment="kpoint 51">
       <r>    3.3902    1.0000 </r>
       <r>    8.2330    1.0000 </r>
       <r>    8.5628    1.0000 </r>
       <r>   13.3885    0.0000 </r>
       <r>   14.5849    0.0000 </r>
       <r>   18.8319    0.0000 </r>
       <r>   25.8504    0.0000 </r>
       <r>   29.9194    0.0000 </r>
      </set>
      <set comment="kpoint 52">
       <r>    5.4591    1.0000 </r>
       <r>    5.9627    1.0000 </r>
       <r>    8.1944    1.0000 </r>
       <r>   13.5457    0.0000 </r>
       <r>   15.8653    0.0000 </r>
       <r>   16.6909    0.0000 </r>
       <r>   25.7337    0.0000 </r>
       <r>   30.5220    0.0000 </r>
      </set>
      <set comment="kpoint 53">
       <r>    3.1595    1.0000 </r>
       <r>    9.7803    0.0000 </r>
       <r>    9.7803    0.0000 </r>
       <r>   11.4862    0.0000 </r>
       <r>   12.9130    0.0000 </r>
       <r>   18.6026    0.0000 </r>
       <r>   29.0056    0.0000 </r>
       <r>   29.7270    0.0000 </r>
      </set>
      <set comment="kpoint 54">
       <r>    5.2290    1.0000 </r>
       <r>    7.7109    1.0000 </r>
       <r>    9.3406    0.0308 </r>
       <r>   11.5134    0.0000 </r>
       <r>   13.4937    0.0000 </r>
       <r>   15.8506    0.0000 </r>
       <r>   28.9494    0.0000 </r>
       <r>   30.6239    0.0000 </r>
      </set>
      <set comment="kpoint 55">
       <r>    7.1101    1.0000 </r>
       <r>    7.6530    1.0000 </r>
       <r>    7.6530    1.0000 </r>
       <r>   12.1611    0.0000 </r>
       <r>   13.6291    0.0000 </r>
       <r>   13.6291    0.0000 </r>
       <r>   29.4479    0.0000 </r>
       <r>   32.7731    0.0000 </r>
      </set>
      <set comment="kpoint 56">
       <r>    7.2119    1.0000 </r>
       <r>    8.9003    1.0000 </r>
       <r>    8.9003    1.0000 </r>
       <r>   10.4546    0.0000 </r>
       <r>   11.9228    0.0000 </r>
       <r>   13.1367    0.0000 </r>
       <r>   32.4227    0.0000 </r>
       <r>   32.5926    0.0000 </r>
      </set>
     </set>
    </set>
   </array>
  </eigenvalues>
  <separator name="orbital magnetization" >
   <v name="MAGDIPOLOUT">      0.00000000      0.00000000      0.00000000</v>
  </separator>
  <dos>
   <i name="efermi">      9.27453915 </i>
   <total>
    <array>
     <dimension dim="1">gridpoints</dimension>
     <dimension dim="2">spin</dimension>
     <field>energy</field>
     <field>total</field>
     <field>integrated</field>
     <set>
      <set comment="spin 1">
       <r>    -6.3719     0.0000     0.0000 </r>
       <r>    -6.2352     0.0000     0.0000 </r>
       <r>    -6.0985     0.0000     0.0000 </r>
       <r>    -5.9618     0.0000     0.0000 </r>
       <r>    -5.8251     0.0000     0.0000 </r>
       <r>    -5.6884     0.0000     0.0000 </r>
       <r>    -5.5517     0.0000     0.0000 </r>
       <r>    -5.4150     0.0000     0.0000 </r>
       <r>    -5.2783     0.0000     0.0000 </r>
       <r>    -5.1416     0.0000     0.0000 </r>
       <r>    -5.0049     0.0000     0.0000 </r>
       <r>    -4.8682     0.0000     0.0000 </r>
       <r>    -4.7315     0.0000     0.0000 </r>
       <r>    -4.5949     0.0001     0.0000 </r>
       <r>    -4.4582     0.0100     0.0014 </r>
       <r>    -4.3215     0.0075     0.0024 </r>
       <r>    -4.1848     0.1235     0.0193 </r>
       <r>    -4.0481     0.0154     0.0214 </r>
       <r>    -3.9114     0.0522     0.0285 </r>
       <r>    -3.7747     0.1342     0.0469 </r>
       <r>    -3.6380     0.1298     0.0646 </r>
       <r>    -3.5013     0.1062     0.0792 </r>
       <r>    -3.3646     0.0296     0.0832 </r>
       <r>    -3.2279     0.2483     0.1172 </r>
       <r>    -3.0912     0.0201     0.1199 </r>
       <r>    -2.9545     0.0788     0.1307 </r>
       <r>    -2.8178     0.1788     0.1551 </r>
       <r>    -2.6811     0.3491     0.2028 </r>
       <r>    -2.5444     0.0445     0.2089 </r>
       <r>    -2.4077     0.0238     0.2122 </r>
       <r>    -2.2710     0.3579     0.2611 </r>
       <r>    -2.1343     0.0492     0.2678 </r>
       <r>    -1.9976     0.2468     0.3016 </r>
       <r>    -1.8609     0.0657     0.3105 </r>
       <r>    -1.7242     0.2013     0.3381 </r>
       <r>    -1.5875     0.1521     0.3589 </r>
       <r>    -1.4508     0.1142     0.3745 </r>
       <r>    -1.3141     0.6837     0.4679 </r>
       <r>    -1.1774     0.1054     0.4823 </r>
       <r>    -1.0407     0.0000     0.4823 </r>
       <r>    -0.9040     0.0983     0.4958 </r>
       <r>    -0.7673     0.4286     0.5544 </r>
       <r>    -0.6306     0.0719     0.5642 </r>
       <r>    -0.4939     0.0620     0.5727 </r>
       <r>    -0.3572     0.4471     0.6338 </r>
       <r>    -0.2206     0.0895     0.6460 </r>
       <r>    -0.0839     0.3120     0.6887 </r>
       <r>     0.0528     0.1529     0.7096 </r>
       <r>     0.1895     0.6449     0.7977 </r>
       <r>     0.3262     0.1404     0.8169 </r>
       <r>     0.4629     0.1264     0.8342 </r>
       <r>     0.5996     0.4627     0.8975 </r>
       <r>     0.7363     0.0730     0.9075 </r>
       <r>     0.8730     0.2490     0.9415 </r>
       <r>     1.0097     0.1325     0.9596 </r>
       <r>     1.1464     0.3996     1.0142 </r>
       <r>     1.2831     0.0541     1.0216 </r>
       <r>     1.4198     0.0409     1.0272 </r>
       <r>     1.5565     0.8376     1.1417 </r>
       <r>     1.6932     0.1148     1.1574 </r>
       <r>     1.8299     0.2274     1.1885 </r>
       <r>     1.9666     0.3942     1.2424 </r>
       <r>     2.1033     0.6626     1.3329 </r>
       <r>     2.2400     0.4423     1.3934 </r>
       <r>     2.3767     0.0930     1.4061 </r>
       <r>     2.5134     0.2496     1.4402 </r>
       <r>     2.6501     0.1333     1.4585 </r>
       <r>     2.7868     0.1364     1.4771 </r>
       <r>     2.9235     0.3420     1.5239 </r>
       <r>     3.0602     0.1930     1.5502 </r>
       <r>     3.1969     0.3280     1.5951 </r>
       <r>     3.3336     0.3014     1.6363 </r>
       <r>     3.4703     0.4805     1.7019 </r>
       <r>     3.6070     0.4456     1.7628 </r>
       <r>     3.7437     0.5780     1.8418 </r>
       <r>     3.8804     0.0357     1.8467 </r>
       <r>     4.0171     0.0876     1.8587 </r>
       <r>     4.1537     0.8212     1.9710 </r>
       <r>     4.2904     0.2789     2.0091 </r>
       <r>     4.4271     0.2253     2.0399 </r>
       <r>     4.5638     0.0728     2.0498 </r>
       <r>     4.7005     0.7422     2.1513 </r>
       <r>     4.8372     0.2704     2.1882 </r>
       <r>     4.9739     0.3600     2.2374 </r>
       <r>     5.1106     0.2170     2.2671 </r>
       <r>     5.2473     0.3127     2.3099 </r>
       <r>     5.3840     0.0901     2.3222 </r>
       <r>     5.5207     0.4810     2.3879 </r>
       <r>     5.6574     0.4819     2.4538 </r>
       <r>     5.7941     0.3896     2.5071 </r>
       <r>     5.9308     0.1980     2.5341 </r>
       <r>     6.0675     0.8346     2.6482 </r>
       <r>     6.2042     0.3441     2.6952 </r>
       <r>     6.3409     0.5199     2.7663 </r>
       <r>     6.4776     0.2087     2.7948 </r>
       <r>     6.6143     0.3366     2.8408 </r>
       <r>     6.7510     0.4991     2.9091 </r>
       <r>     6.8877     0.1976     2.9361 </r>
       <r>     7.0244     0.5977     3.0178 </r>
       <r>     7.1611     0.6563     3.1075 </r>
       <r>     7.2978     0.1685     3.1305 </r>
       <r>     7.4345     0.4663     3.1943 </r>
       <r>     7.5712     0.1072     3.2089 </r>
       <r>     7.7079     0.5020     3.2775 </r>
       <r>     7.8446     0.5554     3.3535 </r>
       <r>     7.9813     0.1471     3.3736 </r>
       <r>     8.1180     0.7232     3.4724 </r>
       <r>     8.2547     0.5639     3.5495 </r>
       <r>     8.3914     0.5414     3.6235 </r>
       <r>     8.5280     0.2033     3.6513 </r>
       <r>     8.6647     0.2403     3.6841 </r>
       <r>     8.8014     0.3162     3.7274 </r>
       <r>     8.9381     0.4534     3.7894 </r>
       <r>     9.0748     0.8420     3.9045 </r>
       <r>     9.2115     0.2717     3.9416 </r>
       <r>     9.3482     0.9734     4.0747 </r>
       <r>     9.4849     0.6315     4.1610 </r>
       <r>     9.6216     0.7237     4.2599 </r>
       <r>     9.7583     0.0799     4.2708 </r>
       <r>     9.8950     0.4932     4.3383 </r>
       <r>    10.0317     0.2989     4.3791 </r>
       <r>    10.1684     0.2486     4.4131 </r>
       <r>    10.3051     0.4989     4.4813 </r>
       <r>    10.4418     0.6844     4.5749 </r>
       <r>    10.5785     0.1703     4.5981 </r>
       <r>    10.7152     0.3350     4.6439 </r>
       <r>    10.8519     0.2783     4.6820 </r>
       <r>    10.9886     0.6852     4.7756 </r>
       <r>    11.1253     0.4402     4.8358 </r>
       <r>    11.2620     0.2079     4.8642 </r>
       <r>    11.3987     0.4433     4.9248 </r>
       <r>    11.5354     0.8909     5.0466 </r>
       <r>    11.6721     0.3637     5.0963 </r>
       <r>    11.8088     1.1706     5.2564 </r>
       <r>    11.9455     0.2926     5.2964 </r>
       <r>    12.0822     0.1800     5.3210 </r>
       <r>    12.2189     0.2276     5.3521 </r>
       <r>    12.3556     0.1282     5.3696 </r>
       <r>    12.4923     0.7074     5.4663 </r>
       <r>    12.6290     0.7331     5.5665 </r>
       <r>    12.7657     0.2318     5.5982 </r>
       <r>    12.9023     0.6312     5.6845 </r>
       <r>    13.0390     0.9408     5.8131 </r>
       <r>    13.1757     0.6414     5.9008 </r>
       <r>    13.3124     0.2674     5.9373 </r>
       <r>    13.4491     0.2775     5.9752 </r>
       <r>    13.5858     0.5631     6.0522 </r>
       <r>    13.7225     0.9015     6.1754 </r>
       <r>    13.8592     0.2577     6.2107 </r>
       <r>    13.9959     0.3074     6.2527 </r>
       <r>    14.1326     0.1797     6.2773 </r>
       <r>    14.2693     0.1932     6.3037 </r>
       <r>    14.4060     0.7151     6.4014 </r>
       <r>    14.5427     0.5863     6.4816 </r>
       <r>    14.6794     0.4505     6.5431 </r>
       <r>    14.8161     1.2300     6.7113 </r>
       <r>    14.9528     0.8973     6.8339 </r>
       <r>    15.0895     0.7513     6.9366 </r>
       <r>    15.2262     0.5754     7.0153 </r>
       <r>    15.3629     0.2329     7.0471 </r>
       <r>    15.4996     0.1321     7.0652 </r>
       <r>    15.6363     0.4736     7.1299 </r>
       <r>    15.7730     0.6479     7.2185 </r>
       <r>    15.9097     0.8215     7.3308 </r>
       <r>    16.0464     0.5435     7.4051 </r>
       <r>    16.1831     1.0254     7.5453 </r>
       <r>    16.3198     0.5429     7.6195 </r>
       <r>    16.4565     0.1276     7.6369 </r>
       <r>    16.5932     0.6456     7.7252 </r>
       <r>    16.7299     0.5129     7.7953 </r>
       <r>    16.8666     0.9000     7.9183 </r>
       <r>    17.0033     0.7267     8.0176 </r>
       <r>    17.1400     0.6078     8.1007 </r>
       <r>    17.2766     0.6140     8.1846 </r>
       <r>    17.4133     0.3231     8.2288 </r>
       <r>    17.5500     0.6197     8.3135 </r>
       <r>    17.6867     0.3975     8.3679 </r>
       <r>    17.8234     0.3035     8.4094 </r>
       <r>    17.9601     0.0503     8.4162 </r>
       <r>    18.0968     0.0426     8.4220 </r>
       <r>    18.2335     0.1711     8.4454 </r>
       <r>    18.3702     0.5564     8.5215 </r>
       <r>    18.5069     0.0887     8.5336 </r>
       <r>    18.6436     0.2211     8.5638 </r>
       <r>    18.7803     0.7610     8.6679 </r>
       <r>    18.9170     1.1248     8.8216 </r>
       <r>    19.0537     0.7611     8.9257 </r>
       <r>    19.1904     0.5191     8.9966 </r>
       <r>    19.3271     1.3586     9.1823 </r>
       <r>    19.4638     0.3602     9.2316 </r>
       <r>    19.6005     0.8757     9.3513 </r>
       <r>    19.7372     0.3362     9.3972 </r>
       <r>    19.8739     0.3412     9.4439 </r>
       <r>    20.0106     0.2482     9.4778 </r>
       <r>    20.1473     0.1629     9.5001 </r>
       <r>    20.2840     1.0994     9.6503 </r>
       <r>    20.4207     1.7520     9.8898 </r>
       <r>    20.5574     0.1963     9.9167 </r>
       <r>    20.6941     0.5018     9.9853 </r>
       <r>    20.8308     0.5384    10.0589 </r>
       <r>    20.9675     0.8873    10.1801 </r>
       <r>    21.1042     0.8233    10.2927 </r>
       <r>    21.2409     0.9284    10.4196 </r>
       <r>    21.3776     0.6361    10.5065 </r>
       <r>    21.5143     0.0430    10.5124 </r>
       <r>    21.6509     0.3181    10.5559 </r>
       <r>    21.7876     1.1135    10.7081 </r>
       <r>    21.9243     0.9673    10.8403 </r>
       <r>    22.0610     0.5485    10.9153 </r>
       <r>    22.1977     0.4405    10.9755 </r>
       <r>    22.3344     0.9217    11.1015 </r>
       <r>    22.4711     0.5245    11.1732 </r>
       <r>    22.6078     0.6292    11.2592 </r>
       <r>    22.7445     0.9192    11.3849 </r>
       <r>    22.8812     0.7244    11.4839 </r>
       <r>    23.0179     0.4925    11.5512 </r>
       <r>    23.1546     0.2882    11.5906 </r>
       <r>    23.2913     0.3764    11.6421 </r>
       <r>    23.4280     0.8792    11.7622 </r>
       <r>    23.5647     0.6983    11.8577 </r>
       <r>    23.7014     0.5590    11.9341 </r>
       <r>    23.8381     0.7813    12.0409 </r>
       <r>    23.9748     0.6289    12.1269 </r>
       <r>    24.1115     0.2941    12.1671 </r>
       <r>    24.2482     0.5423    12.2412 </r>
       <r>    24.3849     0.4819    12.3071 </r>
       <r>    24.5216     0.2585    12.3424 </r>
       <r>    24.6583     0.2748    12.3800 </r>
       <r>    24.7950     0.5884    12.4604 </r>
       <r>    24.9317     1.2029    12.6249 </r>
       <r>    25.0684     1.2702    12.7985 </r>
       <r>    25.2051     0.9208    12.9244 </r>
       <r>    25.3418     0.2594    12.9598 </r>
       <r>    25.4785     0.4011    13.0147 </r>
       <r>    25.6152     0.7262    13.1139 </r>
       <r>    25.7519     0.6766    13.2064 </r>
       <r>    25.8886     0.8112    13.3173 </r>
       <r>    26.0252     0.5245    13.3890 </r>
       <r>    26.1619     0.6681    13.4803 </r>
       <r>    26.2986     0.8388    13.5950 </r>
       <r>    26.4353     0.5692    13.6728 </r>
       <r>    26.5720     1.1973    13.8365 </r>
       <r>    26.7087     0.2584    13.8718 </r>
       <r>    26.8454     0.6652    13.9627 </r>
       <r>    26.9821     0.1899    13.9887 </r>
       <r>    27.1188     0.6479    14.0772 </r>
       <r>    27.2555     0.4776    14.1425 </r>
       <r>    27.3922     0.1456    14.1624 </r>
       <r>    27.5289     0.4045    14.2177 </r>
       <r>    27.6656     0.5373    14.2912 </r>
       <r>    27.8023     1.7173    14.5259 </r>
       <r>    27.9390     1.4632    14.7259 </r>
       <r>    28.0757     0.7103    14.8230 </r>
       <r>    28.2124     0.2565    14.8581 </r>
       <r>    28.3491     0.7544    14.9612 </r>
       <r>    28.4858     0.6613    15.0516 </r>
       <r>    28.6225     0.6890    15.1458 </r>
       <r>    28.7592     0.7195    15.2441 </r>
       <r>    28.8959     0.1956    15.2709 </r>
       <r>    29.0326     0.6357    15.3578 </r>
       <r>    29.1693     0.4085    15.4136 </r>
       <r>    29.3060     0.7467    15.5157 </r>
       <r>    29.4427     0.7837    15.6228 </r>
       <r>    29.5794     0.5853    15.7028 </r>
       <r>    29.7161     0.1822    15.7278 </r>
       <r>    29.8528     0.2908    15.7675 </r>
       <r>    29.9895     0.5006    15.8359 </r>
       <r>    30.1262     0.0130    15.8377 </r>
       <r>    30.2629     0.0000    15.8377 </r>
       <r>    30.3995     0.0010    15.8379 </r>
       <r>    30.5362     0.4059    15.8933 </r>
       <r>    30.6729     0.4316    15.9523 </r>
       <r>    30.8096     0.0409    15.9579 </r>
       <r>    30.9463     0.0000    15.9579 </r>
       <r>    31.0830     0.0000    15.9579 </r>
       <r>    31.2197     0.0000    15.9579 </r>
       <r>    31.3564     0.0064    15.9588 </r>
       <r>    31.4931     0.0808    15.9699 </r>
       <r>    31.6298     0.0007    15.9699 </r>
       <r>    31.7665     0.0000    15.9699 </r>
       <r>    31.9032     0.0000    15.9699 </r>
       <r>    32.0399     0.0000    15.9699 </r>
       <r>    32.1766     0.0000    15.9699 </r>
       <r>    32.3133     0.0001    15.9700 </r>
       <r>    32.4500     0.0514    15.9770 </r>
       <r>    32.5867     0.0431    15.9829 </r>
       <r>    32.7234     0.0444    15.9889 </r>
       <r>    32.8601     0.0803    15.9999 </r>
       <r>    32.9968     0.0006    16.0000 </r>
       <r>    33.1335     0.0000    16.0000 </r>
       <r>    33.2702     0.0000    16.0000 </r>
       <r>    33.4069     0.0000    16.0000 </r>
       <r>    33.5436     0.0000    16.0000 </r>
       <r>    33.6803     0.0000    16.0000 </r>
       <r>    33.8170     0.0000    16.0000 </r>
       <r>    33.9537     0.0000    16.0000 </r>
       <r>    34.0904     0.0000    16.0000 </r>
       <r>    34.2271     0.0000    16.0000 </r>
       <r>    34.3638     0.0000    16.0000 </r>
       <r>    34.5005     0.0000    16.0000 </r>
       <r>    34.6372     0.0000    16.0000 </r>
      </set>
     </set>
    </array>
   </total>
  </dos>
 </calculation>
 <structure name="finalpos" >
  <crystal>
   <varray name="basis" >
    <v>       1.56629203       1.56629203       1.56629203 </v>
    <v>       1.56629203      -1.56629203      -1.56629203 </v>
    <v>      -1.56629203       1.56629203      -1.56629203 </v>
   </varray>
   <i name="volume">     15.37015344 </i>
   <varray name="rec_basis" >
    <v>       0.31922527       0.31922527       0.00000000 </v>
    <v>       0.31922527       0.00000000      -0.31922527 </v>
    <v>       0.00000000       0.31922527      -0.31922527 </v>
   </varray>
  </crystal>
  <varray name="positions" >
   <v>       0.00000000       0.00000000       0.00000000 </v>
  </varray>
 </structure>
</modeling>
