unknown system                          
           1
     1.566292    1.566292    1.566292
     1.566292   -1.566292   -1.566292
    -1.566292    1.566292   -1.566292
   Si
     1
Direct configuration=     1
   0.00000000  0.00000000  0.00000000
