   2   2   1   0
  0.2044095E+02  0.3866773E-09  0.3866774E-09  0.3866772E-09  0.5000000E-15
  1.000000000000000E-004
  CAR 
 unknown system                          
     16.64310482     -7.28599586  301      5.87999475      1.00000000
     -7.286  0.0000E+00  0.0000E+00
     -7.206  0.0000E+00  0.0000E+00
     -7.126  0.0000E+00  0.0000E+00
     -7.047  0.0000E+00  0.0000E+00
     -6.967  0.0000E+00  0.0000E+00
     -6.887  0.0000E+00  0.0000E+00
     -6.807  0.0000E+00  0.0000E+00
     -6.728  0.0000E+00  0.0000E+00
     -6.648  0.0000E+00  0.0000E+00
     -6.568  0.0000E+00  0.0000E+00
     -6.488  0.6959E-16  0.5551E-17
     -6.409  0.9718E-09  0.7752E-10
     -6.329  0.8929E-04  0.7122E-05
     -6.249  0.7450E-01  0.5949E-02
     -6.169  0.1078E+01  0.9190E-01
     -6.090  0.1090E+01  0.1789E+00
     -6.010  0.6327E+00  0.2293E+00
     -5.930  0.4997E+00  0.2692E+00
     -5.850  0.4729E+00  0.3069E+00
     -5.770  0.3393E+00  0.3340E+00
     -5.691  0.3811E+00  0.3644E+00
     -5.611  0.3198E+00  0.3899E+00
     -5.531  0.3048E+00  0.4142E+00
     -5.451  0.2961E+00  0.4378E+00
     -5.372  0.2510E+00  0.4578E+00
     -5.292  0.3045E+00  0.4821E+00
     -5.212  0.2042E+00  0.4984E+00
     -5.132  0.3131E+00  0.5234E+00
     -5.053  0.1676E+00  0.5367E+00
     -4.973  0.2665E+00  0.5580E+00
     -4.893  0.2444E+00  0.5775E+00
     -4.813  0.1496E+00  0.5894E+00
     -4.734  0.3071E+00  0.6139E+00
     -4.654  0.1420E+00  0.6253E+00
     -4.574  0.2444E+00  0.6448E+00
     -4.494  0.2178E+00  0.6621E+00
     -4.415  0.1528E+00  0.6743E+00
     -4.335  0.2936E+00  0.6977E+00
     -4.255  0.1065E+00  0.7062E+00
     -4.175  0.3030E+00  0.7304E+00
     -4.095  0.1843E+00  0.7451E+00
     -4.016  0.2616E+00  0.7660E+00
     -3.936  0.4613E+00  0.8028E+00
     -3.856  0.9261E+00  0.8766E+00
     -3.776  0.5400E+00  0.9197E+00
     -3.697  0.2993E+00  0.9436E+00
     -3.617  0.2869E+00  0.9665E+00
     -3.537  0.3817E+00  0.9969E+00
     -3.457  0.3083E+00  0.1021E+01
     -3.378  0.1637E+00  0.1035E+01
     -3.298  0.1999E+00  0.1050E+01
     -3.218  0.4168E+00  0.1084E+01
     -3.138  0.2125E+00  0.1101E+01
     -3.059  0.1523E+00  0.1113E+01
     -2.979  0.1765E+00  0.1127E+01
     -2.899  0.3696E+00  0.1156E+01
     -2.819  0.1840E+00  0.1171E+01
     -2.739  0.2476E+00  0.1191E+01
     -2.660  0.1767E+00  0.1205E+01
     -2.580  0.2160E+00  0.1222E+01
     -2.500  0.6030E+00  0.1270E+01
     -2.420  0.5530E+00  0.1314E+01
     -2.341  0.4609E+00  0.1351E+01
     -2.261  0.6872E+00  0.1406E+01
     -2.181  0.1195E+01  0.1501E+01
     -2.101  0.4869E+01  0.1890E+01
     -2.022  0.4477E+01  0.2247E+01
     -1.942  0.3457E+01  0.2522E+01
     -1.862  0.8459E+00  0.2590E+01
     -1.782  0.5353E+00  0.2633E+01
     -1.703  0.5371E+00  0.2675E+01
     -1.623  0.5156E+00  0.2716E+01
     -1.543  0.4561E+00  0.2753E+01
     -1.463  0.3509E+00  0.2781E+01
     -1.383  0.1471E+00  0.2793E+01
     -1.304  0.4610E+00  0.2829E+01
     -1.224  0.1141E+01  0.2920E+01
     -1.144  0.1350E+01  0.3028E+01
     -1.064  0.1206E+01  0.3124E+01
     -0.985  0.3117E+00  0.3149E+01
     -0.905  0.8110E-01  0.3156E+01
     -0.825  0.3666E+00  0.3185E+01
     -0.745  0.1812E+00  0.3199E+01
     -0.666  0.1218E-01  0.3200E+01
     -0.586  0.1070E+00  0.3209E+01
     -0.506  0.2086E+00  0.3225E+01
     -0.426  0.2130E+00  0.3242E+01
     -0.347  0.9896E-01  0.3250E+01
     -0.267  0.1256E+00  0.3260E+01
     -0.187  0.1327E+00  0.3271E+01
     -0.107  0.1449E+00  0.3282E+01
     -0.028  0.3328E-01  0.3285E+01
      0.052  0.2393E+00  0.3304E+01
      0.132  0.1542E+00  0.3316E+01
      0.212  0.9984E-01  0.3324E+01
      0.292  0.1084E+00  0.3333E+01
      0.371  0.1842E-01  0.3335E+01
      0.451  0.2029E+00  0.3351E+01
      0.531  0.1892E+00  0.3366E+01
      0.611  0.8918E-01  0.3373E+01
      0.690  0.1248E+00  0.3383E+01
      0.770  0.2935E-01  0.3385E+01
      0.850  0.1562E+00  0.3398E+01
      0.930  0.1209E+00  0.3407E+01
      1.009  0.1375E+00  0.3418E+01
      1.089  0.1582E+00  0.3431E+01
      1.169  0.4016E-01  0.3434E+01
      1.249  0.1587E+00  0.3447E+01
      1.328  0.3690E+00  0.3476E+01
      1.408  0.5934E+00  0.3524E+01
      1.488  0.7170E+00  0.3581E+01
      1.568  0.6680E+00  0.3634E+01
      1.648  0.9782E+00  0.3712E+01
      1.727  0.8184E+00  0.3777E+01
      1.807  0.6276E+00  0.3827E+01
      1.887  0.1848E+01  0.3975E+01
      1.967  0.1726E+01  0.4112E+01
      2.046  0.1107E+01  0.4201E+01
      2.126  0.1097E+01  0.4288E+01
      2.206  0.1060E+01  0.4373E+01
      2.286  0.7013E+00  0.4429E+01
      2.365  0.1059E+01  0.4513E+01
      2.445  0.9946E+00  0.4593E+01
      2.525  0.8981E+00  0.4664E+01
      2.605  0.8858E+00  0.4735E+01
      2.684  0.1092E+01  0.4822E+01
      2.764  0.1333E+01  0.4928E+01
      2.844  0.3264E+01  0.5189E+01
      2.924  0.2635E+01  0.5399E+01
      3.004  0.1301E+01  0.5503E+01
      3.083  0.1218E+01  0.5600E+01
      3.163  0.1108E+01  0.5688E+01
      3.243  0.1094E+01  0.5775E+01
      3.323  0.6356E+00  0.5826E+01
      3.402  0.6691E+00  0.5879E+01
      3.482  0.7710E+00  0.5941E+01
      3.562  0.5242E+00  0.5983E+01
      3.642  0.4334E+00  0.6017E+01
      3.721  0.7731E+00  0.6079E+01
      3.801  0.6054E+00  0.6127E+01
      3.881  0.5618E+00  0.6172E+01
      3.961  0.5617E+00  0.6217E+01
      4.040  0.4020E+00  0.6249E+01
      4.120  0.7332E+00  0.6307E+01
      4.200  0.7360E+00  0.6366E+01
      4.280  0.6512E+00  0.6418E+01
      4.359  0.6988E+00  0.6474E+01
      4.439  0.1512E+01  0.6594E+01
      4.519  0.1984E+01  0.6753E+01
      4.599  0.1274E+01  0.6854E+01
      4.679  0.9284E+00  0.6928E+01
      4.758  0.6998E+00  0.6984E+01
      4.838  0.1012E+01  0.7065E+01
      4.918  0.6737E+00  0.7119E+01
      4.998  0.8015E+00  0.7183E+01
      5.077  0.7404E+00  0.7242E+01
      5.157  0.7882E+00  0.7304E+01
      5.237  0.9087E+00  0.7377E+01
      5.317  0.8915E+00  0.7448E+01
      5.396  0.7664E+00  0.7509E+01
      5.476  0.1178E+01  0.7603E+01
      5.556  0.1602E+01  0.7731E+01
      5.636  0.2637E+01  0.7941E+01
      5.715  0.7306E+00  0.8000E+01
      5.795  0.5841E-02  0.8000E+01
      5.875  0.4859E-06  0.8000E+01
      5.955  0.3072E-12  0.8000E+01
      6.035  0.6149E-08  0.8000E+01
      6.114  0.2107E-03  0.8000E+01
      6.194  0.7504E-01  0.8006E+01
      6.274  0.6203E+00  0.8055E+01
      6.354  0.1227E+01  0.8153E+01
      6.433  0.2817E+01  0.8378E+01
      6.513  0.1783E+01  0.8520E+01
      6.593  0.1242E+01  0.8619E+01
      6.673  0.1137E+01  0.8710E+01
      6.752  0.9505E+00  0.8786E+01
      6.832  0.9444E+00  0.8861E+01
      6.912  0.8609E+00  0.8930E+01
      6.992  0.4571E+00  0.8966E+01
      7.071  0.9652E+00  0.9043E+01
      7.151  0.1256E+01  0.9143E+01
      7.231  0.1015E+01  0.9224E+01
      7.311  0.9806E+00  0.9303E+01
      7.391  0.7075E+00  0.9359E+01
      7.470  0.6708E+00  0.9412E+01
      7.550  0.8361E+00  0.9479E+01
      7.630  0.7392E+00  0.9538E+01
      7.710  0.5357E+00  0.9581E+01
      7.789  0.8154E+00  0.9646E+01
      7.869  0.6304E+00  0.9696E+01
      7.949  0.7363E+00  0.9755E+01
      8.029  0.7945E+00  0.9818E+01
      8.108  0.6946E+00  0.9874E+01
      8.188  0.2551E+01  0.1008E+02
      8.268  0.3227E+01  0.1033E+02
      8.348  0.1235E+01  0.1043E+02
      8.427  0.1438E+01  0.1055E+02
      8.507  0.1651E+01  0.1068E+02
      8.587  0.1414E+01  0.1079E+02
      8.667  0.1195E+01  0.1089E+02
      8.747  0.2084E+01  0.1105E+02
      8.826  0.2019E+01  0.1121E+02
      8.906  0.1802E+01  0.1136E+02
      8.986  0.2765E+01  0.1158E+02
      9.066  0.3446E+01  0.1185E+02
      9.145  0.2500E+01  0.1205E+02
      9.225  0.1350E+01  0.1216E+02
      9.305  0.9299E+00  0.1224E+02
      9.385  0.1156E+01  0.1233E+02
      9.464  0.7878E+00  0.1239E+02
      9.544  0.7117E+00  0.1245E+02
      9.624  0.8115E+00  0.1251E+02
      9.704  0.8566E+00  0.1258E+02
      9.783  0.1184E+01  0.1267E+02
      9.863  0.1252E+01  0.1277E+02
      9.943  0.1232E+01  0.1287E+02
     10.023  0.3302E+00  0.1290E+02
     10.102  0.6718E-01  0.1290E+02
     10.182  0.5700E+00  0.1295E+02
     10.262  0.4977E+00  0.1299E+02
     10.342  0.2330E+00  0.1301E+02
     10.422  0.1412E+00  0.1302E+02
     10.501  0.5554E+00  0.1306E+02
     10.581  0.1044E+01  0.1315E+02
     10.661  0.8699E+00  0.1322E+02
     10.741  0.7186E+00  0.1327E+02
     10.820  0.6446E+00  0.1332E+02
     10.900  0.3964E+00  0.1336E+02
     10.980  0.5981E+00  0.1340E+02
     11.060  0.4374E+00  0.1344E+02
     11.139  0.4954E+00  0.1348E+02
     11.219  0.1149E+01  0.1357E+02
     11.299  0.1131E+01  0.1366E+02
     11.379  0.4207E+00  0.1369E+02
     11.458  0.2412E+00  0.1371E+02
     11.538  0.6734E+00  0.1377E+02
     11.618  0.8466E+00  0.1383E+02
     11.698  0.5262E+00  0.1388E+02
     11.778  0.5329E+00  0.1392E+02
     11.857  0.4023E+00  0.1395E+02
     11.937  0.4563E+00  0.1399E+02
     12.017  0.5909E+00  0.1403E+02
     12.097  0.3729E+00  0.1406E+02
     12.176  0.4846E+00  0.1410E+02
     12.256  0.6608E+00  0.1416E+02
     12.336  0.3298E+00  0.1418E+02
     12.416  0.3928E-01  0.1419E+02
     12.495  0.4587E+00  0.1422E+02
     12.575  0.9405E+00  0.1430E+02
     12.655  0.4072E+00  0.1433E+02
     12.735  0.5168E-01  0.1433E+02
     12.814  0.5862E-01  0.1434E+02
     12.894  0.4796E+00  0.1438E+02
     12.974  0.5688E+00  0.1442E+02
     13.054  0.6425E+00  0.1447E+02
     13.134  0.1907E+00  0.1449E+02
     13.213  0.5011E+00  0.1453E+02
     13.293  0.5554E+00  0.1457E+02
     13.373  0.1129E+01  0.1466E+02
     13.453  0.1158E+01  0.1475E+02
     13.532  0.1189E+01  0.1485E+02
     13.612  0.7632E+00  0.1491E+02
     13.692  0.6479E+00  0.1496E+02
     13.772  0.2849E+00  0.1498E+02
     13.851  0.3280E+00  0.1501E+02
     13.931  0.7272E+00  0.1507E+02
     14.011  0.3746E+00  0.1510E+02
     14.091  0.2084E+00  0.1512E+02
     14.170  0.2758E+00  0.1514E+02
     14.250  0.5083E+00  0.1518E+02
     14.330  0.2878E+00  0.1520E+02
     14.410  0.4123E+00  0.1523E+02
     14.489  0.5449E+00  0.1528E+02
     14.569  0.4936E+00  0.1532E+02
     14.649  0.3355E+00  0.1534E+02
     14.729  0.2008E+00  0.1536E+02
     14.809  0.4623E+00  0.1540E+02
     14.888  0.6693E+00  0.1545E+02
     14.968  0.5140E+00  0.1549E+02
     15.048  0.3050E+00  0.1552E+02
     15.128  0.6199E+00  0.1556E+02
     15.207  0.3460E+00  0.1559E+02
     15.287  0.5373E+00  0.1564E+02
     15.367  0.9323E+00  0.1571E+02
     15.447  0.7149E+00  0.1577E+02
     15.526  0.1286E+01  0.1587E+02
     15.606  0.1525E+01  0.1599E+02
     15.686  0.1177E+00  0.1600E+02
     15.766  0.1529E-03  0.1600E+02
     15.845  0.1771E-08  0.1600E+02
     15.925  0.1392E-15  0.1600E+02
     16.005  0.0000E+00  0.1600E+02
     16.085  0.0000E+00  0.1600E+02
     16.165  0.0000E+00  0.1600E+02
     16.244  0.0000E+00  0.1600E+02
     16.324  0.0000E+00  0.1600E+02
     16.404  0.0000E+00  0.1600E+02
     16.484  0.0000E+00  0.1600E+02
     16.563  0.0000E+00  0.1600E+02
     16.643  0.0000E+00  0.1600E+02
     16.64310482     -7.28599586  301      5.87999475      1.00000000
     -7.286  0.0000E+00  0.0000E+00  0.0000E+00  0.0000E+00  0.0000E+00  0.0000E+00  0.0000E+00  0.0000E+00  0.0000E+00
     -7.206  0.0000E+00  0.0000E+00  0.0000E+00  0.0000E+00  0.0000E+00  0.0000E+00  0.0000E+00  0.0000E+00  0.0000E+00
     -7.126  0.0000E+00  0.0000E+00  0.0000E+00  0.0000E+00  0.0000E+00  0.0000E+00  0.0000E+00  0.0000E+00  0.0000E+00
     -7.047  0.0000E+00  0.0000E+00  0.0000E+00  0.0000E+00  0.0000E+00  0.0000E+00  0.0000E+00  0.0000E+00  0.0000E+00
     -6.967  0.0000E+00  0.0000E+00  0.0000E+00  0.0000E+00  0.0000E+00  0.0000E+00  0.0000E+00  0.0000E+00  0.0000E+00
     -6.887  0.0000E+00  0.0000E+00  0.0000E+00  0.0000E+00  0.0000E+00  0.0000E+00  0.0000E+00  0.0000E+00  0.0000E+00
     -6.807  0.0000E+00  0.0000E+00  0.0000E+00  0.0000E+00  0.0000E+00  0.0000E+00  0.0000E+00  0.0000E+00  0.0000E+00
     -6.728  0.0000E+00  0.0000E+00  0.0000E+00  0.0000E+00  0.0000E+00  0.0000E+00  0.0000E+00  0.0000E+00  0.0000E+00
     -6.648  0.0000E+00  0.0000E+00  0.0000E+00  0.0000E+00  0.0000E+00  0.0000E+00  0.0000E+00  0.0000E+00  0.0000E+00
     -6.568  0.0000E+00  0.0000E+00  0.0000E+00  0.0000E+00  0.0000E+00  0.0000E+00  0.0000E+00  0.0000E+00  0.0000E+00
     -6.488  0.1475E-16  0.1054E-29  0.1054E-29  0.1054E-29  0.0000E+00  0.0000E+00  0.0000E+00  0.0000E+00  0.0000E+00
     -6.409  0.2060E-09  0.4707E-14  0.4707E-14  0.4707E-14  0.0000E+00  0.0000E+00  0.0000E+00  0.0000E+00  0.0000E+00
     -6.329  0.1893E-04  0.8076E-09  0.8076E-09  0.8076E-09  0.0000E+00  0.0000E+00  0.0000E+00  0.0000E+00  0.0000E+00
     -6.249  0.1579E-01  0.1365E-05  0.1365E-05  0.1365E-05  0.0000E+00  0.0000E+00  0.0000E+00  0.0000E+00  0.0000E+00
     -6.169  0.2284E+00  0.5445E-04  0.5445E-04  0.5445E-04  0.0000E+00  0.0000E+00  0.0000E+00  0.0000E+00  0.0000E+00
     -6.090  0.2308E+00  0.2116E-03  0.2116E-03  0.2116E-03  0.0000E+00  0.0000E+00  0.0000E+00  0.0000E+00  0.0000E+00
     -6.010  0.1337E+00  0.3209E-03  0.3209E-03  0.3209E-03  0.0000E+00  0.0000E+00  0.0000E+00  0.0000E+00  0.0000E+00
     -5.930  0.1054E+00  0.3905E-03  0.3905E-03  0.3905E-03  0.0000E+00  0.0000E+00  0.0000E+00  0.0000E+00  0.0000E+00
     -5.850  0.9957E-01  0.5189E-03  0.5189E-03  0.5189E-03  0.0000E+00  0.0000E+00  0.0000E+00  0.0000E+00  0.0000E+00
     -5.770  0.7131E-01  0.4709E-03  0.4709E-03  0.4709E-03  0.0000E+00  0.0000E+00  0.0000E+00  0.0000E+00  0.0000E+00
     -5.691  0.8001E-01  0.6088E-03  0.6088E-03  0.6088E-03  0.0000E+00  0.0000E+00  0.0000E+00  0.0000E+00  0.0000E+00
     -5.611  0.6702E-01  0.6249E-03  0.6249E-03  0.6249E-03  0.0000E+00  0.0000E+00  0.0000E+00  0.0000E+00  0.0000E+00
     -5.531  0.6382E-01  0.6577E-03  0.6577E-03  0.6577E-03  0.0000E+00  0.0000E+00  0.0000E+00  0.0000E+00  0.0000E+00
     -5.451  0.6191E-01  0.7233E-03  0.7233E-03  0.7233E-03  0.0000E+00  0.0000E+00  0.0000E+00  0.0000E+00  0.0000E+00
     -5.372  0.5237E-01  0.6873E-03  0.6873E-03  0.6873E-03  0.0000E+00  0.0000E+00  0.0000E+00  0.0000E+00  0.0000E+00
     -5.292  0.6362E-01  0.8789E-03  0.8788E-03  0.8788E-03  0.0000E+00  0.0000E+00  0.0000E+00  0.0000E+00  0.0000E+00
     -5.212  0.4244E-01  0.6810E-03  0.6810E-03  0.6810E-03  0.0000E+00  0.0000E+00  0.0000E+00  0.0000E+00  0.0000E+00
     -5.132  0.6531E-01  0.1072E-02  0.1072E-02  0.1072E-02  0.0000E+00  0.0000E+00  0.0000E+00  0.0000E+00  0.0000E+00
     -5.053  0.3488E-01  0.6118E-03  0.6118E-03  0.6118E-03  0.0000E+00  0.0000E+00  0.0000E+00  0.0000E+00  0.0000E+00
     -4.973  0.5534E-01  0.1078E-02  0.1078E-02  0.1078E-02  0.0000E+00  0.0000E+00  0.0000E+00  0.0000E+00  0.0000E+00
     -4.893  0.5095E-01  0.9936E-03  0.9936E-03  0.9936E-03  0.0000E+00  0.0000E+00  0.0000E+00  0.0000E+00  0.0000E+00
     -4.813  0.3111E-01  0.6626E-03  0.6626E-03  0.6626E-03  0.0000E+00  0.0000E+00  0.0000E+00  0.0000E+00  0.0000E+00
     -4.734  0.6379E-01  0.1428E-02  0.1428E-02  0.1428E-02  0.0000E+00  0.0000E+00  0.0000E+00  0.0000E+00  0.0000E+00
     -4.654  0.2952E-01  0.6936E-03  0.6936E-03  0.6936E-03  0.0000E+00  0.0000E+00  0.0000E+00  0.0000E+00  0.0000E+00
     -4.574  0.5124E-01  0.1171E-02  0.1171E-02  0.1171E-02  0.0000E+00  0.0000E+00  0.0000E+00  0.0000E+00  0.0000E+00
     -4.494  0.4498E-01  0.1202E-02  0.1202E-02  0.1202E-02  0.0000E+00  0.0000E+00  0.0000E+00  0.0000E+00  0.0000E+00
     -4.415  0.3188E-01  0.8326E-03  0.8326E-03  0.8326E-03  0.0000E+00  0.0000E+00  0.0000E+00  0.0000E+00  0.0000E+00
     -4.335  0.6184E-01  0.1543E-02  0.1543E-02  0.1543E-02  0.0000E+00  0.0000E+00  0.0000E+00  0.0000E+00  0.0000E+00
     -4.255  0.2215E-01  0.6448E-03  0.6448E-03  0.6448E-03  0.0000E+00  0.0000E+00  0.0000E+00  0.0000E+00  0.0000E+00
     -4.175  0.6354E-01  0.1786E-02  0.1786E-02  0.1786E-02  0.0000E+00  0.0000E+00  0.0000E+00  0.0000E+00  0.0000E+00
     -4.095  0.3899E-01  0.1086E-02  0.1086E-02  0.1086E-02  0.0000E+00  0.0000E+00  0.0000E+00  0.0000E+00  0.0000E+00
     -4.016  0.5641E-01  0.1395E-02  0.1395E-02  0.1395E-02  0.0000E+00  0.0000E+00  0.0000E+00  0.0000E+00  0.0000E+00
     -3.936  0.1011E+00  0.2368E-02  0.2368E-02  0.2368E-02  0.0000E+00  0.0000E+00  0.0000E+00  0.0000E+00  0.0000E+00
     -3.856  0.2039E+00  0.4677E-02  0.4677E-02  0.4677E-02  0.0000E+00  0.0000E+00  0.0000E+00  0.0000E+00  0.0000E+00
     -3.776  0.1182E+00  0.2985E-02  0.2985E-02  0.2985E-02  0.0000E+00  0.0000E+00  0.0000E+00  0.0000E+00  0.0000E+00
     -3.697  0.6591E-01  0.1655E-02  0.1655E-02  0.1655E-02  0.0000E+00  0.0000E+00  0.0000E+00  0.0000E+00  0.0000E+00
     -3.617  0.6194E-01  0.1885E-02  0.1885E-02  0.1885E-02  0.0000E+00  0.0000E+00  0.0000E+00  0.0000E+00  0.0000E+00
     -3.537  0.8081E-01  0.2851E-02  0.2851E-02  0.2851E-02  0.0000E+00  0.0000E+00  0.0000E+00  0.0000E+00  0.0000E+00
     -3.457  0.6635E-01  0.2194E-02  0.2194E-02  0.2194E-02  0.0000E+00  0.0000E+00  0.0000E+00  0.0000E+00  0.0000E+00
     -3.378  0.3573E-01  0.1120E-02  0.1120E-02  0.1120E-02  0.0000E+00  0.0000E+00  0.0000E+00  0.0000E+00  0.0000E+00
     -3.298  0.4294E-01  0.1549E-02  0.1549E-02  0.1549E-02  0.0000E+00  0.0000E+00  0.0000E+00  0.0000E+00  0.0000E+00
     -3.218  0.8694E-01  0.3742E-02  0.3742E-02  0.3742E-02  0.0000E+00  0.0000E+00  0.0000E+00  0.0000E+00  0.0000E+00
     -3.138  0.4531E-01  0.1774E-02  0.1774E-02  0.1774E-02  0.0000E+00  0.0000E+00  0.0000E+00  0.0000E+00  0.0000E+00
     -3.059  0.3280E-01  0.1278E-02  0.1278E-02  0.1278E-02  0.0000E+00  0.0000E+00  0.0000E+00  0.0000E+00  0.0000E+00
     -2.979  0.3776E-01  0.1574E-02  0.1574E-02  0.1574E-02  0.0000E+00  0.0000E+00  0.0000E+00  0.0000E+00  0.0000E+00
     -2.899  0.7733E-01  0.3630E-02  0.3630E-02  0.3630E-02  0.0000E+00  0.0000E+00  0.0000E+00  0.0000E+00  0.0000E+00
     -2.819  0.3756E-01  0.1989E-02  0.1989E-02  0.1989E-02  0.0000E+00  0.0000E+00  0.0000E+00  0.0000E+00  0.0000E+00
     -2.739  0.5275E-01  0.2418E-02  0.2418E-02  0.2418E-02  0.0000E+00  0.0000E+00  0.0000E+00  0.0000E+00  0.0000E+00
     -2.660  0.3760E-01  0.1768E-02  0.1768E-02  0.1768E-02  0.0000E+00  0.0000E+00  0.0000E+00  0.0000E+00  0.0000E+00
     -2.580  0.4557E-01  0.2291E-02  0.2291E-02  0.2291E-02  0.0000E+00  0.0000E+00  0.0000E+00  0.0000E+00  0.0000E+00
     -2.500  0.1254E+00  0.6814E-02  0.6814E-02  0.6814E-02  0.0000E+00  0.0000E+00  0.0000E+00  0.0000E+00  0.0000E+00
     -2.420  0.1157E+00  0.6246E-02  0.6246E-02  0.6246E-02  0.0000E+00  0.0000E+00  0.0000E+00  0.0000E+00  0.0000E+00
     -2.341  0.9628E-01  0.5369E-02  0.5369E-02  0.5369E-02  0.0000E+00  0.0000E+00  0.0000E+00  0.0000E+00  0.0000E+00
     -2.261  0.1418E+00  0.8427E-02  0.8427E-02  0.8427E-02  0.0000E+00  0.0000E+00  0.0000E+00  0.0000E+00  0.0000E+00
     -2.181  0.2381E+00  0.1624E-01  0.1624E-01  0.1624E-01  0.0000E+00  0.0000E+00  0.0000E+00  0.0000E+00  0.0000E+00
     -2.101  0.9486E+00  0.7029E-01  0.7029E-01  0.7029E-01  0.0000E+00  0.0000E+00  0.0000E+00  0.0000E+00  0.0000E+00
     -2.022  0.8796E+00  0.6444E-01  0.6444E-01  0.6444E-01  0.0000E+00  0.0000E+00  0.0000E+00  0.0000E+00  0.0000E+00
     -1.942  0.6938E+00  0.4857E-01  0.4857E-01  0.4857E-01  0.0000E+00  0.0000E+00  0.0000E+00  0.0000E+00  0.0000E+00
     -1.862  0.1661E+00  0.1255E-01  0.1255E-01  0.1255E-01  0.0000E+00  0.0000E+00  0.0000E+00  0.0000E+00  0.0000E+00
     -1.782  0.1028E+00  0.8475E-02  0.8475E-02  0.8475E-02  0.0000E+00  0.0000E+00  0.0000E+00  0.0000E+00  0.0000E+00
     -1.703  0.1019E+00  0.8798E-02  0.8798E-02  0.8798E-02  0.0000E+00  0.0000E+00  0.0000E+00  0.0000E+00  0.0000E+00
     -1.623  0.9791E-01  0.8569E-02  0.8569E-02  0.8569E-02  0.0000E+00  0.0000E+00  0.0000E+00  0.0000E+00  0.0000E+00
     -1.543  0.8494E-01  0.7943E-02  0.7943E-02  0.7943E-02  0.0000E+00  0.0000E+00  0.0000E+00  0.0000E+00  0.0000E+00
     -1.463  0.6600E-01  0.6080E-02  0.6080E-02  0.6080E-02  0.0000E+00  0.0000E+00  0.0000E+00  0.0000E+00  0.0000E+00
     -1.383  0.2750E-01  0.2639E-02  0.2639E-02  0.2639E-02  0.0000E+00  0.0000E+00  0.0000E+00  0.0000E+00  0.0000E+00
     -1.304  0.8062E-01  0.9125E-02  0.9125E-02  0.9125E-02  0.0000E+00  0.0000E+00  0.0000E+00  0.0000E+00  0.0000E+00
     -1.224  0.1407E+00  0.3121E-01  0.3121E-01  0.3121E-01  0.0000E+00  0.0000E+00  0.0000E+00  0.0000E+00  0.0000E+00
     -1.144  0.1647E+00  0.3743E-01  0.3743E-01  0.3743E-01  0.0000E+00  0.0000E+00  0.0000E+00  0.0000E+00  0.0000E+00
     -1.064  0.1662E+00  0.3098E-01  0.3098E-01  0.3098E-01  0.0000E+00  0.0000E+00  0.0000E+00  0.0000E+00  0.0000E+00
     -0.985  0.3834E-01  0.8684E-02  0.8684E-02  0.8684E-02  0.0000E+00  0.0000E+00  0.0000E+00  0.0000E+00  0.0000E+00
     -0.905  0.1368E-01  0.1776E-02  0.1776E-02  0.1776E-02  0.0000E+00  0.0000E+00  0.0000E+00  0.0000E+00  0.0000E+00
     -0.825  0.6142E-01  0.8123E-02  0.8123E-02  0.8123E-02  0.0000E+00  0.0000E+00  0.0000E+00  0.0000E+00  0.0000E+00
     -0.745  0.2220E-01  0.5169E-02  0.5169E-02  0.5169E-02  0.0000E+00  0.0000E+00  0.0000E+00  0.0000E+00  0.0000E+00
     -0.666  0.1462E-02  0.3544E-03  0.3544E-03  0.3544E-03  0.0000E+00  0.0000E+00  0.0000E+00  0.0000E+00  0.0000E+00
     -0.586  0.1781E-01  0.2490E-02  0.2490E-02  0.2490E-02  0.0000E+00  0.0000E+00  0.0000E+00  0.0000E+00  0.0000E+00
     -0.506  0.2870E-01  0.5687E-02  0.5687E-02  0.5687E-02  0.0000E+00  0.0000E+00  0.0000E+00  0.0000E+00  0.0000E+00
     -0.426  0.3155E-01  0.5518E-02  0.5518E-02  0.5518E-02  0.0000E+00  0.0000E+00  0.0000E+00  0.0000E+00  0.0000E+00
     -0.347  0.1790E-01  0.2129E-02  0.2129E-02  0.2129E-02  0.0000E+00  0.0000E+00  0.0000E+00  0.0000E+00  0.0000E+00
     -0.267  0.2048E-01  0.3099E-02  0.3099E-02  0.3099E-02  0.0000E+00  0.0000E+00  0.0000E+00  0.0000E+00  0.0000E+00
     -0.187  0.1866E-01  0.3685E-02  0.3685E-02  0.3685E-02  0.0000E+00  0.0000E+00  0.0000E+00  0.0000E+00  0.0000E+00
     -0.107  0.1565E-01  0.4668E-02  0.4668E-02  0.4668E-02  0.0000E+00  0.0000E+00  0.0000E+00  0.0000E+00  0.0000E+00
     -0.028  0.5149E-02  0.8728E-03  0.8728E-03  0.8728E-03  0.0000E+00  0.0000E+00  0.0000E+00  0.0000E+00  0.0000E+00
      0.052  0.4118E-01  0.5787E-02  0.5787E-02  0.5787E-02  0.0000E+00  0.0000E+00  0.0000E+00  0.0000E+00  0.0000E+00
      0.132  0.2496E-01  0.3974E-02  0.3974E-02  0.3974E-02  0.0000E+00  0.0000E+00  0.0000E+00  0.0000E+00  0.0000E+00
      0.212  0.1090E-01  0.3303E-02  0.3303E-02  0.3303E-02  0.0000E+00  0.0000E+00  0.0000E+00  0.0000E+00  0.0000E+00
      0.292  0.1158E-01  0.3618E-02  0.3618E-02  0.3618E-02  0.0000E+00  0.0000E+00  0.0000E+00  0.0000E+00  0.0000E+00
      0.371  0.2657E-02  0.5378E-03  0.5378E-03  0.5378E-03  0.0000E+00  0.0000E+00  0.0000E+00  0.0000E+00  0.0000E+00
      0.451  0.3204E-01  0.5573E-02  0.5573E-02  0.5573E-02  0.0000E+00  0.0000E+00  0.0000E+00  0.0000E+00  0.0000E+00
      0.531  0.3220E-01  0.4862E-02  0.4862E-02  0.4862E-02  0.0000E+00  0.0000E+00  0.0000E+00  0.0000E+00  0.0000E+00
      0.611  0.1019E-01  0.2984E-02  0.2984E-02  0.2984E-02  0.0000E+00  0.0000E+00  0.0000E+00  0.0000E+00  0.0000E+00
      0.690  0.1313E-01  0.4335E-02  0.4335E-02  0.4335E-02  0.0000E+00  0.0000E+00  0.0000E+00  0.0000E+00  0.0000E+00
      0.770  0.4028E-02  0.9185E-03  0.9185E-03  0.9185E-03  0.0000E+00  0.0000E+00  0.0000E+00  0.0000E+00  0.0000E+00
      0.850  0.2262E-01  0.4759E-02  0.4759E-02  0.4759E-02  0.0000E+00  0.0000E+00  0.0000E+00  0.0000E+00  0.0000E+00
      0.930  0.1996E-01  0.3350E-02  0.3350E-02  0.3350E-02  0.0000E+00  0.0000E+00  0.0000E+00  0.0000E+00  0.0000E+00
      1.009  0.2197E-01  0.3913E-02  0.3913E-02  0.3913E-02  0.0000E+00  0.0000E+00  0.0000E+00  0.0000E+00  0.0000E+00
      1.089  0.1648E-01  0.5709E-02  0.5709E-02  0.5709E-02  0.0000E+00  0.0000E+00  0.0000E+00  0.0000E+00  0.0000E+00
      1.169  0.4473E-02  0.1422E-02  0.1422E-02  0.1422E-02  0.0000E+00  0.0000E+00  0.0000E+00  0.0000E+00  0.0000E+00
      1.249  0.1948E-01  0.5497E-02  0.5497E-02  0.5497E-02  0.0000E+00  0.0000E+00  0.0000E+00  0.0000E+00  0.0000E+00
      1.328  0.9399E-02  0.1750E-01  0.1750E-01  0.1750E-01  0.0000E+00  0.0000E+00  0.0000E+00  0.0000E+00  0.0000E+00
      1.408  0.2145E-01  0.2743E-01  0.2743E-01  0.2743E-01  0.0000E+00  0.0000E+00  0.0000E+00  0.0000E+00  0.0000E+00
      1.488  0.2236E-01  0.3387E-01  0.3387E-01  0.3387E-01  0.0000E+00  0.0000E+00  0.0000E+00  0.0000E+00  0.0000E+00
      1.568  0.1477E-01  0.3262E-01  0.3262E-01  0.3262E-01  0.0000E+00  0.0000E+00  0.0000E+00  0.0000E+00  0.0000E+00
      1.648  0.1361E-01  0.4920E-01  0.4920E-01  0.4920E-01  0.0000E+00  0.0000E+00  0.0000E+00  0.0000E+00  0.0000E+00
      1.727  0.2206E-01  0.3998E-01  0.3998E-01  0.3998E-01  0.0000E+00  0.0000E+00  0.0000E+00  0.0000E+00  0.0000E+00
      1.807  0.6780E-02  0.3238E-01  0.3238E-01  0.3238E-01  0.0000E+00  0.0000E+00  0.0000E+00  0.0000E+00  0.0000E+00
      1.887  0.2666E-01  0.9491E-01  0.9491E-01  0.9491E-01  0.0000E+00  0.0000E+00  0.0000E+00  0.0000E+00  0.0000E+00
      1.967  0.2529E-01  0.8917E-01  0.8917E-01  0.8917E-01  0.0000E+00  0.0000E+00  0.0000E+00  0.0000E+00  0.0000E+00
      2.046  0.1183E-01  0.5860E-01  0.5860E-01  0.5860E-01  0.0000E+00  0.0000E+00  0.0000E+00  0.0000E+00  0.0000E+00
      2.126  0.1872E-01  0.5766E-01  0.5766E-01  0.5766E-01  0.0000E+00  0.0000E+00  0.0000E+00  0.0000E+00  0.0000E+00
      2.206  0.1870E-01  0.5613E-01  0.5612E-01  0.5612E-01  0.0000E+00  0.0000E+00  0.0000E+00  0.0000E+00  0.0000E+00
      2.286  0.5275E-02  0.3908E-01  0.3908E-01  0.3908E-01  0.0000E+00  0.0000E+00  0.0000E+00  0.0000E+00  0.0000E+00
      2.365  0.3091E-01  0.5574E-01  0.5574E-01  0.5574E-01  0.0000E+00  0.0000E+00  0.0000E+00  0.0000E+00  0.0000E+00
      2.445  0.2129E-01  0.5394E-01  0.5394E-01  0.5394E-01  0.0000E+00  0.0000E+00  0.0000E+00  0.0000E+00  0.0000E+00
      2.525  0.1087E-01  0.5101E-01  0.5101E-01  0.5101E-01  0.0000E+00  0.0000E+00  0.0000E+00  0.0000E+00  0.0000E+00
      2.605  0.1598E-01  0.5059E-01  0.5059E-01  0.5059E-01  0.0000E+00  0.0000E+00  0.0000E+00  0.0000E+00  0.0000E+00
      2.684  0.1801E-01  0.6330E-01  0.6330E-01  0.6330E-01  0.0000E+00  0.0000E+00  0.0000E+00  0.0000E+00  0.0000E+00
      2.764  0.8587E-02  0.8160E-01  0.8160E-01  0.8160E-01  0.0000E+00  0.0000E+00  0.0000E+00  0.0000E+00  0.0000E+00
      2.844  0.2498E-01  0.2056E+00  0.2056E+00  0.2056E+00  0.0000E+00  0.0000E+00  0.0000E+00  0.0000E+00  0.0000E+00
      2.924  0.1695E-01  0.1661E+00  0.1661E+00  0.1661E+00  0.0000E+00  0.0000E+00  0.0000E+00  0.0000E+00  0.0000E+00
      3.004  0.9934E-02  0.8208E-01  0.8208E-01  0.8208E-01  0.0000E+00  0.0000E+00  0.0000E+00  0.0000E+00  0.0000E+00
      3.083  0.6667E-02  0.7624E-01  0.7624E-01  0.7624E-01  0.0000E+00  0.0000E+00  0.0000E+00  0.0000E+00  0.0000E+00
      3.163  0.2052E-01  0.6700E-01  0.6700E-01  0.6700E-01  0.0000E+00  0.0000E+00  0.0000E+00  0.0000E+00  0.0000E+00
      3.243  0.1389E-01  0.6816E-01  0.6816E-01  0.6816E-01  0.0000E+00  0.0000E+00  0.0000E+00  0.0000E+00  0.0000E+00
      3.323  0.1809E-01  0.3778E-01  0.3778E-01  0.3778E-01  0.0000E+00  0.0000E+00  0.0000E+00  0.0000E+00  0.0000E+00
      3.402  0.7806E-02  0.4144E-01  0.4144E-01  0.4144E-01  0.0000E+00  0.0000E+00  0.0000E+00  0.0000E+00  0.0000E+00
      3.482  0.1712E-01  0.4516E-01  0.4516E-01  0.4516E-01  0.0000E+00  0.0000E+00  0.0000E+00  0.0000E+00  0.0000E+00
      3.562  0.2462E-02  0.3377E-01  0.3377E-01  0.3377E-01  0.0000E+00  0.0000E+00  0.0000E+00  0.0000E+00  0.0000E+00
      3.642  0.1244E-01  0.2568E-01  0.2568E-01  0.2568E-01  0.0000E+00  0.0000E+00  0.0000E+00  0.0000E+00  0.0000E+00
      3.721  0.2246E-01  0.4638E-01  0.4638E-01  0.4638E-01  0.0000E+00  0.0000E+00  0.0000E+00  0.0000E+00  0.0000E+00
      3.801  0.1529E-01  0.3608E-01  0.3608E-01  0.3608E-01  0.0000E+00  0.0000E+00  0.0000E+00  0.0000E+00  0.0000E+00
      3.881  0.4214E-02  0.3593E-01  0.3593E-01  0.3593E-01  0.0000E+00  0.0000E+00  0.0000E+00  0.0000E+00  0.0000E+00
      3.961  0.1051E-01  0.3500E-01  0.3500E-01  0.3500E-01  0.0000E+00  0.0000E+00  0.0000E+00  0.0000E+00  0.0000E+00
      4.040  0.4309E-02  0.2618E-01  0.2618E-01  0.2618E-01  0.0000E+00  0.0000E+00  0.0000E+00  0.0000E+00  0.0000E+00
      4.120  0.7895E-02  0.4735E-01  0.4735E-01  0.4735E-01  0.0000E+00  0.0000E+00  0.0000E+00  0.0000E+00  0.0000E+00
      4.200  0.2825E-01  0.4336E-01  0.4336E-01  0.4336E-01  0.0000E+00  0.0000E+00  0.0000E+00  0.0000E+00  0.0000E+00
      4.280  0.5242E-02  0.4362E-01  0.4362E-01  0.4362E-01  0.0000E+00  0.0000E+00  0.0000E+00  0.0000E+00  0.0000E+00
      4.359  0.3323E-02  0.4719E-01  0.4719E-01  0.4719E-01  0.0000E+00  0.0000E+00  0.0000E+00  0.0000E+00  0.0000E+00
      4.439  0.8534E-02  0.1054E+00  0.1054E+00  0.1054E+00  0.0000E+00  0.0000E+00  0.0000E+00  0.0000E+00  0.0000E+00
      4.519  0.1912E-02  0.1398E+00  0.1398E+00  0.1398E+00  0.0000E+00  0.0000E+00  0.0000E+00  0.0000E+00  0.0000E+00
      4.599  0.1282E-01  0.8603E-01  0.8603E-01  0.8603E-01  0.0000E+00  0.0000E+00  0.0000E+00  0.0000E+00  0.0000E+00
      4.679  0.1358E-01  0.6243E-01  0.6243E-01  0.6243E-01  0.0000E+00  0.0000E+00  0.0000E+00  0.0000E+00  0.0000E+00
      4.758  0.2696E-02  0.4828E-01  0.4828E-01  0.4828E-01  0.0000E+00  0.0000E+00  0.0000E+00  0.0000E+00  0.0000E+00
      4.838  0.4984E-02  0.6895E-01  0.6895E-01  0.6895E-01  0.0000E+00  0.0000E+00  0.0000E+00  0.0000E+00  0.0000E+00
      4.918  0.4842E-02  0.4564E-01  0.4564E-01  0.4564E-01  0.0000E+00  0.0000E+00  0.0000E+00  0.0000E+00  0.0000E+00
      4.998  0.9266E-02  0.5421E-01  0.5421E-01  0.5421E-01  0.0000E+00  0.0000E+00  0.0000E+00  0.0000E+00  0.0000E+00
      5.077  0.3747E-02  0.5070E-01  0.5070E-01  0.5070E-01  0.0000E+00  0.0000E+00  0.0000E+00  0.0000E+00  0.0000E+00
      5.157  0.5513E-02  0.5406E-01  0.5406E-01  0.5406E-01  0.0000E+00  0.0000E+00  0.0000E+00  0.0000E+00  0.0000E+00