    2    2    1    1
  0.2044095E+02  0.3866773E-09  0.3866774E-09  0.3866772E-09  0.5000000E-15
  1.000000000000000E-004
  CAR 
 unknown system                          
      8    120      8
 
  0.0000000E+00  0.0000000E+00  0.0000000E+00  0.8333333E-02
    1       -6.198309   1.000000
    2        5.617310   1.000000
    3        5.617310   1.000000
    4        5.617313   1.000000
    5        8.174423   0.000000
    6        8.174430   0.000000
    7        8.174432   0.000000
    8        8.752975   0.000000
 
  0.2631579E-01  0.0000000E+00  0.2631579E-01  0.8333333E-02
    1       -6.186410   1.000000
    2        5.532075   1.000000
    3        5.566994   1.000000
    4        5.566996   1.000000
    5        8.144924   0.000000
    6        8.239427   0.000000
    7        8.239431   0.000000
    8        8.836400   0.000000
 
  0.5263158E-01  0.0000000E+00  0.5263158E-01  0.8333333E-02
    1       -6.150691   1.000000
    2        5.300391   1.000000
    3        5.429845   1.000000
    4        5.429846   1.000000
    5        8.060248   0.000000
    6        8.420567   0.000000
    7        8.420571   0.000000
    8        9.058994   0.000000
 
  0.7894737E-01  0.0000000E+00  0.7894737E-01  0.8333333E-02
    1       -6.091183   1.000000
    2        4.969986   1.000000
    3        5.235006   1.000000
    4        5.235007   1.000000
    5        7.930428   0.000000
    6        8.688506   0.000000
    7        8.688509   0.000000
    8        9.359506   0.000000
 
  0.1052632E+00  0.0000000E+00  0.1052632E+00  0.8333333E-02
    1       -6.008029   1.000000
    2        4.580657   1.000000
    3        5.009136   1.000000
    4        5.009136   1.000000
    5        7.768280   0.000000
    6        9.016180   0.000000
    7        9.016183   0.000000
    8        9.664679   0.000000
 
  0.1315789E+00  0.0000000E+00  0.1315789E+00  0.8333333E-02
    1       -5.901344   1.000000
    2        4.157266   1.000000
    3        4.770654   1.000000
    4        4.770654   1.000000
    5        7.586471   0.000000
    6        9.384710   0.000000
    7        9.384712   0.000000
    8        9.876504   0.000000
 
  0.1578947E+00  0.0000000E+00  0.1578947E+00  0.8333333E-02
    1       -5.771289   1.000000
    2        3.714048   1.000000
    3        4.531149   1.000000
    4        4.531150   1.000000
    5        7.395895   0.000000
    6        9.781950   0.000000
    7        9.781952   0.000000
    8        9.880848   0.000000
 
  0.1842105E+00  0.0000000E+00  0.1842105E+00  0.8333333E-02
    1       -5.618082   1.000000
    2        3.259216   1.000000
    3        4.297858   1.000000
    4        4.297859   1.000000
    5        7.205279   0.000000
    6        9.665376   0.000000
    7       10.200190   0.000000
    8       10.200192   0.000000
 
  0.2105263E+00  0.0000000E+00  0.2105263E+00  0.8333333E-02
    1       -5.442004   1.000000
    2        2.797627   1.000000
    3        4.075405   1.000000
    4        4.075406   1.000000
    5        7.021353   0.000000
    6        9.327306   0.000000
    7       10.634236   0.000000
    8       10.634238   0.000000
 
  0.2368421E+00  0.0000000E+00  0.2368421E+00  0.8333333E-02
    1       -5.243323   1.000000
    2        2.332382   1.000000
    3        3.866895   1.000000
    4        3.866896   1.000000
    5        6.849315   0.000000
    6        8.946561   0.000000
    7       11.080669   0.000000
    8       11.080670   0.000000
 
  0.2631579E+00  0.0000000E+00  0.2631579E+00  0.8333333E-02
    1       -5.022427   1.000000
    2        1.865686   1.000000
    3        3.674457   1.000000
    4        3.674458   1.000000
    5        6.693120   0.000000
    6        8.562665   0.000000
    7       11.536985   0.000000
    8       11.536986   0.000000
 
  0.2894737E+00  0.0000000E+00  0.2894737E+00  0.8333333E-02
    1       -4.779756   1.000000
    2        1.399324   1.000000
    3        3.499610   1.000000
    4        3.499611   1.000000
    5        6.555877   0.000000
    6        8.194383   0.000000
    7       12.001550   0.000000
    8       12.001552   0.000000
 
  0.3157895E+00  0.0000000E+00  0.3157895E+00  0.8333333E-02
    1       -4.515765   1.000000
    2        0.934898   1.000000
    3        3.343460   1.000000
    4        3.343462   1.000000
    5        6.440073   0.000000
    6        7.851249   0.000000
    7       12.473246   0.000000
    8       12.473247   0.000000
 
  0.3421053E+00  0.0000000E+00  0.3421053E+00  0.8333333E-02
    1       -4.231026   1.000000
    2        0.473954   1.000000
    3        3.206837   1.000000
    4        3.206838   1.000000
    5        6.347721   0.000000
    6        7.538258   0.000000
    7       12.951153   0.000000
    8       12.951155   0.000000
 
  0.3684211E+00  0.0000000E+00  0.3684211E+00  0.8333333E-02
    1       -3.926209   1.000000
    2        0.018077   1.000000
    3        3.090357   1.000000
    4        3.090359   1.000000
    5        6.280521   0.000000
    6        7.258042   0.000000
    7       13.434239   0.000000
    8       13.434241   0.000000
 
  0.3947368E+00  0.0000000E+00  0.3947368E+00  0.8333333E-02
    1       -3.602006   1.000000
    2       -0.431086   1.000000
    3        2.994501   1.000000
    4        2.994503   1.000000
    5        6.239938   0.000000
    6        7.011895   0.000000
    7       13.921275   0.000000
    8       13.921277   0.000000
 
  0.4210526E+00  0.0000000E+00  0.4210526E+00  0.8333333E-02
    1       -3.259227   1.000000
    2       -0.871977   1.000000
    3        2.919617   1.000000
    4        2.919618   1.000000
    5        6.227344   0.000000
    6        6.800207   0.000000
    7       14.408996   0.000000
    8       14.408998   0.000000
 
  0.4473684E+00  0.0000000E+00  0.4473684E+00  0.8333333E-02
    1       -2.898819   1.000000
    2       -1.302979   1.000000
    3        2.865958   1.000000
    4        2.865960   1.000000
    5        6.243910   0.000000
    6        6.622839   0.000000
    7       14.888373   0.000000
    8       14.888374   0.000000
 
  0.4736842E+00  0.0000000E+00  0.4736842E+00  0.8333333E-02
    1       -2.521797   1.000000
    2       -1.722553   1.000000
    3        2.833698   1.000000
    4        2.833700   1.000000
    5        6.290756   0.000000
    6        6.479300   0.000000
    7       15.325493   0.000000
    8       15.325494   0.000000
 
  0.5000000E+00  0.0000000E+00  0.5000000E+00  0.8333333E-02
    1       -2.129294   1.000000
    2       -2.129290   1.000000
    3        2.822934   1.000000
    4        2.822936   1.000000
    5        6.368887   0.000000
    6        6.368888   0.000000
    7       15.555358   0.000000
    8       15.555402   0.000000
 
  0.5000000E+00  0.0000000E+00  0.5000000E+00  0.8333333E-02
    1       -2.129294   1.000000
    2       -2.129290   1.000000
    3        2.822934   1.000000
    4        2.822936   1.000000
    5        6.368887   0.000000
    6        6.368888   0.000000
    7       15.555381   0.000000
    8       15.555418   0.000000
 
  0.5065789E+00  0.1315789E-01  0.5065789E+00  0.8333333E-02
    1       -2.129946   1.000000
    2       -2.127672   1.000000
    3        2.812801   1.000000
    4        2.824129   1.000000
    5        6.370262   0.000000
    6        6.384005   0.000000
    7       15.539083   0.000000
    8       15.546241   0.000000
 
  0.5131579E+00  0.2631579E-01  0.5131579E+00  0.8333333E-02
    1       -2.131924   1.000000
    2       -2.122827   1.000000
    3        2.782986   1.000000
    4        2.827706   1.000000
    5        6.374376   0.000000
    6        6.428797   0.000000
    7       15.491506   0.000000
    8       15.519245   0.000000
 
  0.5197368E+00  0.3947368E-01  0.5197368E+00  0.8333333E-02
    1       -2.135280   1.000000
    2       -2.114732   1.000000
    3        2.735130   1.000000
    4        2.833669   1.000000
    5        6.381249   0.000000
    6        6.501666   0.000000
    7       15.416225   0.000000
    8       15.475453   0.000000
 
  0.5263158E+00  0.5263158E-01  0.5263158E+00  0.8333333E-02
    1       -2.140129   1.000000
    2       -2.103408   1.000000
    3        2.671634   1.000000
    4        2.842006   1.000000
    5        6.390849   0.000000
    6        6.600290   0.000000
    7       15.317802   0.000000
    8       15.416242   0.000000
 
  0.5328947E+00  0.6578947E-01  0.5328947E+00  0.8333333E-02
    1       -2.146575   1.000000
    2       -2.088848   1.000000
    3        2.595330   1.000000
    4        2.852714   1.000000
    5        6.403188   0.000000
    6        6.722001   0.000000
    7       15.201072   0.000000
    8       15.343550   0.000000
 
  0.5394737E+00  0.7894737E-01  0.5394737E+00  0.8333333E-02
    1       -2.154809   1.000000
    2       -2.071061   1.000000
    3        2.509132   1.000000
    4        2.865779   1.000000
    5        6.418230   0.000000
    6        6.863996   0.000000
    7       15.070226   0.000000
    8       15.259513   0.000000
 
  0.5460526E+00  0.9210526E-01  0.5460526E+00  0.8333333E-02
    1       -2.165030   1.000000
    2       -2.050040   1.000000
    3        2.415835   1.000000
    4        2.881194   1.000000
    5        6.435986   0.000000
    6        7.023682   0.000000
    7       14.928834   0.000000
    8       15.166410   0.000000
 
  0.5526316E+00  0.1052632E+00  0.5526316E+00  0.8333333E-02
    1       -2.177477   1.000000
    2       -2.025791   1.000000
    3        2.317989   1.000000
    4        2.898943   1.000000
    5        6.456435   0.000000
    6        7.198718   0.000000
    7       14.779681   0.000000
    8       15.066204   0.000000
 
  0.5592105E+00  0.1184211E+00  0.5592105E+00  0.8333333E-02
    1       -2.192419   1.000000
    2       -1.998316   1.000000
    3        2.217858   1.000000
    4        2.919008   1.000000
    5        6.479557   0.000000
    6        7.387075   0.000000
    7       14.624924   0.000000
    8       14.959055   0.000000
 
  0.5657895E+00  0.1315789E+00  0.5657895E+00  0.8333333E-02
    1       -2.210147   1.000000
    2       -1.967616   1.000000
    3        2.117422   1.000000
    4        2.941372   1.000000
    5        6.505332   0.000000
    6        7.587036   0.000000
    7       14.466049   0.000000
    8       14.846260   0.000000
 
  0.5723684E+00  0.1447368E+00  0.5723684E+00  0.8333333E-02
    1       -2.230980   1.000000
    2       -1.933697   1.000000
    3        2.018393   1.000000
    4        2.966010   1.000000
    5        6.533737   0.000000
    6        7.797148   0.000000
    7       14.304452   0.000000
    8       14.730032   0.000000
 
  0.5789474E+00  0.1578947E+00  0.5789474E+00  0.8333333E-02
    1       -2.255226   1.000000
    2       -1.896560   1.000000
    3        1.922246   1.000000
    4        2.992901   1.000000
    5        6.564745   0.000000
    6        8.016215   0.000000
    7       14.141178   0.000000
    8       14.612553   0.000000
 
  0.5855263E+00  0.1710526E+00  0.5855263E+00  0.8333333E-02
    1       -2.283208   1.000000
    2       -1.856198   1.000000
    3        1.830263   1.000000
    4        3.022015   1.000000
    5        6.598333   0.000000
    6        8.243211   0.000000
    7       13.976972   0.000000
    8       14.489257   0.000000
 
  0.5921053E+00  0.1842105E+00  0.5921053E+00  0.8333333E-02
    1       -2.315233   1.000000
    2       -1.812639   1.000000
    3        1.743540   1.000000
    4        3.053323   1.000000
    5        6.634450   0.000000
    6        8.477268   0.000000
    7       13.812403   0.000000
    8       14.351180   0.000000
 
  0.5986842E+00  0.1973684E+00  0.5986842E+00  0.8333333E-02
    1       -2.351584   1.000000
    2       -1.765875   1.000000
    3        1.663010   1.000000
    4        3.086791   1.000000
    5        6.673069   0.000000
    6        8.717629   0.000000
    7       13.648021   0.000000
    8       14.221988   0.000000
 
  0.6052632E+00  0.2105263E+00  0.6052632E+00  0.8333333E-02
    1       -2.392495   1.000000
    2       -1.715912   1.000000
    3        1.589454   1.000000
    4        3.122380   1.000000
    5        6.714147   0.000000
    6        8.963665   0.000000
    7       13.484202   0.000000
    8       14.053268   0.000000
 
  0.6118421E+00  0.2236842E+00  0.6118421E+00  0.8333333E-02
    1       -2.438145   1.000000
    2       -1.662754   1.000000
    3        1.523516   1.000000
    4        3.160055   1.000000
    5        6.757636   0.000000
    6        9.214770   0.000000
    7       13.321314   0.000000
    8       13.880125   0.000000
 
  0.6184211E+00  0.2368421E+00  0.6184211E+00  0.8333333E-02
    1       -2.488677   1.000000
    2       -1.606411   1.000000
    3        1.465685   1.000000
    4        3.199769   1.000000
    5        6.803479   0.000000
    6        9.470370   0.000000
    7       13.159530   0.000000
    8       13.705959   0.000000
 
  0.6250000E+00  0.2500000E+00  0.6250000E+00  0.8333333E-02
    1       -2.544126   1.000000
    2       -1.546879   1.000000
    3        1.416332   1.000000
    4        3.241478   1.000000
    5        6.851630   0.000000
    6        9.729911   0.000000
    7       12.999149   0.000000
    8       13.535838   0.000000
 
  0.3750000E+00  0.3750000E+00  0.7500000E+00  0.8333333E-02
    1       -2.544121   1.000000
    2       -1.546884   1.000000
    3        1.416331   1.000000
    4        3.241477   1.000000
    5        6.851630   0.000000
    6        9.729917   0.000000
    7       12.999152   0.000000
    8       13.535229   0.000000
 
  0.3552632E+00  0.3552632E+00  0.7105263E+00  0.8333333E-02
    1       -2.739289   1.000000
    2       -1.349244   1.000000
    3        1.320901   1.000000
    4        3.378038   1.000000
    5        7.009225   0.000000
    6       10.525288   0.000000
    7       12.528107   0.000000
    8       13.050877   0.000000
 
  0.3355263E+00  0.3355263E+00  0.6710526E+00  0.8333333E-02
    1       -2.973171   1.000000
    2       -1.123206   1.000000
    3        1.303660   1.000000
    4        3.530444   1.000000
    5        7.184779   0.000000
    6       11.313220   0.000000
    7       12.074925   0.000000
    8       12.627342   0.000000
 
  0.3157895E+00  0.3157895E+00  0.6315789E+00  0.8333333E-02
    1       -3.236485   1.000000
    2       -0.868979   1.000000
    3        1.358590   1.000000
    4        3.696682   1.000000
    5        7.375382   0.000000
    6       11.642250   0.000000
    7       11.797558   0.000000
    8       12.556719   0.000000
 
  0.2960526E+00  0.2960526E+00  0.5921053E+00  0.8333333E-02
    1       -3.518382   1.000000
    2       -0.586873   1.000000
    3        1.476702   1.000000
    4        3.874271   1.000000
    5        7.576996   0.000000
    6       11.231734   0.000000
    7       11.553605   0.000000
    8       12.283185   0.000000
 
  0.2763158E+00  0.2763158E+00  0.5526316E+00  0.8333333E-02
    1       -3.808609   1.000000
    2       -0.277199   1.000000
    3        1.648729   1.000000
    4        4.060234   1.000000
    5        7.784138   0.000000
    6       10.844678   0.000000
    7       11.184449   0.000000
    8       11.990684   0.000000
 
  0.2565789E+00  0.2565789E+00  0.5131579E+00  0.8333333E-02
    1       -4.098552   1.000000
    2        0.059627   1.000000
    3        1.866371   1.000000
    4        4.251010   1.000000
    5        7.989281   0.000000
    6       10.482010   0.000000
    7       10.819154   0.000000
    8       11.735489   0.000000
 
  0.2368421E+00  0.2368421E+00  0.4736842E+00  0.8333333E-02
    1       -4.381538   1.000000
    2        0.423100   1.000000
    3        2.122569   1.000000
    4        4.442528   1.000000
    5        8.182507   0.000000
    6       10.144444   0.000000
    7       10.472787   0.000000
    8       11.524943   0.000000
 
  0.2171053E+00  0.2171053E+00  0.4342105E+00  0.8333333E-02
    1       -4.652479   1.000000
    2        0.812624   1.000000
    3        2.411309   1.000000
    4        4.630271   1.000000
    5        8.351602   0.000000
    6        9.832537   0.000000
    7       10.148950   0.000000
    8       11.366522   0.000000
 
  0.1973684E+00  0.1973684E+00  0.3947368E+00  0.8333333E-02
    1       -4.907527   1.000000
    2        1.227426   1.000000
    3        2.727174   1.000000
    4        4.809490   1.000000
    5        8.483852   0.000000
    6        9.546707   0.000000
    7        9.848758   0.000000
    8       11.264736   0.000000
 
  0.1776316E+00  0.1776316E+00  0.3552632E+00  0.8333333E-02
    1       -5.143852   1.000000
    2        1.666463   1.000000
    3        3.064932   1.000000
    4        4.975587   1.000000
    5        8.569873   0.000000
    6        9.287331   0.000000
    7        9.572329   0.000000
    8       11.214493   0.000000
 
  0.1578947E+00  0.1578947E+00  0.3157895E+00  0.8333333E-02
    1       -5.359300   1.000000
    2        2.128327   1.000000
    3        3.419075   1.000000
    4        5.124557   1.000000
    5        8.608040   0.000000
    6        9.054676   0.000000
    7        9.319457   0.000000
    8       11.191160   0.000000
 
  0.1381579E+00  0.1381579E+00  0.2763158E+00  0.8333333E-02
    1       -5.552221   1.000000
    2        2.611003   1.000000
    3        3.783324   1.000000
    4        5.253505   1.000000
    5        8.605423   0.000000
    6        8.848963   0.000000
    7        9.089516   0.000000
    8       11.139890   0.000000
 
  0.1184211E+00  0.1184211E+00  0.2368421E+00  0.8333333E-02
    1       -5.721382   1.000000
    2        3.111502   1.000000
    3        4.150079   1.000000
    4        5.360978   1.000000
    5        8.574071   0.000000
    6        8.670364   0.000000
    7        8.881734   0.000000
    8       10.976591   0.000000
 
  0.9868421E-01  0.9868421E-01  0.1973684E+00  0.8333333E-02
    1       -5.865857   1.000000
    2        3.625024   1.000000
    3        4.509661   1.000000
    4        5.447024   1.000000
    5        8.519033   0.000000
    6        8.526035   0.000000
    7        8.695509   0.000000
    8       10.640442   0.000000
 
  0.7894737E-01  0.7894737E-01  0.1578947E+00  0.8333333E-02
    1       -5.984905   1.000000
    2        4.143288   1.000000
    3        4.849388   1.000000
    4        5.512952   1.000000
    5        8.395078   0.000000
    6        8.469922   0.000000
    7        8.530825   0.000000
    8       10.165935   0.000000
 
  0.5921053E-01  0.5921053E-01  0.1184211E+00  0.8333333E-02
    1       -6.077993   1.000000
    2        4.650803   1.000000
    3        5.152536   1.000000
    4        5.560841   1.000000
    5        8.298588   0.000000
    6        8.389444   0.000000
    7        8.408493   0.000000
    8        9.644614   0.000000
 
  0.3947368E-01  0.3947368E-01  0.7894737E-01  0.8333333E-02
    1       -6.144764   1.000000
    2        5.116245   1.000000
    3        5.397706   1.000000
    4        5.592975   1.000000
    5        8.229627   0.000000
    6        8.276469   0.000000
    7        8.334546   0.000000
    8        9.171921   0.000000
 
  0.1973684E-01  0.1973684E-01  0.3947368E-01  0.8333333E-02
    1       -6.184923   1.000000
    2        5.474616   1.000000
    3        5.560057   1.000000
    4        5.611346   1.000000
    5        8.188228   0.000000
    6        8.201215   0.000000
    7        8.236256   0.000000
    8        8.854284   0.000000
 
  0.0000000E+00  0.0000000E+00  0.0000000E+00  0.8333333E-02
    1       -6.198309   1.000000
    2        5.617310   1.000000
    3        5.617310   1.000000
    4        5.617313   1.000000
    5        8.174423   0.000000
    6        8.174430   0.000000
    7        8.174432   0.000000
    8        8.752975   0.000000
 
  0.0000000E+00  0.0000000E+00  0.0000000E+00  0.8333333E-02
    1       -6.198309   1.000000
    2        5.617310   1.000000
    3        5.617310   1.000000
    4        5.617313   1.000000
    5        8.174423   0.000000
    6        8.174430   0.000000
    7        8.174432   0.000000
    8        8.752975   0.000000
 
  0.2631579E-01  0.2631579E-01  0.2631579E-01  0.8333333E-02
    1       -6.189388   1.000000
    2        5.509322   1.000000
    3        5.601937   1.000000
    4        5.601939   1.000000
    5        8.196916   0.000000
    6        8.196923   0.000000
    7        8.198920   0.000000
    8        8.820760   0.000000
 
  0.5263158E-01  0.5263158E-01  0.5263158E-01  0.8333333E-02
    1       -6.162608   1.000000
    2        5.224191   1.000000
    3        5.557822   1.000000
    4        5.557825   1.000000
    5        8.219170   0.000000
    6        8.261740   0.000000
    7        8.261747   0.000000
    8        9.039966   0.000000
 
  0.7894737E-01  0.7894737E-01  0.7894737E-01  0.8333333E-02
    1       -6.118066   1.000000
    2        4.831653   1.000000
    3        5.490157   1.000000
    4        5.490160   1.000000
    5        8.191017   0.000000
    6        8.361684   0.000000
    7        8.361690   0.000000
    8        9.388760   0.000000
 
  0.1052632E+00  0.1052632E+00  0.1052632E+00  0.8333333E-02
    1       -6.055883   1.000000
    2        4.382588   1.000000
    3        5.405559   1.000000
    4        5.405562   1.000000
    5        8.125370   0.000000
    6        8.486676   0.000000
    7        8.486683   0.000000
    8        9.810815   0.000000
 
  0.1315789E+00  0.1315789E+00  0.1315789E+00  0.8333333E-02
    1       -5.976310   1.000000
    2        3.905869   1.000000
    3        5.310446   1.000000
    4        5.310449   1.000000
    5        8.037783   0.000000
    6        8.625168   0.000000
    7        8.625175   0.000000
    8       10.267624   0.000000
 
  0.1578947E+00  0.1578947E+00  0.1578947E+00  0.8333333E-02
    1       -5.879596   1.000000
    2        3.417681   1.000000
    3        5.210284   1.000000
    4        5.210286   1.000000
    5        7.938358   0.000000
    6        8.765050   0.000000
    7        8.765057   0.000000
    8       10.738904   0.000000
 
  0.1842105E+00  0.1842105E+00  0.1842105E+00  0.8333333E-02
    1       -5.766137   1.000000
    2        2.927610   1.000000
    3        5.109331   1.000000
    4        5.109334   1.000000
    5        7.833780   0.000000
    6        8.894272   0.000000
    7        8.894279   0.000000
    8       11.213655   0.000000
 
  0.2105263E+00  0.2105263E+00  0.2105263E+00  0.8333333E-02
    1       -5.636495   1.000000
    2        2.441875   1.000000
    3        5.010754   1.000000
    4        5.010757   1.000000
    5        7.728757   0.000000
    6        9.002054   0.000000
    7        9.002061   0.000000
    8       11.684884   0.000000
 
  0.2368421E+00  0.2368421E+00  0.2368421E+00  0.8333333E-02
    1       -5.491389   1.000000
    2        1.964943   1.000000
    3        4.916869   1.000000
    4        4.916872   1.000000
    5        7.626669   0.000000
    6        9.080612   0.000000
    7        9.080619   0.000000
    8       12.146075   0.000000
 
  0.2631579E+00  0.2631579E+00  0.2631579E+00  0.8333333E-02
    1       -5.331807   1.000000
    2        1.500418   1.000000
    3        4.829335   1.000000
    4        4.829338   1.000000
    5        7.529969   0.000000
    6        9.126942   0.000000
    7        9.126949   0.000000
    8       12.586792   0.000000
 
  0.2894737E+00  0.2894737E+00  0.2894737E+00  0.8333333E-02
    1       -5.159130   1.000000
    2        1.051551   1.000000
    3        4.749321   1.000000
    4        4.749324   1.000000
    5        7.440434   0.000000
    6        9.143233   0.000000
    7        9.143240   0.000000
    8       12.989827   0.000000
 
  0.3157895E+00  0.3157895E+00  0.3157895E+00  0.8333333E-02
    1       -4.975365   1.000000
    2        0.621687   1.000000
    3        4.677646   1.000000
    4        4.677649   1.000000
    5        7.359456   0.000000
    6        9.135570   0.000000
    7        9.135577   0.000000
    8       13.298775   0.000000
 
  0.3421053E+00  0.3421053E+00  0.3421053E+00  0.8333333E-02
    1       -4.783389   1.000000
    2        0.214756   1.000000
    3        4.614872   1.000000
    4        4.614875   1.000000
    5        7.287950   0.000000
    6        9.111734   0.000000
    7        9.111741   0.000000
    8       13.435940   0.000000
 
  0.3684211E+00  0.3684211E+00  0.3684211E+00  0.8333333E-02
    1       -4.587537   1.000000
    2       -0.164095   1.000000
    3        4.561367   1.000000
    4        4.561371   1.000000
    5        7.226599   0.000000
    6        9.079320   0.000000
    7        9.079328   0.000000
    8       13.460106   0.000000
 
  0.3947368E+00  0.3947368E+00  0.3947368E+00  0.8333333E-02
    1       -4.394410   1.000000
    2       -0.507656   1.000000
    3        4.517378   1.000000
    4        4.517382   1.000000
    5        7.175865   0.000000
    6        9.044817   0.000000
    7        9.044824   0.000000
    8       13.431210   0.000000
 
  0.4210526E+00  0.4210526E+00  0.4210526E+00  0.8333333E-02
    1       -4.214195   1.000000
    2       -0.805336   1.000000
    3        4.483061   1.000000
    4        4.483065   1.000000
    5        7.136135   0.000000
    6        9.013284   0.000000
    7        9.013291   0.000000
    8       13.389503   0.000000
 
  0.4473684E+00  0.4473684E+00  0.4473684E+00  0.8333333E-02
    1       -4.061852   1.000000
    2       -1.041817   1.000000
    3        4.458499   1.000000
    4        4.458503   1.000000
    5        7.107614   0.000000
    6        8.988348   0.000000
    7        8.988355   0.000000
    8       13.352712   0.000000
 
  0.4736842E+00  0.4736842E+00  0.4736842E+00  0.8333333E-02
    1       -3.957061   1.000000
    2       -1.197158   1.000000
    3        4.443748   1.000000
    4        4.443752   1.000000
    5        7.090483   0.000000
    6        8.972452   0.000000
    7        8.972459   0.000000
    8       13.328491   0.000000
 
  0.5000000E+00  0.5000000E+00  0.5000000E+00  0.8333333E-02
    1       -3.919256   1.000000
    2       -1.251811   1.000000
    3        4.438829   1.000000
    4        4.438833   1.000000
    5        7.084742   0.000000
    6        8.967001   0.000000
    7        8.967008   0.000000
    8       13.320094   0.000000
 
  0.5000000E+00  0.5000000E+00  0.5000000E+00  0.8333333E-02
    1       -3.919256   1.000000
    2       -1.251811   1.000000
    3        4.438829   1.000000
    4        4.438833   1.000000
    5        7.084742   0.000000
    6        8.967001   0.000000
    7        8.967008   0.000000
    8       13.320094   0.000000
 
  0.5000000E+00  0.4868421E+00  0.5131579E+00  0.8333333E-02
    1       -3.913288   1.000000
    2       -1.248808   1.000000
    3        4.381404   1.000000
    4        4.427768   1.000000
    5        7.138401   0.000000
    6        8.956683   0.000000
    7        8.990370   0.000000
    8       13.346329   0.000000
 
  0.5000000E+00  0.4736842E+00  0.5263158E+00  0.8333333E-02
    1       -3.895390   1.000000
    2       -1.239928   1.000000
    3        4.223760   1.000000
    4        4.394605   1.000000
    5        7.282596   0.000000
    6        8.927814   0.000000
    7        9.062697   0.000000
    8       13.419675   0.000000
 
  0.5000000E+00  0.4605263E+00  0.5394737E+00  0.8333333E-02
    1       -3.865608   1.000000
    2       -1.225581   1.000000
    3        3.997120   1.000000
    4        4.339442   1.000000
    5        7.480219   0.000000
    6        8.885981   0.000000
    7        9.190124   0.000000
    8       13.523225   0.000000
 
  0.5000000E+00  0.4473684E+00  0.5526316E+00  0.8333333E-02
    1       -3.823995   1.000000
    2       -1.206474   1.000000
    3        3.730711   1.000000
    4        4.262588   1.000000
    5        7.694770   0.000000
    6        8.838734   0.000000
    7        9.380462   0.000000
    8       13.625900   0.000000
 
  0.5000000E+00  0.4342105E+00  0.5657895E+00  0.8333333E-02
    1       -3.770646   1.000000
    2       -1.183677   1.000000
    3        3.445467   1.000000
    4        4.164699   1.000000
    5        7.901244   0.000000
    6        8.793785   0.000000
    7        9.638548   0.000000
    8       13.681407   0.000000
 
  0.5000000E+00  0.4210526E+00  0.5789474E+00  0.8333333E-02
    1       -3.705675   1.000000
    2       -1.158703   1.000000
    3        3.155477   1.000000
    4        4.046910   1.000000
    5        8.088941   0.000000
    6        8.757911   0.000000
    7        9.962087   0.000000
    8       13.645364   0.000000
 
  0.5000000E+00  0.4078947E+00  0.5921053E+00  0.8333333E-02
    1       -3.629237   1.000000
    2       -1.133615   1.000000
    3        2.870640   1.000000
    4        3.910895   1.000000
    5        8.258468   0.000000
    6        8.736256   0.000000
    7       10.342071   0.000000
    8       13.513326   0.000000
 
  0.5000000E+00  0.3947368E+00  0.6052632E+00  0.8333333E-02
    1       -3.541508   1.000000
    2       -1.111157   1.000000
    3        2.598689   1.000000
    4        3.758855   1.000000
    5        8.415653   0.000000
    6        8.732368   0.000000
    7       10.766921   0.000000
    8       13.214751   0.000000
 
  0.5000000E+00  0.3815789E+00  0.6184211E+00  0.8333333E-02
    1       -3.442752   1.000000
    2       -1.094865   1.000000
    3        2.346396   1.000000
    4        3.593409   1.000000
    5        8.566883   0.000000
    6        8.748278   0.000000
    7       11.225887   0.000000
    8       12.855261   0.000000
 
  0.5000000E+00  0.3684211E+00  0.6315789E+00  0.8333333E-02
    1       -3.333259   1.000000
    2       -1.089092   1.000000
    3        2.120260   1.000000
    4        3.417457   1.000000
    5        8.717200   0.000000
    6        8.784895   0.000000
    7       11.709747   0.000000
    8       12.517787   0.000000
 