 vasp.6.2.0 18Jan21 (build Aug 12 2022 13:00:08) complex                        
  
 executed on             LinuxIFC date 2024.11.03  22:59:46
 running on    4 total cores
 distrk:  each k-point on    4 cores,    1 groups
 distr:  one band on NCORE=   1 cores,    4 groups


--------------------------------------------------------------------------------------------------------


 INCAR:
   ISTART = 1            (Read existing wavefunction, if there)
   ICHARG = 11           (Non-self-consistent: GGA/LDA band structures)
   ISPIN = 1            (Non-Spin polarised DFT)
   LREAL = .FALSE.       (Projection operators: automatic)
   LWAVE = .TRUE.        (Write WAVECAR or not)
   LCHARG = .TRUE.        (Write CHGCAR or not)
   ADDGRID = .TRUE.        (Increase grid, helps GGA convergence)
   LASPH = .TRUE.        (Give more accurate total energies and band structure calculations)
   PREC = Accurate      (Accurate strictly avoids any aliasing or wrap around errors)
   ENCUT = 450          (Cut-off energy for plane wave basis set, in eV)
   LORBIT = 11
   ISMEAR = 0            (Gaussian smearing, metals:1)
   SIGMA = 0.05         (Smearing value in eV, metals:0.2)
   NELM = 90           (Max electronic SCF steps)
   NELMIN = 6            (Min electronic SCF steps)
   EDIFF = 1E-06        (SCF energy convergence, in eV)
   NSW = 00          (Max ionic steps)
   IBRION = -1            (Algorithm: 0-MD, 1-Quasi-New, 2-CG)
   ISIF = 3            (Stress/relaxation: 2-Ions, 3-Shape/Ions/V, 4-Shape/Ions)
   EDIFFG = -2E-03        (Ionic convergence, eV/AA)
   ISYM = 2              (Symmetry: 0\=none, 2\=GGA, 3\=hybrids)

 POTCAR:    PAW_PBE Si 05Jan2001                  
 POTCAR:    PAW_PBE Si 05Jan2001                  
   VRHFIN =Si: s2p2                                                                                 
   LEXCH  = PE                                                                                      
   EATOM  =   103.0669 eV,    7.5752 Ry                                                             
                                                                                                    
   TITEL  = PAW_PBE Si 05Jan2001                                                                    
   LULTRA =        F    use ultrasoft PP ?                                                          
   IUNSCR =        1    unscreen: 0-lin 1-nonlin 2-no                                               
   RPACOR =    1.500    partial core radius                                                         
   POMASS =   28.085; ZVAL   =    4.000    mass and valenz                                          
   RCORE  =    1.900    outmost cutoff radius                                                       
   RWIGS  =    2.480; RWIGS  =    1.312    wigner-seitz radius (au A)                               
   ENMAX  =  245.345; ENMIN  =  184.009 eV                                                          
   ICORE  =        2    local potential                                                             
   LCOR   =        T    correct aug charges                                                         
   LPAW   =        T    paw PP                                                                      
   EAUG   =  322.069                                                                                
   DEXC   =    0.000                                                                                
   RMAX   =    1.950    core radius for proj-oper                                                   
   RAUG   =    1.300    factor for augmentation sphere                                              
   RDEP   =    1.993    radius for radial grids                                                     
   RDEPT  =    1.837    core radius for aug-charge                                                  
                                                                                                    
   Atomic configuration                                                                             
    6 entries                                                                                       
     n  l   j            E        occ.                                                              
     1  0  0.50     -1785.8828   2.0000                                                             
     2  0  0.50      -139.4969   2.0000                                                             
     2  1  1.50       -95.5546   6.0000                                                             
     3  0  0.50       -10.8127   2.0000                                                             
     3  1  0.50        -4.0811   2.0000                                                             
     3  2  1.50        -4.0817   0.0000                                                             
   Description                                                                                      
     l       E           TYP  RCUT    TYP  RCUT                                                     
     0    -10.8127223     23  1.900                                                                 
     0     -7.6451159     23  1.900                                                                 
     1     -4.0811372     23  1.900                                                                 
     1      2.4879257     23  1.900                                                                 
     2     -4.0817478      7  1.900                                                                 
  local pseudopotential read in
  partial core-charges read in
  partial kinetic energy density read in
  atomic valenz-charges read in
  non local Contribution for L=           0  read in
    real space projection operators read in
  non local Contribution for L=           0  read in
    real space projection operators read in
  non local Contribution for L=           1  read in
    real space projection operators read in
  non local Contribution for L=           1  read in
    real space projection operators read in
    PAW grid and wavefunctions read in
 
   number of l-projection  operators is LMAX  =           4
   number of lm-projection operators is LMMAX =           8
 
  PAW_PBE Si 05Jan2001                  :
 energy of atom  1       EATOM= -103.0669
 kinetic energy error for atom=    0.0009 (will be added to EATOM!!)
 
 
 POSCAR: Si2
  positions in direct lattice
  velocities in cartesian coordinates
 exchange correlation table for  LEXCH =        8
   RHO(1)=    0.500       N(1)  =     2000
   RHO(2)=  100.500       N(2)  =     4000
 


--------------------------------------------------------------------------------------------------------


 ion  position               nearest neighbor table
   1  0.875  0.875  0.875-   2 2.37   2 2.37   2 2.37   2 2.37
   2  0.125  0.125  0.125-   1 2.37   1 2.37   1 2.37   1 2.37
 
  LATTYP: Found a face centered cubic cell.
 ALAT       =     5.4684439553
  
  Lattice vectors:
  
 A1 = (   3.3487235774,   0.0000000000,   1.9333861862)
 A2 = (   1.1162411925,   3.1572081181,   1.9333861862)
 A3 = (   0.0000000000,   0.0000000000,   3.8667723725)


Analysis of symmetry for initial positions (statically):
=====================================================================
 Subroutine PRICEL returns:
 Original cell was already a primitive cell.
 

 Routine SETGRP: Setting up the symmetry group for a 
 face centered cubic supercell.


 Subroutine GETGRP returns: Found 48 space group operations
 (whereof 12 operations were pure point group operations)
 out of a pool of 48 trial point group operations.


The static configuration has the point symmetry D_3d.
 The point group associated with its full space group is O_h .


Analysis of symmetry for dynamics (positions and initial velocities):
=====================================================================
 Subroutine PRICEL returns:
 Original cell was already a primitive cell.
 

 Routine SETGRP: Setting up the symmetry group for a 
 face centered cubic supercell.


 Subroutine GETGRP returns: Found 48 space group operations
 (whereof 12 operations were pure point group operations)
 out of a pool of 48 trial point group operations.


The dynamic configuration has the point symmetry D_3d.
 The point group associated with its full space group is O_h .


 Subroutine INISYM returns: Found 48 space group operations
 (whereof 12 operations are pure point group operations),
 and found     1 'primitive' translations


----------------------------------------------------------------------------------------

                                     Primitive cell                                     

  volume of cell :      40.8819

  direct lattice vectors                    reciprocal lattice vectors
     3.348723577  0.000000000  1.933386186     0.298621244 -0.105578511  0.000000000
     1.116241192  3.157208118  1.933386186     0.000000000  0.316735534  0.000000000
     0.000000000  0.000000000  3.866772372    -0.149310622 -0.105578511  0.258613620

  length of vectors
     3.866772781  3.866773803  3.866772372     0.316735646  0.316735534  0.316735676

  position of ions in fractional coordinates (direct lattice)
     0.875000000  0.875000000  0.875000000
     0.125000000  0.125000000  0.125000000

  ion indices of the primitive-cell ions
   primitive index   ion index
                 1           1
                 2           2

----------------------------------------------------------------------------------------

 
 
 KPOINTS: K-Path Generated by VASPKIT.            

Interpolating k-points between supplied coordinates.

 Line segments in fractional coordinates (reciprocal lattice):
    0.000000  0.000000  0.000000  ...  0.500000  0.000000  0.500000
    0.500000  0.000000  0.500000  ...  0.625000  0.250000  0.625000
    0.375000  0.375000  0.750000  ...  0.000000  0.000000  0.000000
    0.000000  0.000000  0.000000  ...  0.500000  0.500000  0.500000
    0.500000  0.500000  0.500000  ...  0.500000  0.250000  0.750000
    0.500000  0.250000  0.750000  ...  0.500000  0.000000  0.500000

 Generated    20 points on each line segment, for a total of    120 k-points:

 Following reciprocal coordinates:
            Coordinates               Weight
  0.000000  0.000000  0.000000      0.008333
  0.026316  0.000000  0.026316      0.008333
  0.052632  0.000000  0.052632      0.008333
  0.078947  0.000000  0.078947      0.008333
  0.105263  0.000000  0.105263      0.008333
  0.131579  0.000000  0.131579      0.008333
  0.157895  0.000000  0.157895      0.008333
  0.184211  0.000000  0.184211      0.008333
  0.210526  0.000000  0.210526      0.008333
  0.236842  0.000000  0.236842      0.008333
  0.263158  0.000000  0.263158      0.008333
  0.289474  0.000000  0.289474      0.008333
  0.315789  0.000000  0.315789      0.008333
  0.342105  0.000000  0.342105      0.008333
  0.368421  0.000000  0.368421      0.008333
  0.394737  0.000000  0.394737      0.008333
  0.421053  0.000000  0.421053      0.008333
  0.447368  0.000000  0.447368      0.008333
  0.473684  0.000000  0.473684      0.008333
  0.500000  0.000000  0.500000      0.008333
  0.500000  0.000000  0.500000      0.008333
  0.506579  0.013158  0.506579      0.008333
  0.513158  0.026316  0.513158      0.008333
  0.519737  0.039474  0.519737      0.008333
  0.526316  0.052632  0.526316      0.008333
  0.532895  0.065789  0.532895      0.008333
  0.539474  0.078947  0.539474      0.008333
  0.546053  0.092105  0.546053      0.008333
  0.552632  0.105263  0.552632      0.008333
  0.559211  0.118421  0.559211      0.008333
  0.565789  0.131579  0.565789      0.008333
  0.572368  0.144737  0.572368      0.008333
  0.578947  0.157895  0.578947      0.008333
  0.585526  0.171053  0.585526      0.008333
  0.592105  0.184211  0.592105      0.008333
  0.598684  0.197368  0.598684      0.008333
  0.605263  0.210526  0.605263      0.008333
  0.611842  0.223684  0.611842      0.008333
  0.618421  0.236842  0.618421      0.008333
  0.625000  0.250000  0.625000      0.008333
  0.375000  0.375000  0.750000      0.008333
  0.355263  0.355263  0.710526      0.008333
  0.335526  0.335526  0.671053      0.008333
  0.315789  0.315789  0.631579      0.008333
  0.296053  0.296053  0.592105      0.008333
  0.276316  0.276316  0.552632      0.008333
  0.256579  0.256579  0.513158      0.008333
  0.236842  0.236842  0.473684      0.008333
  0.217105  0.217105  0.434211      0.008333
  0.197368  0.197368  0.394737      0.008333
  0.177632  0.177632  0.355263      0.008333
  0.157895  0.157895  0.315789      0.008333
  0.138158  0.138158  0.276316      0.008333
  0.118421  0.118421  0.236842      0.008333
  0.098684  0.098684  0.197368      0.008333
  0.078947  0.078947  0.157895      0.008333
  0.059211  0.059211  0.118421      0.008333
  0.039474  0.039474  0.078947      0.008333
  0.019737  0.019737  0.039474      0.008333
  0.000000  0.000000  0.000000      0.008333
  0.000000  0.000000  0.000000      0.008333
  0.026316  0.026316  0.026316      0.008333
  0.052632  0.052632  0.052632      0.008333
  0.078947  0.078947  0.078947      0.008333
  0.105263  0.105263  0.105263      0.008333
  0.131579  0.131579  0.131579      0.008333
  0.157895  0.157895  0.157895      0.008333
  0.184211  0.184211  0.184211      0.008333
  0.210526  0.210526  0.210526      0.008333
  0.236842  0.236842  0.236842      0.008333
  0.263158  0.263158  0.263158      0.008333
  0.289474  0.289474  0.289474      0.008333
  0.315789  0.315789  0.315789      0.008333
  0.342105  0.342105  0.342105      0.008333
  0.368421  0.368421  0.368421      0.008333
  0.394737  0.394737  0.394737      0.008333
  0.421053  0.421053  0.421053      0.008333
  0.447368  0.447368  0.447368      0.008333
  0.473684  0.473684  0.473684      0.008333
  0.500000  0.500000  0.500000      0.008333
  0.500000  0.500000  0.500000      0.008333
  0.500000  0.486842  0.513158      0.008333
  0.500000  0.473684  0.526316      0.008333
  0.500000  0.460526  0.539474      0.008333
  0.500000  0.447368  0.552632      0.008333
  0.500000  0.434211  0.565789      0.008333
  0.500000  0.421053  0.578947      0.008333
  0.500000  0.407895  0.592105      0.008333
  0.500000  0.394737  0.605263      0.008333
  0.500000  0.381579  0.618421      0.008333
  0.500000  0.368421  0.631579      0.008333
  0.500000  0.355263  0.644737      0.008333
  0.500000  0.342105  0.657895      0.008333
  0.500000  0.328947  0.671053      0.008333
  0.500000  0.315789  0.684211      0.008333
  0.500000  0.302632  0.697368      0.008333
  0.500000  0.289474  0.710526      0.008333
  0.500000  0.276316  0.723684      0.008333
  0.500000  0.263158  0.736842      0.008333
  0.500000  0.250000  0.750000      0.008333
  0.500000  0.250000  0.750000      0.008333
  0.500000  0.236842  0.736842      0.008333
  0.500000  0.223684  0.723684      0.008333
  0.500000  0.210526  0.710526      0.008333
  0.500000  0.197368  0.697368      0.008333
  0.500000  0.184211  0.684211      0.008333
  0.500000  0.171053  0.671053      0.008333
  0.500000  0.157895  0.657895      0.008333
  0.500000  0.144737  0.644737      0.008333
  0.500000  0.131579  0.631579      0.008333
  0.500000  0.118421  0.618421      0.008333
  0.500000  0.105263  0.605263      0.008333
  0.500000  0.092105  0.592105      0.008333
  0.500000  0.078947  0.578947      0.008333
  0.500000  0.065789  0.565789      0.008333
  0.500000  0.052632  0.552632      0.008333
  0.500000  0.039474  0.539474      0.008333
  0.500000  0.026316  0.526316      0.008333
  0.500000  0.013158  0.513158      0.008333
  0.500000  0.000000  0.500000      0.008333

 Following cartesian coordinates:
            Coordinates               Weight
  0.000000  0.000000  0.000000      0.008333
  0.003929 -0.005557  0.006806      0.008333
  0.007858 -0.011114  0.013611      0.008333
  0.011788 -0.016670  0.020417      0.008333
  0.015717 -0.022227  0.027222      0.008333
  0.019646 -0.027784  0.034028      0.008333
  0.023575 -0.033341  0.040834      0.008333
  0.027505 -0.038897  0.047639      0.008333
  0.031434 -0.044454  0.054445      0.008333
  0.035363 -0.050011  0.061251      0.008333
  0.039292 -0.055568  0.068056      0.008333
  0.043221 -0.061124  0.074862      0.008333
  0.047151 -0.066681  0.081667      0.008333
  0.051080 -0.072238  0.088473      0.008333
  0.055009 -0.077795  0.095279      0.008333
  0.058938 -0.083351  0.102084      0.008333
  0.062868 -0.088908  0.108890      0.008333
  0.066797 -0.094465  0.115696      0.008333
  0.070726 -0.100022  0.122501      0.008333
  0.074655 -0.105579  0.129307      0.008333
  0.074655 -0.105579  0.129307      0.008333
  0.075638 -0.102800  0.131008      0.008333
  0.076620 -0.100022  0.132710      0.008333
  0.077602 -0.097243  0.134411      0.008333
  0.078585 -0.094465  0.136112      0.008333
  0.079567 -0.091687  0.137814      0.008333
  0.080549 -0.088908  0.139515      0.008333
  0.081531 -0.086130  0.141217      0.008333
  0.082514 -0.083351  0.142918      0.008333
  0.083496 -0.080573  0.144619      0.008333
  0.084478 -0.077795  0.146321      0.008333
  0.085461 -0.075016  0.148022      0.008333
  0.086443 -0.072238  0.149724      0.008333
  0.087425 -0.069460  0.151425      0.008333
  0.088408 -0.066681  0.153126      0.008333
  0.089390 -0.063903  0.154828      0.008333
  0.090372 -0.061124  0.156529      0.008333
  0.091355 -0.058346  0.158231      0.008333
  0.092337 -0.055568  0.159932      0.008333
  0.093319 -0.052789  0.161634      0.008333
  0.000000  0.000000  0.193960      0.008333
  0.000000  0.000000  0.183752      0.008333
  0.000000  0.000000  0.173543      0.008333
  0.000000  0.000000  0.163335      0.008333
  0.000000  0.000000  0.153126      0.008333
  0.000000  0.000000  0.142918      0.008333
  0.000000  0.000000  0.132710      0.008333
  0.000000 -0.000000  0.122501      0.008333
  0.000000  0.000000  0.112293      0.008333
  0.000000  0.000000  0.102084      0.008333
  0.000000  0.000000  0.091876      0.008333
  0.000000  0.000000  0.081667      0.008333
  0.000000  0.000000  0.071459      0.008333
  0.000000 -0.000000  0.061251      0.008333
  0.000000 -0.000000  0.051042      0.008333
  0.000000  0.000000  0.040834      0.008333
  0.000000 -0.000000  0.030625      0.008333
  0.000000  0.000000  0.020417      0.008333
  0.000000  0.000000  0.010208      0.008333
  0.000000  0.000000  0.000000      0.008333
  0.000000  0.000000  0.000000      0.008333
  0.003929  0.002778  0.006806      0.008333
  0.007858  0.005557  0.013611      0.008333
  0.011788  0.008335  0.020417      0.008333
  0.015717  0.011114  0.027222      0.008333
  0.019646  0.013892  0.034028      0.008333
  0.023575  0.016670  0.040834      0.008333
  0.027505  0.019449  0.047639      0.008333
  0.031434  0.022227  0.054445      0.008333
  0.035363  0.025005  0.061251      0.008333
  0.039292  0.027784  0.068056      0.008333
  0.043221  0.030562  0.074862      0.008333
  0.047151  0.033341  0.081667      0.008333
  0.051080  0.036119  0.088473      0.008333
  0.055009  0.038897  0.095279      0.008333
  0.058938  0.041676  0.102084      0.008333
  0.062868  0.044454  0.108890      0.008333
  0.066797  0.047232  0.115696      0.008333
  0.070726  0.050011  0.122501      0.008333
  0.074655  0.052789  0.129307      0.008333
  0.074655  0.052789  0.129307      0.008333
  0.072691  0.047232  0.132710      0.008333
  0.070726  0.041676  0.136112      0.008333
  0.068761  0.036119  0.139515      0.008333
  0.066797  0.030562  0.142918      0.008333
  0.064832  0.025005  0.146321      0.008333
  0.062868  0.019449  0.149724      0.008333
  0.060903  0.013892  0.153126      0.008333
  0.058938  0.008335  0.156529      0.008333
  0.056974  0.002778  0.159932      0.008333
  0.055009 -0.002778  0.163335      0.008333
  0.053045 -0.008335  0.166738      0.008333
  0.051080 -0.013892  0.170141      0.008333
  0.049115 -0.019449  0.173543      0.008333
  0.047151 -0.025005  0.176946      0.008333
  0.045186 -0.030562  0.180349      0.008333
  0.043221 -0.036119  0.183752      0.008333
  0.041257 -0.041676  0.187155      0.008333
  0.039292 -0.047232  0.190557      0.008333
  0.037328 -0.052789  0.193960      0.008333
  0.037328 -0.052789  0.193960      0.008333
  0.039292 -0.055568  0.190557      0.008333
  0.041257 -0.058346  0.187155      0.008333
  0.043221 -0.061124  0.183752      0.008333
  0.045186 -0.063903  0.180349      0.008333
  0.047151 -0.066681  0.176946      0.008333
  0.049115 -0.069460  0.173543      0.008333
  0.051080 -0.072238  0.170141      0.008333
  0.053045 -0.075016  0.166738      0.008333
  0.055009 -0.077795  0.163335      0.008333
  0.056974 -0.080573  0.159932      0.008333
  0.058938 -0.083351  0.156529      0.008333
  0.060903 -0.086130  0.153126      0.008333
  0.062868 -0.088908  0.149724      0.008333
  0.064832 -0.091687  0.146321      0.008333
  0.066797 -0.094465  0.142918      0.008333
  0.068761 -0.097243  0.139515      0.008333
  0.070726 -0.100022  0.136112      0.008333
  0.072691 -0.102800  0.132710      0.008333
  0.074655 -0.105579  0.129307      0.008333
 


--------------------------------------------------------------------------------------------------------




 Dimension of arrays:
   k-points           NKPTS =    120   k-points in BZ     NKDIM =    120   number of bands    NBANDS=      8
   number of dos      NEDOS =    301   number of ions     NIONS =      2
   non local maximal  LDIM  =      4   non local SUM 2l+1 LMDIM =      8
   total plane-waves  NPLWV =  21952
   max r-space proj   IRMAX =      1   max aug-charges    IRDMAX= 143809
   dimension x,y,z NGX =    28 NGY =   28 NGZ =   28
   dimension x,y,z NGXF=    56 NGYF=   56 NGZF=   56
   support grid    NGXF=   112 NGYF=  112 NGZF=  112
   ions per type =               2
   NGX,Y,Z   is equivalent  to a cutoff of  12.04, 12.04, 12.04 a.u.
   NGXF,Y,Z  is equivalent  to a cutoff of  24.08, 24.08, 24.08 a.u.

 SYSTEM =  unknown system                          
 POSCAR =  Si2                                     

 Startparameter for this run:
   NWRITE =      2    write-flag & timer
   PREC   = accura    normal or accurate (medium, high low for compatibility)
   ISTART =      1    job   : 0-new  1-cont  2-samecut
   ICHARG =     11    charge: 1-file 2-atom 10-const
   ISPIN  =      1    spin polarized calculation?
   LNONCOLLINEAR =      F non collinear calculations
   LSORBIT =      F    spin-orbit coupling
   INIWAV =      1    electr: 0-lowe 1-rand  2-diag
   LASPH  =      T    aspherical Exc in radial PAW
   METAGGA=      F    non-selfconsistent MetaGGA calc.

 Electronic Relaxation 1
   ENCUT  =  450.0 eV  33.07 Ry    5.75 a.u.   6.69  6.69  6.69*2*pi/ulx,y,z
   ENINI  =  450.0     initial cutoff
   ENAUG  =  322.1 eV  augmentation charge cutoff
   NELM   =     90;   NELMIN=  6; NELMDL=  0     # of ELM steps 
   EDIFF  = 0.1E-05   stopping-criterion for ELM
   LREAL  =      F    real-space projection
   NLSPLINE    = F    spline interpolate recip. space projectors
   LCOMPAT=      F    compatible to vasp.4.4
   GGA_COMPAT  = T    GGA compatible to vasp.4.4-vasp.4.6
   LMAXPAW     = -100 max onsite density
   LMAXMIX     =    2 max onsite mixed and CHGCAR
   VOSKOWN=      0    Vosko Wilk Nusair interpolation
   ROPT   =    0.00000
 Ionic relaxation
   EDIFFG = -.2E-02   stopping-criterion for IOM
   NSW    =      0    number of steps for IOM
   NBLOCK =      1;   KBLOCK =      1    inner block; outer block 
   IBRION =     -1    ionic relax: 0-MD 1-quasi-New 2-CG
   NFREE  =      0    steps in history (QN), initial steepest desc. (CG)
   ISIF   =      3    stress and relaxation
   IWAVPR =     10    prediction:  0-non 1-charg 2-wave 3-comb
   ISYM   =      2    0-nonsym 1-usesym 2-fastsym
   LCORR  =      T    Harris-Foulkes like correction to forces

   POTIM  = 0.5000    time-step for ionic-motion
   TEIN   =    0.0    initial temperature
   TEBEG  =    0.0;   TEEND  =   0.0 temperature during run
   SMASS  =  -3.00    Nose mass-parameter (am)
   estimated Nose-frequenzy (Omega)   =  0.10E-29 period in steps = 0.13E+47 mass=  -0.342E-27a.u.
   SCALEE = 1.0000    scale energy and forces
   NPACO  =    256;   APACO  = 16.0  distance and # of slots for P.C.
   PSTRESS=    0.0 pullay stress

  Mass of Ions in am
   POMASS =  28.09
  Ionic Valenz
   ZVAL   =   4.00
  Atomic Wigner-Seitz radii
   RWIGS  =  -1.00
  virtual crystal weights 
   VCA    =   1.00
   NELECT =       8.0000    total number of electrons
   NUPDOWN=      -1.0000    fix difference up-down

 DOS related values:
   EMIN   =  10.00;   EMAX   =-10.00  energy-range for DOS
   EFERMI =   0.00
   ISMEAR =     0;   SIGMA  =   0.05  broadening in eV -4-tet -1-fermi 0-gaus

 Electronic relaxation 2 (details)
   IALGO  =     38    algorithm
   LDIAG  =      T    sub-space diagonalisation (order eigenvalues)
   LSUBROT=      F    optimize rotation matrix (better conditioning)
   TURBO    =      0    0=normal 1=particle mesh
   IRESTART =      0    0=no restart 2=restart with 2 vectors
   NREBOOT  =      0    no. of reboots
   NMIN     =      0    reboot dimension
   EREF     =   0.00    reference energy to select bands
   IMIX   =      4    mixing-type and parameters
     AMIX     =   0.40;   BMIX     =  1.00
     AMIX_MAG =   1.60;   BMIX_MAG =  1.00
     AMIN     =   0.10
     WC   =   100.;   INIMIX=   1;  MIXPRE=   1;  MAXMIX= -45

 Intra band minimization:
   WEIMIN = 0.0000     energy-eigenvalue tresh-hold
   EBREAK =  0.31E-07  absolut break condition
   DEPER  =   0.30     relativ break condition  

   TIME   =   0.40     timestep for ELM

  volume/ion in A,a.u.               =      20.44       137.94
  Fermi-wavevector in a.u.,A,eV,Ry     =   0.950447  1.796084 12.290809  0.903349
  Thomas-Fermi vector in A             =   2.078824
 
 Write flags
   LWAVE        =      T    write WAVECAR
   LDOWNSAMPLE  =      F    k-point downsampling of WAVECAR
   LCHARG       =      T    write CHGCAR
   LVTOT        =      F    write LOCPOT, total local potential
   LVHAR        =      F    write LOCPOT, Hartree potential only
   LELF         =      F    write electronic localiz. function (ELF)
   LORBIT       =     11    0 simple, 1 ext, 2 COOP (PROOUT), +10 PAW based schemes


 Dipole corrections
   LMONO  =      F    monopole corrections only (constant potential shift)
   LDIPOL =      F    correct potential (dipole corrections)
   IDIPOL =      0    1-x, 2-y, 3-z, 4-all directions 
   EPSILON=  1.0000000 bulk dielectric constant

 Exchange correlation treatment:
   GGA     =    --    GGA type
   LEXCH   =     8    internal setting for exchange type
   VOSKOWN=      0    Vosko Wilk Nusair interpolation
   LHFCALC =     F    Hartree Fock is set to
   LHFONE  =     F    Hartree Fock one center treatment
   AEXX    =    0.0000 exact exchange contribution

 Linear response parameters
   LEPSILON=     F    determine dielectric tensor
   LRPA    =     F    only Hartree local field effects (RPA)
   LNABLA  =     F    use nabla operator in PAW spheres
   LVEL    =     F    velocity operator in full k-point grid
   LINTERFAST=   F  fast interpolation
   KINTER  =     0    interpolate to denser k-point grid
   CSHIFT  =0.1000    complex shift for real part using Kramers Kronig
   OMEGAMAX=  -1.0    maximum frequency
   DEG_THRESHOLD= 0.2000000E-02 threshold for treating states as degnerate
   RTIME   =   -0.100 relaxation time in fs
  (WPLASMAI=    0.000 imaginary part of plasma frequency in eV, 0.658/RTIME)
   DFIELD  = 0.0000000 0.0000000 0.0000000 field for delta impulse in time
 
 Orbital magnetization related:
   ORBITALMAG=     F  switch on orbital magnetization
   LCHIMAG   =     F  perturbation theory with respect to B field
   DQ        =  0.001000  dq finite difference perturbation B field
   LLRAUG    =     F  two centre corrections for induced B field



--------------------------------------------------------------------------------------------------------


 Static calculation
 charge density and potential remain constant during run
 non-spin polarized calculation
 Variant of blocked Davidson
 Davidson routine will perform the subspace rotation
 perform sub-space diagonalisation
    after iterative eigenvector-optimisation
 no mixing
 using additional bands            4
 reciprocal scheme for non local part
 use partial core corrections
 calculate Harris-corrections to forces 
   (improved forces if not selfconsistent)
 use gradient corrections 
 WARNING: stress and forces are not correct
  (second derivative of E(xc) not defined)
 use of overlap-Matrix (Vanderbilt PP)
 Gauss-broadening in eV      SIGMA  =   0.05


--------------------------------------------------------------------------------------------------------


  energy-cutoff  :      450.00
  volume of cell :       40.88
      direct lattice vectors                 reciprocal lattice vectors
     3.348723577  0.000000000  1.933386186     0.298621244 -0.105578511  0.000000000
     1.116241192  3.157208118  1.933386186     0.000000000  0.316735534  0.000000000
     0.000000000  0.000000000  3.866772372    -0.149310622 -0.105578511  0.258613620

  length of vectors
     3.866772781  3.866773803  3.866772372     0.316735646  0.316735534  0.316735676


 
 old parameters found on file WAVECAR:
  energy-cutoff  :      450.00
  volume of cell :       40.88
      direct lattice vectors                 reciprocal lattice vectors
     3.348723577  0.000000000  1.933386186     0.298621244 -0.105578511  0.000000000
     1.116241192  3.157208118  1.933386186     0.000000000  0.316735534  0.000000000
     0.000000000  0.000000000  3.866772372    -0.149310622 -0.105578511  0.258613620

  length of vectors

 
 k-points in units of 2pi/SCALE and weight: K-Path Generated by VASPKIT.            
   0.00000000  0.00000000  0.00000000       0.008
   0.00392923 -0.00555676  0.00680562       0.008
   0.00785845 -0.01111353  0.01361124       0.008
   0.01178768 -0.01667029  0.02041686       0.008
   0.01571691 -0.02222706  0.02722249       0.008
   0.01964613 -0.02778382  0.03402811       0.008
   0.02357536 -0.03334058  0.04083373       0.008
   0.02750459 -0.03889735  0.04763935       0.008
   0.03143382 -0.04445411  0.05444497       0.008
   0.03536304 -0.05001087  0.06125059       0.008
   0.03929227 -0.05556764  0.06805622       0.008
   0.04322150 -0.06112440  0.07486184       0.008
   0.04715072 -0.06668117  0.08166746       0.008
   0.05107995 -0.07223793  0.08847308       0.008
   0.05500918 -0.07779469  0.09527870       0.008
   0.05893840 -0.08335146  0.10208432       0.008
   0.06286763 -0.08890822  0.10888995       0.008
   0.06679686 -0.09446498  0.11569557       0.008
   0.07072608 -0.10002175  0.12250119       0.008
   0.07465531 -0.10557851  0.12930681       0.008
   0.07465531 -0.10557851  0.12930681       0.008
   0.07563762 -0.10280013  0.13100822       0.008
   0.07661992 -0.10002175  0.13270962       0.008
   0.07760223 -0.09724337  0.13441103       0.008
   0.07858454 -0.09446498  0.13611243       0.008
   0.07956684 -0.09168660  0.13781384       0.008
   0.08054915 -0.08890822  0.13951524       0.008
   0.08153146 -0.08612984  0.14121665       0.008
   0.08251376 -0.08335146  0.14291805       0.008
   0.08349607 -0.08057307  0.14461946       0.008
   0.08447838 -0.07779469  0.14632086       0.008
   0.08546068 -0.07501631  0.14802227       0.008
   0.08644299 -0.07223793  0.14972367       0.008
   0.08742530 -0.06945955  0.15142508       0.008
   0.08840761 -0.06668117  0.15312649       0.008
   0.08938991 -0.06390278  0.15482789       0.008
   0.09037222 -0.06112440  0.15652930       0.008
   0.09135453 -0.05834602  0.15823070       0.008
   0.09233683 -0.05556764  0.15993211       0.008
   0.09331914 -0.05278926  0.16163351       0.008
   0.00000000  0.00000000  0.19396021       0.008
   0.00000000  0.00000000  0.18375178       0.008
   0.00000000  0.00000000  0.17354335       0.008
   0.00000000  0.00000000  0.16333492       0.008
   0.00000000  0.00000000  0.15312649       0.008
   0.00000000  0.00000000  0.14291805       0.008
   0.00000000  0.00000000  0.13270962       0.008
   0.00000000 -0.00000000  0.12250119       0.008
   0.00000000  0.00000000  0.11229276       0.008
   0.00000000  0.00000000  0.10208432       0.008
   0.00000000  0.00000000  0.09187589       0.008
   0.00000000  0.00000000  0.08166746       0.008
   0.00000000  0.00000000  0.07145903       0.008
   0.00000000 -0.00000000  0.06125059       0.008
   0.00000000 -0.00000000  0.05104216       0.008
   0.00000000  0.00000000  0.04083373       0.008
   0.00000000 -0.00000000  0.03062530       0.008
   0.00000000  0.00000000  0.02041686       0.008
   0.00000000  0.00000000  0.01020843       0.008
   0.00000000  0.00000000  0.00000000       0.008
   0.00000000  0.00000000  0.00000000       0.008
   0.00392923  0.00277838  0.00680562       0.008
   0.00785845  0.00555676  0.01361124       0.008
   0.01178768  0.00833515  0.02041686       0.008
   0.01571691  0.01111353  0.02722249       0.008
   0.01964613  0.01389191  0.03402811       0.008
   0.02357536  0.01667029  0.04083373       0.008
   0.02750459  0.01944867  0.04763935       0.008
   0.03143382  0.02222706  0.05444497       0.008
   0.03536304  0.02500544  0.06125059       0.008
   0.03929227  0.02778382  0.06805622       0.008
   0.04322150  0.03056220  0.07486184       0.008
   0.04715072  0.03334058  0.08166746       0.008
   0.05107995  0.03611896  0.08847308       0.008
   0.05500918  0.03889735  0.09527870       0.008
   0.05893840  0.04167573  0.10208432       0.008
   0.06286763  0.04445411  0.10888995       0.008
   0.06679686  0.04723249  0.11569557       0.008
   0.07072608  0.05001087  0.12250119       0.008
   0.07465531  0.05278926  0.12930681       0.008
   0.07465531  0.05278926  0.12930681       0.008
   0.07269070  0.04723249  0.13270962       0.008
   0.07072608  0.04167573  0.13611243       0.008
   0.06876147  0.03611896  0.13951524       0.008
   0.06679686  0.03056220  0.14291805       0.008
   0.06483224  0.02500544  0.14632086       0.008
   0.06286763  0.01944867  0.14972367       0.008
   0.06090302  0.01389191  0.15312649       0.008
   0.05893840  0.00833515  0.15652930       0.008
   0.05697379  0.00277838  0.15993211       0.008
   0.05500918 -0.00277838  0.16333492       0.008
   0.05304456 -0.00833515  0.16673773       0.008
   0.05107995 -0.01389191  0.17014054       0.008
   0.04911534 -0.01944867  0.17354335       0.008
   0.04715072 -0.02500544  0.17694616       0.008
   0.04518611 -0.03056220  0.18034897       0.008
   0.04322150 -0.03611896  0.18375178       0.008
   0.04125688 -0.04167573  0.18715459       0.008
   0.03929227 -0.04723249  0.19055740       0.008
   0.03732766 -0.05278926  0.19396021       0.008
   0.03732766 -0.05278926  0.19396021       0.008
   0.03929227 -0.05556764  0.19055740       0.008
   0.04125688 -0.05834602  0.18715459       0.008
   0.04322150 -0.06112440  0.18375178       0.008
   0.04518611 -0.06390278  0.18034897       0.008
   0.04715072 -0.06668117  0.17694616       0.008
   0.04911534 -0.06945955  0.17354335       0.008
   0.05107995 -0.07223793  0.17014054       0.008
   0.05304456 -0.07501631  0.16673773       0.008
   0.05500918 -0.07779469  0.16333492       0.008
   0.05697379 -0.08057307  0.15993211       0.008
   0.05893840 -0.08335146  0.15652930       0.008
   0.06090302 -0.08612984  0.15312649       0.008
   0.06286763 -0.08890822  0.14972367       0.008
   0.06483224 -0.09168660  0.14632086       0.008
   0.06679686 -0.09446498  0.14291805       0.008
   0.06876147 -0.09724337  0.13951524       0.008
   0.07072608 -0.10002175  0.13611243       0.008
   0.07269070 -0.10280013  0.13270962       0.008
   0.07465531 -0.10557851  0.12930681       0.008
 
 k-points in reciprocal lattice and weights: K-Path Generated by VASPKIT.            
   0.00000000  0.00000000  0.00000000       0.008
   0.02631579  0.00000000  0.02631579       0.008
   0.05263158  0.00000000  0.05263158       0.008
   0.07894737  0.00000000  0.07894737       0.008
   0.10526316  0.00000000  0.10526316       0.008
   0.13157895  0.00000000  0.13157895       0.008
   0.15789474  0.00000000  0.15789474       0.008
   0.18421053  0.00000000  0.18421053       0.008
   0.21052632  0.00000000  0.21052632       0.008
   0.23684211  0.00000000  0.23684211       0.008
   0.26315789  0.00000000  0.26315789       0.008
   0.28947368  0.00000000  0.28947368       0.008
   0.31578947  0.00000000  0.31578947       0.008
   0.34210526  0.00000000  0.34210526       0.008
   0.36842105  0.00000000  0.36842105       0.008
   0.39473684  0.00000000  0.39473684       0.008
   0.42105263  0.00000000  0.42105263       0.008
   0.44736842  0.00000000  0.44736842       0.008
   0.47368421  0.00000000  0.47368421       0.008
   0.50000000  0.00000000  0.50000000       0.008
   0.50000000  0.00000000  0.50000000       0.008
   0.50657895  0.01315789  0.50657895       0.008
   0.51315789  0.02631579  0.51315789       0.008
   0.51973684  0.03947368  0.51973684       0.008
   0.52631579  0.05263158  0.52631579       0.008
   0.53289474  0.06578947  0.53289474       0.008
   0.53947368  0.07894737  0.53947368       0.008
   0.54605263  0.09210526  0.54605263       0.008
   0.55263158  0.10526316  0.55263158       0.008
   0.55921053  0.11842105  0.55921053       0.008
   0.56578947  0.13157895  0.56578947       0.008
   0.57236842  0.14473684  0.57236842       0.008
   0.57894737  0.15789474  0.57894737       0.008
   0.58552632  0.17105263  0.58552632       0.008
   0.59210526  0.18421053  0.59210526       0.008
   0.59868421  0.19736842  0.59868421       0.008
   0.60526316  0.21052632  0.60526316       0.008
   0.61184211  0.22368421  0.61184211       0.008
   0.61842105  0.23684211  0.61842105       0.008
   0.62500000  0.25000000  0.62500000       0.008
   0.37500000  0.37500000  0.75000000       0.008
   0.35526316  0.35526316  0.71052632       0.008
   0.33552632  0.33552632  0.67105263       0.008
   0.31578947  0.31578947  0.63157895       0.008
   0.29605263  0.29605263  0.59210526       0.008
   0.27631579  0.27631579  0.55263158       0.008
   0.25657895  0.25657895  0.51315789       0.008
   0.23684211  0.23684211  0.47368421       0.008
   0.21710526  0.21710526  0.43421053       0.008
   0.19736842  0.19736842  0.39473684       0.008
   0.17763158  0.17763158  0.35526316       0.008
   0.15789474  0.15789474  0.31578947       0.008
   0.13815789  0.13815789  0.27631579       0.008
   0.11842105  0.11842105  0.23684211       0.008
   0.09868421  0.09868421  0.19736842       0.008
   0.07894737  0.07894737  0.15789474       0.008
   0.05921053  0.05921053  0.11842105       0.008
   0.03947368  0.03947368  0.07894737       0.008
   0.01973684  0.01973684  0.03947368       0.008
   0.00000000  0.00000000  0.00000000       0.008
   0.00000000  0.00000000  0.00000000       0.008
   0.02631579  0.02631579  0.02631579       0.008
   0.05263158  0.05263158  0.05263158       0.008
   0.07894737  0.07894737  0.07894737       0.008
   0.10526316  0.10526316  0.10526316       0.008
   0.13157895  0.13157895  0.13157895       0.008
   0.15789474  0.15789474  0.15789474       0.008
   0.18421053  0.18421053  0.18421053       0.008
   0.21052632  0.21052632  0.21052632       0.008
   0.23684211  0.23684211  0.23684211       0.008
   0.26315789  0.26315789  0.26315789       0.008
   0.28947368  0.28947368  0.28947368       0.008
   0.31578947  0.31578947  0.31578947       0.008
   0.34210526  0.34210526  0.34210526       0.008
   0.36842105  0.36842105  0.36842105       0.008
   0.39473684  0.39473684  0.39473684       0.008
   0.42105263  0.42105263  0.42105263       0.008
   0.44736842  0.44736842  0.44736842       0.008
   0.47368421  0.47368421  0.47368421       0.008
   0.50000000  0.50000000  0.50000000       0.008
   0.50000000  0.50000000  0.50000000       0.008
   0.50000000  0.48684211  0.51315789       0.008
   0.50000000  0.47368421  0.52631579       0.008
   0.50000000  0.46052632  0.53947368       0.008
   0.50000000  0.44736842  0.55263158       0.008
   0.50000000  0.43421053  0.56578947       0.008
   0.50000000  0.42105263  0.57894737       0.008
   0.50000000  0.40789474  0.59210526       0.008
   0.50000000  0.39473684  0.60526316       0.008
   0.50000000  0.38157895  0.61842105       0.008
   0.50000000  0.36842105  0.63157895       0.008
   0.50000000  0.35526316  0.64473684       0.008
   0.50000000  0.34210526  0.65789474       0.008
   0.50000000  0.32894737  0.67105263       0.008
   0.50000000  0.31578947  0.68421053       0.008
   0.50000000  0.30263158  0.69736842       0.008
   0.50000000  0.28947368  0.71052632       0.008
   0.50000000  0.27631579  0.72368421       0.008
   0.50000000  0.26315789  0.73684211       0.008
   0.50000000  0.25000000  0.75000000       0.008
   0.50000000  0.25000000  0.75000000       0.008
   0.50000000  0.23684211  0.73684211       0.008
   0.50000000  0.22368421  0.72368421       0.008
   0.50000000  0.21052632  0.71052632       0.008
   0.50000000  0.19736842  0.69736842       0.008
   0.50000000  0.18421053  0.68421053       0.008
   0.50000000  0.17105263  0.67105263       0.008
   0.50000000  0.15789474  0.65789474       0.008
   0.50000000  0.14473684  0.64473684       0.008
   0.50000000  0.13157895  0.63157895       0.008
   0.50000000  0.11842105  0.61842105       0.008
   0.50000000  0.10526316  0.60526316       0.008
   0.50000000  0.09210526  0.59210526       0.008
   0.50000000  0.07894737  0.57894737       0.008
   0.50000000  0.06578947  0.56578947       0.008
   0.50000000  0.05263158  0.55263158       0.008
   0.50000000  0.03947368  0.53947368       0.008
   0.50000000  0.02631579  0.52631579       0.008
   0.50000000  0.01315789  0.51315789       0.008
   0.50000000  0.00000000  0.50000000       0.008
 
 position of ions in fractional coordinates (direct lattice) 
   0.87500000  0.87500000  0.87500000
   0.12500000  0.12500000  0.12500000
 
 position of ions in cartesian coordinates  (Angst):
   3.90684417  2.76255710  6.76685165
   0.55812060  0.39465101  0.96669309
 


--------------------------------------------------------------------------------------------------------


 k-point   1 :   0.0000 0.0000 0.0000  plane waves:     893
 k-point   2 :   0.0263 0.0000 0.0263  plane waves:     893
 k-point   3 :   0.0526 0.0000 0.0526  plane waves:     901
 k-point   4 :   0.0789 0.0000 0.0789  plane waves:     893
 k-point   5 :   0.1053 0.0000 0.1053  plane waves:     889
 k-point   6 :   0.1316 0.0000 0.1316  plane waves:     889
 k-point   7 :   0.1579 0.0000 0.1579  plane waves:     897
 k-point   8 :   0.1842 0.0000 0.1842  plane waves:     885
 k-point   9 :   0.2105 0.0000 0.2105  plane waves:     889
 k-point  10 :   0.2368 0.0000 0.2368  plane waves:     881
 k-point  11 :   0.2632 0.0000 0.2632  plane waves:     881
 k-point  12 :   0.2895 0.0000 0.2895  plane waves:     882
 k-point  13 :   0.3158 0.0000 0.3158  plane waves:     874
 k-point  14 :   0.3421 0.0000 0.3421  plane waves:     866
 k-point  15 :   0.3684 0.0000 0.3684  plane waves:     882
 k-point  16 :   0.3947 0.0000 0.3947  plane waves:     886
 k-point  17 :   0.4211 0.0000 0.4211  plane waves:     886
 k-point  18 :   0.4474 0.0000 0.4474  plane waves:     886
 k-point  19 :   0.4737 0.0000 0.4737  plane waves:     886
 k-point  20 :   0.5000 0.0000 0.5000  plane waves:     894
 k-point  21 :   0.5000 0.0000 0.5000  plane waves:     894
 k-point  22 :   0.5066 0.0132 0.5066  plane waves:     894
 k-point  23 :   0.5132 0.0263 0.5132  plane waves:     896
 k-point  24 :   0.5197 0.0395 0.5197  plane waves:     888
 k-point  25 :   0.5263 0.0526 0.5263  plane waves:     894
 k-point  26 :   0.5329 0.0658 0.5329  plane waves:     884
 k-point  27 :   0.5395 0.0789 0.5395  plane waves:     888
 k-point  28 :   0.5461 0.0921 0.5461  plane waves:     888
 k-point  29 :   0.5526 0.1053 0.5526  plane waves:     888
 k-point  30 :   0.5592 0.1184 0.5592  plane waves:     888
 k-point  31 :   0.5658 0.1316 0.5658  plane waves:     888
 k-point  32 :   0.5724 0.1447 0.5724  plane waves:     892
 k-point  33 :   0.5789 0.1579 0.5789  plane waves:     892
 k-point  34 :   0.5855 0.1711 0.5855  plane waves:     886
 k-point  35 :   0.5921 0.1842 0.5921  plane waves:     890
 k-point  36 :   0.5987 0.1974 0.5987  plane waves:     894
 k-point  37 :   0.6053 0.2105 0.6053  plane waves:     894
 k-point  38 :   0.6118 0.2237 0.6118  plane waves:     886
 k-point  39 :   0.6184 0.2368 0.6184  plane waves:     890
 k-point  40 :   0.6250 0.2500 0.6250  plane waves:     890
 k-point  41 :   0.3750 0.3750 0.7500  plane waves:     890
 k-point  42 :   0.3553 0.3553 0.7105  plane waves:     886
 k-point  43 :   0.3355 0.3355 0.6711  plane waves:     893
 k-point  44 :   0.3158 0.3158 0.6316  plane waves:     881
 k-point  45 :   0.2961 0.2961 0.5921  plane waves:     885
 k-point  46 :   0.2763 0.2763 0.5526  plane waves:     891
 k-point  47 :   0.2566 0.2566 0.5132  plane waves:     885
 k-point  48 :   0.2368 0.2368 0.4737  plane waves:     883
 k-point  49 :   0.2171 0.2171 0.4342  plane waves:     883
 k-point  50 :   0.1974 0.1974 0.3947  plane waves:     881
 k-point  51 :   0.1776 0.1776 0.3553  plane waves:     889
 k-point  52 :   0.1579 0.1579 0.3158  plane waves:     891
 k-point  53 :   0.1382 0.1382 0.2763  plane waves:     895
 k-point  54 :   0.1184 0.1184 0.2368  plane waves:     903
 k-point  55 :   0.0987 0.0987 0.1974  plane waves:     903
 k-point  56 :   0.0789 0.0789 0.1579  plane waves:     903
 k-point  57 :   0.0592 0.0592 0.1184  plane waves:     899
 k-point  58 :   0.0395 0.0395 0.0789  plane waves:     895
 k-point  59 :   0.0197 0.0197 0.0395  plane waves:     893
 k-point  60 :   0.0000 0.0000 0.0000  plane waves:     893
 k-point  61 :   0.0000 0.0000 0.0000  plane waves:     893
 k-point  62 :   0.0263 0.0263 0.0263  plane waves:     893
 k-point  63 :   0.0526 0.0526 0.0526  plane waves:     890
 k-point  64 :   0.0789 0.0789 0.0789  plane waves:     902
 k-point  65 :   0.1053 0.1053 0.1053  plane waves:     899
 k-point  66 :   0.1316 0.1316 0.1316  plane waves:     905
 k-point  67 :   0.1579 0.1579 0.1579  plane waves:     905
 k-point  68 :   0.1842 0.1842 0.1842  plane waves:     905
 k-point  69 :   0.2105 0.2105 0.2105  plane waves:     902
 k-point  70 :   0.2368 0.2368 0.2368  plane waves:     896
 k-point  71 :   0.2632 0.2632 0.2632  plane waves:     890
 k-point  72 :   0.2895 0.2895 0.2895  plane waves:     890
 k-point  73 :   0.3158 0.3158 0.3158  plane waves:     890
 k-point  74 :   0.3421 0.3421 0.3421  plane waves:     884
 k-point  75 :   0.3684 0.3684 0.3684  plane waves:     884
 k-point  76 :   0.3947 0.3947 0.3947  plane waves:     887
 k-point  77 :   0.4211 0.4211 0.4211  plane waves:     881
 k-point  78 :   0.4474 0.4474 0.4474  plane waves:     884
 k-point  79 :   0.4737 0.4737 0.4737  plane waves:     880
 k-point  80 :   0.5000 0.5000 0.5000  plane waves:     886
 k-point  81 :   0.5000 0.5000 0.5000  plane waves:     886
 k-point  82 :   0.5000 0.4868 0.5132  plane waves:     886
 k-point  83 :   0.5000 0.4737 0.5263  plane waves:     882
 k-point  84 :   0.5000 0.4605 0.5395  plane waves:     884
 k-point  85 :   0.5000 0.4474 0.5526  plane waves:     880
 k-point  86 :   0.5000 0.4342 0.5658  plane waves:     882
 k-point  87 :   0.5000 0.4211 0.5789  plane waves:     882
 k-point  88 :   0.5000 0.4079 0.5921  plane waves:     884
 k-point  89 :   0.5000 0.3947 0.6053  plane waves:     880
 k-point  90 :   0.5000 0.3816 0.6184  plane waves:     882
 k-point  91 :   0.5000 0.3684 0.6316  plane waves:     882
 k-point  92 :   0.5000 0.3553 0.6447  plane waves:     880
 k-point  93 :   0.5000 0.3421 0.6579  plane waves:     886
 k-point  94 :   0.5000 0.3289 0.6711  plane waves:     886
 k-point  95 :   0.5000 0.3158 0.6842  plane waves:     888
 k-point  96 :   0.5000 0.3026 0.6974  plane waves:     888
 k-point  97 :   0.5000 0.2895 0.7105  plane waves:     888
 k-point  98 :   0.5000 0.2763 0.7237  plane waves:     884
 k-point  99 :   0.5000 0.2632 0.7368  plane waves:     888
 k-point 100 :   0.5000 0.2500 0.7500  plane waves:     892
 k-point 101 :   0.5000 0.2500 0.7500  plane waves:     892
 k-point 102 :   0.5000 0.2368 0.7368  plane waves:     888
 k-point 103 :   0.5000 0.2237 0.7237  plane waves:     888
 k-point 104 :   0.5000 0.2105 0.7105  plane waves:     888
 k-point 105 :   0.5000 0.1974 0.6974  plane waves:     890
 k-point 106 :   0.5000 0.1842 0.6842  plane waves:     890
 k-point 107 :   0.5000 0.1711 0.6711  plane waves:     892
 k-point 108 :   0.5000 0.1579 0.6579  plane waves:     888
 k-point 109 :   0.5000 0.1447 0.6447  plane waves:     888
 k-point 110 :   0.5000 0.1316 0.6316  plane waves:     888
 k-point 111 :   0.5000 0.1184 0.6184  plane waves:     888
 k-point 112 :   0.5000 0.1053 0.6053  plane waves:     884
 k-point 113 :   0.5000 0.0921 0.5921  plane waves:     888
 k-point 114 :   0.5000 0.0789 0.5789  plane waves:     888
 k-point 115 :   0.5000 0.0658 0.5658  plane waves:     888
 k-point 116 :   0.5000 0.0526 0.5526  plane waves:     896
 k-point 117 :   0.5000 0.0395 0.5395  plane waves:     894
 k-point 118 :   0.5000 0.0263 0.5263  plane waves:     890
 k-point 119 :   0.5000 0.0132 0.5132  plane waves:     894
 k-point 120 :   0.5000 0.0000 0.5000  plane waves:     894

 maximum and minimum number of plane-waves per node :       905      866

 maximum number of plane-waves:       905
 maximum index in each direction: 
   IXMAX=    6   IYMAX=    6   IZMAX=    6
   IXMIN=   -7   IYMIN=   -7   IZMIN=   -7


 serial   3D FFT for wavefunctions
 parallel 3D FFT for charge:
    minimum data exchange during FFTs selected (reduces bandwidth)


 total amount of memory used by VASP MPI-rank0    50215. kBytes
=======================================================================

   base      :      30000. kBytes
   nonl-proj :       7002. kBytes
   fftplans  :       6611. kBytes
   grid      :       3048. kBytes
   one-center:          6. kBytes
   wavefun   :       3548. kBytes
 
     INWAV:  cpu time    0.1940: real time    0.7984
 initial charge density was supplied:
 number of electron       8.0000000 magnetization 
 keeping initial charge density in first step


--------------------------------------------------------------------------------------------------------


 Maximum index for augmentation-charges        34908 (set IRDMAX)


--------------------------------------------------------------------------------------------------------


 First call to EWALD:  gamma=   0.515
 Maximum number of real-space cells 3x 3x 3
 Maximum number of reciprocal cells 3x 3x 3

    FEWALD:  cpu time    0.0030: real time    0.0035


--------------------------------------- Iteration      1(   1)  ---------------------------------------


    POTLOK:  cpu time    0.0500: real time    0.0534
    SETDIJ:  cpu time    0.1930: real time    0.1939
     EDDAV:  cpu time    1.8607: real time    1.8612
       DOS:  cpu time    0.0010: real time    0.0021
    --------------------------------------------
      LOOP:  cpu time    2.1047: real time    2.1109

 eigenvalue-minimisations  :  2760
 total energy-change (2. order) :-0.8811231E+01  (-0.5327808E+02)
 number of electron       8.0000000 magnetization 
 augmentation part        8.0000000 magnetization 

 Free energy of the ion-electron system (eV)
  ---------------------------------------------------
  alpha Z        PSCENC =         3.29369498
  Ewald energy   TEWEN  =      -226.95672281
  -Hartree energ DENC   =       -15.16888045
  -exchange      EXHF   =         0.00000000
  -V(xc)+E(xc)   XCENC  =       -18.05911627
  PAW double counting   =       829.14336586     -794.16236172
  entropy T*S    EENTRO =        -0.00000004
  eigenvalues    EBANDS =         6.96686165
  atomic energy  EATOM  =       206.13192747
  Solvation  Ediel_sol  =         0.00000000
  ---------------------------------------------------
  free energy    TOTEN  =        -8.81123132 eV

  energy without entropy =       -8.81123128  energy(sigma->0) =       -8.81123130


--------------------------------------------------------------------------------------------------------




--------------------------------------- Iteration      1(   2)  ---------------------------------------


     EDDAV:  cpu time    1.7197: real time    1.7372
       DOS:  cpu time    0.0000: real time    0.0015
    --------------------------------------------
      LOOP:  cpu time    1.7207: real time    1.7388

 eigenvalue-minimisations  :  2496
 total energy-change (2. order) :-0.4327531E+00  (-0.4327531E+00)
 number of electron       8.0000000 magnetization 
 augmentation part        8.0000000 magnetization 

 Free energy of the ion-electron system (eV)
  ---------------------------------------------------
  alpha Z        PSCENC =         3.29369498
  Ewald energy   TEWEN  =      -226.95672281
  -Hartree energ DENC   =       -15.16888045
  -exchange      EXHF   =         0.00000000
  -V(xc)+E(xc)   XCENC  =       -18.05911627
  PAW double counting   =       829.14336586     -794.16236172
  entropy T*S    EENTRO =        -0.00000000
  eigenvalues    EBANDS =         6.53410849
  atomic energy  EATOM  =       206.13192747
  Solvation  Ediel_sol  =         0.00000000
  ---------------------------------------------------
  free energy    TOTEN  =        -9.24398445 eV

  energy without entropy =       -9.24398445  energy(sigma->0) =       -9.24398445


--------------------------------------------------------------------------------------------------------




--------------------------------------- Iteration      1(   3)  ---------------------------------------


     EDDAV:  cpu time    2.0967: real time    2.1142
       DOS:  cpu time    0.0020: real time    0.0017
    --------------------------------------------
      LOOP:  cpu time    2.0977: real time    2.1159

 eigenvalue-minimisations  :  3160
 total energy-change (2. order) :-0.3087032E-02  (-0.3087032E-02)
 number of electron       8.0000000 magnetization 
 augmentation part        8.0000000 magnetization 

 Free energy of the ion-electron system (eV)
  ---------------------------------------------------
  alpha Z        PSCENC =         3.29369498
  Ewald energy   TEWEN  =      -226.95672281
  -Hartree energ DENC   =       -15.16888045
  -exchange      EXHF   =         0.00000000
  -V(xc)+E(xc)   XCENC  =       -18.05911627
  PAW double counting   =       829.14336586     -794.16236172
  entropy T*S    EENTRO =        -0.00000000
  eigenvalues    EBANDS =         6.53102146
  atomic energy  EATOM  =       206.13192747
  Solvation  Ediel_sol  =         0.00000000
  ---------------------------------------------------
  free energy    TOTEN  =        -9.24707148 eV

  energy without entropy =       -9.24707148  energy(sigma->0) =       -9.24707148


--------------------------------------------------------------------------------------------------------




--------------------------------------- Iteration      1(   4)  ---------------------------------------


     EDDAV:  cpu time    1.8567: real time    1.8751
       DOS:  cpu time    0.0010: real time    0.0014
    --------------------------------------------
      LOOP:  cpu time    1.8587: real time    1.8765

 eigenvalue-minimisations  :  2744
 total energy-change (2. order) :-0.3495373E-05  (-0.3495373E-05)
 number of electron       8.0000000 magnetization 
 augmentation part        8.0000000 magnetization 

 Free energy of the ion-electron system (eV)
  ---------------------------------------------------
  alpha Z        PSCENC =         3.29369498
  Ewald energy   TEWEN  =      -226.95672281
  -Hartree energ DENC   =       -15.16888045
  -exchange      EXHF   =         0.00000000
  -V(xc)+E(xc)   XCENC  =       -18.05911627
  PAW double counting   =       829.14336586     -794.16236172
  entropy T*S    EENTRO =        -0.00000000
  eigenvalues    EBANDS =         6.53101796
  atomic energy  EATOM  =       206.13192747
  Solvation  Ediel_sol  =         0.00000000
  ---------------------------------------------------
  free energy    TOTEN  =        -9.24707497 eV

  energy without entropy =       -9.24707497  energy(sigma->0) =       -9.24707497


--------------------------------------------------------------------------------------------------------




--------------------------------------- Iteration      1(   5)  ---------------------------------------


     EDDAV:  cpu time    2.0287: real time    2.0469
       DOS:  cpu time    0.0010: real time    0.0017
    --------------------------------------------
      LOOP:  cpu time    2.0297: real time    2.0486

 eigenvalue-minimisations  :  3048
 total energy-change (2. order) :-0.1914952E-07  (-0.1914951E-07)
 number of electron       8.0000000 magnetization 
 augmentation part        8.0000000 magnetization 

 Free energy of the ion-electron system (eV)
  ---------------------------------------------------
  alpha Z        PSCENC =         3.29369498
  Ewald energy   TEWEN  =      -226.95672281
  -Hartree energ DENC   =       -15.16888045
  -exchange      EXHF   =         0.00000000
  -V(xc)+E(xc)   XCENC  =       -18.05911627
  PAW double counting   =       829.14336586     -794.16236172
  entropy T*S    EENTRO =        -0.00000000
  eigenvalues    EBANDS =         6.53101794
  atomic energy  EATOM  =       206.13192747
  Solvation  Ediel_sol  =         0.00000000
  ---------------------------------------------------
  free energy    TOTEN  =        -9.24707499 eV

  energy without entropy =       -9.24707499  energy(sigma->0) =       -9.24707499


--------------------------------------------------------------------------------------------------------




--------------------------------------- Iteration      1(   6)  ---------------------------------------


     EDDAV:  cpu time    1.7437: real time    1.7608
       DOS:  cpu time    0.0010: real time    0.0016
    --------------------------------------------
      LOOP:  cpu time    1.7437: real time    1.7623

 eigenvalue-minimisations  :  2528
 total energy-change (2. order) :-0.2348770E-09  (-0.2348309E-09)
 number of electron       8.0000000 magnetization 
 augmentation part        8.0000000 magnetization 

 Free energy of the ion-electron system (eV)
  ---------------------------------------------------
  alpha Z        PSCENC =         3.29369498
  Ewald energy   TEWEN  =      -226.95672281
  -Hartree energ DENC   =       -15.16888045
  -exchange      EXHF   =         0.00000000
  -V(xc)+E(xc)   XCENC  =       -18.05911627
  PAW double counting   =       829.14336586     -794.16236172
  entropy T*S    EENTRO =        -0.00000000
  eigenvalues    EBANDS =         6.53101794
  atomic energy  EATOM  =       206.13192747
  Solvation  Ediel_sol  =         0.00000000
  ---------------------------------------------------
  free energy    TOTEN  =        -9.24707499 eV

  energy without entropy =       -9.24707499  energy(sigma->0) =       -9.24707499


--------------------------------------------------------------------------------------------------------




 average (electrostatic) potential at core
  the test charge radii are     0.9892
  (the norm of the test charge is              1.0000)
       1 -83.4806       2 -83.4806
 
 
 
 E-fermi :   5.8800     XC(G=0):  -9.3280     alpha+bet :-11.7336

 Fermi energy:         5.8799947459

 k-point     1 :       0.0000    0.0000    0.0000
  band No.  band energies     occupation 
      1      -6.1983      2.00000
      2       5.6173      2.00000
      3       5.6173      2.00000
      4       5.6173      2.00000
      5       8.1744      0.00000
      6       8.1744      0.00000
      7       8.1744      0.00000
      8       8.7530      0.00000

 k-point     2 :       0.0263    0.0000    0.0263
  band No.  band energies     occupation 
      1      -6.1864      2.00000
      2       5.5321      2.00000
      3       5.5670      2.00000
      4       5.5670      2.00000
      5       8.1449      0.00000
      6       8.2394      0.00000
      7       8.2394      0.00000
      8       8.8364      0.00000

 k-point     3 :       0.0526    0.0000    0.0526
  band No.  band energies     occupation 
      1      -6.1507      2.00000
      2       5.3004      2.00000
      3       5.4298      2.00000
      4       5.4298      2.00000
      5       8.0602      0.00000
      6       8.4206      0.00000
      7       8.4206      0.00000
      8       9.0590      0.00000

 k-point     4 :       0.0789    0.0000    0.0789
  band No.  band energies     occupation 
      1      -6.0912      2.00000
      2       4.9700      2.00000
      3       5.2350      2.00000
      4       5.2350      2.00000
      5       7.9304      0.00000
      6       8.6885      0.00000
      7       8.6885      0.00000
      8       9.3595      0.00000

 k-point     5 :       0.1053    0.0000    0.1053
  band No.  band energies     occupation 
      1      -6.0080      2.00000
      2       4.5807      2.00000
      3       5.0091      2.00000
      4       5.0091      2.00000
      5       7.7683      0.00000
      6       9.0162      0.00000
      7       9.0162      0.00000
      8       9.6647      0.00000

 k-point     6 :       0.1316    0.0000    0.1316
  band No.  band energies     occupation 
      1      -5.9013      2.00000
      2       4.1573      2.00000
      3       4.7707      2.00000
      4       4.7707      2.00000
      5       7.5865      0.00000
      6       9.3847      0.00000
      7       9.3847      0.00000
      8       9.8765      0.00000

 k-point     7 :       0.1579    0.0000    0.1579
  band No.  band energies     occupation 
      1      -5.7713      2.00000
      2       3.7140      2.00000
      3       4.5311      2.00000
      4       4.5311      2.00000
      5       7.3959      0.00000
      6       9.7820      0.00000
      7       9.7820      0.00000
      8       9.8808      0.00000

 k-point     8 :       0.1842    0.0000    0.1842
  band No.  band energies     occupation 
      1      -5.6181      2.00000
      2       3.2592      2.00000
      3       4.2979      2.00000
      4       4.2979      2.00000
      5       7.2053      0.00000
      6       9.6654      0.00000
      7      10.2002      0.00000
      8      10.2002      0.00000

 k-point     9 :       0.2105    0.0000    0.2105
  band No.  band energies     occupation 
      1      -5.4420      2.00000
      2       2.7976      2.00000
      3       4.0754      2.00000
      4       4.0754      2.00000
      5       7.0214      0.00000
      6       9.3273      0.00000
      7      10.6342      0.00000
      8      10.6342      0.00000

 k-point    10 :       0.2368    0.0000    0.2368
  band No.  band energies     occupation 
      1      -5.2433      2.00000
      2       2.3324      2.00000
      3       3.8669      2.00000
      4       3.8669      2.00000
      5       6.8493      0.00000
      6       8.9466      0.00000
      7      11.0807      0.00000
      8      11.0807      0.00000

 k-point    11 :       0.2632    0.0000    0.2632
  band No.  band energies     occupation 
      1      -5.0224      2.00000
      2       1.8657      2.00000
      3       3.6745      2.00000
      4       3.6745      2.00000
      5       6.6931      0.00000
      6       8.5627      0.00000
      7      11.5370      0.00000
      8      11.5370      0.00000

 k-point    12 :       0.2895    0.0000    0.2895
  band No.  band energies     occupation 
      1      -4.7798      2.00000
      2       1.3993      2.00000
      3       3.4996      2.00000
      4       3.4996      2.00000
      5       6.5559      0.00000
      6       8.1944      0.00000
      7      12.0016      0.00000
      8      12.0016      0.00000

 k-point    13 :       0.3158    0.0000    0.3158
  band No.  band energies     occupation 
      1      -4.5158      2.00000
      2       0.9349      2.00000
      3       3.3435      2.00000
      4       3.3435      2.00000
      5       6.4401      0.00000
      6       7.8512      0.00000
      7      12.4732      0.00000
      8      12.4732      0.00000

 k-point    14 :       0.3421    0.0000    0.3421
  band No.  band energies     occupation 
      1      -4.2310      2.00000
      2       0.4740      2.00000
      3       3.2068      2.00000
      4       3.2068      2.00000
      5       6.3477      0.00000
      6       7.5383      0.00000
      7      12.9512      0.00000
      8      12.9512      0.00000

 k-point    15 :       0.3684    0.0000    0.3684
  band No.  band energies     occupation 
      1      -3.9262      2.00000
      2       0.0181      2.00000
      3       3.0904      2.00000
      4       3.0904      2.00000
      5       6.2805      0.00000
      6       7.2580      0.00000
      7      13.4342      0.00000
      8      13.4342      0.00000

 k-point    16 :       0.3947    0.0000    0.3947
  band No.  band energies     occupation 
      1      -3.6020      2.00000
      2      -0.4311      2.00000
      3       2.9945      2.00000
      4       2.9945      2.00000
      5       6.2399      0.00000
      6       7.0119      0.00000
      7      13.9213      0.00000
      8      13.9213      0.00000

 k-point    17 :       0.4211    0.0000    0.4211
  band No.  band energies     occupation 
      1      -3.2592      2.00000
      2      -0.8720      2.00000
      3       2.9196      2.00000
      4       2.9196      2.00000
      5       6.2273      0.00000
      6       6.8002      0.00000
      7      14.4090      0.00000
      8      14.4090      0.00000

 k-point    18 :       0.4474    0.0000    0.4474
  band No.  band energies     occupation 
      1      -2.8988      2.00000
      2      -1.3030      2.00000
      3       2.8660      2.00000
      4       2.8660      2.00000
      5       6.2439      0.00000
      6       6.6228      0.00000
      7      14.8884      0.00000
      8      14.8884      0.00000

 k-point    19 :       0.4737    0.0000    0.4737
  band No.  band energies     occupation 
      1      -2.5218      2.00000
      2      -1.7226      2.00000
      3       2.8337      2.00000
      4       2.8337      2.00000
      5       6.2908      0.00000
      6       6.4793      0.00000
      7      15.3255      0.00000
      8      15.3255      0.00000

 k-point    20 :       0.5000    0.0000    0.5000
  band No.  band energies     occupation 
      1      -2.1293      2.00000
      2      -2.1293      2.00000
      3       2.8229      2.00000
      4       2.8229      2.00000
      5       6.3689      0.00000
      6       6.3689      0.00000
      7      15.5554      0.00000
      8      15.5554      0.00000

 k-point    21 :       0.5000    0.0000    0.5000
  band No.  band energies     occupation 
      1      -2.1293      2.00000
      2      -2.1293      2.00000
      3       2.8229      2.00000
      4       2.8229      2.00000
      5       6.3689      0.00000
      6       6.3689      0.00000
      7      15.5554      0.00000
      8      15.5554      0.00000

 k-point    22 :       0.5066    0.0132    0.5066
  band No.  band energies     occupation 
      1      -2.1299      2.00000
      2      -2.1277      2.00000
      3       2.8128      2.00000
      4       2.8241      2.00000
      5       6.3703      0.00000
      6       6.3840      0.00000
      7      15.5391      0.00000
      8      15.5462      0.00000

 k-point    23 :       0.5132    0.0263    0.5132
  band No.  band energies     occupation 
      1      -2.1319      2.00000
      2      -2.1228      2.00000
      3       2.7830      2.00000
      4       2.8277      2.00000
      5       6.3744      0.00000
      6       6.4288      0.00000
      7      15.4915      0.00000
      8      15.5192      0.00000

 k-point    24 :       0.5197    0.0395    0.5197
  band No.  band energies     occupation 
      1      -2.1353      2.00000
      2      -2.1147      2.00000
      3       2.7351      2.00000
      4       2.8337      2.00000
      5       6.3812      0.00000
      6       6.5017      0.00000
      7      15.4162      0.00000
      8      15.4755      0.00000

 k-point    25 :       0.5263    0.0526    0.5263
  band No.  band energies     occupation 
      1      -2.1401      2.00000
      2      -2.1034      2.00000
      3       2.6716      2.00000
      4       2.8420      2.00000
      5       6.3908      0.00000
      6       6.6003      0.00000
      7      15.3178      0.00000
      8      15.4162      0.00000

 k-point    26 :       0.5329    0.0658    0.5329
  band No.  band energies     occupation 
      1      -2.1466      2.00000
      2      -2.0888      2.00000
      3       2.5953      2.00000
      4       2.8527      2.00000
      5       6.4032      0.00000
      6       6.7220      0.00000
      7      15.2011      0.00000
      8      15.3436      0.00000

 k-point    27 :       0.5395    0.0789    0.5395
  band No.  band energies     occupation 
      1      -2.1548      2.00000
      2      -2.0711      2.00000
      3       2.5091      2.00000
      4       2.8658      2.00000
      5       6.4182      0.00000
      6       6.8640      0.00000
      7      15.0702      0.00000
      8      15.2595      0.00000

 k-point    28 :       0.5461    0.0921    0.5461
  band No.  band energies     occupation 
      1      -2.1650      2.00000
      2      -2.0500      2.00000
      3       2.4158      2.00000
      4       2.8812      2.00000
      5       6.4360      0.00000
      6       7.0237      0.00000
      7      14.9288      0.00000
      8      15.1664      0.00000

 k-point    29 :       0.5526    0.1053    0.5526
  band No.  band energies     occupation 
      1      -2.1775      2.00000
      2      -2.0258      2.00000
      3       2.3180      2.00000
      4       2.8989      2.00000
      5       6.4564      0.00000
      6       7.1987      0.00000
      7      14.7797      0.00000
      8      15.0662      0.00000

 k-point    30 :       0.5592    0.1184    0.5592
  band No.  band energies     occupation 
      1      -2.1924      2.00000
      2      -1.9983      2.00000
      3       2.2179      2.00000
      4       2.9190      2.00000
      5       6.4796      0.00000
      6       7.3871      0.00000
      7      14.6249      0.00000
      8      14.9591      0.00000

 k-point    31 :       0.5658    0.1316    0.5658
  band No.  band energies     occupation 
      1      -2.2101      2.00000
      2      -1.9676      2.00000
      3       2.1174      2.00000
      4       2.9414      2.00000
      5       6.5053      0.00000
      6       7.5870      0.00000
      7      14.4660      0.00000
      8      14.8463      0.00000

 k-point    32 :       0.5724    0.1447    0.5724
  band No.  band energies     occupation 
      1      -2.2310      2.00000
      2      -1.9337      2.00000
      3       2.0184      2.00000
      4       2.9660      2.00000
      5       6.5337      0.00000
      6       7.7971      0.00000
      7      14.3045      0.00000
      8      14.7300      0.00000

 k-point    33 :       0.5789    0.1579    0.5789
  band No.  band energies     occupation 
      1      -2.2552      2.00000
      2      -1.8966      2.00000
      3       1.9222      2.00000
      4       2.9929      2.00000
      5       6.5647      0.00000
      6       8.0162      0.00000
      7      14.1412      0.00000
      8      14.6126      0.00000

 k-point    34 :       0.5855    0.1711    0.5855
  band No.  band energies     occupation 
      1      -2.2832      2.00000
      2      -1.8562      2.00000
      3       1.8303      2.00000
      4       3.0220      2.00000
      5       6.5983      0.00000
      6       8.2432      0.00000
      7      13.9770      0.00000
      8      14.4893      0.00000

 k-point    35 :       0.5921    0.1842    0.5921
  band No.  band energies     occupation 
      1      -2.3152      2.00000
      2      -1.8126      2.00000
      3       1.7435      2.00000
      4       3.0533      2.00000
      5       6.6344      0.00000
      6       8.4773      0.00000
      7      13.8124      0.00000
      8      14.3512      0.00000

 k-point    36 :       0.5987    0.1974    0.5987
  band No.  band energies     occupation 
      1      -2.3516      2.00000
      2      -1.7659      2.00000
      3       1.6630      2.00000
      4       3.0868      2.00000
      5       6.6731      0.00000
      6       8.7176      0.00000
      7      13.6480      0.00000
      8      14.2220      0.00000

 k-point    37 :       0.6053    0.2105    0.6053
  band No.  band energies     occupation 
      1      -2.3925      2.00000
      2      -1.7159      2.00000
      3       1.5895      2.00000
      4       3.1224      2.00000
      5       6.7141      0.00000
      6       8.9637      0.00000
      7      13.4842      0.00000
      8      14.0533      0.00000

 k-point    38 :       0.6118    0.2237    0.6118
  band No.  band energies     occupation 
      1      -2.4381      2.00000
      2      -1.6628      2.00000
      3       1.5235      2.00000
      4       3.1601      2.00000
      5       6.7576      0.00000
      6       9.2148      0.00000
      7      13.3213      0.00000
      8      13.8801      0.00000

 k-point    39 :       0.6184    0.2368    0.6184
  band No.  band energies     occupation 
      1      -2.4887      2.00000
      2      -1.6064      2.00000
      3       1.4657      2.00000
      4       3.1998      2.00000
      5       6.8035      0.00000
      6       9.4704      0.00000
      7      13.1595      0.00000
      8      13.7060      0.00000

 k-point    40 :       0.6250    0.2500    0.6250
  band No.  band energies     occupation 
      1      -2.5441      2.00000
      2      -1.5469      2.00000
      3       1.4163      2.00000
      4       3.2415      2.00000
      5       6.8516      0.00000
      6       9.7299      0.00000
      7      12.9991      0.00000
      8      13.5358      0.00000

 k-point    41 :       0.3750    0.3750    0.7500
  band No.  band energies     occupation 
      1      -2.5441      2.00000
      2      -1.5469      2.00000
      3       1.4163      2.00000
      4       3.2415      2.00000
      5       6.8516      0.00000
      6       9.7299      0.00000
      7      12.9992      0.00000
      8      13.5352      0.00000

 k-point    42 :       0.3553    0.3553    0.7105
  band No.  band energies     occupation 
      1      -2.7393      2.00000
      2      -1.3492      2.00000
      3       1.3209      2.00000
      4       3.3780      2.00000
      5       7.0092      0.00000
      6      10.5253      0.00000
      7      12.5281      0.00000
      8      13.0509      0.00000

 k-point    43 :       0.3355    0.3355    0.6711
  band No.  band energies     occupation 
      1      -2.9732      2.00000
      2      -1.1232      2.00000
      3       1.3037      2.00000
      4       3.5304      2.00000
      5       7.1848      0.00000
      6      11.3132      0.00000
      7      12.0749      0.00000
      8      12.6273      0.00000

 k-point    44 :       0.3158    0.3158    0.6316
  band No.  band energies     occupation 
      1      -3.2365      2.00000
      2      -0.8690      2.00000
      3       1.3586      2.00000
      4       3.6967      2.00000
      5       7.3754      0.00000
      6      11.6422      0.00000
      7      11.7976      0.00000
      8      12.5567      0.00000

 k-point    45 :       0.2961    0.2961    0.5921
  band No.  band energies     occupation 
      1      -3.5184      2.00000
      2      -0.5869      2.00000
      3       1.4767      2.00000
      4       3.8743      2.00000
      5       7.5770      0.00000
      6      11.2317      0.00000
      7      11.5536      0.00000
      8      12.2832      0.00000

 k-point    46 :       0.2763    0.2763    0.5526
  band No.  band energies     occupation 
      1      -3.8086      2.00000
      2      -0.2772      2.00000
      3       1.6487      2.00000
      4       4.0602      2.00000
      5       7.7841      0.00000
      6      10.8447      0.00000
      7      11.1844      0.00000
      8      11.9907      0.00000

 k-point    47 :       0.2566    0.2566    0.5132
  band No.  band energies     occupation 
      1      -4.0986      2.00000
      2       0.0596      2.00000
      3       1.8664      2.00000
      4       4.2510      2.00000
      5       7.9893      0.00000
      6      10.4820      0.00000
      7      10.8192      0.00000
      8      11.7355      0.00000

 k-point    48 :       0.2368    0.2368    0.4737
  band No.  band energies     occupation 
      1      -4.3815      2.00000
      2       0.4231      2.00000
      3       2.1226      2.00000
      4       4.4425      2.00000
      5       8.1825      0.00000
      6      10.1444      0.00000
      7      10.4728      0.00000
      8      11.5249      0.00000

 k-point    49 :       0.2171    0.2171    0.4342
  band No.  band energies     occupation 
      1      -4.6525      2.00000
      2       0.8126      2.00000
      3       2.4113      2.00000
      4       4.6303      2.00000
      5       8.3516      0.00000
      6       9.8325      0.00000
      7      10.1489      0.00000
      8      11.3665      0.00000

 k-point    50 :       0.1974    0.1974    0.3947
  band No.  band energies     occupation 
      1      -4.9075      2.00000
      2       1.2274      2.00000
      3       2.7272      2.00000
      4       4.8095      2.00000
      5       8.4839      0.00000
      6       9.5467      0.00000
      7       9.8488      0.00000
      8      11.2647      0.00000

 k-point    51 :       0.1776    0.1776    0.3553
  band No.  band energies     occupation 
      1      -5.1439      2.00000
      2       1.6665      2.00000
      3       3.0649      2.00000
      4       4.9756      2.00000
      5       8.5699      0.00000
      6       9.2873      0.00000
      7       9.5723      0.00000
      8      11.2145      0.00000

 k-point    52 :       0.1579    0.1579    0.3158
  band No.  band energies     occupation 
      1      -5.3593      2.00000
      2       2.1283      2.00000
      3       3.4191      2.00000
      4       5.1246      2.00000
      5       8.6080      0.00000
      6       9.0547      0.00000
      7       9.3195      0.00000
      8      11.1912      0.00000

 k-point    53 :       0.1382    0.1382    0.2763
  band No.  band energies     occupation 
      1      -5.5522      2.00000
      2       2.6110      2.00000
      3       3.7833      2.00000
      4       5.2535      2.00000
      5       8.6054      0.00000
      6       8.8490      0.00000
      7       9.0895      0.00000
      8      11.1399      0.00000

 k-point    54 :       0.1184    0.1184    0.2368
  band No.  band energies     occupation 
      1      -5.7214      2.00000
      2       3.1115      2.00000
      3       4.1501      2.00000
      4       5.3610      2.00000
      5       8.5741      0.00000
      6       8.6704      0.00000
      7       8.8817      0.00000
      8      10.9766      0.00000

 k-point    55 :       0.0987    0.0987    0.1974
  band No.  band energies     occupation 
      1      -5.8659      2.00000
      2       3.6250      2.00000
      3       4.5097      2.00000
      4       5.4470      2.00000
      5       8.5190      0.00000
      6       8.5260      0.00000
      7       8.6955      0.00000
      8      10.6404      0.00000

 k-point    56 :       0.0789    0.0789    0.1579
  band No.  band energies     occupation 
      1      -5.9849      2.00000
      2       4.1433      2.00000
      3       4.8494      2.00000
      4       5.5130      2.00000
      5       8.3951      0.00000
      6       8.4699      0.00000
      7       8.5308      0.00000
[...]
      3       3.4455      2.00000
      4       4.1647      2.00000
      5       7.9012      0.00000
      6       8.7938      0.00000
      7       9.6385      0.00000
      8      13.6814      0.00000

 k-point    87 :       0.5000    0.4211    0.5789
  band No.  band energies     occupation 
      1      -3.7057      2.00000
      2      -1.1587      2.00000
      3       3.1555      2.00000
      4       4.0469      2.00000
      5       8.0889      0.00000
      6       8.7579      0.00000
      7       9.9621      0.00000
      8      13.6454      0.00000

 k-point    88 :       0.5000    0.4079    0.5921
  band No.  band energies     occupation 
      1      -3.6292      2.00000
      2      -1.1336      2.00000
      3       2.8706      2.00000
      4       3.9109      2.00000
      5       8.2585      0.00000
      6       8.7363      0.00000
      7      10.3421      0.00000
      8      13.5133      0.00000

 k-point    89 :       0.5000    0.3947    0.6053
  band No.  band energies     occupation 
      1      -3.5415      2.00000
      2      -1.1112      2.00000
      3       2.5987      2.00000
      4       3.7589      2.00000
      5       8.4157      0.00000
      6       8.7324      0.00000
      7      10.7669      0.00000
      8      13.2148      0.00000

 k-point    90 :       0.5000    0.3816    0.6184
  band No.  band energies     occupation 
      1      -3.4428      2.00000
      2      -1.0949      2.00000
      3       2.3464      2.00000
      4       3.5934      2.00000
      5       8.5669      0.00000
      6       8.7483      0.00000
      7      11.2259      0.00000
      8      12.8553      0.00000

 k-point    91 :       0.5000    0.3684    0.6316
  band No.  band energies     occupation 
      1      -3.3333      2.00000
      2      -1.0891      2.00000
      3       2.1203      2.00000
      4       3.4175      2.00000
      5       8.7172      0.00000
      6       8.7849      0.00000
      7      11.7097      0.00000
      8      12.5178      0.00000

 k-point    92 :       0.5000    0.3553    0.6447
  band No.  band energies     occupation 
      1      -3.2134      2.00000
      2      -1.0988      2.00000
      3       1.9267      2.00000
      4       3.2340      2.00000
      5       8.8423      0.00000
      6       8.8701      0.00000
      7      12.1539      0.00000
      8      12.2524      0.00000

 k-point    93 :       0.5000    0.3421    0.6579
  band No.  band energies     occupation 
      1      -3.0837      2.00000
      2      -1.1290      2.00000
      3       1.7718      2.00000
      4       3.0462      2.00000
      5       8.9200      0.00000
      6       9.0277      0.00000
      7      11.8744      0.00000
      8      12.2408      0.00000

 k-point    94 :       0.5000    0.3289    0.6711
  band No.  band energies     occupation 
      1      -2.9446      2.00000
      2      -1.1839      2.00000
      3       1.6603      2.00000
      4       2.8570      2.00000
      5       9.0171      0.00000
      6       9.1912      0.00000
      7      11.5776      0.00000
      8      11.9669      0.00000

 k-point    95 :       0.5000    0.3158    0.6842
  band No.  band energies     occupation 
      1      -2.7970      2.00000
      2      -1.2652      2.00000
      3       1.5944      2.00000
      4       2.6693      2.00000
      5       9.1326      0.00000
      6       9.3608      0.00000
      7      11.2953      0.00000
      8      11.6985      0.00000

 k-point    96 :       0.5000    0.3026    0.6974
  band No.  band energies     occupation 
      1      -2.6417      2.00000
      2      -1.3724      2.00000
      3       1.5737      2.00000
      4       2.4860      2.00000
      5       9.2651      0.00000
      6       9.5350      0.00000
      7      11.0304      0.00000
      8      11.4375      0.00000

 k-point    97 :       0.5000    0.2895    0.7105
  band No.  band energies     occupation 
      1      -2.4801      2.00000
      2      -1.5019      2.00000
      3       1.5946      2.00000
      4       2.3099      2.00000
      5       9.4128      0.00000
      6       9.7093      0.00000
      7      10.7885      0.00000
      8      11.1861      0.00000

 k-point    98 :       0.5000    0.2763    0.7237
  band No.  band energies     occupation 
      1      -2.3136      2.00000
      2      -1.6490      2.00000
      3       1.6523      2.00000
      4       2.1440      2.00000
      5       9.5726      0.00000
      6       9.8677      0.00000
      7      10.5860      0.00000
      8      10.9477      0.00000

 k-point    99 :       0.5000    0.2632    0.7368
  band No.  band energies     occupation 
      1      -2.1442      2.00000
      2      -1.8082      2.00000
      3       1.7412      2.00000
      4       1.9914      2.00000
      5       9.7379      0.00000
      6       9.9531      0.00000
      7      10.4805      0.00000
      8      10.7288      0.00000

 k-point   100 :       0.5000    0.2500    0.7500
  band No.  band energies     occupation 
      1      -1.9746      2.00000
      2      -1.9746      2.00000
      3       1.8558      2.00000
      4       1.8558      2.00000
      5       9.8878      0.00000
      6       9.8878      0.00000
      7      10.5500      0.00000
      8      10.5500      0.00000

 k-point   101 :       0.5000    0.2500    0.7500
  band No.  band energies     occupation 
      1      -1.9746      2.00000
      2      -1.9746      2.00000
      3       1.8558      2.00000
      4       1.8558      2.00000
      5       9.8878      0.00000
      6       9.8878      0.00000
      7      10.5500      0.00000
      8      10.5500      0.00000

 k-point   102 :       0.5000    0.2368    0.7368
  band No.  band energies     occupation 
      1      -1.9758      2.00000
      2      -1.9758      2.00000
      3       1.8611      2.00000
      4       1.8611      2.00000
      5       9.7686      0.00000
      6       9.7686      0.00000
      7      10.6752      0.00000
      8      10.6752      0.00000

 k-point   103 :       0.5000    0.2237    0.7237
  band No.  band energies     occupation 
      1      -1.9792      2.00000
      2      -1.9792      2.00000
      3       1.8768      2.00000
      4       1.8768      2.00000
      5       9.5289      0.00000
      6       9.5289      0.00000
      7      10.9325      0.00000
      8      10.9325      0.00000

 k-point   104 :       0.5000    0.2105    0.7105
  band No.  band energies     occupation 
      1      -1.9848      2.00000
      2      -1.9848      2.00000
      3       1.9028      2.00000
      4       1.9028      2.00000
      5       9.2611      0.00000
      6       9.2611      0.00000
      7      11.2298      0.00000
      8      11.2299      0.00000

 k-point   105 :       0.5000    0.1974    0.6974
  band No.  band energies     occupation 
      1      -1.9924      2.00000
      2      -1.9924      2.00000
      3       1.9387      2.00000
      4       1.9387      2.00000
      5       8.9887      0.00000
      6       8.9887      0.00000
      7      11.5436      0.00000
      8      11.5436      0.00000

 k-point   106 :       0.5000    0.1842    0.6842
  band No.  band energies     occupation 
      1      -2.0016      2.00000
      2      -2.0016      2.00000
      3       1.9837      2.00000
      4       1.9837      2.00000
      5       8.7191      0.00000
      6       8.7191      0.00000
      7      11.8665      0.00000
      8      11.8665      0.00000

 k-point   107 :       0.5000    0.1711    0.6711
  band No.  band energies     occupation 
      1      -2.0123      2.00000
      2      -2.0122      2.00000
      3       2.0373      2.00000
      4       2.0374      2.00000
      5       8.4554      0.00000
      6       8.4554      0.00000
      7      12.1955      0.00000
      8      12.1955      0.00000

 k-point   108 :       0.5000    0.1579    0.6579
  band No.  band energies     occupation 
      1      -2.0240      2.00000
      2      -2.0239      2.00000
      3       2.0986      2.00000
      4       2.0986      2.00000
      5       8.1995      0.00000
      6       8.1995      0.00000
      7      12.5287      0.00000
      8      12.5287      0.00000

 k-point   109 :       0.5000    0.1447    0.6447
  band No.  band energies     occupation 
      1      -2.0364      2.00000
      2      -2.0364      2.00000
      3       2.1664      2.00000
      4       2.1664      2.00000
      5       7.9530      0.00000
      6       7.9530      0.00000
      7      12.8647      0.00000
      8      12.8647      0.00000

 k-point   110 :       0.5000    0.1316    0.6316
  band No.  band energies     occupation 
      1      -2.0491      2.00000
      2      -2.0491      2.00000
      3       2.2396      2.00000
      4       2.2396      2.00000
      5       7.7171      0.00000
      6       7.7171      0.00000
      7      13.2019      0.00000
      8      13.2019      0.00000

 k-point   111 :       0.5000    0.1184    0.6184
  band No.  band energies     occupation 
      1      -2.0618      2.00000
      2      -2.0618      2.00000
      3       2.3167      2.00000
      4       2.3167      2.00000
      5       7.4934      0.00000
      6       7.4934      0.00000
      7      13.5388      0.00000
      8      13.5388      0.00000

 k-point   112 :       0.5000    0.1053    0.6053
  band No.  band energies     occupation 
      1      -2.0742      2.00000
      2      -2.0742      2.00000
      3       2.3959      2.00000
      4       2.3959      2.00000
      5       7.2834      0.00000
      6       7.2834      0.00000
      7      13.8730      0.00000
      8      13.8730      0.00000

 k-point   113 :       0.5000    0.0921    0.5921
  band No.  band energies     occupation 
      1      -2.0859      2.00000
      2      -2.0859      2.00000
      3       2.4753      2.00000
      4       2.4753      2.00000
      5       7.0890      0.00000
      6       7.0890      0.00000
      7      14.2011      0.00000
      8      14.2012      0.00000

 k-point   114 :       0.5000    0.0789    0.5789
  band No.  band energies     occupation 
      1      -2.0967      2.00000
      2      -2.0966      2.00000
      3       2.5527      2.00000
      4       2.5527      2.00000
      5       6.9123      0.00000
      6       6.9123      0.00000
      7      14.5181      0.00000
      8      14.5182      0.00000

 k-point   115 :       0.5000    0.0658    0.5658
  band No.  band energies     occupation 
      1      -2.1062      2.00000
      2      -2.1062      2.00000
      3       2.6255      2.00000
      4       2.6255      2.00000
      5       6.7558      0.00000
      6       6.7558      0.00000
      7      14.8157      0.00000
      8      14.8158      0.00000

 k-point   116 :       0.5000    0.0526    0.5526
  band No.  band energies     occupation 
      1      -2.1143      2.00000
      2      -2.1143      2.00000
      3       2.6909      2.00000
      4       2.6909      2.00000
      5       6.6220      0.00000
      6       6.6220      0.00000
      7      15.0809      0.00000
      8      15.0809      0.00000

 k-point   117 :       0.5000    0.0395    0.5395
  band No.  band energies     occupation 
      1      -2.1207      2.00000
      2      -2.1207      2.00000
      3       2.7459      2.00000
      4       2.7459      2.00000
      5       6.5139      0.00000
      6       6.5139      0.00000
      7      15.2960      0.00000
      8      15.2960      0.00000

 k-point   118 :       0.5000    0.0263    0.5263
  band No.  band energies     occupation 
      1      -2.1255      2.00000
      2      -2.1254      2.00000
      3       2.7878      2.00000
      4       2.7878      2.00000
      5       6.4343      0.00000
      6       6.4343      0.00000
      7      15.4459      0.00000
      8      15.4460      0.00000

 k-point   119 :       0.5000    0.0132    0.5132
  band No.  band energies     occupation 
      1      -2.1283      2.00000
      2      -2.1283      2.00000
      3       2.8140      2.00000
      4       2.8140      2.00000
      5       6.3854      0.00000
      6       6.3854      0.00000
      7      15.5293      0.00000
      8      15.5294      0.00000

 k-point   120 :       0.5000    0.0000    0.5000
  band No.  band energies     occupation 
      1      -2.1293      2.00000
      2      -2.1293      2.00000
      3       2.8229      2.00000
      4       2.8229      2.00000
      5       6.3689      0.00000
      6       6.3689      0.00000
      7      15.5554      0.00000
      8      15.5554      0.00000


--------------------------------------------------------------------------------------------------------


 soft charge-density along one line, spin component           1
         0         1         2         3         4         5         6         7         8         9
 total charge-density along one line
 
 pseudopotential strength for first ion, spin component:           1
 18.437  25.723   0.000  -0.000   0.000   0.000  -0.000   0.000
 25.723  35.893   0.000  -0.000   0.000   0.000  -0.000   0.000
  0.000   0.000   4.181  -0.000  -0.000   7.790  -0.000  -0.000
 -0.000  -0.000  -0.000   4.181  -0.000  -0.000   7.790  -0.000
  0.000   0.000  -0.000  -0.000   4.181  -0.000  -0.000   7.790
  0.000   0.000   7.790  -0.000  -0.000  14.528  -0.000  -0.000
 -0.000  -0.000  -0.000   7.790  -0.000  -0.000  14.528  -0.000
  0.000   0.000  -0.000  -0.000   7.790  -0.000  -0.000  14.528
 total augmentation occupancy for first ion, spin component:           1
  2.000   0.000   0.000   0.000   0.000   0.000   0.000   0.000
  0.000   0.000   0.000   0.000   0.000   0.000   0.000   0.000
  0.000   0.000   0.667   0.000   0.000   0.000   0.000   0.000
  0.000   0.000   0.000   0.667   0.000   0.000   0.000   0.000
  0.000   0.000   0.000   0.000   0.667   0.000   0.000   0.000
  0.000   0.000   0.000   0.000   0.000   0.000   0.000   0.000
  0.000   0.000   0.000   0.000   0.000   0.000   0.000   0.000
  0.000   0.000   0.000   0.000   0.000   0.000   0.000   0.000


------------------------ aborting loop because EDIFF is reached ----------------------------------------





 total charge

# of ion       s       p       d       tot
------------------------------------------
    1        0.712   0.979   0.000   1.691
    2        0.712   0.979   0.000   1.691
--------------------------------------------------
tot          1.425   1.958   0.000   3.383
 
    CHARGE:  cpu time    0.1310: real time    0.1314
    FORLOC:  cpu time    0.0020: real time    0.0027
    FORNL :  cpu time    0.2060: real time    0.2070
    STRESS:  cpu time    1.4928: real time    1.4927
    FORCOR:  cpu time    0.0480: real time    0.0493
    FORHAR:  cpu time    0.0090: real time    0.0094
    OFIELD:  cpu time    0.0010: real time    0.0003

  FORCE on cell =-STRESS in cart. coord.  units (eV):
  Direction    XX          YY          ZZ          XY          YZ          ZX
  --------------------------------------------------------------------------------------
  Alpha Z     3.29369     3.29369     3.29369
  Ewald     -75.65225   -75.65233   -75.65224     0.00001     0.00000     0.00000
  Hartree     5.46776     5.46775     5.46776     0.00000     0.00000     0.00000
  E(xc)     -25.27927   -25.27927   -25.27927     0.00000     0.00000     0.00000
  Local     -30.34426   -30.34424   -30.34425    -0.00000     0.00000     0.00001
  n-local    78.04889    77.52607    74.81553    -0.30135     1.37538    -2.58939
  augment   -11.30065   -11.30065   -11.30066    -0.00000    -0.00000    -0.00001
  Kinetic    60.52503    59.19256    56.22001     0.47889     0.16994    -2.59150
  Fock        0.00000     0.00000     0.00000     0.00000     0.00000     0.00000
  -------------------------------------------------------------------------------------
  Total       1.62770     1.62770     1.62770     0.00000     0.00000    -0.00000
  in kB      63.79019    63.79024    63.79017     0.00000     0.00000    -0.00000
  external pressure =       63.79 kB  Pullay stress =        0.00 kB


 VOLUME and BASIS-vectors are now :
 -----------------------------------------------------------------------------
  energy-cutoff  :      450.00
  volume of cell :       40.88
      direct lattice vectors                 reciprocal lattice vectors
     3.348723577  0.000000000  1.933386186     0.298621244 -0.105578511  0.000000000
     1.116241192  3.157208118  1.933386186     0.000000000  0.316735534  0.000000000
     0.000000000  0.000000000  3.866772372    -0.149310622 -0.105578511  0.258613620

  length of vectors
     3.866772781  3.866773803  3.866772372     0.316735646  0.316735534  0.316735676


 FORCES acting on ions
    electron-ion (+dipol)            ewald-force                    non-local-force                 convergence-correction
 -----------------------------------------------------------------------------------------------
   0.564E-05 0.263E-04 0.713E-07   -.892E-05 -.418E-04 0.120E-14   0.243E-16 -.146E-15 -.850E-16   -.676E-07 -.318E-06 0.729E-09
   -.564E-05 -.263E-04 -.713E-07   0.892E-05 0.418E-04 -.116E-14   -.312E-16 0.160E-15 0.382E-16   0.676E-07 0.318E-06 -.729E-09
 -----------------------------------------------------------------------------------------------
   -.125E-12 0.384E-13 -.229E-12   -.272E-15 0.538E-16 0.389E-16   -.694E-17 0.139E-16 -.468E-16   -.113E-13 -.366E-14 0.191E-13
 
 
 POSITION                                       TOTAL-FORCE (eV/Angst)
 -----------------------------------------------------------------------------------
      3.90684      2.76256      6.76685        -0.000000      0.000000      0.000000
      0.55812      0.39465      0.96669         0.000000     -0.000000     -0.000000
 -----------------------------------------------------------------------------------
    total drift:                               -0.000000      0.000000     -0.000000


--------------------------------------------------------------------------------------------------------



  FREE ENERGIE OF THE ION-ELECTRON SYSTEM (eV)
  ---------------------------------------------------
  free  energy   TOTEN  =        -9.24707499 eV

  energy  without entropy=       -9.24707499  energy(sigma->0) =       -9.24707499
 


--------------------------------------------------------------------------------------------------------


    POTLOK:  cpu time    0.2330: real time    0.2398


--------------------------------------------------------------------------------------------------------


 writing wavefunctions
     LOOP+:  cpu time   14.8617: real time   16.7446
    4ORBIT:  cpu time    0.0000: real time    0.0000



 total charge

# of ion       s       p       d       tot
------------------------------------------
    1        0.712   0.979   0.000   1.691
    2        0.712   0.979   0.000   1.691
--------------------------------------------------
tot          1.425   1.958   0.000   3.383
 

 total amount of memory used by VASP MPI-rank0    50215. kBytes
=======================================================================

   base      :      30000. kBytes
   nonl-proj :       7002. kBytes
   fftplans  :       6611. kBytes
   grid      :       3048. kBytes
   one-center:          6. kBytes
   wavefun   :       3548. kBytes
 
  
  
 General timing and accounting informations for this job:
 ========================================================
  
                  Total CPU time used (sec):       17.835
                            User time (sec):       16.784
                          System time (sec):        1.051
                         Elapsed time (sec):       24.055
  
                   Maximum memory used (kb):       81188.
                   Average memory used (kb):          N/A
  
                          Minor page faults:        18887
                          Major page faults:            1
                 Voluntary context switches:       148921
