PROCAR lm decomposed
# of k-points:  120         # of bands:    8         # of ions:    2

 k-point     1 :    0.00000000 0.00000000 0.00000000     weight = 0.00833333

band     1 # energy   -6.19830946 # occ.  2.00000000
 
ion      s     py     pz     px    dxy    dyz    dz2    dxz  x2-y2    tot
    1  0.212  0.000  0.000  0.000  0.000  0.000  0.000  0.000  0.000  0.212
    2  0.212  0.000  0.000  0.000  0.000  0.000  0.000  0.000  0.000  0.212
tot    0.424  0.000  0.000  0.000  0.000  0.000  0.000  0.000  0.000  0.424
 
band     2 # energy    5.61730991 # occ.  2.00000000
 
ion      s     py     pz     px    dxy    dyz    dz2    dxz  x2-y2    tot
    1  0.000  0.000  0.205  0.009  0.000  0.000  0.000  0.000  0.000  0.214
    2  0.000  0.000  0.205  0.009  0.000  0.000  0.000  0.000  0.000  0.214
tot    0.000  0.001  0.410  0.017  0.000  0.000  0.000  0.000  0.000  0.428
 
band     3 # energy    5.61731014 # occ.  2.00000000
 
ion      s     py     pz     px    dxy    dyz    dz2    dxz  x2-y2    tot
    1  0.000  0.005  0.009  0.200  0.000  0.000  0.000  0.000  0.000  0.214
    2  0.000  0.005  0.009  0.200  0.000  0.000  0.000  0.000  0.000  0.214
tot    0.000  0.010  0.018  0.400  0.000  0.000  0.000  0.000  0.000  0.428
 
band     4 # energy    5.61731297 # occ.  2.00000000
 
ion      s     py     pz     px    dxy    dyz    dz2    dxz  x2-y2    tot
    1  0.000  0.208  0.000  0.005  0.000  0.000  0.000  0.000  0.000  0.214
    2  0.000  0.208  0.000  0.005  0.000  0.000  0.000  0.000  0.000  0.214
tot    0.000  0.417  0.000  0.011  0.000  0.000  0.000  0.000  0.000  0.428
 
band     5 # energy    8.17442338 # occ.  0.00000000
 
ion      s     py     pz     px    dxy    dyz    dz2    dxz  x2-y2    tot
    1  0.000  0.149  0.000  0.001  0.000  0.000  0.000  0.000  0.000  0.151
    2  0.000  0.149  0.000  0.001  0.000  0.000  0.000  0.000  0.000  0.151
tot    0.000  0.299  0.000  0.003  0.000  0.000  0.000  0.000  0.000  0.301
 
band     6 # energy    8.17443048 # occ.  0.00000000
 
ion      s     py     pz     px    dxy    dyz    dz2    dxz  x2-y2    tot
    1  0.000  0.001  0.000  0.149  0.000  0.000  0.000  0.000  0.000  0.151
    2  0.000  0.001  0.000  0.149  0.000  0.000  0.000  0.000  0.000  0.151
tot    0.000  0.003  0.000  0.299  0.000  0.000  0.000  0.000  0.000  0.301
 
band     7 # energy    8.17443176 # occ.  0.00000000
 
ion      s     py     pz     px    dxy    dyz    dz2    dxz  x2-y2    tot
    1  0.000  0.000  0.151  0.000  0.000  0.000  0.000  0.000  0.000  0.151
    2  0.000  0.000  0.151  0.000  0.000  0.000  0.000  0.000  0.000  0.151
tot    0.000  0.000  0.301  0.000  0.000  0.000  0.000  0.000  0.000  0.301
 
band     8 # energy    8.75297470 # occ.  0.00000000
 
ion      s     py     pz     px    dxy    dyz    dz2    dxz  x2-y2    tot
    1  0.359  0.000  0.000  0.000  0.000  0.000  0.000  0.000  0.000  0.359
    2  0.359  0.000  0.000  0.000  0.000  0.000  0.000  0.000  0.000  0.359
tot    0.717  0.000  0.000  0.000  0.000  0.000  0.000  0.000  0.000  0.717
 

 k-point     2 :    0.02631579 0.00000000 0.02631579     weight = 0.00833333

band     1 # energy   -6.18640959 # occ.  2.00000000
 
ion      s     py     pz     px    dxy    dyz    dz2    dxz  x2-y2    tot
    1  0.212  0.000  0.000  0.000  0.000  0.000  0.000  0.000  0.000  0.212
    2  0.212  0.000  0.000  0.000  0.000  0.000  0.000  0.000  0.000  0.212
tot    0.424  0.000  0.000  0.000  0.000  0.000  0.000  0.000  0.000  0.424
 
band     2 # energy    5.53207525 # occ.  2.00000000
 
ion      s     py     pz     px    dxy    dyz    dz2    dxz  x2-y2    tot
    1  0.011  0.069  0.103  0.034  0.000  0.000  0.000  0.000  0.000  0.217
    2  0.011  0.069  0.103  0.034  0.000  0.000  0.000  0.000  0.000  0.217
tot    0.021  0.138  0.206  0.069  0.000  0.000  0.000  0.000  0.000  0.434
 
band     3 # energy    5.56699444 # occ.  2.00000000
 
ion      s     py     pz     px    dxy    dyz    dz2    dxz  x2-y2    tot
    1  0.000  0.004  0.036  0.172  0.000  0.000  0.000  0.000  0.000  0.213
    2  0.000  0.004  0.036  0.172  0.000  0.000  0.000  0.000  0.000  0.213
tot    0.000  0.008  0.072  0.345  0.000  0.000  0.000  0.000  0.000  0.425
 
band     4 # energy    5.56699586 # occ.  2.00000000
 
ion      s     py     pz     px    dxy    dyz    dz2    dxz  x2-y2    tot
    1  0.000  0.138  0.070  0.005  0.000  0.000  0.000  0.000  0.000  0.213
    2  0.000  0.138  0.070  0.005  0.000  0.000  0.000  0.000  0.000  0.213
tot    0.000  0.275  0.140  0.009  0.000  0.000  0.000  0.000  0.000  0.425
 
band     5 # energy    8.14492351 # occ.  0.00000000
 
ion      s     py     pz     px    dxy    dyz    dz2    dxz  x2-y2    tot
    1  0.001  0.050  0.074  0.025  0.000  0.000  0.000  0.000  0.000  0.150
    2  0.001  0.050  0.074  0.025  0.000  0.000  0.000  0.000  0.000  0.150
tot    0.003  0.099  0.149  0.050  0.000  0.000  0.000  0.000  0.000  0.300
 
band     6 # energy    8.23942689 # occ.  0.00000000
 
ion      s     py     pz     px    dxy    dyz    dz2    dxz  x2-y2    tot
    1  0.000  0.101  0.040  0.010  0.000  0.000  0.000  0.000  0.000  0.152
    2  0.000  0.101  0.040  0.010  0.000  0.000  0.000  0.000  0.000  0.152
tot    0.000  0.202  0.081  0.021  0.000  0.000  0.000  0.000  0.000  0.304
 
band     7 # energy    8.23943111 # occ.  0.00000000
 
ion      s     py     pz     px    dxy    dyz    dz2    dxz  x2-y2    tot
    1  0.000  0.000  0.036  0.116  0.000  0.000  0.000  0.000  0.000  0.152
    2  0.000  0.000  0.036  0.116  0.000  0.000  0.000  0.000  0.000  0.152
tot    0.000  0.000  0.071  0.232  0.000  0.000  0.000  0.000  0.000  0.304
 
band     8 # energy    8.83639990 # occ.  0.00000000
 
ion      s     py     pz     px    dxy    dyz    dz2    dxz  x2-y2    tot
    1  0.348  0.003  0.004  0.001  0.000  0.000  0.000  0.000  0.000  0.356
    2  0.348  0.003  0.004  0.001  0.000  0.000  0.000  0.000  0.000  0.356
tot    0.695  0.005  0.008  0.003  0.000  0.000  0.000  0.000  0.000  0.711
 

 k-point     3 :    0.05263158 0.00000000 0.05263158     weight = 0.00833333

band     1 # energy   -6.15069069 # occ.  2.00000000
 
ion      s     py     pz     px    dxy    dyz    dz2    dxz  x2-y2    tot
    1  0.212  0.000  0.000  0.000  0.000  0.000  0.000  0.000  0.000  0.212
    2  0.212  0.000  0.000  0.000  0.000  0.000  0.000  0.000  0.000  0.212
tot    0.423  0.000  0.001  0.000  0.000  0.000  0.000  0.000  0.000  0.425
 
band     2 # energy    5.30039053 # occ.  2.00000000
 
ion      s     py     pz     px    dxy    dyz    dz2    dxz  x2-y2    tot
    1  0.035  0.063  0.095  0.032  0.000  0.000  0.000  0.000  0.000  0.225
    2  0.035  0.063  0.095  0.032  0.000  0.000  0.000  0.000  0.000  0.225
tot    0.070  0.126  0.190  0.063  0.000  0.000  0.000  0.000  0.000  0.449
 
band     3 # energy    5.42984473 # occ.  2.00000000
 
ion      s     py     pz     px    dxy    dyz    dz2    dxz  x2-y2    tot
    1  0.000  0.006  0.034  0.170  0.000  0.000  0.000  0.000  0.000  0.210
    2  0.000  0.006  0.034  0.170  0.000  0.000  0.000  0.000  0.000  0.210
tot    0.000  0.012  0.067  0.340  0.000  0.000  0.000  0.000  0.000  0.419
 
band     4 # energy    5.42984578 # occ.  2.00000000
 
ion      s     py     pz     px    dxy    dyz    dz2    dxz  x2-y2    tot
    1  0.000  0.134  0.071  0.005  0.000  0.000  0.000  0.000  0.000  0.210
    2  0.000  0.134  0.071  0.005  0.000  0.000  0.000  0.000  0.000  0.210
tot    0.000  0.267  0.142  0.010  0.000  0.000  0.000  0.000  0.000  0.419
 
band     5 # energy    8.06024753 # occ.  0.00000000
 
ion      s     py     pz     px    dxy    dyz    dz2    dxz  x2-y2    tot
    1  0.005  0.048  0.071  0.024  0.000  0.000  0.000  0.000  0.000  0.148
    2  0.005  0.048  0.071  0.024  0.000  0.000  0.000  0.000  0.000  0.148
tot    0.010  0.095  0.143  0.048  0.000  0.000  0.000  0.000  0.000  0.295
 
band     6 # energy    8.42056730 # occ.  0.00000000
 
ion      s     py     pz     px    dxy    dyz    dz2    dxz  x2-y2    tot
    1  0.000  0.103  0.041  0.011  0.000  0.000  0.000  0.000  0.000  0.155
    2  0.000  0.103  0.041  0.011  0.000  0.000  0.000  0.000  0.000  0.155
tot    0.000  0.206  0.083  0.021  0.000  0.000  0.000  0.000  0.000  0.310
 
band     7 # energy    8.42057111 # occ.  0.00000000
 
ion      s     py     pz     px    dxy    dyz    dz2    dxz  x2-y2    tot
    1  0.000  0.000  0.036  0.119  0.000  0.000  0.000  0.000  0.000  0.155
    2  0.000  0.000  0.036  0.119  0.000  0.000  0.000  0.000  0.000  0.155
tot    0.000  0.000  0.072  0.237  0.000  0.000  0.000  0.000  0.000  0.310
 
band     8 # energy    9.05899422 # occ.  0.00000000
 
ion      s     py     pz     px    dxy    dyz    dz2    dxz  x2-y2    tot
    1  0.322  0.009  0.013  0.004  0.000  0.000  0.000  0.000  0.000  0.348
    2  0.322  0.009  0.013  0.004  0.000  0.000  0.000  0.000  0.000  0.348
tot    0.644  0.018  0.027  0.009  0.000  0.000  0.000  0.000  0.000  0.697
 

 k-point     4 :    0.07894737 0.00000000 0.07894737     weight = 0.00833333

band     1 # energy   -6.09118261 # occ.  2.00000000
 
ion      s     py     pz     px    dxy    dyz    dz2    dxz  x2-y2    tot
    1  0.211  0.000  0.001  0.000  0.000  0.000  0.000  0.000  0.000  0.213
    2  0.211  0.000  0.001  0.000  0.000  0.000  0.000  0.000  0.000  0.213
tot    0.423  0.001  0.001  0.000  0.000  0.000  0.000  0.000  0.000  0.425
 
band     2 # energy    4.96998586 # occ.  2.00000000
 
ion      s     py     pz     px    dxy    dyz    dz2    dxz  x2-y2    tot
    1  0.062  0.057  0.085  0.028  0.000  0.000  0.000  0.000  0.000  0.233
    2  0.062  0.057  0.085  0.028  0.000  0.000  0.000  0.000  0.000  0.233
tot    0.123  0.114  0.171  0.057  0.000  0.000  0.000  0.000  0.000  0.465
 
band     3 # energy    5.23500649 # occ.  2.00000000
 
ion      s     py     pz     px    dxy    dyz    dz2    dxz  x2-y2    tot
    1  0.000  0.014  0.028  0.165  0.000  0.000  0.000  0.000  0.000  0.206
    2  0.000  0.014  0.028  0.165  0.000  0.000  0.000  0.000  0.000  0.206
tot    0.000  0.027  0.056  0.329  0.000  0.000  0.000  0.000  0.000  0.413
 
band     4 # energy    5.23500714 # occ.  2.00000000
 
ion      s     py     pz     px    dxy    dyz    dz2    dxz  x2-y2    tot
    1  0.000  0.124  0.075  0.007  0.000  0.000  0.000  0.000  0.000  0.206
    2  0.000  0.124  0.075  0.007  0.000  0.000  0.000  0.000  0.000  0.206
tot    0.000  0.248  0.150  0.014  0.000  0.000  0.000  0.000  0.000  0.413
 
band     5 # energy    7.93042802 # occ.  0.00000000
 
ion      s     py     pz     px    dxy    dyz    dz2    dxz  x2-y2    tot
    1  0.010  0.045  0.067  0.022  0.000  0.000  0.000  0.000  0.000  0.145
    2  0.010  0.045  0.067  0.022  0.000  0.000  0.000  0.000  0.000  0.145
tot    0.020  0.090  0.135  0.045  0.000  0.000  0.000  0.000  0.000  0.289
 
band     6 # energy    8.68850551 # occ.  0.00000000
 
ion      s     py     pz     px    dxy    dyz    dz2    dxz  x2-y2    tot
    1  0.000  0.105  0.042  0.011  0.000  0.000  0.000  0.000  0.000  0.158
    2  0.000  0.105  0.042  0.011  0.000  0.000  0.000  0.000  0.000  0.158
tot    0.000  0.210  0.085  0.021  0.000  0.000  0.000  0.000  0.000  0.316
 
band     7 # energy    8.68850882 # occ.  0.00000000
 
ion      s     py     pz     px    dxy    dyz    dz2    dxz  x2-y2    tot
    1  0.000  0.000  0.037  0.121  0.000  0.000  0.000  0.000  0.000  0.158
    2  0.000  0.000  0.037  0.121  0.000  0.000  0.000  0.000  0.000  0.158
tot    0.000  0.001  0.073  0.242  0.000  0.000  0.000  0.000  0.000  0.316
 
band     8 # energy    9.35950613 # occ.  0.00000000
 
ion      s     py     pz     px    dxy    dyz    dz2    dxz  x2-y2    tot
    1  0.291  0.016  0.024  0.008  0.000  0.000  0.000  0.000  0.000  0.339
    2  0.291  0.016  0.024  0.008  0.000  0.000  0.000  0.000  0.000  0.339
tot    0.583  0.032  0.048  0.016  0.000  0.000  0.000  0.000  0.000  0.679
 

 k-point     5 :    0.10526316 0.00000000 0.10526316     weight = 0.00833333

band     1 # energy   -6.00802884 # occ.  2.00000000
 
ion      s     py     pz     px    dxy    dyz    dz2    dxz  x2-y2    tot
    1  0.211  0.001  0.001  0.000  0.000  0.000  0.000  0.000  0.000  0.213
    2  0.211  0.001  0.001  0.000  0.000  0.000  0.000  0.000  0.000  0.213
tot    0.422  0.001  0.002  0.001  0.000  0.000  0.000  0.000  0.000  0.426
 
band     2 # energy    4.58065702 # occ.  2.00000000
 
ion      s     py     pz     px    dxy    dyz    dz2    dxz  x2-y2    tot
    1  0.085  0.051  0.077  0.026  0.000  0.000  0.000  0.000  0.000  0.239
    2  0.085  0.051  0.077  0.026  0.000  0.000  0.000  0.000  0.000  0.239
tot    0.170  0.103  0.154  0.051  0.000  0.000  0.000  0.000  0.000  0.479
 
band     3 # energy    5.00913574 # occ.  2.00000000
 
ion      s     py     pz     px    dxy    dyz    dz2    dxz  x2-y2    tot
    1  0.000  0.046  0.019  0.138  0.000  0.000  0.000  0.000  0.000  0.203
    2  0.000  0.046  0.019  0.138  0.000  0.000  0.000  0.000  0.000  0.203
tot    0.000  0.093  0.037  0.277  0.000  0.000  0.000  0.000  0.000  0.407
 
band     4 # energy    5.00913610 # occ.  2.00000000
 
ion      s     py     pz     px    dxy    dyz    dz2    dxz  x2-y2    tot
    1  0.000  0.089  0.083  0.031  0.000  0.000  0.000  0.000  0.000  0.203
    2  0.000  0.089  0.083  0.031  0.000  0.000  0.000  0.000  0.000  0.203
tot    0.000  0.179  0.166  0.062  0.000  0.000  0.000  0.000  0.000  0.407
 
band     5 # energy    7.76828017 # occ.  0.00000000
 
ion      s     py     pz     px    dxy    dyz    dz2    dxz  x2-y2    tot
    1  0.016  0.042  0.063  0.021  0.000  0.000  0.000  0.000  0.000  0.141
    2  0.016  0.042  0.063  0.021  0.000  0.000  0.000  0.000  0.000  0.141
tot    0.031  0.084  0.125  0.042  0.000  0.000  0.000  0.000  0.000  0.282
 
band     6 # energy    9.01618037 # occ.  0.00000000
 
ion      s     py     pz     px    dxy    dyz    dz2    dxz  x2-y2    tot
    1  0.000  0.107  0.043  0.011  0.000  0.000  0.000  0.000  0.000  0.161
    2  0.000  0.107  0.043  0.011  0.000  0.000  0.000  0.000  0.000  0.161
tot    0.000  0.213  0.086  0.022  0.000  0.000  0.000  0.000  0.000  0.322
 
band     7 # energy    9.01618321 # occ.  0.00000000
 
ion      s     py     pz     px    dxy    dyz    dz2    dxz  x2-y2    tot
    1  0.000  0.001  0.037  0.123  0.000  0.000  0.000  0.000  0.000  0.161
    2  0.000  0.001  0.037  0.123  0.000  0.000  0.000  0.000  0.000  0.161
tot    0.000  0.002  0.075  0.246  0.000  0.000  0.000  0.000  0.000  0.322
 
band     8 # energy    9.66467928 # occ.  0.00000000
 
ion      s     py     pz     px    dxy    dyz    dz2    dxz  x2-y2    tot
    1  0.257  0.022  0.034  0.011  0.000  0.000  0.000  0.000  0.000  0.324
    2  0.257  0.022  0.034  0.011  0.000  0.000  0.000  0.000  0.000  0.324
tot    0.514  0.045  0.067  0.022  0.000  0.000  0.000  0.000  0.000  0.648
 

 k-point     6 :    0.13157895 0.00000000 0.13157895     weight = 0.00833333

band     1 # energy   -5.90134362 # occ.  2.00000000
 
ion      s     py     pz     px    dxy    dyz    dz2    dxz  x2-y2    tot
    1  0.211  0.001  0.002  0.001  0.000  0.000  0.000  0.000  0.000  0.214
    2  0.211  0.001  0.002  0.001  0.000  0.000  0.000  0.000  0.000  0.214
tot    0.421  0.002  0.003  0.001  0.000  0.000  0.000  0.000  0.000  0.427
 
band     2 # energy    4.15726598 # occ.  2.00000000
 
ion      s     py     pz     px    dxy    dyz    dz2    dxz  x2-y2    tot
    1  0.104  0.047  0.070  0.023  0.000  0.000  0.000  0.000  0.000  0.245
    2  0.104  0.047  0.070  0.023  0.000  0.000  0.000  0.000  0.000  0.245
tot    0.209  0.093  0.140  0.047  0.000  0.000  0.000  0.000  0.000  0.489
 
band     3 # energy    4.77065411 # occ.  2.00000000
 
ion      s     py     pz     px    dxy    dyz    dz2    dxz  x2-y2    tot
    1  0.000  0.108  0.027  0.066  0.000  0.000  0.000  0.000  0.000  0.201
    2  0.000  0.108  0.027  0.066  0.000  0.000  0.000  0.000  0.000  0.201
tot    0.000  0.216  0.055  0.131  0.000  0.000  0.000  0.000  0.000  0.402
 
band     4 # energy    4.77065449 # occ.  2.00000000
 
ion      s     py     pz     px    dxy    dyz    dz2    dxz  x2-y2    tot
    1  0.000  0.026  0.073  0.102  0.000  0.000  0.000  0.000  0.000  0.201
    2  0.000  0.026  0.073  0.102  0.000  0.000  0.000  0.000  0.000  0.201
tot    0.000  0.052  0.146  0.204  0.000  0.000  0.000  0.000  0.000  0.402
 
band     5 # energy    7.58647080 # occ.  0.00000000
 
ion      s     py     pz     px    dxy    dyz    dz2    dxz  x2-y2    tot
    1  0.021  0.038  0.058  0.019  0.000  0.000  0.000  0.000  0.000  0.137
    2  0.021  0.038  0.058  0.019  0.000  0.000  0.000  0.000  0.000  0.137
tot    0.043  0.077  0.115  0.038  0.000  0.000  0.000  0.000  0.000  0.274
 
band     6 # energy    9.38470976 # occ.  0.00000000
 
ion      s     py     pz     px    dxy    dyz    dz2    dxz  x2-y2    tot
    1  0.000  0.107  0.044  0.012  0.000  0.000  0.000  0.000  0.000  0.163
    2  0.000  0.107  0.044  0.012  0.000  0.000  0.000  0.000  0.000  0.163
tot    0.000  0.215  0.087  0.024  0.000  0.000  0.000  0.000  0.000  0.327
 
band     7 # energy    9.38471217 # occ.  0.00000000
 
ion      s     py     pz     px    dxy    dyz    dz2    dxz  x2-y2    tot
    1  0.000  0.002  0.038  0.124  0.000  0.000  0.000  0.000  0.000  0.163
    2  0.000  0.002  0.038  0.124  0.000  0.000  0.000  0.000  0.000  0.163
tot    0.000  0.003  0.076  0.248  0.000  0.000  0.000  0.000  0.000  0.327
 
band     8 # energy    9.87650394 # occ.  0.00000000
 
ion      s     py     pz     px    dxy    dyz    dz2    dxz  x2-y2    tot
    1  0.209  0.026  0.039  0.013  0.000  0.000  0.000  0.000  0.000  0.288
    2  0.209  0.026  0.039  0.013  0.000  0.000  0.000  0.000  0.000  0.288
tot    0.418  0.052  0.079  0.026  0.000  0.000  0.000  0.000  0.000  0.576
 

 k-point     7 :    0.15789474 0.00000000 0.15789474     weight = 0.00833333

band     1 # energy   -5.77128897 # occ.  2.00000000
 
ion      s     py     pz     px    dxy    dyz    dz2    dxz  x2-y2    tot
    1  0.210  0.002  0.002  0.001  0.000  0.000  0.000  0.000  0.000  0.214
    2  0.210  0.002  0.002  0.001  0.000  0.000  0.000  0.000  0.000  0.214
tot    0.420  0.003  0.005  0.002  0.000  0.000  0.000  0.000  0.000  0.429
 
band     2 # energy    3.71404795 # occ.  2.00000000
 
ion      s     py     pz     px    dxy    dyz    dz2    dxz  x2-y2    tot
    1  0.120  0.043  0.064  0.021  0.000  0.000  0.000  0.000  0.000  0.248
    2  0.120  0.043  0.064  0.021  0.000  0.000  0.000  0.000  0.000  0.248
tot    0.240  0.085  0.128  0.043  0.000  0.000  0.000  0.000  0.000  0.497
 
band     3 # energy    4.53114920 # occ.  2.00000000
 
ion      s     py     pz     px    dxy    dyz    dz2    dxz  x2-y2    tot
    1  0.000  0.126  0.039  0.035  0.000  0.000  0.000  0.000  0.000  0.199
    2  0.000  0.126  0.039  0.035  0.000  0.000  0.000  0.000  0.000  0.199
tot    0.000  0.252  0.077  0.070  0.000  0.000  0.000  0.000  0.000  0.399
 
band     4 # energy    4.53114978 # occ.  2.00000000
 
ion      s     py     pz     px    dxy    dyz    dz2    dxz  x2-y2    tot
    1  0.000  0.007  0.061  0.131  0.000  0.000  0.000  0.000  0.000  0.199
    2  0.000  0.007  0.061  0.131  0.000  0.000  0.000  0.000  0.000  0.199
tot    0.000  0.014  0.122  0.262  0.000  0.000  0.000  0.000  0.000  0.399
 
band     5 # energy    7.39589466 # occ.  0.00000000
 
ion      s     py     pz     px    dxy    dyz    dz2    dxz  x2-y2    tot
    1  0.027  0.035  0.053  0.018  0.000  0.000  0.000  0.000  0.000  0.133
    2  0.027  0.035  0.053  0.018  0.000  0.000  0.000  0.000  0.000  0.133
tot    0.054  0.071  0.106  0.035  0.000  0.000  0.000  0.000  0.000  0.266
 
band     6 # energy    9.78195030 # occ.  0.00000000
 
ion      s     py     pz     px    dxy    dyz    dz2    dxz  x2-y2    tot
    1  0.000  0.107  0.044  0.014  0.000  0.000  0.000  0.000  0.000  0.165
    2  0.000  0.107  0.044  0.014  0.000  0.000  0.000  0.000  0.000  0.165
tot    0.000  0.214  0.087  0.028  0.000  0.000  0.000  0.000  0.000  0.330
 
band     7 # energy    9.78195234 # occ.  0.00000000
 
ion      s     py     pz     px    dxy    dyz    dz2    dxz  x2-y2    tot
    1  0.000  0.003  0.039  0.123  0.000  0.000  0.000  0.000  0.000  0.165
    2  0.000  0.003  0.039  0.123  0.000  0.000  0.000  0.000  0.000  0.165
tot    0.000  0.006  0.077  0.247  0.000  0.000  0.000  0.000  0.000  0.330
 
band     8 # energy    9.88084806 # occ.  0.00000000
 
ion      s     py     pz     px    dxy    dyz    dz2    dxz  x2-y2    tot
    1  0.147  0.025  0.037  0.012  0.000  0.000  0.000  0.000  0.000  0.221
    2  0.147  0.025  0.037  0.012  0.000  0.000  0.000  0.000  0.000  0.221
tot    0.293  0.050  0.075  0.025  0.000  0.000  0.000  0.000  0.000  0.443
 

 k-point     8 :    0.18421053 0.00000000 0.18421053     weight = 0.00833333

band     1 # energy   -5.61808180 # occ.  2.00000000
 
ion      s     py     pz     px    dxy    dyz    dz2    dxz  x2-y2    tot
    1  0.209  0.002  0.003  0.001  0.000  0.000  0.000  0.000  0.000  0.215
    2  0.209  0.002  0.003  0.001  0.000  0.000  0.000  0.000  0.000  0.215
tot    0.418  0.004  0.006  0.002  0.000  0.000  0.000  0.000  0.000  0.431
 
band     2 # energy    3.25921587 # occ.  2.00000000
 
ion      s     py     pz     px    dxy    dyz    dz2    dxz  x2-y2    tot
    1  0.133  0.039  0.059  0.020  0.000  0.000  0.000  0.000  0.000  0.251
    2  0.133  0.039  0.059  0.020  0.000  0.000  0.000  0.000  0.000  0.251
tot    0.266  0.078  0.118  0.039  0.000  0.000  0.000  0.000  0.000  0.502
 
band     3 # energy    4.29785818 # occ.  2.00000000
 
ion      s     py     pz     px    dxy    dyz    dz2    dxz  x2-y2    tot
    1  0.000  0.129  0.043  0.026  0.000  0.000  0.000  0.000  0.000  0.198
    2  0.000  0.129  0.043  0.026  0.000  0.000  0.000  0.000  0.000  0.198
tot    0.000  0.259  0.087  0.051  0.000  0.000  0.000  0.000  0.000  0.396
 
band     4 # energy    4.29785896 # occ.  2.00000000
 
ion      s     py     pz     px    dxy    dyz    dz2    dxz  x2-y2    tot
    1  0.000  0.003  0.056  0.140  0.000  0.000  0.000  0.000  0.000  0.198
    2  0.000  0.003  0.056  0.140  0.000  0.000  0.000  0.000  0.000  0.198
tot    0.000  0.006  0.112  0.279  0.000  0.000  0.000  0.000  0.000  0.396
 
band     5 # energy    7.20527902 # occ.  0.00000000
 
ion      s     py     pz     px    dxy    dyz    dz2    dxz  x2-y2    tot
    1  0.032  0.032  0.048  0.016  0.000  0.000  0.000  0.000  0.000  0.129
    2  0.032  0.032  0.048  0.016  0.000  0.000  0.000  0.000  0.000  0.129
tot    0.064  0.065  0.097  0.032  0.000  0.000  0.000  0.000  0.000  0.258
 
band     6 # energy    9.66537643 # occ.  0.00000000
 
ion      s     py     pz     px    dxy    dyz    dz2    dxz  x2-y2    tot
    1  0.097  0.021  0.031  0.010  0.000  0.000  0.000  0.000  0.000  0.158
    2  0.097  0.021  0.031  0.010  0.000  0.000  0.000  0.000  0.000  0.158
tot    0.193  0.041  0.062  0.021  0.000  0.000  0.000  0.000  0.000  0.317
 
band     7 # energy   10.20018999 # occ.  0.00000000
 
ion      s     py     pz     px    dxy    dyz    dz2    dxz  x2-y2    tot
    1  0.000  0.105  0.043  0.017  0.000  0.000  0.000  0.000  0.000  0.166
    2  0.000  0.105  0.043  0.017  0.000  0.000  0.000  0.000  0.000  0.166
tot    0.000  0.210  0.087  0.035  0.000  0.000  0.000  0.000  0.000  0.332
 
band     8 # energy   10.20019172 # occ.  0.00000000
 
ion      s     py     pz     px    dxy    dyz    dz2    dxz  x2-y2    tot
    1  0.000  0.005  0.040  0.121  0.000  0.000  0.000  0.000  0.000  0.166
    2  0.000  0.005  0.040  0.121  0.000  0.000  0.000  0.000  0.000  0.166
tot    0.000  0.011  0.079  0.242  0.000  0.000  0.000  0.000  0.000  0.332
 

 k-point     9 :    0.21052632 0.00000000 0.21052632     weight = 0.00833333

band     1 # energy   -5.44200398 # occ.  2.00000000
 
ion      s     py     pz     px    dxy    dyz    dz2    dxz  x2-y2    tot
    1  0.208  0.003  0.004  0.001  0.000  0.000  0.000  0.000  0.000  0.216
    2  0.208  0.003  0.004  0.001  0.000  0.000  0.000  0.000  0.000  0.216
tot    0.417  0.005  0.008  0.003  0.000  0.000  0.000  0.000  0.000  0.433
 
band     2 # energy    2.79762684 # occ.  2.00000000
 
ion      s     py     pz     px    dxy    dyz    dz2    dxz  x2-y2    tot
    1  0.144  0.036  0.054  0.018  0.000  0.000  0.000  0.000  0.000  0.253
    2  0.144  0.036  0.054  0.018  0.000  0.000  0.000  0.000  0.000  0.253
tot    0.288  0.072  0.109  0.036  0.000  0.000  0.000  0.000  0.000  0.505
 
band     3 # energy    4.07540466 # occ.  2.00000000
 
ion      s     py     pz     px    dxy    dyz    dz2    dxz  x2-y2    tot
    1  0.000  0.130  0.045  0.022  0.000  0.000  0.000  0.000  0.000  0.197
    2  0.000  0.130  0.045  0.022  0.000  0.000  0.000  0.000  0.000  0.197
tot    0.000  0.260  0.091  0.043  0.000  0.000  0.000  0.000  0.000  0.394
 
band     4 # energy    4.07540562 # occ.  2.00000000
 
ion      s     py     pz     px    dxy    dyz    dz2    dxz  x2-y2    tot
    1  0.000  0.001  0.053  0.143  0.000  0.000  0.000  0.000  0.000  0.197
    2  0.000  0.001  0.053  0.143  0.000  0.000  0.000  0.000  0.000  0.197
tot    0.000  0.003  0.106  0.285  0.000  0.000  0.000  0.000  0.000  0.394
 
band     5 # energy    7.02135333 # occ.  0.00000000
 
ion      s     py     pz     px    dxy    dyz    dz2    dxz  x2-y2    tot
    1  0.036  0.030  0.044  0.015  0.000  0.000  0.000  0.000  0.000  0.125
    2  0.036  0.030  0.044  0.015  0.000  0.000  0.000  0.000  0.000  0.125
tot    0.073  0.059  0.089  0.030  0.000  0.000  0.000  0.000  0.000  0.250
 
band     6 # energy    9.32730627 # occ.  0.00000000
 
ion      s     py     pz     px    dxy    dyz    dz2    dxz  x2-y2    tot
    1  0.069  0.017  0.025  0.008  0.000  0.000  0.000  0.000  0.000  0.120
    2  0.069  0.017  0.025  0.008  0.000  0.000  0.000  0.000  0.000  0.120
tot    0.139  0.034  0.051  0.017  0.000  0.000  0.000  0.000  0.000  0.240
 
band     7 # energy   10.63423607 # occ.  0.00000000
 
ion      s     py     pz     px    dxy    dyz    dz2    dxz  x2-y2    tot
    1  0.000  0.101  0.042  0.023  0.000  0.000  0.000  0.000  0.000  0.167
    2  0.000  0.101  0.042  0.023  0.000  0.000  0.000  0.000  0.000  0.167
tot    0.000  0.202  0.084  0.047  0.000  0.000  0.000  0.000  0.000  0.333
 
band     8 # energy   10.63423754 # occ.  0.00000000
 
ion      s     py     pz     px    dxy    dyz    dz2    dxz  x2-y2    tot
    1  0.000  0.010  0.041  0.115  0.000  0.000  0.000  0.000  0.000  0.167
    2  0.000  0.010  0.041  0.115  0.000  0.000  0.000  0.000  0.000  0.167
tot    0.000  0.020  0.082  0.231  0.000  0.000  0.000  0.000  0.000  0.333
 

 k-point    10 :    0.23684211 0.00000000 0.23684211     weight = 0.00833333

band     1 # energy   -5.24332271 # occ.  2.00000000
 
ion      s     py     pz     px    dxy    dyz    dz2    dxz  x2-y2    tot
    1  0.207  0.003  0.005  0.002  0.000  0.000  0.000  0.000  0.000  0.218
    2  0.207  0.003  0.005  0.002  0.000  0.000  0.000  0.000  0.000  0.218
tot    0.415  0.007  0.010  0.003  0.000  0.000  0.000  0.000  0.000  0.435
 
band     2 # energy    2.33238196 # occ.  2.00000000
 
ion      s     py     pz     px    dxy    dyz    dz2    dxz  x2-y2    tot
    1  0.153  0.034  0.050  0.017  0.000  0.000  0.000  0.000  0.000  0.254
    2  0.153  0.034  0.050  0.017  0.000  0.000  0.000  0.000  0.000  0.254
tot    0.306  0.067  0.101  0.034  0.000  0.000  0.000  0.000  0.000  0.507
 
band     3 # energy    3.86689514 # occ.  2.00000000
 
ion      s     py     pz     px    dxy    dyz    dz2    dxz  x2-y2    tot
    1  0.000  0.130  0.047  0.020  0.000  0.000  0.000  0.000  0.000  0.197
    2  0.000  0.130  0.047  0.020  0.000  0.000  0.000  0.000  0.000  0.197
tot    0.000  0.260  0.093  0.039  0.000  0.000  0.000  0.000  0.000  0.393
 
band     4 # energy    3.86689626 # occ.  2.00000000
 
ion      s     py     pz     px    dxy    dyz    dz2    dxz  x2-y2    tot
    1  0.000  0.001  0.052  0.144  0.000  0.000  0.000  0.000  0.000  0.197
    2  0.000  0.001  0.052  0.144  0.000  0.000  0.000  0.000  0.000  0.197
tot    0.000  0.002  0.103  0.288  0.000  0.000  0.000  0.000  0.000  0.393
 
band     5 # energy    6.84931456 # occ.  0.00000000
 
ion      s     py     pz     px    dxy    dyz    dz2    dxz  x2-y2    tot
    1  0.040  0.027  0.040  0.013  0.000  0.000  0.000  0.000  0.000  0.121
    2  0.040  0.027  0.040  0.013  0.000  0.000  0.000  0.000  0.000  0.121
tot    0.081  0.054  0.081  0.027  0.000  0.000  0.000  0.000  0.000  0.243
 
band     6 # energy    8.94656118 # occ.  0.00000000
 
ion      s     py     pz     px    dxy    dyz    dz2    dxz  x2-y2    tot
    1  0.056  0.015  0.022  0.007  0.000  0.000  0.000  0.000  0.000  0.099
    2  0.056  0.015  0.022  0.007  0.000  0.000  0.000  0.000  0.000  0.099
tot    0.111  0.029  0.044  0.015  0.000  0.000  0.000  0.000  0.000  0.198
 
band     7 # energy   11.08066868 # occ.  0.00000000
 
ion      s     py     pz     px    dxy    dyz    dz2    dxz  x2-y2    tot
    1  0.000  0.093  0.040  0.033  0.000  0.000  0.000  0.000  0.000  0.167
    2  0.000  0.093  0.040  0.033  0.000  0.000  0.000  0.000  0.000  0.167
tot    0.000  0.187  0.081  0.066  0.000  0.000  0.000  0.000  0.000  0.334
 
band     8 # energy   11.08066996 # occ.  0.00000000
 
ion      s     py     pz     px    dxy    dyz    dz2    dxz  x2-y2    tot
    1  0.000  0.018  0.043  0.106  0.000  0.000  0.000  0.000  0.000  0.167
    2  0.000  0.018  0.043  0.106  0.000  0.000  0.000  0.000  0.000  0.167
tot    0.000  0.035  0.086  0.212  0.000  0.000  0.000  0.000  0.000  0.334
 

 k-point    11 :    0.26315789 0.00000000 0.26315789     weight = 0.00833333

band     1 # energy   -5.02242672 # occ.  2.00000000
 
ion      s     py     pz     px    dxy    dyz    dz2    dxz  x2-y2    tot
    1  0.206  0.004  0.006  0.002  0.000  0.000  0.000  0.000  0.000  0.219
    2  0.206  0.004  0.006  0.002  0.000  0.000  0.000  0.000  0.000  0.219