 running on    4 total cores
 distrk:  each k-point on    4 cores,    1 groups
 distr:  one band on    1 cores,    4 groups
 vasp.6.2.0 18Jan21 (build Aug 12 2022 13:00:08) complex                        
  
 POSCAR found type information on POSCAR Si
 POSCAR found :  1 types and       2 ions
 scaLAPACK will be used
 LDA part: xc-table for Pade appr. of Perdew
 found WAVECAR, reading the header
  number of k-points has changed, file:   286 present:   120
  trying to continue reading WAVECAR, but it might fail
 WARNING: stress and forces are not correct
 POSCAR, INCAR and KPOINTS ok, starting setup
 FFT: planning ...
 reading WAVECAR
 the WAVECAR file was read successfully
 charge-density read from file: unknown                                 
 entering main loop
       N       E                     dE             d eps       ncg     rms          rms(c)
DAV:   1    -0.881123131885E+01   -0.88112E+01   -0.53278E+02  2760   0.730E+01
DAV:   2    -0.924398444638E+01   -0.43275E+00   -0.43275E+00  2496   0.156E+01
DAV:   3    -0.924707147845E+01   -0.30870E-02   -0.30870E-02  3160   0.119E+00
DAV:   4    -0.924707497383E+01   -0.34954E-05   -0.34954E-05  2744   0.311E-02
DAV:   5    -0.924707499298E+01   -0.19150E-07   -0.19150E-07  3048   0.182E-03
DAV:   6    -0.924707499321E+01   -0.23488E-09   -0.23483E-09  2528   0.113E-04
   1 F= -.92470750E+01 E0= -.92470750E+01  d E =-.226674E-14
 writing wavefunctions
