   1   1   0   0
  0.1583987E+02  0.2818959E-09  0.2818959E-09  0.2818960E-09  0.5000000E-15
  1.000000000000000E-004
  CAR 
 unknown system                          
     35.58934956     -6.54070504  301      9.01183813      1.00000000
     -6.541  0.0000E+00  0.0000E+00
     -6.400  0.0000E+00  0.0000E+00
     -6.260  0.0000E+00  0.0000E+00
     -6.119  0.0000E+00  0.0000E+00
     -5.979  0.0000E+00  0.0000E+00
     -5.839  0.0000E+00  0.0000E+00
     -5.698  0.0000E+00  0.0000E+00
     -5.558  0.0000E+00  0.0000E+00
     -5.417  0.0000E+00  0.0000E+00
     -5.277  0.0000E+00  0.0000E+00
     -5.136  0.0000E+00  0.0000E+00
     -4.996  0.0000E+00  0.0000E+00
     -4.856  0.1698E-14  0.2384E-15
     -4.715  0.2423E-06  0.3402E-07
     -4.575  0.4681E-04  0.6608E-05
     -4.434  0.5265E-03  0.8054E-04
     -4.294  0.3579E-03  0.1308E-03
     -4.153  0.1113E-02  0.2871E-03
     -4.013  0.4861E-03  0.3554E-03
     -3.872  0.6043E-03  0.4402E-03
     -3.732  0.1640E-02  0.6705E-03
     -3.592  0.1040E-02  0.8165E-03
     -3.451  0.1304E-02  0.9997E-03
     -3.311  0.3895E-03  0.1054E-02
     -3.170  0.2568E-02  0.1415E-02
     -3.030  0.1147E-02  0.1576E-02
     -2.889  0.1374E-02  0.1769E-02
     -2.749  0.1384E-02  0.1964E-02
     -2.609  0.5973E-03  0.2047E-02
     -2.468  0.2722E-02  0.2430E-02
     -2.328  0.1865E-02  0.2692E-02
     -2.187  0.3117E-02  0.3129E-02
     -2.047  0.2504E-03  0.3164E-02
     -1.906  0.1510E-02  0.3376E-02
     -1.766  0.1875E-02  0.3640E-02
     -1.626  0.2153E-02  0.3942E-02
     -1.485  0.2531E-02  0.4297E-02
     -1.345  0.1182E-02  0.4464E-02
     -1.204  0.4680E-02  0.5121E-02
     -1.064  0.1052E-02  0.5268E-02
     -0.923  0.2008E-02  0.5550E-02
     -0.783  0.6342E-03  0.5639E-02
     -0.642  0.2894E-02  0.6046E-02
     -0.502  0.2295E-02  0.6368E-02
     -0.362  0.3612E-02  0.6875E-02
     -0.221  0.3471E-02  0.7363E-02
     -0.081  0.1692E-03  0.7387E-02
      0.060  0.4644E-02  0.8039E-02
      0.200  0.1823E-02  0.8295E-02
      0.341  0.2341E-02  0.8624E-02
      0.481  0.3861E-03  0.8678E-02
      0.621  0.4329E-02  0.9286E-02
      0.762  0.3637E-02  0.9796E-02
      0.902  0.2804E-02  0.1019E-01
      1.043  0.3817E-02  0.1073E-01
      1.183  0.1528E-02  0.1094E-01
      1.324  0.2864E-02  0.1134E-01
      1.464  0.3782E-02  0.1187E-01
      1.604  0.3400E-02  0.1235E-01
      1.745  0.1470E-02  0.1256E-01
      1.885  0.2613E-02  0.1292E-01
      2.026  0.3942E-02  0.1348E-01
      2.166  0.4535E-02  0.1412E-01
      2.307  0.2773E-02  0.1450E-01
      2.447  0.3772E-02  0.1503E-01
      2.587  0.3232E-02  0.1549E-01
      2.728  0.1999E-02  0.1577E-01
      2.868  0.1964E-02  0.1604E-01
      3.009  0.2034E-02  0.1633E-01
      3.149  0.2875E-02  0.1673E-01
      3.290  0.2604E-02  0.1710E-01
      3.430  0.6128E-02  0.1796E-01
      3.571  0.5364E-02  0.1871E-01
      3.711  0.1477E-02  0.1892E-01
      3.851  0.1396E-02  0.1912E-01
      3.992  0.4358E-02  0.1973E-01
      4.132  0.4188E-02  0.2032E-01
      4.273  0.2664E-02  0.2069E-01
      4.413  0.2415E-02  0.2103E-01
      4.554  0.7407E-02  0.2207E-01
      4.694  0.2877E-02  0.2247E-01
      4.834  0.2406E-02  0.2281E-01
      4.975  0.1080E-02  0.2296E-01
      5.115  0.4304E-02  0.2357E-01
      5.256  0.3637E-02  0.2408E-01
      5.396  0.7625E-02  0.2515E-01
      5.537  0.3687E-02  0.2567E-01
      5.677  0.2048E-02  0.2596E-01
      5.817  0.4155E-02  0.2654E-01
      5.958  0.3560E-02  0.2704E-01
      6.098  0.6559E-02  0.2796E-01
      6.239  0.2030E-02  0.2825E-01
      6.379  0.5432E-02  0.2901E-01
      6.520  0.1833E-02  0.2927E-01
      6.660  0.3512E-02  0.2976E-01
      6.800  0.1578E-02  0.2998E-01
      6.941  0.3878E-02  0.3053E-01
      7.081  0.6319E-02  0.3141E-01
      7.222  0.8852E-02  0.3266E-01
      7.362  0.3420E-02  0.3314E-01
      7.503  0.1121E-02  0.3329E-01
      7.643  0.6071E-02  0.3415E-01
      7.784  0.3134E-02  0.3459E-01
      7.924  0.4227E-02  0.3518E-01
      8.064  0.2805E-02  0.3557E-01
      8.205  0.7146E-02  0.3658E-01
      8.345  0.2140E-02  0.3688E-01
      8.486  0.6270E-02  0.3776E-01
      8.626  0.1810E-02  0.3801E-01
      8.767  0.5166E-02  0.3874E-01
      8.907  0.3095E-02  0.3917E-01
      9.047  0.7285E-02  0.4020E-01
      9.188  0.4805E-02  0.4087E-01
      9.328  0.2473E-02  0.4122E-01
      9.469  0.6101E-02  0.4207E-01
      9.609  0.6587E-02  0.4300E-01
      9.750  0.5285E-02  0.4374E-01
      9.890  0.2972E-02  0.4416E-01
     10.030  0.5790E-02  0.4497E-01
     10.171  0.5850E-02  0.4579E-01
     10.311  0.1454E-02  0.4600E-01
     10.452  0.1279E-02  0.4618E-01
     10.592  0.5855E-02  0.4700E-01
     10.733  0.7072E-02  0.4799E-01
     10.873  0.8410E-02  0.4917E-01
     11.013  0.6769E-02  0.5012E-01
     11.154  0.3929E-02  0.5068E-01
     11.294  0.2870E-02  0.5108E-01
     11.435  0.6048E-02  0.5193E-01
     11.575  0.4120E-02  0.5251E-01
     11.716  0.7624E-02  0.5358E-01
     11.856  0.6650E-02  0.5451E-01
     11.997  0.3251E-02  0.5497E-01
     12.137  0.7958E-02  0.5609E-01
     12.277  0.4914E-02  0.5678E-01
     12.418  0.2583E-02  0.5714E-01
     12.558  0.9091E-02  0.5842E-01
     12.699  0.7540E-02  0.5947E-01
     12.839  0.3564E-02  0.5997E-01
     12.980  0.6805E-02  0.6093E-01
     13.120  0.6457E-02  0.6184E-01
     13.260  0.5446E-02  0.6260E-01
     13.401  0.2718E-02  0.6298E-01
     13.541  0.5221E-02  0.6372E-01
     13.682  0.4686E-02  0.6437E-01
     13.822  0.2028E-02  0.6466E-01
     13.963  0.6868E-02  0.6562E-01
     14.103  0.7840E-02  0.6673E-01
     14.243  0.7048E-02  0.6771E-01
     14.384  0.3979E-02  0.6827E-01
     14.524  0.4331E-02  0.6888E-01
     14.665  0.2401E-02  0.6922E-01
     14.805  0.6152E-02  0.7008E-01
     14.946  0.4661E-02  0.7074E-01
     15.086  0.2754E-02  0.7112E-01
     15.226  0.6908E-02  0.7209E-01
     15.367  0.5862E-02  0.7292E-01
     15.507  0.3813E-02  0.7345E-01
     15.648  0.3436E-02  0.7394E-01
     15.788  0.8999E-02  0.7520E-01
     15.929  0.4741E-02  0.7587E-01
     16.069  0.4591E-02  0.7651E-01
     16.210  0.3027E-02  0.7693E-01
     16.350  0.6469E-02  0.7784E-01
     16.490  0.7095E-02  0.7884E-01
     16.631  0.5840E-02  0.7966E-01
     16.771  0.6175E-02  0.8053E-01
     16.912  0.7901E-02  0.8164E-01
     17.052  0.3429E-02  0.8212E-01
     17.193  0.4636E-02  0.8277E-01
     17.333  0.7084E-02  0.8376E-01
     17.473  0.5569E-02  0.8455E-01
     17.614  0.4338E-02  0.8516E-01
     17.754  0.4150E-02  0.8574E-01
     17.895  0.4251E-02  0.8634E-01
     18.035  0.5029E-02  0.8704E-01
     18.176  0.3404E-02  0.8752E-01
     18.316  0.4612E-02  0.8817E-01
     18.456  0.9552E-02  0.8951E-01
     18.597  0.1031E-01  0.9096E-01
     18.737  0.4211E-02  0.9155E-01
     18.878  0.5730E-02  0.9235E-01
     19.018  0.6367E-02  0.9325E-01
     19.159  0.3388E-02  0.9372E-01
     19.299  0.5493E-02  0.9449E-01
     19.439  0.7996E-02  0.9562E-01
     19.580  0.7510E-02  0.9667E-01
     19.720  0.4065E-02  0.9724E-01
     19.861  0.5736E-02  0.9805E-01
     20.001  0.7566E-02  0.9911E-01
     20.142  0.6097E-02  0.9997E-01
     20.282  0.5926E-02  0.1008E+00
     20.423  0.2295E-02  0.1011E+00
     20.563  0.5882E-02  0.1019E+00
     20.703  0.6823E-02  0.1029E+00
     20.844  0.5997E-02  0.1037E+00
     20.984  0.5995E-02  0.1046E+00
     21.125  0.5784E-02  0.1054E+00
     21.265  0.4027E-02  0.1060E+00
     21.406  0.1306E-01  0.1078E+00
     21.546  0.1075E-01  0.1093E+00
     21.686  0.6191E-02  0.1102E+00
     21.827  0.7767E-02  0.1113E+00
     21.967  0.6812E-02  0.1122E+00
     22.108  0.8128E-02  0.1134E+00
     22.248  0.5080E-02  0.1141E+00
     22.389  0.3583E-02  0.1146E+00
     22.529  0.6022E-02  0.1154E+00
     22.669  0.7498E-02  0.1165E+00
     22.810  0.5008E-02  0.1172E+00
     22.950  0.3216E-02  0.1176E+00
     23.091  0.4147E-02  0.1182E+00
     23.231  0.1600E-01  0.1205E+00
     23.372  0.1033E-01  0.1219E+00
     23.512  0.7758E-02  0.1230E+00
     23.653  0.8256E-02  0.1242E+00
     23.793  0.4090E-02  0.1247E+00
     23.933  0.5282E-02  0.1255E+00
     24.074  0.6000E-02  0.1263E+00
     24.214  0.5717E-02  0.1271E+00
     24.355  0.4668E-02  0.1278E+00
     24.495  0.1242E-01  0.1295E+00
     24.636  0.4025E-02  0.1301E+00
     24.776  0.3275E-02  0.1306E+00
     24.916  0.4778E-02  0.1312E+00
     25.057  0.7553E-02  0.1323E+00
     25.197  0.9249E-02  0.1336E+00
     25.338  0.6972E-02  0.1346E+00
     25.478  0.9534E-02  0.1359E+00
     25.619  0.4476E-02  0.1365E+00
     25.759  0.1155E-02  0.1367E+00
     25.899  0.7263E-02  0.1377E+00
     26.040  0.1167E-01  0.1394E+00
     26.180  0.4722E-02  0.1400E+00
     26.321  0.3389E-02  0.1405E+00
     26.461  0.2493E-02  0.1408E+00
     26.602  0.5902E-02  0.1417E+00
     26.742  0.6946E-02  0.1426E+00
     26.882  0.4461E-02  0.1433E+00
     27.023  0.3026E-02  0.1437E+00
     27.163  0.3151E-02  0.1441E+00
     27.304  0.8486E-02  0.1453E+00
     27.444  0.1020E-01  0.1468E+00
     27.585  0.6096E-02  0.1476E+00
     27.725  0.7709E-02  0.1487E+00
     27.866  0.4648E-02  0.1494E+00
     28.006  0.3196E-02  0.1498E+00
     28.146  0.3646E-02  0.1503E+00
     28.287  0.4029E-02  0.1509E+00
     28.427  0.8425E-02  0.1521E+00
     28.568  0.1760E-02  0.1523E+00
     28.708  0.3301E-02  0.1528E+00
     28.849  0.6060E-02  0.1536E+00
     28.989  0.2707E-02  0.1540E+00
     29.129  0.4677E-02  0.1547E+00
     29.270  0.8276E-04  0.1547E+00
     29.410  0.2012E-02  0.1550E+00
     29.551  0.4136E-02  0.1555E+00
     29.691  0.1335E-02  0.1557E+00
     29.832  0.9413E-03  0.1559E+00
     29.972  0.1869E-02  0.1561E+00
     30.112  0.1545E-02  0.1563E+00
     30.253  0.4026E-02  0.1569E+00
     30.393  0.2488E-02  0.1573E+00
     30.534  0.1708E-02  0.1575E+00
     30.674  0.9534E-03  0.1576E+00
     30.815  0.2034E-02  0.1579E+00
     30.955  0.1301E-02  0.1581E+00
     31.095  0.2219E-02  0.1584E+00
     31.236  0.1950E-02  0.1587E+00
     31.376  0.1173E-02  0.1588E+00
     31.517  0.3781E-03  0.1589E+00
     31.657  0.2023E-03  0.1589E+00
     31.798  0.1818E-02  0.1592E+00
     31.938  0.3955E-03  0.1592E+00
     32.079  0.1412E-03  0.1593E+00
     32.219  0.1032E-02  0.1594E+00
     32.359  0.2461E-03  0.1594E+00
     32.500  0.1611E-02  0.1597E+00
     32.640  0.6358E-03  0.1598E+00
     32.781  0.9177E-03  0.1599E+00
     32.921  0.9083E-04  0.1599E+00
     33.062  0.5409E-10  0.1599E+00
     33.202  0.3930E-13  0.1599E+00
     33.342  0.3843E-05  0.1599E+00
     33.483  0.4715E-03  0.1600E+00
     33.623  0.4985E-04  0.1600E+00
     33.764  0.2329E-03  0.1600E+00
     33.904  0.1454E-05  0.1600E+00
     34.045  0.1019E-13  0.1600E+00
     34.185  0.0000E+00  0.1600E+00
     34.325  0.0000E+00  0.1600E+00
     34.466  0.0000E+00  0.1600E+00
     34.606  0.0000E+00  0.1600E+00
     34.747  0.0000E+00  0.1600E+00
     34.887  0.0000E+00  0.1600E+00
     35.028  0.0000E+00  0.1600E+00
     35.168  0.0000E+00  0.1600E+00
     35.308  0.0000E+00  0.1600E+00
     35.449  0.0000E+00  0.1600E+00
     35.589  0.0000E+00  0.1600E+00
