    1    1  100    1
  0.1583987E+02  0.2818959E-09  0.2818959E-09  0.2818960E-09  0.5000000E-15
  1.000000000000000E-004
  CAR 
 unknown system                          
      4    120      8
 
  0.0000000E+00  0.0000000E+00  0.0000000E+00  0.2962963E-03
    1       -4.625703   1.000000
    2       19.099100   0.000000
    3       19.099107   0.000000
    4       19.099114   0.000000
    5       20.600591   0.000000
    6       20.600599   0.000000
    7       20.600607   0.000000
    8       25.734272   0.000000
 
  0.6666667E-01  0.0000000E+00  0.0000000E+00  0.2370370E-02
    1       -4.504118   1.000000
    2       17.394527   0.000000
    3       18.656557   0.000000
    4       18.656568   0.000000
    5       21.184777   0.000000
    6       21.184790   0.000000
    7       21.283686   0.000000
    8       26.394552   0.000000
 
  0.1333333E+00  0.0000000E+00  0.0000000E+00  0.2370370E-02
    1       -4.139841   1.000000
    2       14.800843   0.000000
    3       18.000029   0.000000
    4       18.000039   0.000000
    5       21.508959   0.000000
    6       22.130447   0.000000
    7       22.130461   0.000000
    8       25.456582   0.000000
 
  0.2000000E+00 -0.1387779E-16  0.0000000E+00  0.2370370E-02
    1       -3.534412   1.000000
    2       12.158872   0.000000
    3       17.463383   0.000000
    4       17.463391   0.000000
    5       21.420837   0.000000
    6       22.380028   0.000000
    7       22.380038   0.000000
    8       25.397317   0.000000
 
  0.2666667E+00  0.0000000E+00  0.0000000E+00  0.2370370E-02
    1       -2.690597   1.000000
    2        9.623158   0.000000
    3       17.090782   0.000000
    4       17.090790   0.000000
    5       21.301856   0.000000
    6       21.630949   0.000000
    7       21.630958   0.000000
    8       26.663488   0.000000
 
  0.3333333E+00  0.0000000E+00  0.0000000E+00  0.2370370E-02
    1       -1.613168   1.000000
    2        7.252383   1.000000
    3       16.877362   0.000000
    4       16.877368   0.000000
    5       20.742774   0.000000
    6       20.742784   0.000000
    7       21.251125   0.000000
    8       25.663429   0.000000
 
  0.4000000E+00 -0.2775558E-16  0.0000000E+00  0.2370370E-02
    1       -0.312671   1.000000
    2        5.080733   1.000000
    3       16.792404   0.000000
    4       16.792409   0.000000
    5       20.040676   0.000000
    6       20.040687   0.000000
    7       21.279935   0.000000
    8       24.843904   0.000000
 
  0.4666667E+00 -0.2775558E-16  0.0000000E+00  0.2370370E-02
    1        1.151510   1.000000
    2        3.178705   1.000000
    3       16.779127   0.000000
    4       16.779131   0.000000
    5       19.650675   0.000000
    6       19.650687   0.000000
    7       21.334303   0.000000
    8       24.382231   0.000000
 
  0.6666667E-01  0.6666667E-01  0.0000000E+00  0.1777778E-02
    1       -4.463593   1.000000
    2       17.807042   0.000000
    3       17.807043   0.000000
    4       18.697996   0.000000
    5       19.754541   0.000000
    6       22.091296   0.000000
    7       22.091297   0.000000
    8       25.353219   0.000000
 
  0.1333333E+00  0.6666667E-01  0.0000000E+00  0.7111111E-02
    1       -4.180234   1.000000
    2       15.732599   0.000000
    3       17.042314   0.000000
    4       18.370758   0.000000
    5       19.987093   0.000000
    6       22.752074   0.000000
    7       23.132001   0.000000
    8       23.998386   0.000000
 
  0.2000000E+00  0.6666667E-01  0.0000000E+00  0.7111111E-02
    1       -3.655201   1.000000
    2       13.116455   0.000000
    3       16.448785   0.000000
    4       17.801433   0.000000
    5       20.604551   0.000000
    6       22.614611   0.000000
    7       23.485834   0.000000
    8       23.716547   0.000000
 
  0.2666667E+00  0.6666667E-01  0.0000000E+00  0.7111111E-02
    1       -2.890807   1.000000
    2       10.546330   0.000000
    3       16.047211   0.000000
    4       17.289035   0.000000
    5       20.252837   0.000000
    6       22.327427   0.000000
    7       23.188247   0.000000
    8       24.422290   0.000000
 
  0.3333333E+00  0.6666667E-01  0.0000000E+00  0.7111111E-02
    1       -1.890985   1.000000
    2        8.120680   1.000000
    3       15.841848   0.000000
    4       16.837612   0.000000
    5       19.533728   0.000000
    6       22.244286   0.000000
    7       22.260877   0.000000
    8       25.922556   0.000000
 
  0.4000000E+00  0.6666667E-01  0.0000000E+00  0.7111111E-02
    1       -0.663365   1.000000
    2        5.881399   1.000000
    3       15.829046   0.000000
    4       16.389812   0.000000
    5       19.065890   0.000000
    6       21.390725   0.000000
    7       22.213932   0.000000
    8       25.982268   0.000000
 
  0.4666667E+00  0.6666667E-01  0.0000000E+00  0.7111111E-02
    1        0.764625   1.000000
    2        3.871240   1.000000
    3       15.932308   0.000000
    4       15.997482   0.000000
    5       18.985609   0.000000
    6       20.701693   0.000000
    7       22.195586   0.000000
    8       25.516106   0.000000
 
 -0.4666667E+00  0.6666667E-01  0.0000000E+00  0.7111111E-02
    1        1.671619   1.000000
    2        2.818293   1.000000
    3       15.527866   0.000000
    4       16.324271   0.000000
    5       19.261063   0.000000
    6       20.250731   0.000000
    7       22.135374   0.000000
    8       25.433255   0.000000
 
 -0.4000000E+00  0.6666667E-01  0.0000000E+00  0.7111111E-02
    1        0.271108   1.000000
    2        4.510573   1.000000
    3       15.247095   0.000000
    4       16.768036   0.000000
    5       19.827230   0.000000
    6       20.087758   0.000000
    7       22.034212   0.000000
    8       25.765289   0.000000
 
 -0.3333333E+00  0.6666667E-01  0.0000000E+00  0.7111111E-02
    1       -1.097125   1.000000
    2        6.605207   1.000000
    3       15.132884   0.000000
    4       17.268288   0.000000
    5       20.264623   0.000000
    6       20.630875   0.000000
    7       21.954138   0.000000
    8       26.403914   0.000000
 
 -0.2666667E+00  0.6666667E-01  0.0000000E+00  0.7111111E-02
    1       -2.250122   1.000000
    2        8.910226   0.997974
    3       15.206610   0.000000
    4       17.775528   0.000000
    5       20.790320   0.000000
    6       21.611188   0.000000
    7       21.942897   0.000000
    8       25.966378   0.000000
 
 -0.2000000E+00  0.6666667E-01  0.0000000E+00  0.7111111E-02
    1       -3.172045   1.000000
    2       11.390083   0.000000
    3       15.477355   0.000000
    4       18.291225   0.000000
    5       21.485744   0.000000
    6       21.966626   0.000000
    7       22.646546   0.000000
    8       24.438775   0.000000
 
 -0.1333333E+00  0.6666667E-01  0.0000000E+00  0.7111111E-02
    1       -3.856983   1.000000
    2       13.994078   0.000000
    3       15.945798   0.000000
    4       18.822333   0.000000
    5       21.529524   0.000000
    6       21.929343   0.000000
    7       23.142954   0.000000
    8       24.109022   0.000000
 
 -0.6666667E-01  0.6666667E-01  0.0000000E+00  0.3555556E-02
    1       -4.301649   1.000000
    2       16.566627   0.000000
    3       16.629234   0.000000
    4       19.151777   0.000000
    5       20.913738   0.000000
    6       21.599657   0.000000
    7       22.522679   0.000000
    8       25.140885   0.000000
 
  0.1333333E+00  0.1333333E+00  0.0000000E+00  0.1777778E-02
    1       -3.977977   1.000000
    2       16.203232   0.000000
    3       16.203233   0.000000
    4       17.634903   0.000000
    5       18.219412   0.000000
    6       22.316696   0.000000
    7       24.264344   0.000000
    8       24.264345   0.000000
 
  0.2000000E+00  0.1333333E+00  0.0000000E+00  0.7111111E-02
    1       -3.533918   1.000000
    2       14.199018   0.000000
    3       15.543634   0.000000
    4       17.075431   0.000000
    5       18.466279   0.000000
    6       21.071702   0.000000
    7       24.941657   0.000000
    8       25.161436   0.000000
 
  0.2666667E+00  0.1333333E+00  0.0000000E+00  0.7111111E-02
    1       -2.849940   1.000000
    2       11.659532   0.000000
    3       15.081942   0.000000
    4       16.365155   0.000000
    5       18.562108   0.000000
    6       21.207889   0.000000
    7       24.991557   0.000000
    8       25.116531   0.000000
 
  0.3333333E+00  0.1333333E+00  0.0000000E+00  0.7111111E-02
    1       -1.929309   1.000000
    2        9.199962   0.000000
    3       14.824199   0.000000
    4       15.603734   0.000000
    5       18.052711   0.000000
    6       22.474840   0.000000
    7       24.139304   0.000000
    8       25.292694   0.000000
 
  0.4000000E+00  0.1333333E+00  0.0000000E+00  0.7111111E-02
    1       -0.777882   1.000000
    2        6.904739   1.000000
    3       14.771285   0.000000
    4       14.811580   0.000000
    5       17.772622   0.000000
    6       23.234852   0.000000
    7       23.535304   0.000000
    8       26.023924   0.000000
 
  0.4666667E+00  0.1333333E+00  0.0000000E+00  0.7111111E-02
    1        0.588756   1.000000
    2        4.815556   1.000000
    3       14.076060   0.000000
    4       14.920698   0.000000
    5       17.817933   0.000000
    6       22.456986   0.000000
    7       23.839132   0.000000
    8       27.537332   0.000000
 
 -0.4666667E+00  0.1333333E+00  0.0000000E+00  0.7111111E-02
    1        1.990687   1.000000
    2        3.123222   1.000000
    3       13.474947   0.000000
    4       15.266233   0.000000
    5       18.149686   0.000000
    6       21.866134   0.000000
    7       23.768063   0.000000
    8       27.820502   0.000000
 
 -0.4000000E+00  0.1333333E+00  0.0000000E+00  0.7111111E-02
    1        1.081141   1.000000
    2        4.178075   1.000000
    3       13.050924   0.000000
    4       15.795957   0.000000
    5       18.734203   0.000000
    6       21.492585   0.000000
    7       23.585881   0.000000
    8       28.065373   0.000000
 
 -0.3333333E+00  0.1333333E+00  0.0000000E+00  0.7111111E-02
    1       -0.345432   1.000000
    2        6.183820   1.000000
    3       12.825070   0.000000
    4       16.487646   0.000000
    5       19.546069   0.000000
    6       21.359110   0.000000
    7       23.403295   0.000000
    8       27.495721   0.000000
 
 -0.2666667E+00  0.1333333E+00  0.0000000E+00  0.7111111E-02
    1       -1.571304   1.000000
    2        8.414397   1.000000
    3       12.808013   0.000000
    4       17.299263   0.000000
    5       20.555727   0.000000
    6       21.486826   0.000000
    7       23.249664   0.000000
    8       25.472998   0.000000
 
 -0.2000000E+00  0.1333333E+00  0.0000000E+00  0.7111111E-02
    1       -2.569606   1.000000
    2       10.821671   0.000000
    3       13.007030   0.000000
    4       18.147908   0.000000
    5       21.704207   0.000000
    6       21.860395   0.000000
    7       23.057449   0.000000
    8       23.735463   0.000000
 
 -0.1333333E+00  0.1333333E+00  0.0000000E+00  0.3555556E-02
    1       -3.332791   1.000000
    2       13.221382   0.000000
    3       13.556474   0.000000
    4       18.835699   0.000000
    5       21.848902   0.000000
    6       22.636475   0.000000
    7       22.800344   0.000000
    8       23.133482   0.000000
 
  0.2000000E+00  0.2000000E+00  0.0000000E+00  0.1777778E-02
    1       -3.171064   1.000000
    2       14.816476   0.000000
    3       14.816477   0.000000
    4       15.988160   0.000000
    5       16.743977   0.000000
    6       19.474411   0.000000
    7       26.513917   0.000000
    8       26.513918   0.000000
 
  0.2666667E+00  0.2000000E+00  0.0000000E+00  0.7111111E-02
    1       -2.568150   1.000000
    2       12.890157   0.000000
    3       14.287976   0.000000
    4       15.101092   0.000000
    5       16.907222   0.000000
    6       18.906818   0.000000
    7       26.899202   0.000000
    8       27.207371   0.000000
 
  0.3333333E+00  0.2000000E+00  0.0000000E+00  0.7111111E-02
    1       -1.727914   1.000000
    2       10.463424   0.000000
    3       13.965499   0.000000
    4       14.042357   0.000000
    5       16.810652   0.000000
    6       19.984169   0.000000
    7       26.204795   0.000000
    8       27.349645   0.000000
 
  0.4000000E+00  0.2000000E+00  0.0000000E+00  0.7111111E-02
    1       -0.655019   1.000000
    2        8.135947   1.000000
    3       13.005515   0.000000
    4       13.851439   0.000000
    5       16.646805   0.000000
    6       21.741300   0.000000
    7       25.319038   0.000000
    8       27.271157   0.000000
 
  0.4666667E+00  0.2000000E+00  0.0000000E+00  0.7111111E-02
    1        0.640361   1.000000
    2        5.987051   1.000000
    3       12.095537   0.000000
    4       13.945516   0.000000
    5       16.711424   0.000000
    6       23.595071   0.000000
    7       24.504308   0.000000
    8       27.188608   0.000000
 
 -0.4666667E+00  0.2000000E+00  0.0000000E+00  0.7111111E-02
    1        2.102437   1.000000
    2        4.094446   1.000000
    3       11.362797   0.000000
    4       14.245254   0.000000
    5       17.022931   0.000000
    6       23.844671   0.000000
    7       24.958318   0.000000
    8       27.566947   0.000000
 
 -0.4000000E+00  0.2000000E+00  0.0000000E+00  0.7111111E-02
    1        2.099689   1.000000
    2        4.097288   1.000000
    3       10.831530   0.000000
    4       14.745257   0.000000
    5       17.572651   0.000000
    6       23.376089   0.000000
    7       25.247673   0.000000
    8       28.686757   0.000000
 
 -0.3333333E+00  0.2000000E+00  0.0000000E+00  0.7111111E-02
    1        0.637625   1.000000
    2        5.989267   1.000000
    3       10.514823   0.000000
    4       15.434927   0.000000
    5       18.348101   0.000000
    6       23.117536   0.000000
    7       25.051759   0.000000
    8       27.333181   0.000000
 
 -0.2666667E+00  0.2000000E+00  0.0000000E+00  0.7111111E-02
    1       -0.657371   1.000000
    2        8.130804   1.000000
    3       10.425348   0.000000
    4       16.291953   0.000000
    5       19.330606   0.000000
    6       23.081118   0.000000
    7       24.683389   0.000000
    8       25.216168   0.000000
 
 -0.2000000E+00  0.2000000E+00  0.0000000E+00  0.3555556E-02
    1       -1.729829   1.000000
    2       10.255067   0.000000
    3       10.759882   0.000000
    4       17.260256   0.000000
    5       20.483110   0.000000
    6       23.214987   0.000000
    7       23.391113   0.000000
    8       24.048569   0.000000
 
  0.2666667E+00  0.2666667E+00  0.0000000E+00  0.1777778E-02
    1       -2.046600   1.000000
    2       13.607224   0.000000
    3       13.691109   0.000000
    4       13.691110   0.000000
    5       15.507769   0.000000
    6       17.534653   0.000000
    7       28.691646   0.000000
    8       28.699479   0.000000
 
  0.3333333E+00  0.2666667E+00  0.0000000E+00  0.7111111E-02
    1       -1.287560   1.000000
    2       11.731261   0.000000
    3       12.555849   0.000000
    4       13.300499   0.000000
    5       15.705776   0.000000
    6       17.608898   0.000000
    7       28.362738   0.000000
    8       29.331908   0.000000
 
  0.4000000E+00  0.2666667E+00  0.0000000E+00  0.7111111E-02
    1       -0.294906   1.000000
    2        9.512883   0.000000
    3       11.289619   0.000000
    4       13.119518   0.000000
    5       15.730363   0.000000
    6       19.117077   0.000000
    7       27.547833   0.000000
    8       29.344622   0.000000
 
  0.4666667E+00  0.2666667E+00  0.0000000E+00  0.7111111E-02
    1        0.924022   1.000000
    2        7.351855   1.000000
    3       10.227915   0.000000
    4       13.148928   0.000000
    5       15.791520   0.000000
    6       21.124123   0.000000
    7       26.732357   0.000000
    8       29.009033   0.000000
 
 -0.4666667E+00  0.2666667E+00  0.0000000E+00  0.7111111E-02
    1        2.344113   1.000000
    2        5.377603   1.000000
    3        9.377991   0.000000
    4       13.387723   0.000000
    5       16.060392   0.000000
    6       23.295190   0.000000
    7       26.030732   0.000000
    8       28.512948   0.000000
 
 -0.4000000E+00  0.2666667E+00  0.0000000E+00  0.7111111E-02
    1        3.253022   1.000000
    2        4.329339   1.000000
    3        8.748741   1.000000
    4       13.832923   0.000000
    5       16.557118   0.000000
    6       25.393769   0.000000
    7       25.490412   0.000000
    8       27.980299   0.000000
 
 -0.3333333E+00  0.2666667E+00  0.0000000E+00  0.7111111E-02
    1        1.843795   1.000000
    2        6.012837   1.000000
    3        8.354048   1.000000
    4       14.478194   0.000000
    5       17.278771   0.000000
    6       25.120432   0.000000
    7       26.600449   0.000000
    8       27.423574   0.000000
 
 -0.2666667E+00  0.2666667E+00  0.0000000E+00  0.3555556E-02
    1        0.485902   1.000000
    2        7.834210   1.000000
    3        8.417940   1.000000
    4       15.309736   0.000000
    5       18.212737   0.000000
    6       24.704804   0.000000
    7       25.506168   0.000000
    8       25.944803   0.000000
 
  0.3333333E+00  0.3333333E+00  0.0000000E+00  0.1777778E-02
    1       -0.610140   1.000000
    2       10.823583   0.000000
    3       12.840850   0.000000
    4       12.840851   0.000000
    5       14.561833   0.000000
    6       16.383385   0.000000
    7       30.284409   0.000000
    8       30.700697   0.000000
 
  0.4000000E+00  0.3333333E+00  0.0000000E+00  0.7111111E-02
    1        0.301094   1.000000
    2        9.463952   0.000000
    3       11.264215   0.000000
    4       12.591009   0.000000
    5       14.889923   0.000000
    6       16.794429   0.000000
    7       29.791387   0.000000
    8       31.213916   0.000000
 
  0.4666667E+00  0.3333333E+00  0.0000000E+00  0.7111111E-02
    1        1.440239   1.000000
    2        8.192492   1.000000
    3        9.241168   0.000000
    4       12.552481   0.000000
    5       15.064335   0.000000
    6       18.543123   0.000000
    7       29.037859   0.000000
    8       31.012842   0.000000
 
 -0.4666667E+00  0.3333333E+00  0.0000000E+00  0.7111111E-02
    1        2.792617   1.000000
    2        6.707652   1.000000
    3        7.756913   1.000000
    4       12.725095   0.000000
    5       15.301024   0.000000
    6       20.736077   0.000000
    7       28.320831   0.000000
    8       30.385581   0.000000
 
 -0.4000000E+00  0.3333333E+00  0.0000000E+00  0.7111111E-02
    1        4.201056   1.000000
    2        5.136607   1.000000
    3        6.925214   1.000000
    4       13.107138   0.000000
    5       15.741197   0.000000
    6       23.100235   0.000000
    7       27.688743   0.000000
    8       29.477757   0.000000
 
 -0.3333333E+00  0.3333333E+00  0.0000000E+00  0.3555556E-02
    1        3.248551   1.000000
    2        6.003979   1.000000
    3        6.660660   1.000000
    4       13.694544   0.000000
    5       16.402349   0.000000
    6       25.459589   0.000000
    7       26.905256   0.000000
    8       28.114879   0.000000
 
  0.4000000E+00  0.4000000E+00  0.0000000E+00  0.1777778E-02
    1        1.130086   1.000000
    2        8.066103   1.000000
    3       12.271754   0.000000
    4       12.271755   0.000000
    5       13.924963   0.000000
    6       15.697068   0.000000
    7       31.427429   0.000000
    8       32.457656   0.000000
 
  0.4666667E+00  0.4000000E+00  0.0000000E+00  0.7111111E-02
    1        2.186714   1.000000
    2        6.823016   1.000000
    3       10.784179   0.000000
    4       12.163998   0.000000
    5       14.407774   0.000000
    6       16.324503   0.000000
    7       31.161573   0.000000
    8       32.733209   0.000000
 
 -0.4666667E+00  0.4000000E+00  0.0000000E+00  0.7111111E-02
    1        3.457612   1.000000
    2        5.783204   1.000000
    3        8.794767   1.000000
    4       12.268208   0.000000
    5       14.738219   0.000000
    6       18.255585   0.000000
    7       30.488884   0.000000
    8       32.149053   0.000000
 
 -0.4000000E+00  0.4000000E+00  0.0000000E+00  0.3555556E-02
    1        4.779605   1.000000
    2        5.048162   1.000000
    3        7.007400   1.000000
    4       12.583482   0.000000
    5       15.139351   0.000000
    6       20.604450   0.000000
    7       29.525542   0.000000
    8       31.000852   0.000000
 
  0.4666667E+00  0.4666667E+00  0.0000000E+00  0.1777778E-02
    1        3.155350   1.000000
    2        5.509794   1.000000
    3       11.986640   0.000000
    4       11.986641   0.000000
    5       13.605018   0.000000
    6       15.366469   0.000000
    7       32.241018   0.000000
    8       33.674347   0.000000
 
 -0.4666667E+00  0.4666667E+00  0.0000000E+00  0.3555556E-02
    1        4.166557   1.000000
    2        4.579382   1.000000
    3       10.629951   0.000000
    4       12.021468   0.000000
    5       14.247638   0.000000
    6       16.169511   0.000000
    7       31.912291   0.000000
    8       33.428259   0.000000
 
  0.2000000E+00  0.1333333E+00  0.6666667E-01  0.7111111E-02
    1       -3.816505   1.000000
    2       14.916338   0.000000
    3       15.092941   0.000000
    4       18.483434   0.000000
    5       19.750211   0.000000
    6       22.616353   0.000000
    7       23.604017   0.000000
    8       23.915704   0.000000
 
  0.2666667E+00  0.1333333E+00  0.6666667E-01  0.1422222E-01
    1       -3.211960   1.000000
    2       12.420746   0.000000
    3       14.477509   0.000000
    4       17.974591   0.000000
    5       20.148710   0.000000
    6       22.053781   0.000000
    7       23.840370   0.000000
    8       24.059818   0.000000
 
  0.3333333E+00  0.1333333E+00  0.6666667E-01  0.1422222E-01
    1       -2.369369   1.000000
    2        9.909665   0.000000
    3       14.139019   0.000000
    4       17.222095   0.000000
    5       19.787766   0.000000
    6       22.410370   0.000000
    7       23.382442   0.000000
    8       24.495689   0.000000
 
  0.4000000E+00  0.1333333E+00  0.6666667E-01  0.1422222E-01
    1       -1.293478   1.000000
    2        7.550410   1.000000
    3       14.003135   0.000000
    4       16.421699   0.000000
    5       19.429257   0.000000
    6       21.785376   0.000000
    7       23.468057   0.000000
    8       25.840211   0.000000
 
  0.4666667E+00  0.1333333E+00  0.6666667E-01  0.1422222E-01
    1        0.005331   1.000000
    2        5.385199   1.000000
    3       14.055382   0.000000
    4       15.684864   0.000000
    5       19.328500   0.000000
    6       21.011956   0.000000
    7       23.554460   0.000000
    8       27.298460   0.000000
 
 -0.4666667E+00  0.1333333E+00  0.6666667E-01  0.1422222E-01
    1        1.468947   1.000000
    2        3.485707   1.000000
    3       14.227500   0.000000
    4       15.153510   0.000000
    5       19.401502   0.000000
    6       20.488105   0.000000
    7       23.606598   0.000000
    8       27.133722   0.000000
 
  0.2666667E+00  0.2000000E+00  0.6666667E-01  0.7111111E-02
    1       -3.010397   1.000000
    2       13.472928   0.000000
    3       13.701505   0.000000
    4       16.724104   0.000000
    5       18.359605   0.000000
    6       20.118089   0.000000
    7       25.413946   0.000000
    8       26.020275   0.000000
 
  0.3333333E+00  0.2000000E+00  0.6666667E-01  0.1422222E-01
    1       -2.248209   1.000000
    2       11.093841   0.000000
    3       13.187082   0.000000
    4       15.775956   0.000000
    5       18.556672   0.000000
    6       20.605641   0.000000
    7       24.798639   0.000000
    8       26.463800   0.000000
 
  0.4000000E+00  0.2000000E+00  0.6666667E-01  0.1422222E-01
    1       -1.251271   1.000000
    2        8.704551   1.000000
    3       12.960427   0.000000
    4       14.751821   0.000000
    5       18.370809   0.000000
    6       22.082665   0.000000
    7       23.990493   0.000000
    8       26.583620   0.000000
 
  0.4666667E+00  0.2000000E+00  0.6666667E-01  0.1422222E-01
    1       -0.027048   1.000000
    2        6.483175   1.000000
    3       12.864929   0.000000
    4       13.914607   0.000000
    5       18.351206   0.000000
    6       22.651326   0.000000
    7       24.252035   0.000000
    8       26.791981   0.000000
 
 -0.4666667E+00  0.2000000E+00  0.6666667E-01  0.1422222E-01
    1        1.398077   1.000000
    2        4.482300   1.000000
    3       12.612172   0.000000
    4       13.615632   0.000000
    5       18.554312   0.000000
    6       22.069294   0.000000
    7       25.208916   0.000000
    8       27.605729   0.000000
 
 -0.4000000E+00  0.2000000E+00  0.6666667E-01  0.1422222E-01
    1        2.308105   1.000000
    2        3.427783   1.000000
    3       12.157367   0.000000
    4       13.923734   0.000000
    5       18.967467   0.000000
    6       21.570265   0.000000
    7       25.378186   0.000000
    8       28.686266   0.000000
 
 -0.3333333E+00  0.2000000E+00  0.6666667E-01  0.1422222E-01
    1        0.904344   1.000000
    2        5.120319   1.000000
    3       11.810615   0.000000
    4       14.534177   0.000000
    5       19.553626   0.000000
    6       21.295682   0.000000
    7       25.165550   0.000000
    8       27.618322   0.000000
 
 -0.2666667E+00  0.2000000E+00  0.6666667E-01  0.1422222E-01
    1       -0.460455   1.000000
    2        7.202338   1.000000
    3       11.656007   0.000000
    4       15.353818   0.000000
    5       20.209090   0.000000
    6       21.337510   0.000000
    7       24.493793   0.000000
    8       26.166398   0.000000
 
 -0.2000000E+00  0.2000000E+00  0.6666667E-01  0.1422222E-01
    1       -1.610067   1.000000
    2        9.480608   0.000000
    3       11.716943   0.000000
    4       16.330044   0.000000
    5       20.740092   0.000000
    6       21.709380   0.000000
    7       23.230681   0.000000
    8       25.510880   0.000000
 
 -0.1333333E+00  0.2000000E+00  0.6666667E-01  0.7111111E-02
    1       -2.529165   1.000000
    2       11.746899   0.000000
    3       12.161721   0.000000
    4       17.353156   0.000000
    5       20.885092   0.000000
    6       21.460300   0.000000
    7       23.208154   0.000000
    8       24.940865   0.000000
 
  0.3333333E+00  0.2666667E+00  0.6666667E-01  0.7111111E-02
    1       -1.887117   1.000000
    2       12.297768   0.000000
    3       12.472148   0.000000
    4       14.189192   0.000000
    5       17.184770   0.000000
    6       18.511954   0.000000
    7       26.766775   0.000000
    8       28.390135   0.000000
 
  0.4000000E+00  0.2666667E+00  0.6666667E-01  0.1422222E-01
    1       -0.970511   1.000000
    2       10.030306   0.000000
    3       12.017606   0.000000
    4       13.105140   0.000000
    5       17.425897   0.000000
    6       19.593053   0.000000
    7       25.985142   0.000000
    8       28.810964   0.000000
 
  0.4666667E+00  0.2666667E+00  0.6666667E-01  0.1422222E-01
    1        0.175874   1.000000
    2        7.783625   1.000000
    3       11.487445   0.000000
    4       12.496700   0.000000
    5       17.434871   0.000000
    6       21.447033   0.000000
    7       25.152202   0.000000
    8       28.726004   0.000000
 
 -0.4666667E+00  0.2666667E+00  0.6666667E-01  0.1422222E-01
    1        1.537122   1.000000
    2        5.718499   1.000000
    3       10.732620   0.000000
    4       12.519908   0.000000
    5       17.615668   0.000000
    6       23.278053   0.000000
    7       24.639131   0.000000
    8       28.402626   0.000000
 
 -0.4000000E+00  0.2666667E+00  0.6666667E-01  0.1422222E-01
    1        2.942544   1.000000
    2        4.029135   1.000000
    3       10.078934   0.000000
    4       12.868212   0.000000
    5       18.007525   0.000000
    6       23.491253   0.000000
    7       25.839628   0.000000
    8       27.859867   0.000000
 
 -0.3333333E+00  0.2666667E+00  0.6666667E-01  0.1422222E-01
    1        2.024662   1.000000
    2        5.089083   1.000000
    3        9.619997   0.000000
    4       13.453818   0.000000
    5       18.607542   0.000000
    6       23.146832   0.000000
    7       26.505471   0.000000
    8       27.400700   0.000000
 
 -0.2666667E+00  0.2666667E+00  0.6666667E-01  0.1422222E-01
    1        0.603306   1.000000
    2        7.069396   1.000000
    3        9.384682   0.000000
    4       14.250557   0.000000
    5       19.396920   0.000000
    6       22.937732   0.000000
    7       24.817714   0.000000
    8       27.360938   0.000000
 
 -0.2000000E+00  0.2666667E+00  0.6666667E-01  0.7111111E-02
    1       -0.616715   1.000000
    2        9.047769   0.154750
    3        9.586559   0.000000
    4       15.231870   0.000000
    5       20.319475   0.000000
    6       22.647431   0.000000
    7       23.225932   0.000000
    8       26.664351   0.000000
 
  0.4000000E+00  0.3333333E+00  0.6666667E-01  0.7111111E-02
    1       -0.452303   1.000000
    2       10.785029   0.000000
    3       11.408473   0.000000
    4       12.122997   0.000000
    5       16.283867   0.000000
    6       17.513396   0.000000
    7       28.151752   0.000000
    8       30.561330   0.000000
 
  0.4666667E+00  0.3333333E+00  0.6666667E-01  0.1422222E-01
    1        0.614004   1.000000
    2        9.115024   0.001758
    3       10.013979   0.000000
    4       11.672737   0.000000
    5       16.653783   0.000000
    6       18.883806   0.000000
    7       27.391726   0.000000
    8       30.792469   0.000000
 
 -0.4666667E+00  0.3333333E+00  0.6666667E-01  0.1422222E-01
    1        1.901367   1.000000
    2        7.119972   1.000000
    3        8.957230   0.938774
    4       11.720653   0.000000
    5       16.827752   0.000000
    6       20.957767   0.000000
    7       26.634571   0.000000
    8       30.244369   0.000000
 