       N       E                     dE             d eps       ncg     rms          rms(c)
DAV:   1    -0.152838690539E+01   -0.15284E+01   -0.21244E+03  1952   0.500E+02
DAV:   2    -0.485199801276E+01   -0.33236E+01   -0.31472E+01  2928   0.349E+01
DAV:   3    -0.487259975141E+01   -0.20602E-01   -0.20573E-01  2184   0.302E+00
DAV:   4    -0.487262671463E+01   -0.26963E-04   -0.26964E-04  3160   0.117E-01
DAV:   5    -0.487262671857E+01   -0.39422E-08   -0.30985E-08  2296   0.869E-04    0.222E+00
DAV:   6    -0.486138909612E+01    0.11238E-01   -0.40250E-03  2208   0.275E-01    0.122E+00
DAV:   7    -0.485514550379E+01    0.62436E-02   -0.79675E-03  2208   0.385E-01    0.122E-01
DAV:   8    -0.485512252357E+01    0.22980E-04   -0.31732E-05  3064   0.464E-02    0.152E-02
DAV:   9    -0.485512309298E+01   -0.56941E-06   -0.24708E-07  2264   0.306E-03
   1 F= -.48551231E+01 E0= -.48547131E+01  d E =-.485512E+01
