 vasp.6.2.0 18Jan21 (build Aug 12 2022 13:00:08) complex                        
  
 executed on             LinuxIFC date 2024.11.05  06:11:50
 running on    4 total cores
 distrk:  each k-point on    4 cores,    1 groups
 distr:  one band on NCORE=   1 cores,    4 groups


--------------------------------------------------------------------------------------------------------


 INCAR:
   ISTART = 0            (Read existing wavefunction, if there)
   ISPIN = 1            (Non-Spin polarised DFT)
   LREAL = .FALSE.       (Projection operators: automatic)
   LWAVE = .FALSE.        (Write WAVECAR or not)
   LCHARG = .FALSE.        (Write CHGCAR or not)
   ADDGRID = .TRUE.        (Increase grid, helps GGA convergence)
   LASPH = .TRUE.        (Give more accurate total energies and band structure calculations)
   PREC = Accurate      (Accurate strictly avoids any aliasing or wrap around errors)
   ENCUT = 700          (Cut-off energy for plane wave basis set, in eV)
   ISMEAR = 0            (Gaussian smearing, metals:1)
   SIGMA = 0.05         (Smearing value in eV, metals:0.2)
   NELM = 90           (Max electronic SCF steps)
   NELMIN = 6            (Min electronic SCF steps)
   EDIFF = 1E-06        (SCF energy convergence, in eV)
   NSW = 100          (Max ionic steps)
   IBRION = 2            (Algorithm: 0-MD, 1-Quasi-New, 2-CG)
   ISIF = 2            (Stress/relaxation: 2-Ions, 3-Shape/Ions/V, 4-Shape/Ions)
   EDIFFG = -2E-03        (Ionic convergence, eV/AA)
   ISYM = 2              (Symmetry: 0\=none, 2\=GGA, 3\=hybrids)

 POTCAR:    PAW_PBE Si 05Jan2001                  
 POTCAR:    PAW_PBE Si 05Jan2001                  
   VRHFIN =Si: s2p2                                                                                 
   LEXCH  = PE                                                                                      
   EATOM  =   103.0669 eV,    7.5752 Ry                                                             
                                                                                                    
   TITEL  = PAW_PBE Si 05Jan2001                                                                    
   LULTRA =        F    use ultrasoft PP ?                                                          
   IUNSCR =        1    unscreen: 0-lin 1-nonlin 2-no                                               
   RPACOR =    1.500    partial core radius                                                         
   POMASS =   28.085; ZVAL   =    4.000    mass and valenz                                          
   RCORE  =    1.900    outmost cutoff radius                                                       
   RWIGS  =    2.480; RWIGS  =    1.312    wigner-seitz radius (au A)                               
   ENMAX  =  245.345; ENMIN  =  184.009 eV                                                          
   ICORE  =        2    local potential                                                             
   LCOR   =        T    correct aug charges                                                         
   LPAW   =        T    paw PP                                                                      
   EAUG   =  322.069                                                                                
   DEXC   =    0.000                                                                                
   RMAX   =    1.950    core radius for proj-oper                                                   
   RAUG   =    1.300    factor for augmentation sphere                                              
   RDEP   =    1.993    radius for radial grids                                                     
   RDEPT  =    1.837    core radius for aug-charge                                                  
                                                                                                    
   Atomic configuration                                                                             
    6 entries                                                                                       
     n  l   j            E        occ.                                                              
     1  0  0.50     -1785.8828   2.0000                                                             
     2  0  0.50      -139.4969   2.0000                                                             
     2  1  1.50       -95.5546   6.0000                                                             
     3  0  0.50       -10.8127   2.0000                                                             
     3  1  0.50        -4.0811   2.0000                                                             
     3  2  1.50        -4.0817   0.0000                                                             
   Description                                                                                      
     l       E           TYP  RCUT    TYP  RCUT                                                     
     0    -10.8127223     23  1.900                                                                 
     0     -7.6451159     23  1.900                                                                 
     1     -4.0811372     23  1.900                                                                 
     1      2.4879257     23  1.900                                                                 
     2     -4.0817478      7  1.900                                                                 
  local pseudopotential read in
  partial core-charges read in
  partial kinetic energy density read in
  atomic valenz-charges read in
  non local Contribution for L=           0  read in
    real space projection operators read in
  non local Contribution for L=           0  read in
    real space projection operators read in
  non local Contribution for L=           1  read in
    real space projection operators read in
  non local Contribution for L=           1  read in
    real space projection operators read in
    PAW grid and wavefunctions read in
 
   number of l-projection  operators is LMAX  =           4
   number of lm-projection operators is LMMAX =           8
 
  PAW_PBE Si 05Jan2001                  :
 energy of atom  1       EATOM= -103.0669
 kinetic energy error for atom=    0.0003 (will be added to EATOM!!)
 
 
 POSCAR: Si1
  positions in direct lattice
  No initial velocities read in
 exchange correlation table for  LEXCH =        8
   RHO(1)=    0.500       N(1)  =     2000
   RHO(2)=  100.500       N(2)  =     4000
 


--------------------------------------------------------------------------------------------------------


 ion  position               nearest neighbor table
   1  0.000  0.000  0.000-
 
  LATTYP: Found a face centered cubic cell.
 ALAT       =     3.9866100713
  
  Lattice vectors:
  
 A1 = (   2.4412908000,   0.0000000000,   1.4094787200)
 A2 = (   0.8137636000,   2.3016708000,   1.4094787200)
 A3 = (   0.0000000000,   0.0000000000,   2.8189595200)


Analysis of symmetry for initial positions (statically):
=====================================================================
 Subroutine PRICEL returns:
 Original cell was already a primitive cell.
 

 Routine SETGRP: Setting up the symmetry group for a 
 face centered cubic supercell.


 Subroutine GETGRP returns: Found 48 space group operations
 (whereof 48 operations were pure point group operations)
 out of a pool of 48 trial point group operations.


The static configuration has the point symmetry O_h .


Analysis of symmetry for dynamics (positions and initial velocities):
=====================================================================
 Subroutine PRICEL returns:
 Original cell was already a primitive cell.
 

 Routine SETGRP: Setting up the symmetry group for a 
 face centered cubic supercell.


 Subroutine GETGRP returns: Found 48 space group operations
 (whereof 48 operations were pure point group operations)
 out of a pool of 48 trial point group operations.


The dynamic configuration has the point symmetry O_h .


 Subroutine INISYM returns: Found 48 space group operations
 (whereof 48 operations are pure point group operations),
 and found     1 'primitive' translations


----------------------------------------------------------------------------------------

                                     Primitive cell                                     

  volume of cell :      15.8399

  direct lattice vectors                    reciprocal lattice vectors
     2.441290800  0.000000000  1.409478720     0.409619370 -0.144822332  0.000000000
     0.813763600  2.301670800  1.409478720     0.000000000  0.434466997  0.000000000
     0.000000000  0.000000000  2.818959520    -0.204809534 -0.144822225  0.354740816

  length of vectors
     2.818959211  2.818959015  2.818959520     0.434466957  0.434466997  0.434466879

  position of ions in fractional coordinates (direct lattice)
     0.000000000  0.000000000  0.000000000

  ion indices of the primitive-cell ions
   primitive index   ion index
                 1           1

----------------------------------------------------------------------------------------

 
 
 KPOINTS: Automatic                               

Automatic generation of k-mesh.
 Grid dimensions read from file:
 generate k-points for:   15   15   15

 Generating k-lattice:

  Cartesian coordinates                     Fractional coordinates (reciprocal lattice)
     0.027307958 -0.009654822  0.000000000     0.066666667  0.000000000  0.000000000
     0.000000000  0.028964466  0.000000000     0.000000000  0.066666667  0.000000000
    -0.013653969 -0.009654815  0.023649388     0.000000000 -0.000000000  0.066666667

  Length of vectors
     0.028964464  0.028964466  0.028964459

  Shift w.r.t. Gamma in fractional coordinates (k-lattice)
     0.000000000  0.000000000  0.000000000

 
 Subroutine IBZKPT returns following result:
 ===========================================
 
 Found    120 irreducible k-points:
 
 Following reciprocal coordinates:
            Coordinates               Weight
  0.000000  0.000000  0.000000      1.000000
  0.066667  0.000000  0.000000      8.000000
  0.133333  0.000000  0.000000      8.000000
  0.200000 -0.000000  0.000000      8.000000
  0.266667  0.000000  0.000000      8.000000
  0.333333  0.000000  0.000000      8.000000
  0.400000 -0.000000  0.000000      8.000000
  0.466667 -0.000000  0.000000      8.000000
  0.066667  0.066667  0.000000      6.000000
  0.133333  0.066667  0.000000     24.000000
  0.200000  0.066667  0.000000     24.000000
  0.266667  0.066667  0.000000     24.000000
  0.333333  0.066667  0.000000     24.000000
  0.400000  0.066667  0.000000     24.000000
  0.466667  0.066667  0.000000     24.000000
 -0.466667  0.066667  0.000000     24.000000
 -0.400000  0.066667  0.000000     24.000000
 -0.333333  0.066667  0.000000     24.000000
 -0.266667  0.066667  0.000000     24.000000
 -0.200000  0.066667  0.000000     24.000000
 -0.133333  0.066667  0.000000     24.000000
 -0.066667  0.066667  0.000000     12.000000
  0.133333  0.133333  0.000000      6.000000
  0.200000  0.133333  0.000000     24.000000
  0.266667  0.133333  0.000000     24.000000
  0.333333  0.133333  0.000000     24.000000
  0.400000  0.133333  0.000000     24.000000
  0.466667  0.133333  0.000000     24.000000
 -0.466667  0.133333  0.000000     24.000000
 -0.400000  0.133333  0.000000     24.000000
 -0.333333  0.133333  0.000000     24.000000
 -0.266667  0.133333  0.000000     24.000000
 -0.200000  0.133333  0.000000     24.000000
 -0.133333  0.133333  0.000000     12.000000
  0.200000  0.200000  0.000000      6.000000
  0.266667  0.200000  0.000000     24.000000
  0.333333  0.200000  0.000000     24.000000
  0.400000  0.200000  0.000000     24.000000
  0.466667  0.200000  0.000000     24.000000
 -0.466667  0.200000  0.000000     24.000000
 -0.400000  0.200000  0.000000     24.000000
 -0.333333  0.200000  0.000000     24.000000
 -0.266667  0.200000  0.000000     24.000000
 -0.200000  0.200000  0.000000     12.000000
  0.266667  0.266667  0.000000      6.000000
  0.333333  0.266667  0.000000     24.000000
  0.400000  0.266667  0.000000     24.000000
  0.466667  0.266667  0.000000     24.000000
 -0.466667  0.266667  0.000000     24.000000
 -0.400000  0.266667  0.000000     24.000000
 -0.333333  0.266667  0.000000     24.000000
 -0.266667  0.266667  0.000000     12.000000
  0.333333  0.333333  0.000000      6.000000
  0.400000  0.333333  0.000000     24.000000
  0.466667  0.333333  0.000000     24.000000
 -0.466667  0.333333  0.000000     24.000000
 -0.400000  0.333333  0.000000     24.000000
 -0.333333  0.333333  0.000000     12.000000
  0.400000  0.400000  0.000000      6.000000
  0.466667  0.400000  0.000000     24.000000
 -0.466667  0.400000  0.000000     24.000000
 -0.400000  0.400000  0.000000     12.000000
  0.466667  0.466667  0.000000      6.000000
 -0.466667  0.466667  0.000000     12.000000
  0.200000  0.133333  0.066667     24.000000
  0.266667  0.133333  0.066667     48.000000
  0.333333  0.133333  0.066667     48.000000
  0.400000  0.133333  0.066667     48.000000
  0.466667  0.133333  0.066667     48.000000
 -0.466667  0.133333  0.066667     48.000000
  0.266667  0.200000  0.066667     24.000000
  0.333333  0.200000  0.066667     48.000000
  0.400000  0.200000  0.066667     48.000000
  0.466667  0.200000  0.066667     48.000000
 -0.466667  0.200000  0.066667     48.000000
 -0.400000  0.200000  0.066667     48.000000
 -0.333333  0.200000  0.066667     48.000000
 -0.266667  0.200000  0.066667     48.000000
 -0.200000  0.200000  0.066667     48.000000
 -0.133333  0.200000  0.066667     24.000000
  0.333333  0.266667  0.066667     24.000000
  0.400000  0.266667  0.066667     48.000000
  0.466667  0.266667  0.066667     48.000000
 -0.466667  0.266667  0.066667     48.000000
 -0.400000  0.266667  0.066667     48.000000
 -0.333333  0.266667  0.066667     48.000000
 -0.266667  0.266667  0.066667     48.000000
 -0.200000  0.266667  0.066667     24.000000
  0.400000  0.333333  0.066667     24.000000
  0.466667  0.333333  0.066667     48.000000
 -0.466667  0.333333  0.066667     48.000000
 -0.400000  0.333333  0.066667     48.000000
 -0.333333  0.333333  0.066667     48.000000
 -0.266667  0.333333  0.066667     24.000000
  0.466667  0.400000  0.066667     24.000000
 -0.466667  0.400000  0.066667     48.000000
 -0.400000  0.400000  0.066667     48.000000
 -0.333333  0.400000  0.066667     24.000000
 -0.466667  0.466667  0.066667     24.000000
 -0.400000  0.466667  0.066667     24.000000
  0.400000  0.266667  0.133333     24.000000
  0.466667  0.266667  0.133333     48.000000
 -0.466667  0.266667  0.133333     48.000000
 -0.400000  0.266667  0.133333     48.000000
  0.466667  0.333333  0.133333     24.000000
 -0.466667  0.333333  0.133333     48.000000
 -0.400000  0.333333  0.133333     48.000000
 -0.333333  0.333333  0.133333     48.000000
 -0.266667  0.333333  0.133333     48.000000
 -0.200000  0.333333  0.133333     24.000000
 -0.466667  0.400000  0.133333     24.000000
 -0.400000  0.400000  0.133333     48.000000
 -0.333333  0.400000  0.133333     48.000000
 -0.266667  0.400000  0.133333     24.000000
 -0.400000  0.466667  0.133333     24.000000
 -0.333333  0.466667  0.133333     24.000000
 -0.400000  0.400000  0.200000     24.000000
 -0.333333  0.400000  0.200000     48.000000
 -0.333333  0.466667  0.200000     24.000000
 -0.266667  0.466667  0.200000     24.000000
 
 Following cartesian coordinates:
            Coordinates               Weight
  0.000000  0.000000  0.000000      1.000000
  0.028400 -0.010041  0.000000      8.000000
  0.056801 -0.020082  0.000000      8.000000
  0.085201 -0.030123  0.000000      8.000000
  0.113601 -0.040164  0.000000      8.000000
  0.142001 -0.050205  0.000000      8.000000
  0.170402 -0.060246  0.000000      8.000000
  0.198802 -0.070287  0.000000      8.000000
  0.028400  0.020082  0.000000      6.000000
  0.056801  0.010041  0.000000     24.000000
  0.085201  0.000000  0.000000     24.000000
  0.113601 -0.010041  0.000000     24.000000
  0.142001 -0.020082  0.000000     24.000000
  0.170402 -0.030123  0.000000     24.000000
  0.198802 -0.040164  0.000000     24.000000
 -0.198802  0.100410  0.000000     24.000000
 -0.170402  0.090369  0.000000     24.000000
 -0.142001  0.080328  0.000000     24.000000
 -0.113601  0.070287  0.000000     24.000000
 -0.085201  0.060246  0.000000     24.000000
 -0.056801  0.050205  0.000000     24.000000
 -0.028400  0.040164  0.000000     12.000000
  0.056801  0.040164  0.000000      6.000000
  0.085201  0.030123  0.000000     24.000000
  0.113601  0.020082  0.000000     24.000000
  0.142001  0.010041  0.000000     24.000000
  0.170402  0.000000  0.000000     24.000000
  0.198802 -0.010041  0.000000     24.000000
 -0.198802  0.130533  0.000000     24.000000
 -0.170402  0.120492  0.000000     24.000000
 -0.142001  0.110451  0.000000     24.000000
 -0.113601  0.100410  0.000000     24.000000
 -0.085201  0.090369  0.000000     24.000000
 -0.056801  0.080328  0.000000     12.000000
  0.085201  0.060246  0.000000      6.000000
  0.113601  0.050205  0.000000     24.000000
  0.142001  0.040164  0.000000     24.000000
  0.170402  0.030123  0.000000     24.000000
  0.198802  0.020082  0.000000     24.000000
 -0.198802  0.160656  0.000000     24.000000
 -0.170402  0.150615  0.000000     24.000000
 -0.142001  0.140574  0.000000     24.000000
 -0.113601  0.130533  0.000000     24.000000
 -0.085201  0.120492  0.000000     12.000000
  0.113601  0.080328  0.000000      6.000000
  0.142001  0.070287  0.000000     24.000000
  0.170402  0.060246  0.000000     24.000000
  0.198802  0.050205  0.000000     24.000000
 -0.198802  0.190779  0.000000     24.000000
 -0.170402  0.180738  0.000000     24.000000
 -0.142001  0.170697  0.000000     24.000000
 -0.113601  0.160656  0.000000     12.000000
  0.142001  0.100410  0.000000      6.000000
  0.170402  0.090369  0.000000     24.000000
  0.198802  0.080328  0.000000     24.000000
 -0.198802  0.220902  0.000000     24.000000
 -0.170402  0.210861  0.000000     24.000000
 -0.142001  0.200820  0.000000     12.000000
  0.170402  0.120492  0.000000      6.000000
  0.198802  0.110451  0.000000     24.000000
 -0.198802  0.251025  0.000000     24.000000
 -0.170402  0.240984  0.000000     12.000000
  0.198802  0.140574  0.000000      6.000000
 -0.198802  0.281148  0.000000     12.000000
  0.071001  0.020082  0.024595     24.000000
  0.099401  0.010041  0.024595     48.000000
  0.127801  0.000000  0.024595     48.000000
  0.156202 -0.010041  0.024595     48.000000
  0.184602 -0.020082  0.024595     48.000000
 -0.213002  0.120492  0.024595     48.000000
  0.099401  0.040164  0.024595     24.000000
  0.127801  0.030123  0.024595     48.000000
  0.156202  0.020082  0.024595     48.000000
  0.184602  0.010041  0.024595     48.000000
 -0.213002  0.150615  0.024595     48.000000
 -0.184602  0.140574  0.024595     48.000000
 -0.156202  0.130533  0.024595     48.000000
 -0.127801  0.120492  0.024595     48.000000
 -0.099401  0.110451  0.024595     48.000000
 -0.071001  0.100410  0.024595     24.000000
  0.127801  0.060246  0.024595     24.000000
  0.156202  0.050205  0.024595     48.000000
  0.184602  0.040164  0.024595     48.000000
 -0.213002  0.180738  0.024595     48.000000
 -0.184602  0.170697  0.024595     48.000000
 -0.156202  0.160656  0.024595     48.000000
 -0.127801  0.150615  0.024595     48.000000
 -0.099401  0.140574  0.024595     24.000000
  0.156202  0.080328  0.024595     24.000000
  0.184602  0.070287  0.024595     48.000000
 -0.213002  0.210861  0.024595     48.000000
 -0.184602  0.200820  0.024595     48.000000
 -0.156202  0.190779  0.024595     48.000000
 -0.127801  0.180738  0.024595     24.000000
  0.184602  0.100410  0.024595     24.000000
 -0.213002  0.240984  0.024595     48.000000
 -0.184602  0.230943  0.024595     48.000000
 -0.156202  0.220902  0.024595     24.000000
 -0.213002  0.271107  0.024595     24.000000
 -0.184602  0.261066  0.024595     24.000000
  0.142001  0.040164  0.049191     24.000000
  0.170402  0.030123  0.049191     48.000000
 -0.227202  0.170697  0.049191     48.000000
 -0.198802  0.160656  0.049191     48.000000
  0.170402  0.060246  0.049191     24.000000
 -0.227202  0.200820  0.049191     48.000000
 -0.198802  0.190779  0.049191     48.000000
 -0.170402  0.180738  0.049191     48.000000
 -0.142001  0.170697  0.049191     48.000000
 -0.113601  0.160656  0.049191     24.000000
 -0.227202  0.230943  0.049191     24.000000
 -0.198802  0.220902  0.049191     48.000000
 -0.170402  0.210861  0.049191     48.000000
 -0.142001  0.200820  0.049191     24.000000
 -0.198802  0.251025  0.049191     24.000000
 -0.170402  0.240984  0.049191     24.000000
 -0.213002  0.210861  0.073786     24.000000
 -0.184602  0.200820  0.073786     48.000000
 -0.184602  0.230943  0.073786     24.000000
 -0.156201  0.220902  0.073786     24.000000
 


--------------------------------------------------------------------------------------------------------




 Dimension of arrays:
   k-points           NKPTS =    120   k-points in BZ     NKDIM =    120   number of bands    NBANDS=      8
   number of dos      NEDOS =    301   number of ions     NIONS =      1
   non local maximal  LDIM  =      4   non local SUM 2l+1 LMDIM =      8
   total plane-waves  NPLWV =  13824
   max r-space proj   IRMAX =      1   max aug-charges    IRDMAX= 233611
   dimension x,y,z NGX =    24 NGY =   24 NGZ =   24
   dimension x,y,z NGXF=    48 NGYF=   48 NGZF=   48
   support grid    NGXF=    96 NGYF=   96 NGZF=   96
   ions per type =               1
   NGX,Y,Z   is equivalent  to a cutoff of  14.15, 14.15, 14.15 a.u.
   NGXF,Y,Z  is equivalent  to a cutoff of  28.31, 28.31, 28.31 a.u.

 SYSTEM =  unknown system                          
 POSCAR =  Si1                                     

 Startparameter for this run:
   NWRITE =      2    write-flag & timer
   PREC   = accura    normal or accurate (medium, high low for compatibility)
   ISTART =      0    job   : 0-new  1-cont  2-samecut
   ICHARG =      2    charge: 1-file 2-atom 10-const
   ISPIN  =      1    spin polarized calculation?
   LNONCOLLINEAR =      F non collinear calculations
   LSORBIT =      F    spin-orbit coupling
   INIWAV =      1    electr: 0-lowe 1-rand  2-diag
   LASPH  =      T    aspherical Exc in radial PAW
   METAGGA=      F    non-selfconsistent MetaGGA calc.

 Electronic Relaxation 1
   ENCUT  =  700.0 eV  51.45 Ry    7.17 a.u.   6.08  6.08  6.08*2*pi/ulx,y,z
   ENINI  =  700.0     initial cutoff
   ENAUG  =  322.1 eV  augmentation charge cutoff
   NELM   =     90;   NELMIN=  6; NELMDL= -5     # of ELM steps 
   EDIFF  = 0.1E-05   stopping-criterion for ELM
   LREAL  =      F    real-space projection
   NLSPLINE    = F    spline interpolate recip. space projectors
   LCOMPAT=      F    compatible to vasp.4.4
   GGA_COMPAT  = T    GGA compatible to vasp.4.4-vasp.4.6
   LMAXPAW     = -100 max onsite density
   LMAXMIX     =    2 max onsite mixed and CHGCAR
   VOSKOWN=      0    Vosko Wilk Nusair interpolation
   ROPT   =    0.00000
 Ionic relaxation
   EDIFFG = -.2E-02   stopping-criterion for IOM
   NSW    =    100    number of steps for IOM
   NBLOCK =      1;   KBLOCK =    100    inner block; outer block 
   IBRION =      2    ionic relax: 0-MD 1-quasi-New 2-CG
   NFREE  =      1    steps in history (QN), initial steepest desc. (CG)
   ISIF   =      2    stress and relaxation
   IWAVPR =     11    prediction:  0-non 1-charg 2-wave 3-comb
   ISYM   =      2    0-nonsym 1-usesym 2-fastsym
   LCORR  =      T    Harris-Foulkes like correction to forces

   POTIM  = 0.5000    time-step for ionic-motion
   TEIN   =    0.0    initial temperature
   TEBEG  =    0.0;   TEEND  =   0.0 temperature during run
   SMASS  =  -3.00    Nose mass-parameter (am)
   estimated Nose-frequenzy (Omega)   =  0.10E-29 period in steps = 0.13E+47 mass=  -0.182E-27a.u.
   SCALEE = 1.0000    scale energy and forces
   NPACO  =    256;   APACO  = 16.0  distance and # of slots for P.C.
   PSTRESS=    0.0 pullay stress

  Mass of Ions in am
   POMASS =  28.09
  Ionic Valenz
   ZVAL   =   4.00
  Atomic Wigner-Seitz radii
   RWIGS  =  -1.00
  virtual crystal weights 
   VCA    =   1.00
   NELECT =       4.0000    total number of electrons
   NUPDOWN=      -1.0000    fix difference up-down

 DOS related values:
   EMIN   =  10.00;   EMAX   =-10.00  energy-range for DOS
   EFERMI =   0.00
   ISMEAR =     0;   SIGMA  =   0.05  broadening in eV -4-tet -1-fermi 0-gaus

 Electronic relaxation 2 (details)
   IALGO  =     38    algorithm
   LDIAG  =      T    sub-space diagonalisation (order eigenvalues)
   LSUBROT=      F    optimize rotation matrix (better conditioning)
   TURBO    =      0    0=normal 1=particle mesh
   IRESTART =      0    0=no restart 2=restart with 2 vectors
   NREBOOT  =      0    no. of reboots
   NMIN     =      0    reboot dimension
   EREF     =   0.00    reference energy to select bands
   IMIX   =      4    mixing-type and parameters
     AMIX     =   0.40;   BMIX     =  1.00
     AMIX_MAG =   1.60;   BMIX_MAG =  1.00
     AMIN     =   0.10
     WC   =   100.;   INIMIX=   1;  MIXPRE=   1;  MAXMIX= -45

 Intra band minimization:
   WEIMIN = 0.0010     energy-eigenvalue tresh-hold
   EBREAK =  0.31E-07  absolut break condition
   DEPER  =   0.30     relativ break condition  

   TIME   =   0.40     timestep for ELM

  volume/ion in A,a.u.               =      15.84       106.89
  Fermi-wavevector in a.u.,A,eV,Ry     =   1.034771  1.955434 14.568456  1.070751
  Thomas-Fermi vector in A             =   2.169082
 
 Write flags
   LWAVE        =      F    write WAVECAR
   LDOWNSAMPLE  =      F    k-point downsampling of WAVECAR
   LCHARG       =      F    write CHGCAR
   LVTOT        =      F    write LOCPOT, total local potential
   LVHAR        =      F    write LOCPOT, Hartree potential only
   LELF         =      F    write electronic localiz. function (ELF)
   LORBIT       =      0    0 simple, 1 ext, 2 COOP (PROOUT), +10 PAW based schemes


 Dipole corrections
   LMONO  =      F    monopole corrections only (constant potential shift)
   LDIPOL =      F    correct potential (dipole corrections)
   IDIPOL =      0    1-x, 2-y, 3-z, 4-all directions 
   EPSILON=  1.0000000 bulk dielectric constant

 Exchange correlation treatment:
   GGA     =    --    GGA type
   LEXCH   =     8    internal setting for exchange type
   VOSKOWN=      0    Vosko Wilk Nusair interpolation
   LHFCALC =     F    Hartree Fock is set to
   LHFONE  =     F    Hartree Fock one center treatment
   AEXX    =    0.0000 exact exchange contribution

 Linear response parameters
   LEPSILON=     F    determine dielectric tensor
   LRPA    =     F    only Hartree local field effects (RPA)
   LNABLA  =     F    use nabla operator in PAW spheres
   LVEL    =     F    velocity operator in full k-point grid
   LINTERFAST=   F  fast interpolation
   KINTER  =     0    interpolate to denser k-point grid
   CSHIFT  =0.1000    complex shift for real part using Kramers Kronig
   OMEGAMAX=  -1.0    maximum frequency
   DEG_THRESHOLD= 0.2000000E-02 threshold for treating states as degnerate
   RTIME   =   -0.100 relaxation time in fs
  (WPLASMAI=    0.000 imaginary part of plasma frequency in eV, 0.658/RTIME)
   DFIELD  = 0.0000000 0.0000000 0.0000000 field for delta impulse in time
 
 Orbital magnetization related:
   ORBITALMAG=     F  switch on orbital magnetization
   LCHIMAG   =     F  perturbation theory with respect to B field
   DQ        =  0.001000  dq finite difference perturbation B field
   LLRAUG    =     F  two centre corrections for induced B field



--------------------------------------------------------------------------------------------------------


 conjugate gradient relaxation of ions
 charge density and potential will be updated during run
 non-spin polarized calculation
 Variant of blocked Davidson
 Davidson routine will perform the subspace rotation
 perform sub-space diagonalisation
    after iterative eigenvector-optimisation
 modified Broyden-mixing scheme, WC =      100.0
 initial mixing is a Kerker type mixing with AMIX =  0.4000 and BMIX =      1.0000
 Hartree-type preconditioning will be used
 using additional bands            6
 reciprocal scheme for non local part
 use partial core corrections
 calculate Harris-corrections to forces 
   (improved forces if not selfconsistent)
 use gradient corrections 
 use of overlap-Matrix (Vanderbilt PP)
 Gauss-broadening in eV      SIGMA  =   0.05


--------------------------------------------------------------------------------------------------------


  energy-cutoff  :      700.00
  volume of cell :       15.84
      direct lattice vectors                 reciprocal lattice vectors
     2.441290800  0.000000000  1.409478720     0.409619370 -0.144822332  0.000000000
     0.813763600  2.301670800  1.409478720     0.000000000  0.434466997  0.000000000
     0.000000000  0.000000000  2.818959520    -0.204809534 -0.144822225  0.354740816

  length of vectors
     2.818959211  2.818959015  2.818959520     0.434466957  0.434466997  0.434466879


 
 k-points in units of 2pi/SCALE and weight: Automatic                               
   0.00000000  0.00000000  0.00000000       0.000
   0.02840028 -0.01004102  0.00000000       0.002
   0.05680055 -0.02008203  0.00000000       0.002
   0.08520083 -0.03012305  0.00000000       0.002
   0.11360111 -0.04016406  0.00000000       0.002
   0.14200138 -0.05020508  0.00000000       0.002
   0.17040166 -0.06024609  0.00000000       0.002
   0.19880193 -0.07028711  0.00000000       0.002
   0.02840028  0.02008203  0.00000000       0.002
   0.05680055  0.01004102  0.00000000       0.007
   0.08520083  0.00000000  0.00000000       0.007
   0.11360111 -0.01004102  0.00000000       0.007
   0.14200138 -0.02008203  0.00000000       0.007
   0.17040166 -0.03012305  0.00000000       0.007
   0.19880193 -0.04016406  0.00000000       0.007
  -0.19880193  0.10041015  0.00000000       0.007
  -0.17040166  0.09036914  0.00000000       0.007
  -0.14200138  0.08032812  0.00000000       0.007
  -0.11360111  0.07028711  0.00000000       0.007
  -0.08520083  0.06024609  0.00000000       0.007
  -0.05680055  0.05020508  0.00000000       0.007
  -0.02840028  0.04016406  0.00000000       0.004
   0.05680055  0.04016406  0.00000000       0.002
   0.08520083  0.03012305  0.00000000       0.007
   0.11360111  0.02008203  0.00000000       0.007
   0.14200138  0.01004102  0.00000000       0.007
   0.17040166  0.00000000  0.00000000       0.007
   0.19880193 -0.01004102  0.00000000       0.007
  -0.19880193  0.13053320  0.00000000       0.007
  -0.17040166  0.12049218  0.00000000       0.007
  -0.14200138  0.11045117  0.00000000       0.007
  -0.11360111  0.10041015  0.00000000       0.007
  -0.08520083  0.09036914  0.00000000       0.007
  -0.05680055  0.08032812  0.00000000       0.004
   0.08520083  0.06024609  0.00000000       0.002
   0.11360111  0.05020508  0.00000000       0.007
   0.14200138  0.04016406  0.00000000       0.007
   0.17040166  0.03012305  0.00000000       0.007
   0.19880193  0.02008203  0.00000000       0.007
  -0.19880193  0.16065624  0.00000000       0.007
  -0.17040166  0.15061523  0.00000000       0.007
  -0.14200138  0.14057421  0.00000000       0.007
  -0.11360111  0.13053320  0.00000000       0.007
  -0.08520083  0.12049218  0.00000000       0.004
   0.11360111  0.08032812  0.00000000       0.002
   0.14200138  0.07028711  0.00000000       0.007
   0.17040166  0.06024609  0.00000000       0.007
   0.19880193  0.05020508  0.00000000       0.007
  -0.19880193  0.19077929  0.00000000       0.007
  -0.17040166  0.18073827  0.00000000       0.007
  -0.14200138  0.17069726  0.00000000       0.007
  -0.11360111  0.16065624  0.00000000       0.004
   0.14200138  0.10041015  0.00000000       0.002
   0.17040166  0.09036914  0.00000000       0.007
   0.19880193  0.08032812  0.00000000       0.007
  -0.19880193  0.22090233  0.00000000       0.007
  -0.17040166  0.21086132  0.00000000       0.007
  -0.14200138  0.20082030  0.00000000       0.004
   0.17040166  0.12049218  0.00000000       0.002
   0.19880193  0.11045117  0.00000000       0.007
  -0.19880193  0.25102538  0.00000000       0.007
  -0.17040166  0.24098436  0.00000000       0.004
   0.19880193  0.14057421  0.00000000       0.002
  -0.19880193  0.28114842  0.00000000       0.004
   0.07100070  0.02008204  0.02459536       0.007
   0.09940098  0.01004102  0.02459536       0.014
   0.12780125  0.00000001  0.02459536       0.014
   0.15620153 -0.01004101  0.02459536       0.014
   0.18460181 -0.02008202  0.02459536       0.014
  -0.21300206  0.12049219  0.02459536       0.014
   0.09940098  0.04016407  0.02459536       0.007
   0.12780125  0.03012305  0.02459536       0.014
   0.15620153  0.02008204  0.02459536       0.014
   0.18460181  0.01004102  0.02459536       0.014
  -0.21300206  0.15061523  0.02459536       0.014
  -0.18460179  0.14057422  0.02459536       0.014
  -0.15620151  0.13053320  0.02459536       0.014
  -0.12780123  0.12049219  0.02459536       0.014
  -0.09940096  0.11045117  0.02459536       0.014
  -0.07100068  0.10041016  0.02459536       0.007
   0.12780125  0.06024610  0.02459536       0.007
   0.15620153  0.05020508  0.02459536       0.014
   0.18460181  0.04016407  0.02459536       0.014
  -0.21300206  0.18073828  0.02459536       0.014
  -0.18460179  0.17069726  0.02459536       0.014
  -0.15620151  0.16065625  0.02459536       0.014
  -0.12780123  0.15061523  0.02459536       0.014
  -0.09940096  0.14057422  0.02459536       0.007
   0.15620153  0.08032813  0.02459536       0.007
   0.18460181  0.07028711  0.02459536       0.014
  -0.21300206  0.21086132  0.02459536       0.014
  -0.18460179  0.20082031  0.02459536       0.014
  -0.15620151  0.19077929  0.02459536       0.014
  -0.12780123  0.18073828  0.02459536       0.007
   0.18460181  0.10041016  0.02459536       0.007
  -0.21300206  0.24098437  0.02459536       0.014
  -0.18460179  0.23094335  0.02459536       0.014
  -0.15620151  0.22090234  0.02459536       0.007
  -0.21300206  0.27110741  0.02459536       0.007
  -0.18460179  0.26106640  0.02459536       0.007
   0.14200140  0.04016407  0.04919073       0.007
   0.17040168  0.03012306  0.04919073       0.014
  -0.22720219  0.17069727  0.04919073       0.014
  -0.19880191  0.16065626  0.04919073       0.014
   0.17040168  0.06024611  0.04919073       0.007
  -0.22720219  0.20082032  0.04919073       0.014
  -0.19880191  0.19077930  0.04919073       0.014
  -0.17040164  0.18073829  0.04919073       0.014
  -0.14200136  0.17069727  0.04919073       0.014
  -0.11360108  0.16065626  0.04919073       0.007
  -0.22720219  0.23094336  0.04919073       0.007
  -0.19880191  0.22090235  0.04919073       0.014
  -0.17040164  0.21086133  0.04919073       0.014
  -0.14200136  0.20082032  0.04919073       0.007
  -0.19880191  0.25102539  0.04919073       0.007
  -0.17040164  0.24098438  0.04919073       0.007
  -0.21300204  0.21086134  0.07378609       0.007
  -0.18460176  0.20082032  0.07378609       0.014
  -0.18460176  0.23094337  0.07378609       0.007
  -0.15620149  0.22090235  0.07378609       0.007
 
 k-points in reciprocal lattice and weights: Automatic                               
   0.00000000  0.00000000  0.00000000       0.000
   0.06666667  0.00000000  0.00000000       0.002
   0.13333333  0.00000000  0.00000000       0.002
   0.20000000 -0.00000000  0.00000000       0.002
   0.26666667  0.00000000  0.00000000       0.002
   0.33333333  0.00000000  0.00000000       0.002
   0.40000000 -0.00000000  0.00000000       0.002
   0.46666667 -0.00000000  0.00000000       0.002
   0.06666667  0.06666667  0.00000000       0.002
   0.13333333  0.06666667  0.00000000       0.007
   0.20000000  0.06666667  0.00000000       0.007
   0.26666667  0.06666667  0.00000000       0.007
   0.33333333  0.06666667  0.00000000       0.007
   0.40000000  0.06666667  0.00000000       0.007
   0.46666667  0.06666667  0.00000000       0.007
  -0.46666667  0.06666667  0.00000000       0.007
  -0.40000000  0.06666667  0.00000000       0.007
  -0.33333333  0.06666667  0.00000000       0.007
  -0.26666667  0.06666667  0.00000000       0.007
  -0.20000000  0.06666667  0.00000000       0.007
  -0.13333333  0.06666667  0.00000000       0.007
  -0.06666667  0.06666667  0.00000000       0.004
   0.13333333  0.13333333  0.00000000       0.002
   0.20000000  0.13333333  0.00000000       0.007
   0.26666667  0.13333333  0.00000000       0.007
   0.33333333  0.13333333  0.00000000       0.007
   0.40000000  0.13333333  0.00000000       0.007
   0.46666667  0.13333333  0.00000000       0.007
  -0.46666667  0.13333333  0.00000000       0.007
  -0.40000000  0.13333333  0.00000000       0.007
  -0.33333333  0.13333333  0.00000000       0.007
  -0.26666667  0.13333333  0.00000000       0.007
  -0.20000000  0.13333333  0.00000000       0.007
  -0.13333333  0.13333333  0.00000000       0.004
   0.20000000  0.20000000  0.00000000       0.002
   0.26666667  0.20000000  0.00000000       0.007
   0.33333333  0.20000000  0.00000000       0.007
   0.40000000  0.20000000  0.00000000       0.007
   0.46666667  0.20000000  0.00000000       0.007
  -0.46666667  0.20000000  0.00000000       0.007
  -0.40000000  0.20000000  0.00000000       0.007
  -0.33333333  0.20000000  0.00000000       0.007
  -0.26666667  0.20000000  0.00000000       0.007
  -0.20000000  0.20000000  0.00000000       0.004
   0.26666667  0.26666667  0.00000000       0.002
   0.33333333  0.26666667  0.00000000       0.007
   0.40000000  0.26666667  0.00000000       0.007
   0.46666667  0.26666667  0.00000000       0.007
  -0.46666667  0.26666667  0.00000000       0.007
  -0.40000000  0.26666667  0.00000000       0.007
  -0.33333333  0.26666667  0.00000000       0.007
  -0.26666667  0.26666667  0.00000000       0.004
   0.33333333  0.33333333  0.00000000       0.002
   0.40000000  0.33333333  0.00000000       0.007
   0.46666667  0.33333333  0.00000000       0.007
  -0.46666667  0.33333333  0.00000000       0.007
  -0.40000000  0.33333333  0.00000000       0.007
  -0.33333333  0.33333333  0.00000000       0.004
   0.40000000  0.40000000  0.00000000       0.002
   0.46666667  0.40000000  0.00000000       0.007
  -0.46666667  0.40000000  0.00000000       0.007
  -0.40000000  0.40000000  0.00000000       0.004
   0.46666667  0.46666667  0.00000000       0.002
  -0.46666667  0.46666667  0.00000000       0.004
   0.20000000  0.13333333  0.06666667       0.007
   0.26666667  0.13333333  0.06666667       0.014
   0.33333333  0.13333333  0.06666667       0.014
   0.40000000  0.13333333  0.06666667       0.014
   0.46666667  0.13333333  0.06666667       0.014
  -0.46666667  0.13333333  0.06666667       0.014
   0.26666667  0.20000000  0.06666667       0.007
   0.33333333  0.20000000  0.06666667       0.014
   0.40000000  0.20000000  0.06666667       0.014
   0.46666667  0.20000000  0.06666667       0.014
  -0.46666667  0.20000000  0.06666667       0.014
  -0.40000000  0.20000000  0.06666667       0.014
  -0.33333333  0.20000000  0.06666667       0.014
  -0.26666667  0.20000000  0.06666667       0.014
  -0.20000000  0.20000000  0.06666667       0.014
  -0.13333333  0.20000000  0.06666667       0.007
   0.33333333  0.26666667  0.06666667       0.007
   0.40000000  0.26666667  0.06666667       0.014
   0.46666667  0.26666667  0.06666667       0.014
  -0.46666667  0.26666667  0.06666667       0.014
  -0.40000000  0.26666667  0.06666667       0.014
  -0.33333333  0.26666667  0.06666667       0.014
  -0.26666667  0.26666667  0.06666667       0.014
  -0.20000000  0.26666667  0.06666667       0.007
   0.40000000  0.33333333  0.06666667       0.007
   0.46666667  0.33333333  0.06666667       0.014
  -0.46666667  0.33333333  0.06666667       0.014
  -0.40000000  0.33333333  0.06666667       0.014
  -0.33333333  0.33333333  0.06666667       0.014
  -0.26666667  0.33333333  0.06666667       0.007
   0.46666667  0.40000000  0.06666667       0.007
  -0.46666667  0.40000000  0.06666667       0.014
  -0.40000000  0.40000000  0.06666667       0.014
  -0.33333333  0.40000000  0.06666667       0.007
  -0.46666667  0.46666667  0.06666667       0.007
  -0.40000000  0.46666667  0.06666667       0.007
   0.40000000  0.26666667  0.13333333       0.007
   0.46666667  0.26666667  0.13333333       0.014
  -0.46666667  0.26666667  0.13333333       0.014
  -0.40000000  0.26666667  0.13333333       0.014
   0.46666667  0.33333333  0.13333333       0.007
  -0.46666667  0.33333333  0.13333333       0.014
  -0.40000000  0.33333333  0.13333333       0.014
  -0.33333333  0.33333333  0.13333333       0.014
  -0.26666667  0.33333333  0.13333333       0.014
  -0.20000000  0.33333333  0.13333333       0.007
  -0.46666667  0.40000000  0.13333333       0.007
  -0.40000000  0.40000000  0.13333333       0.014
  -0.33333333  0.40000000  0.13333333       0.014
  -0.26666667  0.40000000  0.13333333       0.007
  -0.40000000  0.46666667  0.13333333       0.007
  -0.33333333  0.46666667  0.13333333       0.007
  -0.40000000  0.40000000  0.20000000       0.007
  -0.33333333  0.40000000  0.20000000       0.014
  -0.33333333  0.46666667  0.20000000       0.007
  -0.26666667  0.46666667  0.20000000       0.007
 
 position of ions in fractional coordinates (direct lattice) 
   0.00000000  0.00000000  0.00000000
 
 position of ions in cartesian coordinates  (Angst):
   0.00000000  0.00000000  0.00000000
 


--------------------------------------------------------------------------------------------------------


 k-point   1 :   0.0000 0.0000 0.0000  plane waves:     645
 k-point   2 :   0.0667 0.0000 0.0000  plane waves:     658
 k-point   3 :   0.1333 0.0000 0.0000  plane waves:     655
 k-point   4 :   0.2000-0.0000 0.0000  plane waves:     661
 k-point   5 :   0.2667 0.0000 0.0000  plane waves:     658
 k-point   6 :   0.3333 0.0000 0.0000  plane waves:     658
 k-point   7 :   0.4000-0.0000 0.0000  plane waves:     664
 k-point   8 :   0.4667-0.0000 0.0000  plane waves:     652
 k-point   9 :   0.0667 0.0667 0.0000  plane waves:     661
 k-point  10 :   0.1333 0.0667 0.0000  plane waves:     663
 k-point  11 :   0.2000 0.0667 0.0000  plane waves:     658
 k-point  12 :   0.2667 0.0667 0.0000  plane waves:     657
 k-point  13 :   0.3333 0.0667 0.0000  plane waves:     659
 k-point  14 :   0.4000 0.0667 0.0000  plane waves:     655
 k-point  15 :   0.4667 0.0667 0.0000  plane waves:     655
 k-point  16 :  -0.4667 0.0667 0.0000  plane waves:     663
 k-point  17 :  -0.4000 0.0667 0.0000  plane waves:     658
 k-point  18 :  -0.3333 0.0667 0.0000  plane waves:     659
 k-point  19 :  -0.2667 0.0667 0.0000  plane waves:     655
 k-point  20 :  -0.2000 0.0667 0.0000  plane waves:     662
 k-point  21 :  -0.1333 0.0667 0.0000  plane waves:     661
 k-point  22 :  -0.0667 0.0667 0.0000  plane waves:     664
 k-point  23 :   0.1333 0.1333 0.0000  plane waves:     665
 k-point  24 :   0.2000 0.1333 0.0000  plane waves:     664
 k-point  25 :   0.2667 0.1333 0.0000  plane waves:     661
 k-point  26 :   0.3333 0.1333 0.0000  plane waves:     661
 k-point  27 :   0.4000 0.1333 0.0000  plane waves:     660
 k-point  28 :   0.4667 0.1333 0.0000  plane waves:     663
 k-point  29 :  -0.4667 0.1333 0.0000  plane waves:     669
 k-point  30 :  -0.4000 0.1333 0.0000  plane waves:     665
 k-point  31 :  -0.3333 0.1333 0.0000  plane waves:     663
 k-point  32 :  -0.2667 0.1333 0.0000  plane waves:     649
 k-point  33 :  -0.2000 0.1333 0.0000  plane waves:     656
 k-point  34 :  -0.1333 0.1333 0.0000  plane waves:     660
 k-point  35 :   0.2000 0.2000 0.0000  plane waves:     665
 k-point  36 :   0.2667 0.2000 0.0000  plane waves:     662
 k-point  37 :   0.3333 0.2000 0.0000  plane waves:     666
 k-point  38 :   0.4000 0.2000 0.0000  plane waves:     662
 k-point  39 :   0.4667 0.2000 0.0000  plane waves:     672
 k-point  40 :  -0.4667 0.2000 0.0000  plane waves:     675
 k-point  41 :  -0.4000 0.2000 0.0000  plane waves:     672
 k-point  42 :  -0.3333 0.2000 0.0000  plane waves:     669
 k-point  43 :  -0.2667 0.2000 0.0000  plane waves:     663
 k-point  44 :  -0.2000 0.2000 0.0000  plane waves:     660
 k-point  45 :   0.2667 0.2667 0.0000  plane waves:     653
 k-point  46 :   0.3333 0.2667 0.0000  plane waves:     658
 k-point  47 :   0.4000 0.2667 0.0000  plane waves:     668
 k-point  48 :   0.4667 0.2667 0.0000  plane waves:     670
 k-point  49 :  -0.4667 0.2667 0.0000  plane waves:     673
 k-point  50 :  -0.4000 0.2667 0.0000  plane waves:     674
 k-point  51 :  -0.3333 0.2667 0.0000  plane waves:     673
 k-point  52 :  -0.2667 0.2667 0.0000  plane waves:     672
 k-point  53 :   0.3333 0.3333 0.0000  plane waves:     664
 k-point  54 :   0.4000 0.3333 0.0000  plane waves:     668
 k-point  55 :   0.4667 0.3333 0.0000  plane waves:     668
 k-point  56 :  -0.4667 0.3333 0.0000  plane waves:     676
 k-point  57 :  -0.4000 0.3333 0.0000  plane waves:     672
 k-point  58 :  -0.3333 0.3333 0.0000  plane waves:     680
 k-point  59 :   0.4000 0.4000 0.0000  plane waves:     664
 k-point  60 :   0.4667 0.4000 0.0000  plane waves:     668
 k-point  61 :  -0.4667 0.4000 0.0000  plane waves:     666
 k-point  62 :  -0.4000 0.4000 0.0000  plane waves:     678
 k-point  63 :   0.4667 0.4667 0.0000  plane waves:     668
 k-point  64 :  -0.4667 0.4667 0.0000  plane waves:     666
 k-point  65 :   0.2000 0.1333 0.0667  plane waves:     668
 k-point  66 :   0.2667 0.1333 0.0667  plane waves:     664
 k-point  67 :   0.3333 0.1333 0.0667  plane waves:     656
 k-point  68 :   0.4000 0.1333 0.0667  plane waves:     656
 k-point  69 :   0.4667 0.1333 0.0667  plane waves:     660
 k-point  70 :  -0.4667 0.1333 0.0667  plane waves:     667
 k-point  71 :   0.2667 0.2000 0.0667  plane waves:     664
 k-point  72 :   0.3333 0.2000 0.0667  plane waves:     662
 k-point  73 :   0.4000 0.2000 0.0667  plane waves:     660
 k-point  74 :   0.4667 0.2000 0.0667  plane waves:     664
 k-point  75 :  -0.4667 0.2000 0.0667  plane waves:     664
 k-point  76 :  -0.4000 0.2000 0.0667  plane waves:     669
 k-point  77 :  -0.3333 0.2000 0.0667  plane waves:     665
 k-point  78 :  -0.2667 0.2000 0.0667  plane waves:     660
 k-point  79 :  -0.2000 0.2000 0.0667  plane waves:     658
 k-point  80 :  -0.1333 0.2000 0.0667  plane waves:     658
 k-point  81 :   0.3333 0.2667 0.0667  plane waves:     662
 k-point  82 :   0.4000 0.2667 0.0667  plane waves:     663
 k-point  83 :   0.4667 0.2667 0.0667  plane waves:     667
 k-point  84 :  -0.4667 0.2667 0.0667  plane waves:     669
 k-point  85 :  -0.4000 0.2667 0.0667  plane waves:     668
 k-point  86 :  -0.3333 0.2667 0.0667  plane waves:     671
 k-point  87 :  -0.2667 0.2667 0.0667  plane waves:     668
 k-point  88 :  -0.2000 0.2667 0.0667  plane waves:     662
 k-point  89 :   0.4000 0.3333 0.0667  plane waves:     663
 k-point  90 :   0.4667 0.3333 0.0667  plane waves:     666
 k-point  91 :  -0.4667 0.3333 0.0667  plane waves:     668
 k-point  92 :  -0.4000 0.3333 0.0667  plane waves:     671
 k-point  93 :  -0.3333 0.3333 0.0667  plane waves:     672
 k-point  94 :  -0.2667 0.3333 0.0667  plane waves:     672
 k-point  95 :   0.4667 0.4000 0.0667  plane waves:     668
 k-point  96 :  -0.4667 0.4000 0.0667  plane waves:     669
 k-point  97 :  -0.4000 0.4000 0.0667  plane waves:     674
 k-point  98 :  -0.3333 0.4000 0.0667  plane waves:     672
 k-point  99 :  -0.4667 0.4667 0.0667  plane waves:     666
 k-point 100 :  -0.4000 0.4667 0.0667  plane waves:     664
 k-point 101 :   0.4000 0.2667 0.1333  plane waves:     663
 k-point 102 :   0.4667 0.2667 0.1333  plane waves:     662
 k-point 103 :  -0.4667 0.2667 0.1333  plane waves:     668
 k-point 104 :  -0.4000 0.2667 0.1333  plane waves:     671
 k-point 105 :   0.4667 0.3333 0.1333  plane waves:     662
 k-point 106 :  -0.4667 0.3333 0.1333  plane waves:     668
 k-point 107 :  -0.4000 0.3333 0.1333  plane waves:     671
 k-point 108 :  -0.3333 0.3333 0.1333  plane waves:     667
 k-point 109 :  -0.2667 0.3333 0.1333  plane waves:     673
 k-point 110 :  -0.2000 0.3333 0.1333  plane waves:     664
 k-point 111 :  -0.4667 0.4000 0.1333  plane waves:     664
 k-point 112 :  -0.4000 0.4000 0.1333  plane waves:     671
 k-point 113 :  -0.3333 0.4000 0.1333  plane waves:     673
 k-point 114 :  -0.2667 0.4000 0.1333  plane waves:     673
 k-point 115 :  -0.4000 0.4667 0.1333  plane waves:     672
 k-point 116 :  -0.3333 0.4667 0.1333  plane waves:     674
 k-point 117 :  -0.4000 0.4000 0.2000  plane waves:     668
 k-point 118 :  -0.3333 0.4000 0.2000  plane waves:     674
 k-point 119 :  -0.3333 0.4667 0.2000  plane waves:     676
 k-point 120 :  -0.2667 0.4667 0.2000  plane waves:     676

 maximum and minimum number of plane-waves per node :       680      645

 maximum number of plane-waves:       680
 maximum index in each direction: 
   IXMAX=    6   IYMAX=    6   IZMAX=    6
   IXMIN=   -6   IYMIN=   -6   IZMIN=   -6


 serial   3D FFT for wavefunctions
 parallel 3D FFT for charge:
    minimum data exchange during FFTs selected (reduces bandwidth)


 total amount of memory used by VASP MPI-rank0    43980. kBytes
=======================================================================

   base      :      30000. kBytes
   nonl-proj :       5233. kBytes
   fftplans  :       4177. kBytes
   grid      :       1926. kBytes
   one-center:          3. kBytes
   wavefun   :       2641. kBytes
 
     INWAV:  cpu time    0.0000: real time    0.0007
 Broyden mixing: mesh for mixing (old mesh)
   NGX = 13   NGY = 13   NGZ = 13
  (NGX  = 48   NGY  = 48   NGZ  = 48)
  gives a total of   2197 points

 initial charge density was supplied:
 charge density of overlapping atoms calculated
 number of electron       4.0000000 magnetization 
 keeping initial charge density in first step


--------------------------------------------------------------------------------------------------------


 Maximum index for augmentation-charges        56617 (set IRDMAX)


--------------------------------------------------------------------------------------------------------


 First call to EWALD:  gamma=   0.706
 Maximum number of real-space cells 3x 3x 3
 Maximum number of reciprocal cells 3x 3x 3

    FEWALD:  cpu time    0.0030: real time    0.0036


--------------------------------------- Iteration      1(   1)  ---------------------------------------


    POTLOK:  cpu time    0.0310: real time    0.0347
    SETDIJ:  cpu time    0.1860: real time    0.1856
     EDDAV:  cpu time    0.9699: real time    0.9706
       DOS:  cpu time    0.0010: real time    0.0022
    --------------------------------------------
      LOOP:  cpu time    1.1888: real time    1.1935

 eigenvalue-minimisations  :  1952
 total energy-change (2. order) :-0.1528387E+01  (-0.2124390E+03)
 number of electron       4.0000000 magnetization 
 augmentation part        4.0000000 magnetization 

 Free energy of the ion-electron system (eV)
  ---------------------------------------------------
  alpha Z        PSCENC =         2.12521534
  Ewald energy   TEWEN  =      -132.48554124
  -Hartree energ DENC   =        -0.81929167
  -exchange      EXHF   =         0.00000000
  -V(xc)+E(xc)   XCENC  =        -9.03939595
  PAW double counting   =        88.12379961      -70.53051779
  entropy T*S    EENTRO =        -0.00089413
  eigenvalues    EBANDS =        18.03161526
  atomic energy  EATOM  =       103.06662367
  Solvation  Ediel_sol  =         0.00000000
  ---------------------------------------------------
  free energy    TOTEN  =        -1.52838691 eV

  energy without entropy =       -1.52749277  energy(sigma->0) =       -1.52793984


--------------------------------------------------------------------------------------------------------




--------------------------------------- Iteration      1(   2)  ---------------------------------------


     EDDAV:  cpu time    1.3698: real time    1.3875
       DOS:  cpu time    0.0010: real time    0.0023
    --------------------------------------------
      LOOP:  cpu time    1.3708: real time    1.3897

 eigenvalue-minimisations  :  2928
 total energy-change (2. order) :-0.3323611E+01  (-0.3147187E+01)
 number of electron       4.0000000 magnetization 
 augmentation part        4.0000000 magnetization 

 Free energy of the ion-electron system (eV)
  ---------------------------------------------------
  alpha Z        PSCENC =         2.12521534
  Ewald energy   TEWEN  =      -132.48554124
  -Hartree energ DENC   =        -0.81929167
  -exchange      EXHF   =         0.00000000
  -V(xc)+E(xc)   XCENC  =        -9.03939595
  PAW double counting   =        88.12379961      -70.53051779
  entropy T*S    EENTRO =        -0.00100553
  eigenvalues    EBANDS =        14.70811555
  atomic energy  EATOM  =       103.06662367
  Solvation  Ediel_sol  =         0.00000000
  ---------------------------------------------------
  free energy    TOTEN  =        -4.85199801 eV

  energy without entropy =       -4.85099248  energy(sigma->0) =       -4.85149525


--------------------------------------------------------------------------------------------------------




--------------------------------------- Iteration      1(   3)  ---------------------------------------


     EDDAV:  cpu time    1.0668: real time    1.0842
       DOS:  cpu time    0.0020: real time    0.0022
    --------------------------------------------
      LOOP:  cpu time    1.0678: real time    1.0865

 eigenvalue-minimisations  :  2184
 total energy-change (2. order) :-0.2060174E-01  (-0.2057345E-01)
 number of electron       4.0000000 magnetization 
 augmentation part        4.0000000 magnetization 

 Free energy of the ion-electron system (eV)
  ---------------------------------------------------
  alpha Z        PSCENC =         2.12521534
  Ewald energy   TEWEN  =      -132.48554124
  -Hartree energ DENC   =        -0.81929167
  -exchange      EXHF   =         0.00000000
  -V(xc)+E(xc)   XCENC  =        -9.03939595
  PAW double counting   =        88.12379961      -70.53051779
  entropy T*S    EENTRO =        -0.00094883
  eigenvalues    EBANDS =        14.68745710
  atomic energy  EATOM  =       103.06662367
  Solvation  Ediel_sol  =         0.00000000
  ---------------------------------------------------
  free energy    TOTEN  =        -4.87259975 eV

  energy without entropy =       -4.87165092  energy(sigma->0) =       -4.87212534


--------------------------------------------------------------------------------------------------------




--------------------------------------- Iteration      1(   4)  ---------------------------------------


     EDDAV:  cpu time    1.4738: real time    1.4913
       DOS:  cpu time    0.0020: real time    0.0023
    --------------------------------------------
      LOOP:  cpu time    1.4768: real time    1.4935

 eigenvalue-minimisations  :  3160
 total energy-change (2. order) :-0.2696321E-04  (-0.2696358E-04)
 number of electron       4.0000000 magnetization 
 augmentation part        4.0000000 magnetization 

 Free energy of the ion-electron system (eV)
  ---------------------------------------------------
  alpha Z        PSCENC =         2.12521534
  Ewald energy   TEWEN  =      -132.48554124
  -Hartree energ DENC   =        -0.81929167
  -exchange      EXHF   =         0.00000000
  -V(xc)+E(xc)   XCENC  =        -9.03939595
  PAW double counting   =        88.12379961      -70.53051779
  entropy T*S    EENTRO =        -0.00094868
  eigenvalues    EBANDS =        14.68742999
  atomic energy  EATOM  =       103.06662367
  Solvation  Ediel_sol  =         0.00000000
  ---------------------------------------------------
  free energy    TOTEN  =        -4.87262671 eV

  energy without entropy =       -4.87167804  energy(sigma->0) =       -4.87215238


--------------------------------------------------------------------------------------------------------




--------------------------------------- Iteration      1(   5)  ---------------------------------------


     EDDAV:  cpu time    1.1118: real time    1.1287
       DOS:  cpu time    0.0010: real time    0.0022
    CHARGE:  cpu time    0.0850: real time    0.0842
    MIXING:  cpu time    0.0010: real time    0.0016
    --------------------------------------------
      LOOP:  cpu time    1.1978: real time    1.2169

 eigenvalue-minimisations  :  2296
 total energy-change (2. order) :-0.3942162E-08  (-0.3098465E-08)
 number of electron       4.0000000 magnetization 
 augmentation part       -0.2454387 magnetization 

 Broyden mixing:
  rms(total) = 0.22184E+00    rms(broyden)= 0.22184E+00
  rms(prec ) = 0.35670E+00
  weight for this iteration     100.00

 Free energy of the ion-electron system (eV)
  ---------------------------------------------------
  alpha Z        PSCENC =         2.12521534
  Ewald energy   TEWEN  =      -132.48554124
  -Hartree energ DENC   =        -0.81929167
  -exchange      EXHF   =         0.00000000
  -V(xc)+E(xc)   XCENC  =        -9.03939595
  PAW double counting   =        88.12379961      -70.53051779
  entropy T*S    EENTRO =        -0.00094868
  eigenvalues    EBANDS =        14.68742998
  atomic energy  EATOM  =       103.06662367
  Solvation  Ediel_sol  =         0.00000000
  ---------------------------------------------------
  free energy    TOTEN  =        -4.87262672 eV

  energy without entropy =       -4.87167804  energy(sigma->0) =       -4.87215238


--------------------------------------------------------------------------------------------------------




--------------------------------------- Iteration      1(   6)  ---------------------------------------


    POTLOK:  cpu time    0.0320: real time    0.0481
    SETDIJ:  cpu time    0.1740: real time    0.1743
     EDDAV:  cpu time    1.0738: real time    1.0746
       DOS:  cpu time    0.0010: real time    0.0024
    CHARGE:  cpu time    0.0810: real time    0.0809
    MIXING:  cpu time    0.0020: real time    0.0017
    --------------------------------------------
      LOOP:  cpu time    1.3638: real time    1.3820

 eigenvalue-minimisations  :  2208
 total energy-change (2. order) : 0.1123762E-01  (-0.4025009E-03)
 number of electron       4.0000000 magnetization 
 augmentation part       -0.2476654 magnetization 

 Broyden mixing:
  rms(total) = 0.12184E+00    rms(broyden)= 0.12184E+00
  rms(prec ) = 0.20616E+00
  weight for this iteration     100.00

 eigenvalues of (default mixing * dielectric matrix)
  average eigenvalue GAMMA=   2.2042
  2.2042

 Free energy of the ion-electron system (eV)
  ---------------------------------------------------
  alpha Z        PSCENC =         2.12521534
  Ewald energy   TEWEN  =      -132.48554124
  -Hartree energ DENC   =        -0.72206626
  -exchange      EXHF   =         0.00000000
  -V(xc)+E(xc)   XCENC  =        -9.03036448
  PAW double counting   =       149.70958641     -132.10915746
  entropy T*S    EENTRO =        -0.00089735
  eigenvalues    EBANDS =        14.58521229
  atomic energy  EATOM  =       103.06662367
  Solvation  Ediel_sol  =         0.00000000
  ---------------------------------------------------
  free energy    TOTEN  =        -4.86138910 eV

  energy without entropy =       -4.86049174  energy(sigma->0) =       -4.86094042


--------------------------------------------------------------------------------------------------------




--------------------------------------- Iteration      1(   7)  ---------------------------------------


    POTLOK:  cpu time    0.0330: real time    0.0486
    SETDIJ:  cpu time    0.1720: real time    0.1737
     EDDAV:  cpu time    1.0718: real time    1.0732
       DOS:  cpu time    0.0030: real time    0.0022
    CHARGE:  cpu time    0.0800: real time    0.0806
    MIXING:  cpu time    0.0010: real time    0.0019
    --------------------------------------------
      LOOP:  cpu time    1.3618: real time    1.3801

 eigenvalue-minimisations  :  2208
 total energy-change (2. order) : 0.6243592E-02  (-0.7967492E-03)
 number of electron       4.0000000 magnetization 
 augmentation part       -0.2508514 magnetization 

 Broyden mixing:
  rms(total) = 0.12194E-01    rms(broyden)= 0.12194E-01
  rms(prec ) = 0.15973E-01
  weight for this iteration     100.00

 eigenvalues of (default mixing * dielectric matrix)
  average eigenvalue GAMMA=   2.3900
  2.3900  2.3900

 Free energy of the ion-electron system (eV)
  ---------------------------------------------------
  alpha Z        PSCENC =         2.12521534
  Ewald energy   TEWEN  =      -132.48554124
  -Hartree energ DENC   =        -0.61103706
  -exchange      EXHF   =         0.00000000
  -V(xc)+E(xc)   XCENC  =        -9.01320079
  PAW double counting   =       259.01700394     -241.41076115
  entropy T*S    EENTRO =        -0.00082226
  eigenvalues    EBANDS =        14.45737406
  atomic energy  EATOM  =       103.06662367
  Solvation  Ediel_sol  =         0.00000000
  ---------------------------------------------------
  free energy    TOTEN  =        -4.85514550 eV

  energy without entropy =       -4.85432324  energy(sigma->0) =       -4.85473437


--------------------------------------------------------------------------------------------------------




--------------------------------------- Iteration      1(   8)  ---------------------------------------


    POTLOK:  cpu time    0.0330: real time    0.0486
    SETDIJ:  cpu time    0.1740: real time    0.1742
     EDDAV:  cpu time    1.4338: real time    1.4351
       DOS:  cpu time    0.0010: real time    0.0021
    CHARGE:  cpu time    0.0810: real time    0.0806
    MIXING:  cpu time    0.0010: real time    0.0016
    --------------------------------------------
      LOOP:  cpu time    1.7237: real time    1.7423

 eigenvalue-minimisations  :  3064
 total energy-change (2. order) : 0.2298022E-04  (-0.3173227E-05)
 number of electron       4.0000000 magnetization 
 augmentation part       -0.2509347 magnetization 

 Broyden mixing:
  rms(total) = 0.15182E-02    rms(broyden)= 0.15182E-02
  rms(prec ) = 0.21553E-02
  weight for this iteration     100.00

 eigenvalues of (default mixing * dielectric matrix)
  average eigenvalue GAMMA=   2.0229
  1.0132  2.4204  2.6352

 Free energy of the ion-electron system (eV)
  ---------------------------------------------------
  alpha Z        PSCENC =         2.12521534
  Ewald energy   TEWEN  =      -132.48554124
  -Hartree energ DENC   =        -0.61151187
  -exchange      EXHF   =         0.00000000
  -V(xc)+E(xc)   XCENC  =        -9.01073692
  PAW double counting   =       246.78608870     -229.18592649
  entropy T*S    EENTRO =        -0.00082038
  eigenvalues    EBANDS =        14.46148667
  atomic energy  EATOM  =       103.06662367
  Solvation  Ediel_sol  =         0.00000000
  ---------------------------------------------------
  free energy    TOTEN  =        -4.85512252 eV

  energy without entropy =       -4.85430214  energy(sigma->0) =       -4.85471233


--------------------------------------------------------------------------------------------------------




--------------------------------------- Iteration      1(   9)  ---------------------------------------


    POTLOK:  cpu time    0.0320: real time    0.0477
    SETDIJ:  cpu time    0.1740: real time    0.1741
     EDDAV:  cpu time    1.1018: real time    1.1029
       DOS:  cpu time    0.0010: real time    0.0024
    --------------------------------------------
      LOOP:  cpu time    1.3088: real time    1.3270

 eigenvalue-minimisations  :  2264
 total energy-change (2. order) :-0.5694109E-06  (-0.2470830E-07)
 number of electron       4.0000000 magnetization 
 augmentation part       -0.2509347 magnetization 

 Free energy of the ion-electron system (eV)
  ---------------------------------------------------
  alpha Z        PSCENC =         2.12521534
  Ewald energy   TEWEN  =      -132.48554124
  -Hartree energ DENC   =        -0.61142193
  -exchange      EXHF   =         0.00000000
  -V(xc)+E(xc)   XCENC  =        -9.01041980
  PAW double counting   =       244.99879938     -227.39926865
  entropy T*S    EENTRO =        -0.00081998
  eigenvalues    EBANDS =        14.46171011
  atomic energy  EATOM  =       103.06662367
  Solvation  Ediel_sol  =         0.00000000
  ---------------------------------------------------
  free energy    TOTEN  =        -4.85512309 eV

  energy without entropy =       -4.85430312  energy(sigma->0) =       -4.85471310


--------------------------------------------------------------------------------------------------------




 average (electrostatic) potential at core
  the test charge radii are     0.9892
  (the norm of the test charge is              1.0000)
       1 -81.0979
 
 
 
 E-fermi :   9.0118     XC(G=0): -10.8318     alpha+bet :-15.1419

 Fermi energy:         9.0118381285

 k-point     1 :       0.0000    0.0000    0.0000
  band No.  band energies     occupation 
      1      -4.6257      2.00000
      2      19.0991      0.00000
      3      19.0991      0.00000
      4      19.0991      0.00000
      5      20.6006      0.00000
      6      20.6006      0.00000
      7      20.6006      0.00000
      8      25.7343      0.00000

 k-point     2 :       0.0667    0.0000    0.0000
  band No.  band energies     occupation 
      1      -4.5041      2.00000
      2      17.3945      0.00000
      3      18.6566      0.00000
      4      18.6566      0.00000
      5      21.1848      0.00000
      6      21.1848      0.00000
      7      21.2837      0.00000
      8      26.3946      0.00000

 k-point     3 :       0.1333    0.0000    0.0000
  band No.  band energies     occupation 
      1      -4.1398      2.00000
      2      14.8008      0.00000
      3      18.0000      0.00000
      4      18.0000      0.00000
      5      21.5090      0.00000
      6      22.1304      0.00000
      7      22.1305      0.00000
      8      25.4566      0.00000

 k-point     4 :       0.2000   -0.0000    0.0000
  band No.  band energies     occupation 
      1      -3.5344      2.00000
      2      12.1589      0.00000
      3      17.4634      0.00000
      4      17.4634      0.00000
      5      21.4208      0.00000
      6      22.3800      0.00000
      7      22.3800      0.00000
      8      25.3973      0.00000

 k-point     5 :       0.2667    0.0000    0.0000
  band No.  band energies     occupation 
      1      -2.6906      2.00000
      2       9.6232      0.00000
      3      17.0908      0.00000
      4      17.0908      0.00000
      5      21.3019      0.00000
      6      21.6309      0.00000
      7      21.6310      0.00000
      8      26.6635      0.00000

 k-point     6 :       0.3333    0.0000    0.0000
  band No.  band energies     occupation 
      1      -1.6132      2.00000
      2       7.2524      2.00000
      3      16.8774      0.00000
      4      16.8774      0.00000
      5      20.7428      0.00000
      6      20.7428      0.00000
      7      21.2511      0.00000
      8      25.6634      0.00000

 k-point     7 :       0.4000   -0.0000    0.0000
  band No.  band energies     occupation 
      1      -0.3127      2.00000
      2       5.0807      2.00000
      3      16.7924      0.00000
      4      16.7924      0.00000
      5      20.0407      0.00000
      6      20.0407      0.00000
      7      21.2799      0.00000
      8      24.8439      0.00000

 k-point     8 :       0.4667   -0.0000    0.0000
  band No.  band energies     occupation 
      1       1.1515      2.00000
      2       3.1787      2.00000
      3      16.7791      0.00000
      4      16.7791      0.00000
      5      19.6507      0.00000
      6      19.6507      0.00000
      7      21.3343      0.00000
      8      24.3822      0.00000

 k-point     9 :       0.0667    0.0667    0.0000
  band No.  band energies     occupation 
      1      -4.4636      2.00000
      2      17.8070      0.00000
      3      17.8070      0.00000
      4      18.6980      0.00000
      5      19.7545      0.00000
      6      22.0913      0.00000
      7      22.0913      0.00000
      8      25.3532      0.00000

 k-point    10 :       0.1333    0.0667    0.0000
  band No.  band energies     occupation 
      1      -4.1802      2.00000
      2      15.7326      0.00000
      3      17.0423      0.00000
      4      18.3708      0.00000
      5      19.9871      0.00000
      6      22.7521      0.00000
      7      23.1320      0.00000
      8      23.9984      0.00000

 k-point    11 :       0.2000    0.0667    0.0000
  band No.  band energies     occupation 
      1      -3.6552      2.00000
      2      13.1165      0.00000
      3      16.4488      0.00000
      4      17.8014      0.00000
      5      20.6046      0.00000
      6      22.6146      0.00000
      7      23.4858      0.00000
      8      23.7165      0.00000

 k-point    12 :       0.2667    0.0667    0.0000
  band No.  band energies     occupation 
      1      -2.8908      2.00000
      2      10.5463      0.00000
      3      16.0472      0.00000
      4      17.2890      0.00000
      5      20.2528      0.00000
      6      22.3274      0.00000
      7      23.1882      0.00000
      8      24.4223      0.00000

 k-point    13 :       0.3333    0.0667    0.0000
  band No.  band energies     occupation 
      1      -1.8910      2.00000
      2       8.1207      2.00000
      3      15.8418      0.00000
      4      16.8376      0.00000
      5      19.5337      0.00000
      6      22.2443      0.00000
      7      22.2609      0.00000
      8      25.9226      0.00000

 k-point    14 :       0.4000    0.0667    0.0000
  band No.  band energies     occupation 
      1      -0.6634      2.00000
      2       5.8814      2.00000
      3      15.8290      0.00000
      4      16.3898      0.00000
      5      19.0659      0.00000
      6      21.3907      0.00000
      7      22.2139      0.00000
      8      25.9823      0.00000

 k-point    15 :       0.4667    0.0667    0.0000
  band No.  band energies     occupation 
      1       0.7646      2.00000
      2       3.8712      2.00000
      3      15.9323      0.00000
      4      15.9975      0.00000
      5      18.9856      0.00000
      6      20.7017      0.00000
      7      22.1956      0.00000
      8      25.5161      0.00000

 k-point    16 :      -0.4667    0.0667    0.0000
  band No.  band energies     occupation 
      1       1.6716      2.00000
      2       2.8183      2.00000
      3      15.5279      0.00000
      4      16.3243      0.00000
      5      19.2611      0.00000
      6      20.2507      0.00000
      7      22.1354      0.00000
      8      25.4333      0.00000

 k-point    17 :      -0.4000    0.0667    0.0000
  band No.  band energies     occupation 
      1       0.2711      2.00000
      2       4.5106      2.00000
      3      15.2471      0.00000
      4      16.7680      0.00000
      5      19.8272      0.00000
      6      20.0878      0.00000
      7      22.0342      0.00000
      8      25.7653      0.00000

 k-point    18 :      -0.3333    0.0667    0.0000
  band No.  band energies     occupation 
      1      -1.0971      2.00000
      2       6.6052      2.00000
      3      15.1329      0.00000
      4      17.2683      0.00000
      5      20.2646      0.00000
      6      20.6309      0.00000
      7      21.9541      0.00000
      8      26.4039      0.00000

 k-point    19 :      -0.2667    0.0667    0.0000
  band No.  band energies     occupation 
      1      -2.2501      2.00000
      2       8.9102      1.99595
      3      15.2066      0.00000
      4      17.7755      0.00000
      5      20.7903      0.00000
      6      21.6112      0.00000
      7      21.9429      0.00000
      8      25.9664      0.00000

 k-point    20 :      -0.2000    0.0667    0.0000
  band No.  band energies     occupation 
      1      -3.1720      2.00000
      2      11.3901      0.00000
      3      15.4774      0.00000
      4      18.2912      0.00000
      5      21.4857      0.00000
      6      21.9666      0.00000
      7      22.6465      0.00000
      8      24.4388      0.00000

 k-point    21 :      -0.1333    0.0667    0.0000
  band No.  band energies     occupation 
      1      -3.8570      2.00000
      2      13.9941      0.00000
      3      15.9458      0.00000
      4      18.8223      0.00000
      5      21.5295      0.00000
      6      21.9293      0.00000
      7      23.1430      0.00000
      8      24.1090      0.00000

 k-point    22 :      -0.0667    0.0667    0.0000
  band No.  band energies     occupation 
      1      -4.3016      2.00000
      2      16.5666      0.00000
      3      16.6292      0.00000
      4      19.1518      0.00000
      5      20.9137      0.00000
      6      21.5997      0.00000
      7      22.5227      0.00000
      8      25.1409      0.00000

 k-point    23 :       0.1333    0.1333    0.0000
  band No.  band energies     occupation 
      1      -3.9780      2.00000
      2      16.2032      0.00000
      3      16.2032      0.00000
      4      17.6349      0.00000
      5      18.2194      0.00000
      6      22.3167      0.00000
      7      24.2643      0.00000
      8      24.2643      0.00000

 k-point    24 :       0.2000    0.1333    0.0000
  band No.  band energies     occupation 
      1      -3.5339      2.00000
      2      14.1990      0.00000
      3      15.5436      0.00000
      4      17.0754      0.00000
      5      18.4663      0.00000
      6      21.0717      0.00000
      7      24.9417      0.00000
      8      25.1614      0.00000

 k-point    25 :       0.2667    0.1333    0.0000
  band No.  band energies     occupation 
      1      -2.8499      2.00000
      2      11.6595      0.00000
      3      15.0819      0.00000
      4      16.3652      0.00000
      5      18.5621      0.00000
      6      21.2079      0.00000
      7      24.9916      0.00000
      8      25.1165      0.00000

 k-point    26 :       0.3333    0.1333    0.0000
  band No.  band energies     occupation 
      1      -1.9293      2.00000
      2       9.2000      0.00000
      3      14.8242      0.00000
      4      15.6037      0.00000
      5      18.0527      0.00000
      6      22.4748      0.00000
      7      24.1393      0.00000
      8      25.2927      0.00000

 k-point    27 :       0.4000    0.1333    0.0000
  band No.  band energies     occupation 
      1      -0.7779      2.00000
      2       6.9047      2.00000
      3      14.7713      0.00000
      4      14.8116      0.00000
      5      17.7726      0.00000
      6      23.2349      0.00000
      7      23.5353      0.00000
      8      26.0239      0.00000

 k-point    28 :       0.4667    0.1333    0.0000
  band No.  band energies     occupation 
      1       0.5888      2.00000
      2       4.8156      2.00000
      3      14.0761      0.00000
      4      14.9207      0.00000
      5      17.8179      0.00000
      6      22.4570      0.00000
      7      23.8391      0.00000
      8      27.5373      0.00000

 k-point    29 :      -0.4667    0.1333    0.0000
  band No.  band energies     occupation 
      1       1.9907      2.00000
      2       3.1232      2.00000
      3      13.4749      0.00000
      4      15.2662      0.00000
      5      18.1497      0.00000
      6      21.8661      0.00000
      7      23.7681      0.00000
      8      27.8205      0.00000

 k-point    30 :      -0.4000    0.1333    0.0000
  band No.  band energies     occupation 
      1       1.0811      2.00000
      2       4.1781      2.00000
      3      13.0509      0.00000
      4      15.7960      0.00000
      5      18.7342      0.00000
      6      21.4926      0.00000
      7      23.5859      0.00000
      8      28.0654      0.00000

 k-point    31 :      -0.3333    0.1333    0.0000
  band No.  band energies     occupation 
      1      -0.3454      2.00000
      2       6.1838      2.00000
      3      12.8251      0.00000
      4      16.4876      0.00000
      5      19.5461      0.00000
      6      21.3591      0.00000
      7      23.4033      0.00000
      8      27.4957      0.00000

 k-point    32 :      -0.2667    0.1333    0.0000
  band No.  band energies     occupation 
      1      -1.5713      2.00000
      2       8.4144      2.00000
      3      12.8080      0.00000
      4      17.2993      0.00000
      5      20.5557      0.00000
      6      21.4868      0.00000
      7      23.2497      0.00000
      8      25.4730      0.00000

 k-point    33 :      -0.2000    0.1333    0.0000
  band No.  band energies     occupation 
      1      -2.5696      2.00000
      2      10.8217      0.00000
      3      13.0070      0.00000
      4      18.1479      0.00000
      5      21.7042      0.00000
      6      21.8604      0.00000
      7      23.0574      0.00000
      8      23.7355      0.00000

 k-point    34 :      -0.1333    0.1333    0.0000
  band No.  band energies     occupation 
      1      -3.3328      2.00000
      2      13.2214      0.00000
      3      13.5565      0.00000
      4      18.8357      0.00000
      5      21.8489      0.00000
      6      22.6365      0.00000
      7      22.8003      0.00000
      8      23.1335      0.00000

 k-point    35 :       0.2000    0.2000    0.0000
  band No.  band energies     occupation 
      1      -3.1711      2.00000
      2      14.8165      0.00000
      3      14.8165      0.00000
      4      15.9882      0.00000
      5      16.7440      0.00000
      6      19.4744      0.00000
      7      26.5139      0.00000
      8      26.5139      0.00000

 k-point    36 :       0.2667    0.2000    0.0000
  band No.  band energies     occupation 
      1      -2.5682      2.00000
      2      12.8902      0.00000
      3      14.2880      0.00000
      4      15.1011      0.00000
      5      16.9072      0.00000
      6      18.9068      0.00000
      7      26.8992      0.00000
      8      27.2074      0.00000

 k-point    37 :       0.3333    0.2000    0.0000
  band No.  band energies     occupation 
      1      -1.7279      2.00000
      2      10.4634      0.00000
      3      13.9655      0.00000
      4      14.0424      0.00000
      5      16.8107      0.00000
      6      19.9842      0.00000
      7      26.2048      0.00000
      8      27.3496      0.00000

 k-point    38 :       0.4000    0.2000    0.0000
  band No.  band energies     occupation 
      1      -0.6550      2.00000
      2       8.1359      2.00000
      3      13.0055      0.00000
      4      13.8514      0.00000
      5      16.6468      0.00000
      6      21.7413      0.00000
      7      25.3190      0.00000
      8      27.2712      0.00000

 k-point    39 :       0.4667    0.2000    0.0000
  band No.  band energies     occupation 
      1       0.6404      2.00000
      2       5.9871      2.00000
      3      12.0955      0.00000
      4      13.9455      0.00000
      5      16.7114      0.00000
      6      23.5951      0.00000
      7      24.5043      0.00000
      8      27.1886      0.00000

 k-point    40 :      -0.4667    0.2000    0.0000
  band No.  band energies     occupation 
      1       2.1024      2.00000
      2       4.0944      2.00000
      3      11.3628      0.00000
      4      14.2453      0.00000
      5      17.0229      0.00000
      6      23.8447      0.00000
      7      24.9583      0.00000
      8      27.5669      0.00000

 k-point    41 :      -0.4000    0.2000    0.0000
  band No.  band energies     occupation 
      1       2.0997      2.00000
      2       4.0973      2.00000
      3      10.8315      0.00000
      4      14.7453      0.00000
      5      17.5727      0.00000
      6      23.3761      0.00000
      7      25.2477      0.00000
      8      28.6868      0.00000

[...]
      7      24.6391      0.00000
      8      28.4026      0.00000

 k-point    85 :      -0.4000    0.2667    0.0667
  band No.  band energies     occupation 
      1       2.9425      2.00000
      2       4.0291      2.00000
      3      10.0789      0.00000
      4      12.8682      0.00000
      5      18.0075      0.00000
      6      23.4913      0.00000
      7      25.8396      0.00000
      8      27.8599      0.00000

 k-point    86 :      -0.3333    0.2667    0.0667
  band No.  band energies     occupation 
      1       2.0247      2.00000
      2       5.0891      2.00000
      3       9.6200      0.00000
      4      13.4538      0.00000
      5      18.6075      0.00000
      6      23.1468      0.00000
      7      26.5055      0.00000
      8      27.4007      0.00000

 k-point    87 :      -0.2667    0.2667    0.0667
  band No.  band energies     occupation 
      1       0.6033      2.00000
      2       7.0694      2.00000
      3       9.3847      0.00000
      4      14.2506      0.00000
      5      19.3969      0.00000
      6      22.9377      0.00000
      7      24.8177      0.00000
      8      27.3609      0.00000

 k-point    88 :      -0.2000    0.2667    0.0667
  band No.  band energies     occupation 
      1      -0.6167      2.00000
      2       9.0478      0.30950
      3       9.5866      0.00000
      4      15.2319      0.00000
      5      20.3195      0.00000
      6      22.6474      0.00000
      7      23.2259      0.00000
      8      26.6644      0.00000

 k-point    89 :       0.4000    0.3333    0.0667
  band No.  band energies     occupation 
      1      -0.4523      2.00000
      2      10.7850      0.00000
      3      11.4085      0.00000
      4      12.1230      0.00000
      5      16.2839      0.00000
      6      17.5134      0.00000
      7      28.1518      0.00000
      8      30.5613      0.00000

 k-point    90 :       0.4667    0.3333    0.0667
  band No.  band energies     occupation 
      1       0.6140      2.00000
      2       9.1150      0.00352
      3      10.0140      0.00000
      4      11.6727      0.00000
      5      16.6538      0.00000
      6      18.8838      0.00000
      7      27.3917      0.00000
      8      30.7925      0.00000

 k-point    91 :      -0.4667    0.3333    0.0667
  band No.  band energies     occupation 
      1       1.9014      2.00000
      2       7.1200      2.00000
      3       8.9572      1.87755
      4      11.7207      0.00000
      5      16.8278      0.00000
      6      20.9578      0.00000
      7      26.6346      0.00000
      8      30.2444      0.00000

 k-point    92 :      -0.4000    0.3333    0.0667
  band No.  band energies     occupation 
      1       3.3586      2.00000
      2       5.2726      2.00000
      3       8.1608      2.00000
      4      12.0253      0.00000
      5      17.1740      0.00000
      6      23.1900      0.00000
      7      26.0336      0.00000
      8      29.0470      0.00000

 k-point    93 :      -0.3333    0.3333    0.0667
  band No.  band energies     occupation 
      1       3.3432      2.00000
      2       5.2871      2.00000
      3       7.6073      2.00000
      4      12.5575      0.00000
      5      17.7265      0.00000
      6      24.9448      0.00000
      7      26.0372      0.00000
      8      27.2377      0.00000

 k-point    94 :      -0.2667    0.3333    0.0667
  band No.  band energies     occupation 
      1       1.8877      2.00000
      2       6.9202      2.00000
      3       7.5200      2.00000
      4      13.3046      0.00000
      5      18.4791      0.00000
      6      24.9665      0.00000
      7      24.9813      0.00000
      8      27.8599      0.00000

 k-point    95 :       0.4667    0.4000    0.0667
  band No.  band energies     occupation 
      1       1.2856      2.00000
      2       8.1844      2.00000
      3      10.8126      0.00000
      4      11.3511      0.00000
      5      15.6769      0.00000
      6      16.8900      0.00000
      7      29.6350      0.00000
      8      32.4235      0.00000

 k-point    96 :      -0.4667    0.4000    0.0667
  band No.  band energies     occupation 
      1       2.4933      2.00000
      2       7.0659      2.00000
      3       8.9877      1.50610
      4      11.1677      0.00000
      5      16.1948      0.00000
      6      18.4574      0.00000
      7      28.9665      0.00000
      8      31.7027      0.00000

 k-point    97 :      -0.4000    0.4000    0.0667
  band No.  band energies     occupation 
      1       3.8990      2.00000
      2       6.0610      2.00000
      3       7.1958      2.00000
      4      11.4025      0.00000
      5      16.5253      0.00000
      6      20.7021      0.00000
      7      28.3045      0.00000
      8      29.9347      0.00000

 k-point    98 :      -0.3333    0.4000    0.0667
  band No.  band energies     occupation 
      1       4.7352      2.00000
      2       5.3921      2.00000
      3       6.2498      2.00000
      4      11.8702      0.00000
      5      17.0263      0.00000
      6      23.1116      0.00000
      7      27.7197      0.00000
      8      27.7615      0.00000

 k-point    99 :      -0.4667    0.4667    0.0667
  band No.  band energies     occupation 
      1       3.3074      2.00000
      2       5.6520      2.00000
      3      10.5140      0.00000
      4      11.0268      0.00000
      5      15.3719      0.00000
      6      16.5840      0.00000
      7      31.0691      0.00000
      8      32.5069      0.00000

 k-point   100 :      -0.4000    0.4667    0.0667
  band No.  band energies     occupation 
      1       4.4731      2.00000
      2       4.8556      2.00000
      3       8.8036      2.00000
      4      11.0100      0.00000
      5      16.0419      0.00000
      6      18.3148      0.00000
      7      30.3583      0.00000
      8      30.8285      0.00000

 k-point   101 :       0.4000    0.2667    0.1333
  band No.  band energies     occupation 
      1      -1.4095      2.00000
      2      10.5503      0.00000
      3      10.9809      0.00000
      4      14.6548      0.00000
      5      19.7747      0.00000
      6      20.4254      0.00000
      7      23.9749      0.00000
      8      27.6195      0.00000

 k-point   102 :       0.4667    0.2667    0.1333
  band No.  band energies     occupation 
      1      -0.3386      2.00000
      2       8.4204      2.00000
      3      10.6604      0.00000
      4      13.5494      0.00000
      5      19.9289      0.00000
      6      21.6826      0.00000
      7      23.3217      0.00000
      8      28.1360      0.00000

 k-point   103 :      -0.4667    0.2667    0.1333
  band No.  band energies     occupation 
      1       0.9547      2.00000
      2       6.2870      2.00000
      3      10.7118      0.00000
      4      12.6359      0.00000
      5      19.9591      0.00000
      6      21.8292      0.00000
      7      24.3823      0.00000
      8      28.1801      0.00000

 k-point   104 :      -0.4000    0.2667    0.1333
  band No.  band energies     occupation 
      1       2.4158      2.00000
      2       4.3991      2.00000
      3      10.8874      0.00000
      4      12.0266      0.00000
      5      20.0652      0.00000
      6      21.4227      0.00000
      7      26.2387      0.00000
      8      27.7011      0.00000

 k-point   105 :       0.4667    0.3333    0.1333
  band No.  band energies     occupation 
      1       0.0201      2.00000
      2       9.6467      0.00000
      3       9.9648      0.00000
      4      11.8621      0.00000
      5      18.9083      0.00000
      6      19.6543      0.00000
      7      25.1694      0.00000
      8      30.1466      0.00000

 k-point   106 :      -0.4667    0.3333    0.1333
  band No.  band energies     occupation 
      1       1.2365      2.00000
      2       7.6415      2.00000
      3       9.7109      0.00000
      4      10.9172      0.00000
      5      19.2636      0.00000
      6      21.3060      0.00000
      7      24.3982      0.00000
      8      30.1672      0.00000

 k-point   107 :      -0.4000    0.3333    0.1333
  band No.  band energies     occupation 
      1       2.6543      2.00000
      2       5.6788      2.00000
      3       9.4284      0.00000
      4      10.5867      0.00000
      5      19.5118      0.00000
      6      22.8372      0.00000
      7      24.3396      0.00000
      8      28.7711      0.00000

 k-point   108 :      -0.3333    0.3333    0.1333
  band No.  band energies     occupation 
      1       3.5685      2.00000
      2       4.6266      2.00000
      3       8.9555      1.88868
      4      10.9017      0.00000
      5      19.9260      0.00000
      6      22.7499      0.00000
      7      25.8728      0.00000
      8      27.0288      0.00000

 k-point   109 :      -0.2667    0.3333    0.1333
  band No.  band energies     occupation 
      1       2.1591      2.00000
      2       6.3082      2.00000
      3       8.6036      2.00000
      4      11.5536      0.00000
      5      20.4777      0.00000
      6      22.4571      0.00000
      7      24.4386      0.00000
      8      28.3736      0.00000

 k-point   110 :      -0.2000    0.3333    0.1333
  band No.  band energies     occupation 
      1       0.8031      2.00000
      2       8.1375      2.00000
      3       8.6631      2.00000
      4      12.4490      0.00000
      5      21.0111      0.00000
      6      21.8316      0.00000
      7      23.0759      0.00000
      8      29.5216      0.00000

 k-point   111 :      -0.4667    0.4000    0.1333
  band No.  band energies     occupation 
      1       1.7502      2.00000
      2       8.4189      2.00000
      3       9.0420      0.39284
      4      10.0166      0.00000
      5      18.3207      0.00000
      6      19.1271      0.00000
      7      26.6557      0.00000
      8      31.3387      0.00000

 k-point   112 :      -0.4000    0.4000    0.1333
  band No.  band energies     occupation 
      1       3.0993      2.00000
      2       7.0128      2.00000
      3       7.9252      2.00000
      4       9.7554      0.00000
      5      18.8471      0.00000
      6      20.9812      0.00000
      7      25.9410      0.00000
      8      29.4769      0.00000

 k-point   113 :      -0.3333    0.4000    0.1333
  band No.  band energies     occupation 
      1       4.5097      2.00000
      2       5.4366      2.00000
      3       7.1701      2.00000
      4      10.0887      0.00000
      5      19.2573      0.00000
      6      23.1822      0.00000
      7      25.3965      0.00000
      8      27.2948      0.00000

 k-point   114 :      -0.2667    0.4000    0.1333
  band No.  band energies     occupation 
      1       3.5619      2.00000
      2       6.3095      2.00000
      3       6.9120      2.00000
      4      10.7009      0.00000
      5      19.8281      0.00000
      6      24.4472      0.00000
      7      24.4473      0.00000
      8      26.6484      0.00000

 k-point   115 :      -0.4000    0.4667    0.1333
  band No.  band energies     occupation 
      1       3.7600      2.00000
      2       6.0608      2.00000
      3       8.7392      2.00000
      4       9.5188      0.00000
      5      18.0244      0.00000
      6      18.8590      0.00000
      7      28.3391      0.00000
      8      30.0511      0.00000

 k-point   116 :      -0.3333    0.4667    0.1333
  band No.  band energies     occupation 
      1       5.0859      2.00000
      2       5.3363      2.00000
      3       7.2483      2.00000
      4       9.5458      0.00000
      5      18.7062      0.00000
      6      20.8643      0.00000
      7      27.5281      0.00000
      8      27.9197      0.00000

 k-point   117 :      -0.4000    0.4000    0.2000
  band No.  band energies     occupation 
      1       2.5169      2.00000
      2       7.5289      2.00000
      3       7.9166      2.00000
      4       9.8353      0.00000
      5      21.2693      0.00000
      6      21.3312      0.00000
      7      23.7766      0.00000
      8      28.9968      0.00000

 k-point   118 :      -0.3333    0.4000    0.2000
  band No.  band energies     occupation 
      1       3.9691      2.00000
      2       5.8627      2.00000
      3       7.9270      2.00000
      4       9.1716      0.00001
      5      21.3840      0.00000
      6      22.5913      0.00000
      7      24.1612      0.00000
      8      26.8850      0.00000

 k-point   119 :      -0.3333    0.4667    0.2000
  band No.  band energies     occupation 
      1       4.4933      2.00000
      2       6.5974      2.00000
      3       7.2243      2.00000
      4       8.3345      2.00000
      5      20.9841      0.00000
      6      21.2957      0.00000
      7      25.2415      0.00000
      8      27.2658      0.00000

 k-point   120 :      -0.2667    0.4667    0.2000
  band No.  band energies     occupation 
      1       5.3586      2.00000
      2       6.0039      2.00000
      3       6.5958      2.00000
      4       8.3991      2.00000
      5      21.4892      0.00000
      6      23.2245      0.00000
      7      24.1805      0.00000
      8      25.7745      0.00000


--------------------------------------------------------------------------------------------------------


 soft charge-density along one line, spin component           1
         0         1         2         3         4         5         6         7         8         9
 total charge-density along one line
 
 pseudopotential strength for first ion, spin component:           1
 18.101  25.252  -0.000   0.000   0.000  -0.000   0.000   0.000
 25.252  35.234  -0.000   0.000   0.000  -0.000   0.000   0.000
 -0.000  -0.000   4.114   0.000   0.000   7.665   0.000   0.000
  0.000   0.000   0.000   4.114   0.000   0.000   7.665   0.000
  0.000   0.000   0.000   0.000   4.114   0.000   0.000   7.665
 -0.000  -0.000   7.665   0.000   0.000  14.292   0.000   0.000
  0.000   0.000   0.000   7.665   0.000   0.000  14.292   0.000
  0.000   0.000   0.000   0.000   7.665   0.000   0.000  14.292
 total augmentation occupancy for first ion, spin component:           1
  4.226  -1.665   0.000   0.000   0.000   0.000   0.000   0.000
 -1.665   1.140   0.000   0.000   0.000   0.000   0.000   0.000
  0.000   0.000   2.012  -0.000   0.000  -0.450   0.000   0.000
  0.000   0.000  -0.000   2.012  -0.000   0.000  -0.450   0.000
  0.000   0.000  -0.000  -0.000   2.012   0.000   0.000  -0.450
  0.000   0.000  -0.450   0.000   0.000   0.113  -0.000  -0.000
  0.000   0.000   0.000  -0.450   0.000  -0.000   0.113  -0.000
  0.000   0.000   0.000   0.000  -0.450  -0.000  -0.000   0.113


------------------------ aborting loop because EDIFF is reached ----------------------------------------


    CHARGE:  cpu time    0.0800: real time    0.0808
    FORLOC:  cpu time    0.0010: real time    0.0015
    FORNL :  cpu time    0.1290: real time    0.1293
    STRESS:  cpu time    1.0328: real time    1.0337
    FORCOR:  cpu time    0.0310: real time    0.0307
    FORHAR:  cpu time    0.0050: real time    0.0060
    MIXING:  cpu time    0.0000: real time    0.0013
    OFIELD:  cpu time    0.0010: real time    0.0002

  FORCE on cell =-STRESS in cart. coord.  units (eV):
  Direction    XX          YY          ZZ          XY          YZ          ZX
  --------------------------------------------------------------------------------------
  Alpha Z     2.12522     2.12522     2.12522
  Ewald     -44.16185   -44.16185   -44.16185     0.00000     0.00001     0.00001
  Hartree     0.20378     0.20378     0.20378     0.00000     0.00000     0.00000
  E(xc)     -12.42139   -12.42139   -12.42139     0.00000     0.00000     0.00000
  Local      -5.77520    -5.77520    -5.77520     0.00000     0.00000     0.00000
  n-local    37.03119    38.60551    39.68404    -0.36314     0.11247    -0.02060
  augment    -6.40279    -6.40279    -6.40279    -0.00000    -0.00000    -0.00000
  Kinetic    49.47499    26.16915     6.50579    -3.65751     1.90495    -0.27476
  Fock        0.00000     0.00000     0.00000     0.00000     0.00000     0.00000
  -------------------------------------------------------------------------------------
  Total      -0.60868    -0.60868    -0.60868     0.00000     0.00000     0.00000
  in kB     -61.56675   -61.56674   -61.56674     0.00000     0.00002     0.00003
  external pressure =      -61.57 kB  Pullay stress =        0.00 kB


 VOLUME and BASIS-vectors are now :
 -----------------------------------------------------------------------------
  energy-cutoff  :      700.00
  volume of cell :       15.84
      direct lattice vectors                 reciprocal lattice vectors
     2.441290800  0.000000000  1.409478720     0.409619370 -0.144822332  0.000000000
     0.813763600  2.301670800  1.409478720     0.000000000  0.434466997  0.000000000
     0.000000000  0.000000000  2.818959520    -0.204809534 -0.144822225  0.354740816

  length of vectors
     2.818959211  2.818959015  2.818959520     0.434466957  0.434466997  0.434466879


 FORCES acting on ions
    electron-ion (+dipol)            ewald-force                    non-local-force                 convergence-correction
 -----------------------------------------------------------------------------------------------
   -.301E-16 -.422E-15 -.345E-17   0.305E-15 -.326E-16 -.115E-15   0.827E-24 0.000E+00 0.579E-23   -.261E-16 0.673E-17 -.171E-17
 -----------------------------------------------------------------------------------------------
   -.301E-16 -.422E-15 -.345E-17   0.305E-15 -.326E-16 -.115E-15   0.827E-24 0.000E+00 0.579E-23   -.261E-16 0.673E-17 -.171E-17
 
 
 POSITION                                       TOTAL-FORCE (eV/Angst)
 -----------------------------------------------------------------------------------
      0.00000      0.00000      0.00000        -0.000000      0.000000     -0.000000
 -----------------------------------------------------------------------------------
    total drift:                                0.000000     -0.000000     -0.000000


--------------------------------------------------------------------------------------------------------



  FREE ENERGIE OF THE ION-ELECTRON SYSTEM (eV)
  ---------------------------------------------------
  free  energy   TOTEN  =        -4.85512309 eV

  energy  without entropy=       -4.85430312  energy(sigma->0) =       -4.85471310
 


--------------------------------------------------------------------------------------------------------


    POTLOK:  cpu time    0.2090: real time    0.2168


--------------------------------------------------------------------------------------------------------




--------------------------------------------------------------------------------------------------------


  
 reached required accuracy - stopping structural energy minimisation
     LOOP+:  cpu time   13.7819: real time   14.0742
    4ORBIT:  cpu time    0.0000: real time    0.0000

 total amount of memory used by VASP MPI-rank0    43980. kBytes
=======================================================================

   base      :      30000. kBytes
   nonl-proj :       5233. kBytes
   fftplans  :       4177. kBytes
   grid      :       1926. kBytes
   one-center:          3. kBytes
   wavefun   :       2641. kBytes
 
  
  
 General timing and accounting informations for this job:
 ========================================================
  
                  Total CPU time used (sec):       14.794
                            User time (sec):       14.416
                          System time (sec):        0.378
                         Elapsed time (sec):       15.893
  
                   Maximum memory used (kb):       84360.
                   Average memory used (kb):          N/A
  
                          Minor page faults:        15835
                          Major page faults:            1
                 Voluntary context switches:        14738
