unknown system                          
           1
     2.441291    0.000000    1.409479
     0.813764    2.301671    1.409479
     0.000000    0.000000    2.818960
   Si
     1
Direct configuration=     1
   0.00000000  0.00000000  0.00000000
