   8   8   1   0
  0.9103145E+01  0.4176000E-09  0.4176000E-09  0.4176000E-09  0.5000000E-15
  1.000000000000000E-004
  CAR 
 bulk_NiO                                
     28.15972408    -62.51942576  301      6.47229408      1.00000000
    -62.519  0.0000E+00  0.0000E+00  0.0000E+00  0.0000E+00
    -62.217  0.0000E+00  0.0000E+00  0.0000E+00  0.0000E+00
    -61.915  0.0000E+00  0.0000E+00  0.0000E+00  0.0000E+00
    -61.613  0.0000E+00  0.0000E+00  0.0000E+00  0.0000E+00
    -61.310  0.0000E+00  0.0000E+00  0.0000E+00  0.0000E+00
    -61.008  0.0000E+00  0.0000E+00  0.0000E+00  0.0000E+00
    -60.706  0.0000E+00  0.0000E+00  0.0000E+00  0.0000E+00
    -60.404  0.0000E+00  0.0000E+00  0.0000E+00  0.0000E+00
    -60.101  0.0000E+00  0.0000E+00  0.0000E+00  0.0000E+00
    -59.799  0.0000E+00  0.0000E+00  0.0000E+00  0.0000E+00
    -59.497  0.0000E+00  0.0000E+00  0.0000E+00  0.0000E+00
    -59.195  0.0000E+00  0.0000E+00  0.0000E+00  0.0000E+00
    -58.892  0.0000E+00  0.0000E+00  0.0000E+00  0.0000E+00
    -58.590  0.1674E-06  0.0000E+00  0.5061E-07  0.0000E+00
    -58.288  0.3952E+02  0.0000E+00  0.1195E+02  0.0000E+00
    -57.985  0.1532E+00  0.0000E+00  0.1200E+02  0.0000E+00
    -57.683  0.0000E+00  0.0000E+00  0.1200E+02  0.0000E+00
    -57.381  0.0000E+00  0.0000E+00  0.1200E+02  0.0000E+00
    -57.079  0.0000E+00  0.0000E+00  0.1200E+02  0.0000E+00
    -56.776  0.0000E+00  0.0000E+00  0.1200E+02  0.0000E+00
    -56.474  0.0000E+00  0.3299E-09  0.1200E+02  0.9972E-10
    -56.172  0.0000E+00  0.3752E+02  0.1200E+02  0.1134E+02
    -55.870  0.0000E+00  0.2182E+01  0.1200E+02  0.1200E+02
    -55.567  0.0000E+00  0.0000E+00  0.1200E+02  0.1200E+02
    -55.265  0.0000E+00  0.0000E+00  0.1200E+02  0.1200E+02
    -54.963  0.0000E+00  0.0000E+00  0.1200E+02  0.1200E+02
    -54.661  0.0000E+00  0.0000E+00  0.1200E+02  0.1200E+02
    -54.358  0.0000E+00  0.0000E+00  0.1200E+02  0.1200E+02
    -54.056  0.0000E+00  0.0000E+00  0.1200E+02  0.1200E+02
    -53.754  0.0000E+00  0.0000E+00  0.1200E+02  0.1200E+02
    -53.452  0.0000E+00  0.0000E+00  0.1200E+02  0.1200E+02
    -53.149  0.0000E+00  0.0000E+00  0.1200E+02  0.1200E+02
    -52.847  0.0000E+00  0.0000E+00  0.1200E+02  0.1200E+02
    -52.545  0.0000E+00  0.0000E+00  0.1200E+02  0.1200E+02
    -52.242  0.0000E+00  0.0000E+00  0.1200E+02  0.1200E+02
    -51.940  0.0000E+00  0.0000E+00  0.1200E+02  0.1200E+02
    -51.638  0.0000E+00  0.0000E+00  0.1200E+02  0.1200E+02
    -51.336  0.0000E+00  0.0000E+00  0.1200E+02  0.1200E+02
    -51.033  0.0000E+00  0.0000E+00  0.1200E+02  0.1200E+02
    -50.731  0.0000E+00  0.0000E+00  0.1200E+02  0.1200E+02
    -50.429  0.0000E+00  0.0000E+00  0.1200E+02  0.1200E+02
    -50.127  0.0000E+00  0.0000E+00  0.1200E+02  0.1200E+02
    -49.824  0.0000E+00  0.0000E+00  0.1200E+02  0.1200E+02
    -49.522  0.0000E+00  0.0000E+00  0.1200E+02  0.1200E+02
    -49.220  0.0000E+00  0.0000E+00  0.1200E+02  0.1200E+02
    -48.918  0.0000E+00  0.0000E+00  0.1200E+02  0.1200E+02
    -48.615  0.0000E+00  0.0000E+00  0.1200E+02  0.1200E+02
    -48.313  0.0000E+00  0.0000E+00  0.1200E+02  0.1200E+02
    -48.011  0.0000E+00  0.0000E+00  0.1200E+02  0.1200E+02
    -47.708  0.0000E+00  0.0000E+00  0.1200E+02  0.1200E+02
    -47.406  0.0000E+00  0.0000E+00  0.1200E+02  0.1200E+02
    -47.104  0.0000E+00  0.0000E+00  0.1200E+02  0.1200E+02
    -46.802  0.0000E+00  0.0000E+00  0.1200E+02  0.1200E+02
    -46.499  0.0000E+00  0.0000E+00  0.1200E+02  0.1200E+02
    -46.197  0.0000E+00  0.0000E+00  0.1200E+02  0.1200E+02
    -45.895  0.0000E+00  0.0000E+00  0.1200E+02  0.1200E+02
    -45.593  0.0000E+00  0.0000E+00  0.1200E+02  0.1200E+02
    -45.290  0.0000E+00  0.0000E+00  0.1200E+02  0.1200E+02
    -44.988  0.0000E+00  0.0000E+00  0.1200E+02  0.1200E+02
    -44.686  0.0000E+00  0.0000E+00  0.1200E+02  0.1200E+02
    -44.384  0.0000E+00  0.0000E+00  0.1200E+02  0.1200E+02
    -44.081  0.0000E+00  0.0000E+00  0.1200E+02  0.1200E+02
    -43.779  0.0000E+00  0.0000E+00  0.1200E+02  0.1200E+02
    -43.477  0.0000E+00  0.0000E+00  0.1200E+02  0.1200E+02
    -43.175  0.0000E+00  0.0000E+00  0.1200E+02  0.1200E+02
    -42.872  0.0000E+00  0.0000E+00  0.1200E+02  0.1200E+02
    -42.570  0.0000E+00  0.0000E+00  0.1200E+02  0.1200E+02
    -42.268  0.0000E+00  0.0000E+00  0.1200E+02  0.1200E+02
    -41.965  0.0000E+00  0.0000E+00  0.1200E+02  0.1200E+02
    -41.663  0.0000E+00  0.0000E+00  0.1200E+02  0.1200E+02
    -41.361  0.0000E+00  0.0000E+00  0.1200E+02  0.1200E+02
    -41.059  0.0000E+00  0.0000E+00  0.1200E+02  0.1200E+02
    -40.756  0.0000E+00  0.0000E+00  0.1200E+02  0.1200E+02
    -40.454  0.0000E+00  0.0000E+00  0.1200E+02  0.1200E+02
    -40.152  0.0000E+00  0.0000E+00  0.1200E+02  0.1200E+02
    -39.850  0.0000E+00  0.0000E+00  0.1200E+02  0.1200E+02
    -39.547  0.0000E+00  0.0000E+00  0.1200E+02  0.1200E+02
    -39.245  0.0000E+00  0.0000E+00  0.1200E+02  0.1200E+02
    -38.943  0.0000E+00  0.0000E+00  0.1200E+02  0.1200E+02
    -38.641  0.0000E+00  0.0000E+00  0.1200E+02  0.1200E+02
    -38.338  0.0000E+00  0.0000E+00  0.1200E+02  0.1200E+02
    -38.036  0.0000E+00  0.0000E+00  0.1200E+02  0.1200E+02
    -37.734  0.0000E+00  0.0000E+00  0.1200E+02  0.1200E+02
    -37.432  0.0000E+00  0.0000E+00  0.1200E+02  0.1200E+02
    -37.129  0.0000E+00  0.0000E+00  0.1200E+02  0.1200E+02
    -36.827  0.0000E+00  0.0000E+00  0.1200E+02  0.1200E+02
    -36.525  0.0000E+00  0.0000E+00  0.1200E+02  0.1200E+02
    -36.222  0.0000E+00  0.0000E+00  0.1200E+02  0.1200E+02
    -35.920  0.0000E+00  0.0000E+00  0.1200E+02  0.1200E+02
    -35.618  0.0000E+00  0.0000E+00  0.1200E+02  0.1200E+02
    -35.316  0.0000E+00  0.0000E+00  0.1200E+02  0.1200E+02
    -35.013  0.0000E+00  0.0000E+00  0.1200E+02  0.1200E+02
    -34.711  0.0000E+00  0.0000E+00  0.1200E+02  0.1200E+02
    -34.409  0.0000E+00  0.0000E+00  0.1200E+02  0.1200E+02
    -34.107  0.0000E+00  0.0000E+00  0.1200E+02  0.1200E+02
    -33.804  0.0000E+00  0.0000E+00  0.1200E+02  0.1200E+02
    -33.502  0.0000E+00  0.0000E+00  0.1200E+02  0.1200E+02
    -33.200  0.0000E+00  0.0000E+00  0.1200E+02  0.1200E+02
    -32.898  0.0000E+00  0.0000E+00  0.1200E+02  0.1200E+02
    -32.595  0.0000E+00  0.0000E+00  0.1200E+02  0.1200E+02
    -32.293  0.0000E+00  0.0000E+00  0.1200E+02  0.1200E+02
    -31.991  0.0000E+00  0.0000E+00  0.1200E+02  0.1200E+02
    -31.689  0.0000E+00  0.0000E+00  0.1200E+02  0.1200E+02
    -31.386  0.0000E+00  0.0000E+00  0.1200E+02  0.1200E+02
    -31.084  0.0000E+00  0.0000E+00  0.1200E+02  0.1200E+02
    -30.782  0.0000E+00  0.0000E+00  0.1200E+02  0.1200E+02
    -30.479  0.0000E+00  0.0000E+00  0.1200E+02  0.1200E+02
    -30.177  0.0000E+00  0.0000E+00  0.1200E+02  0.1200E+02
    -29.875  0.0000E+00  0.0000E+00  0.1200E+02  0.1200E+02
    -29.573  0.0000E+00  0.0000E+00  0.1200E+02  0.1200E+02
    -29.270  0.0000E+00  0.0000E+00  0.1200E+02  0.1200E+02
    -28.968  0.0000E+00  0.0000E+00  0.1200E+02  0.1200E+02
    -28.666  0.0000E+00  0.0000E+00  0.1200E+02  0.1200E+02
    -28.364  0.0000E+00  0.0000E+00  0.1200E+02  0.1200E+02
    -28.061  0.0000E+00  0.0000E+00  0.1200E+02  0.1200E+02
    -27.759  0.0000E+00  0.0000E+00  0.1200E+02  0.1200E+02
    -27.457  0.0000E+00  0.0000E+00  0.1200E+02  0.1200E+02
    -27.155  0.0000E+00  0.0000E+00  0.1200E+02  0.1200E+02
    -26.852  0.0000E+00  0.0000E+00  0.1200E+02  0.1200E+02
    -26.550  0.0000E+00  0.0000E+00  0.1200E+02  0.1200E+02
    -26.248  0.0000E+00  0.0000E+00  0.1200E+02  0.1200E+02
    -25.946  0.0000E+00  0.0000E+00  0.1200E+02  0.1200E+02
    -25.643  0.0000E+00  0.0000E+00  0.1200E+02  0.1200E+02
    -25.341  0.0000E+00  0.0000E+00  0.1200E+02  0.1200E+02
    -25.039  0.0000E+00  0.0000E+00  0.1200E+02  0.1200E+02
    -24.736  0.0000E+00  0.0000E+00  0.1200E+02  0.1200E+02
    -24.434  0.0000E+00  0.0000E+00  0.1200E+02  0.1200E+02
    -24.132  0.0000E+00  0.0000E+00  0.1200E+02  0.1200E+02
    -23.830  0.0000E+00  0.0000E+00  0.1200E+02  0.1200E+02
    -23.527  0.0000E+00  0.0000E+00  0.1200E+02  0.1200E+02
    -23.225  0.0000E+00  0.0000E+00  0.1200E+02  0.1200E+02
    -22.923  0.0000E+00  0.0000E+00  0.1200E+02  0.1200E+02
    -22.621  0.0000E+00  0.0000E+00  0.1200E+02  0.1200E+02
    -22.318  0.0000E+00  0.0000E+00  0.1200E+02  0.1200E+02
    -22.016  0.0000E+00  0.0000E+00  0.1200E+02  0.1200E+02
    -21.714  0.0000E+00  0.0000E+00  0.1200E+02  0.1200E+02
    -21.412  0.0000E+00  0.0000E+00  0.1200E+02  0.1200E+02
    -21.109  0.0000E+00  0.0000E+00  0.1200E+02  0.1200E+02
    -20.807  0.0000E+00  0.0000E+00  0.1200E+02  0.1200E+02
    -20.505  0.0000E+00  0.0000E+00  0.1200E+02  0.1200E+02
    -20.202  0.0000E+00  0.0000E+00  0.1200E+02  0.1200E+02
    -19.900  0.0000E+00  0.0000E+00  0.1200E+02  0.1200E+02
    -19.598  0.0000E+00  0.0000E+00  0.1200E+02  0.1200E+02
    -19.296  0.0000E+00  0.0000E+00  0.1200E+02  0.1200E+02
    -18.993  0.0000E+00  0.0000E+00  0.1200E+02  0.1200E+02
    -18.691  0.0000E+00  0.0000E+00  0.1200E+02  0.1200E+02
    -18.389  0.0000E+00  0.0000E+00  0.1200E+02  0.1200E+02
    -18.087  0.0000E+00  0.0000E+00  0.1200E+02  0.1200E+02
    -17.784  0.0000E+00  0.0000E+00  0.1200E+02  0.1200E+02
    -17.482  0.0000E+00  0.0000E+00  0.1200E+02  0.1200E+02
    -17.180  0.0000E+00  0.0000E+00  0.1200E+02  0.1200E+02
    -16.878  0.0000E+00  0.0000E+00  0.1200E+02  0.1200E+02
    -16.575  0.0000E+00  0.0000E+00  0.1200E+02  0.1200E+02
    -16.273  0.0000E+00  0.0000E+00  0.1200E+02  0.1200E+02
    -15.971  0.0000E+00  0.0000E+00  0.1200E+02  0.1200E+02
    -15.669  0.0000E+00  0.0000E+00  0.1200E+02  0.1200E+02
    -15.366  0.0000E+00  0.0000E+00  0.1200E+02  0.1200E+02
    -15.064  0.0000E+00  0.0000E+00  0.1200E+02  0.1200E+02
    -14.762  0.0000E+00  0.0000E+00  0.1200E+02  0.1200E+02
    -14.459  0.0000E+00  0.0000E+00  0.1200E+02  0.1200E+02
    -14.157  0.0000E+00  0.0000E+00  0.1200E+02  0.1200E+02
    -13.855  0.0000E+00  0.0000E+00  0.1200E+02  0.1200E+02
    -13.553  0.0000E+00  0.0000E+00  0.1200E+02  0.1200E+02
    -13.250  0.0000E+00  0.0000E+00  0.1200E+02  0.1200E+02
    -12.948  0.1636E-01  0.0000E+00  0.1200E+02  0.1200E+02
    -12.646  0.3481E+00  0.8367E-02  0.1211E+02  0.1200E+02
    -12.344  0.7157E+00  0.3216E+00  0.1233E+02  0.1210E+02
    -12.041  0.1277E+01  0.6460E+00  0.1271E+02  0.1230E+02
    -11.739  0.2552E+01  0.1025E+01  0.1348E+02  0.1260E+02
    -11.437  0.8266E+01  0.1804E+01  0.1598E+02  0.1315E+02
    -11.135  0.5593E-01  0.3822E+01  0.1600E+02  0.1431E+02
    -10.832  0.0000E+00  0.5605E+01  0.1600E+02  0.1600E+02
    -10.530  0.0000E+00  0.0000E+00  0.1600E+02  0.1600E+02
    -10.228  0.0000E+00  0.0000E+00  0.1600E+02  0.1600E+02
     -9.926  0.0000E+00  0.0000E+00  0.1600E+02  0.1600E+02
     -9.623  0.0000E+00  0.0000E+00  0.1600E+02  0.1600E+02
     -9.321  0.0000E+00  0.0000E+00  0.1600E+02  0.1600E+02
     -9.019  0.0000E+00  0.0000E+00  0.1600E+02  0.1600E+02
     -8.716  0.0000E+00  0.0000E+00  0.1600E+02  0.1600E+02
     -8.414  0.0000E+00  0.0000E+00  0.1600E+02  0.1600E+02
     -8.112  0.0000E+00  0.0000E+00  0.1600E+02  0.1600E+02
     -7.810  0.0000E+00  0.0000E+00  0.1600E+02  0.1600E+02
     -7.507  0.0000E+00  0.0000E+00  0.1600E+02  0.1600E+02
     -7.205  0.0000E+00  0.0000E+00  0.1600E+02  0.1600E+02
     -6.903  0.0000E+00  0.0000E+00  0.1600E+02  0.1600E+02
     -6.601  0.0000E+00  0.0000E+00  0.1600E+02  0.1600E+02
     -6.298  0.0000E+00  0.0000E+00  0.1600E+02  0.1600E+02
     -5.996  0.0000E+00  0.0000E+00  0.1600E+02  0.1600E+02
     -5.694  0.0000E+00  0.0000E+00  0.1600E+02  0.1600E+02
     -5.392  0.0000E+00  0.0000E+00  0.1600E+02  0.1600E+02
     -5.089  0.0000E+00  0.0000E+00  0.1600E+02  0.1600E+02
     -4.787  0.0000E+00  0.0000E+00  0.1600E+02  0.1600E+02
     -4.485  0.0000E+00  0.0000E+00  0.1600E+02  0.1600E+02
     -4.183  0.0000E+00  0.0000E+00  0.1600E+02  0.1600E+02
     -3.880  0.0000E+00  0.0000E+00  0.1600E+02  0.1600E+02
     -3.578  0.0000E+00  0.0000E+00  0.1600E+02  0.1600E+02
     -3.276  0.0000E+00  0.0000E+00  0.1600E+02  0.1600E+02
     -2.973  0.0000E+00  0.0000E+00  0.1600E+02  0.1600E+02
     -2.671  0.0000E+00  0.0000E+00  0.1600E+02  0.1600E+02
     -2.369  0.0000E+00  0.0000E+00  0.1600E+02  0.1600E+02
     -2.067  0.0000E+00  0.0000E+00  0.1600E+02  0.1600E+02
     -1.764  0.2300E-11  0.0000E+00  0.1600E+02  0.1600E+02
     -1.462  0.1833E+00  0.0000E+00  0.1606E+02  0.1600E+02
     -1.160  0.1151E+01  0.5527E-03  0.1640E+02  0.1600E+02
     -0.858  0.5527E+01  0.3271E+00  0.1807E+02  0.1610E+02
     -0.555  0.7967E+01  0.8338E+00  0.2048E+02  0.1635E+02
     -0.253  0.7640E+01  0.1464E+01  0.2279E+02  0.1679E+02
      0.049  0.4156E+01  0.1428E+01  0.2405E+02  0.1723E+02
      0.351  0.6970E+01  0.2397E+01  0.2616E+02  0.1795E+02
      0.654  0.4008E+01  0.3407E+01  0.2737E+02  0.1898E+02
      0.956  0.1510E+01  0.1982E+01  0.2782E+02  0.1958E+02
      1.258  0.7784E+00  0.3207E+01  0.2806E+02  0.2055E+02
      1.561  0.1203E+02  0.3435E+01  0.3169E+02  0.2159E+02
      1.863  0.8968E+01  0.3582E+01  0.3441E+02  0.2267E+02
      2.165  0.5358E+01  0.2745E+01  0.3603E+02  0.2350E+02
      2.467  0.5304E+00  0.4264E+01  0.3619E+02  0.2479E+02
      2.770  0.1077E+01  0.7142E+01  0.3651E+02  0.2695E+02
      3.072  0.7927E+01  0.4793E+01  0.3891E+02  0.2840E+02
      3.374  0.5133E+01  0.5615E+01  0.4046E+02  0.3009E+02
      3.676  0.2160E+01  0.5220E+01  0.4111E+02  0.3167E+02
      3.979  0.2782E+01  0.1065E+02  0.4195E+02  0.3489E+02
      4.281  0.2540E+01  0.8218E+01  0.4272E+02  0.3738E+02
      4.583  0.3924E+01  0.4957E+01  0.4391E+02  0.3888E+02
      4.885  0.2528E+01  0.3413E+01  0.4467E+02  0.3991E+02
      5.188  0.3166E+01  0.3074E+00  0.4563E+02  0.4000E+02
      5.490  0.2497E+01  0.0000E+00  0.4638E+02  0.4000E+02
      5.792  0.2481E+01  0.0000E+00  0.4713E+02  0.4000E+02
      6.094  0.2591E+01  0.0000E+00  0.4792E+02  0.4000E+02
      6.397  0.2769E+00  0.0000E+00  0.4800E+02  0.4000E+02
      6.699  0.0000E+00  0.0000E+00  0.4800E+02  0.4000E+02
      7.001  0.0000E+00  0.0000E+00  0.4800E+02  0.4000E+02
      7.304  0.0000E+00  0.0000E+00  0.4800E+02  0.4000E+02
      7.606  0.0000E+00  0.0000E+00  0.4800E+02  0.4000E+02
      7.908  0.0000E+00  0.0000E+00  0.4800E+02  0.4000E+02
      8.210  0.0000E+00  0.0000E+00  0.4800E+02  0.4000E+02
      8.513  0.0000E+00  0.8968E-02  0.4800E+02  0.4000E+02
      8.815  0.2717E-06  0.1041E+01  0.4800E+02  0.4032E+02
      9.117  0.5169E-01  0.2576E+01  0.4802E+02  0.4110E+02
      9.419  0.1016E-13  0.4812E+01  0.4802E+02  0.4255E+02
      9.722  0.1355E+00  0.6288E+01  0.4806E+02  0.4445E+02
     10.024  0.1958E-01  0.2728E+01  0.4806E+02  0.4528E+02
     10.326  0.1550E+00  0.4045E+01  0.4811E+02  0.4650E+02
     10.628  0.4146E-01  0.2984E+01  0.4812E+02  0.4740E+02
     10.931  0.1653E+00  0.2352E+01  0.4817E+02  0.4811E+02
     11.233  0.3099E+00  0.3999E-01  0.4827E+02  0.4812E+02
     11.535  0.1550E+00  0.1226E+00  0.4831E+02  0.4816E+02
     11.837  0.1957E+00  0.4544E+00  0.4837E+02  0.4830E+02
     12.140  0.3222E+00  0.4358E-01  0.4847E+02  0.4831E+02
     12.442  0.4641E+00  0.3556E+00  0.4861E+02  0.4842E+02
     12.744  0.8563E+00  0.7890E-02  0.4887E+02  0.4842E+02
     13.047  0.4426E+00  0.9352E+00  0.4900E+02  0.4871E+02
     13.349  0.1291E+01  0.8197E+00  0.4939E+02  0.4895E+02
     13.651  0.1175E+01  0.4267E+00  0.4975E+02  0.4908E+02
     13.953  0.1277E+01  0.1010E+01  0.5013E+02  0.4939E+02
     14.256  0.1224E+01  0.1542E+01  0.5050E+02  0.4985E+02
     14.558  0.9665E+00  0.1229E+01  0.5080E+02  0.5023E+02
     14.860  0.1344E+01  0.1276E+01  0.5120E+02  0.5061E+02
     15.162  0.9343E+00  0.9994E+00  0.5148E+02  0.5091E+02
     15.465  0.5869E+00  0.1586E+01  0.5166E+02  0.5139E+02
     15.767  0.1118E+01  0.3079E+00  0.5200E+02  0.5149E+02
     16.069  0.1771E-04  0.1126E+01  0.5200E+02  0.5183E+02
     16.371  0.1049E+01  0.5751E+00  0.5232E+02  0.5200E+02
     16.674  0.1026E+01  0.1339E-01  0.5263E+02  0.5200E+02
     16.976  0.2069E+01  0.1501E+01  0.5325E+02  0.5246E+02
     17.278  0.1710E+01  0.1565E+01  0.5377E+02  0.5293E+02
     17.580  0.2315E+01  0.2250E+01  0.5447E+02  0.5361E+02
     17.883  0.3740E+01  0.2302E+01  0.5560E+02  0.5431E+02
     18.185  0.3292E+01  0.4139E+01  0.5660E+02  0.5556E+02
     18.487  0.1534E+01  0.3382E+01  0.5706E+02  0.5658E+02
     18.790  0.2031E+01  0.1488E+01  0.5767E+02  0.5703E+02
     19.092  0.5716E+00  0.1858E+01  0.5785E+02  0.5759E+02
     19.394  0.1701E+01  0.6845E+00  0.5836E+02  0.5780E+02
     19.696  0.5306E+00  0.1853E+01  0.5852E+02  0.5836E+02
     19.999  0.8853E+00  0.4858E+00  0.5879E+02  0.5850E+02
     20.301  0.6508E+00  0.6180E+00  0.5898E+02  0.5869E+02
     20.603  0.3029E+00  0.9682E+00  0.5908E+02  0.5898E+02
     20.905  0.9117E+00  0.3977E-01  0.5935E+02  0.5900E+02
     21.208  0.5678E+00  0.9042E+00  0.5952E+02  0.5927E+02
     21.510  0.1300E+00  0.6034E+00  0.5956E+02  0.5945E+02
     21.812  0.1512E+00  0.3653E+00  0.5961E+02  0.5956E+02
     22.114  0.6758E+00  0.6805E-01  0.5981E+02  0.5958E+02
     22.417  0.1548E+00  0.4228E+00  0.5986E+02  0.5971E+02
     22.719  0.5775E-08  0.3878E+00  0.5986E+02  0.5983E+02
     23.021  0.3487E+00  0.1035E+00  0.5996E+02  0.5986E+02
     23.324  0.6442E-01  0.8433E-01  0.5998E+02  0.5988E+02
     23.626  0.1188E-01  0.3292E+00  0.5999E+02  0.5998E+02
     23.928  0.3981E-01  0.4855E-04  0.6000E+02  0.5998E+02
     24.230  0.0000E+00  0.5164E-01  0.6000E+02  0.6000E+02
     24.533  0.0000E+00  0.0000E+00  0.6000E+02  0.6000E+02
     24.835  0.0000E+00  0.0000E+00  0.6000E+02  0.6000E+02
     25.137  0.0000E+00  0.0000E+00  0.6000E+02  0.6000E+02
     25.439  0.0000E+00  0.0000E+00  0.6000E+02  0.6000E+02
     25.742  0.0000E+00  0.0000E+00  0.6000E+02  0.6000E+02
     26.044  0.0000E+00  0.0000E+00  0.6000E+02  0.6000E+02
     26.346  0.0000E+00  0.0000E+00  0.6000E+02  0.6000E+02
     26.648  0.0000E+00  0.0000E+00  0.6000E+02  0.6000E+02
     26.951  0.0000E+00  0.0000E+00  0.6000E+02  0.6000E+02
     27.253  0.0000E+00  0.0000E+00  0.6000E+02  0.6000E+02
     27.555  0.0000E+00  0.0000E+00  0.6000E+02  0.6000E+02
     27.857  0.0000E+00  0.0000E+00  0.6000E+02  0.6000E+02
     28.160  0.0000E+00  0.0000E+00  0.6000E+02  0.6000E+02
     28.15972408    -62.51942576  301      6.47229408      1.00000000
    -62.519  0.0000E+00  0.0000E+00  0.0000E+00  0.0000E+00  0.0000E+00  0.0000E+00  0.0000E+00  0.0000E+00  0.0000E+00  0.0000E+00  0.0000E+00  0.0000E+00  0.0000E+00  0.0000E+00  0.0000E+00  0.0000E+00  0.0000E+00  0.0000E+00
    -62.217  0.0000E+00  0.0000E+00  0.0000E+00  0.0000E+00  0.0000E+00  0.0000E+00  0.0000E+00  0.0000E+00  0.0000E+00  0.0000E+00  0.0000E+00  0.0000E+00  0.0000E+00  0.0000E+00  0.0000E+00  0.0000E+00  0.0000E+00  0.0000E+00
    -61.915  0.0000E+00  0.0000E+00  0.0000E+00  0.0000E+00  0.0000E+00  0.0000E+00  0.0000E+00  0.0000E+00  0.0000E+00  0.0000E+00  0.0000E+00  0.0000E+00  0.0000E+00  0.0000E+00  0.0000E+00  0.0000E+00  0.0000E+00  0.0000E+00
    -61.613  0.0000E+00  0.0000E+00  0.0000E+00  0.0000E+00  0.0000E+00  0.0000E+00  0.0000E+00  0.0000E+00  0.0000E+00  0.0000E+00  0.0000E+00  0.0000E+00  0.0000E+00  0.0000E+00  0.0000E+00  0.0000E+00  0.0000E+00  0.0000E+00
    -61.310  0.0000E+00  0.0000E+00  0.0000E+00  0.0000E+00  0.0000E+00  0.0000E+00  0.0000E+00  0.0000E+00  0.0000E+00  0.0000E+00  0.0000E+00  0.0000E+00  0.0000E+00  0.0000E+00  0.0000E+00  0.0000E+00  0.0000E+00  0.0000E+00
    -61.008  0.0000E+00  0.0000E+00  0.0000E+00  0.0000E+00  0.0000E+00  0.0000E+00  0.0000E+00  0.0000E+00  0.0000E+00  0.0000E+00  0.0000E+00  0.0000E+00  0.0000E+00  0.0000E+00  0.0000E+00  0.0000E+00  0.0000E+00  0.0000E+00
    -60.706  0.0000E+00  0.0000E+00  0.0000E+00  0.0000E+00  0.0000E+00  0.0000E+00  0.0000E+00  0.0000E+00  0.0000E+00  0.0000E+00  0.0000E+00  0.0000E+00  0.0000E+00  0.0000E+00  0.0000E+00  0.0000E+00  0.0000E+00  0.0000E+00
    -60.404  0.0000E+00  0.0000E+00  0.0000E+00  0.0000E+00  0.0000E+00  0.0000E+00  0.0000E+00  0.0000E+00  0.0000E+00  0.0000E+00  0.0000E+00  0.0000E+00  0.0000E+00  0.0000E+00  0.0000E+00  0.0000E+00  0.0000E+00  0.0000E+00
    -60.101  0.0000E+00  0.0000E+00  0.0000E+00  0.0000E+00  0.0000E+00  0.0000E+00  0.0000E+00  0.0000E+00  0.0000E+00  0.0000E+00  0.0000E+00  0.0000E+00  0.0000E+00  0.0000E+00  0.0000E+00  0.0000E+00  0.0000E+00  0.0000E+00
    -59.799  0.0000E+00  0.0000E+00  0.0000E+00  0.0000E+00  0.0000E+00  0.0000E+00  0.0000E+00  0.0000E+00  0.0000E+00  0.0000E+00  0.0000E+00  0.0000E+00  0.0000E+00  0.0000E+00  0.0000E+00  0.0000E+00  0.0000E+00  0.0000E+00
    -59.497  0.0000E+00  0.0000E+00  0.0000E+00  0.0000E+00  0.0000E+00  0.0000E+00  0.0000E+00  0.0000E+00  0.0000E+00  0.0000E+00  0.0000E+00  0.0000E+00  0.0000E+00  0.0000E+00  0.0000E+00  0.0000E+00  0.0000E+00  0.0000E+00
    -59.195  0.0000E+00  0.0000E+00  0.0000E+00  0.0000E+00  0.0000E+00  0.0000E+00  0.0000E+00  0.0000E+00  0.0000E+00  0.0000E+00  0.0000E+00  0.0000E+00  0.0000E+00  0.0000E+00  0.0000E+00  0.0000E+00  0.0000E+00  0.0000E+00
    -58.892  0.0000E+00  0.0000E+00  0.0000E+00  0.0000E+00  0.0000E+00  0.0000E+00  0.0000E+00  0.0000E+00  0.0000E+00  0.0000E+00  0.0000E+00  0.0000E+00  0.0000E+00  0.0000E+00  0.0000E+00  0.0000E+00  0.0000E+00  0.0000E+00
    -58.590  0.7906E-14  0.0000E+00  0.1389E-07  0.0000E+00  0.1389E-07  0.0000E+00  0.1389E-07  0.0000E+00  0.3324E-14  0.0000E+00  0.3324E-14  0.0000E+00  0.1626E-14  0.0000E+00  0.3324E-14  0.0000E+00  0.1626E-14  0.0000E+00
    -58.288  0.1313E-05  0.0000E+00  0.3281E+01  0.0000E+00  0.3281E+01  0.0000E+00  0.3281E+01  0.0000E+00  0.7878E-06  0.0000E+00  0.7878E-06  0.0000E+00  0.4718E-06  0.0000E+00  0.7878E-06  0.0000E+00  0.4718E-06  0.0000E+00
    -57.985  0.2191E-08  0.0000E+00  0.1272E-01  0.0000E+00  0.1272E-01  0.0000E+00  0.1272E-01  0.0000E+00  0.2733E-08  0.0000E+00  0.2733E-08  0.0000E+00  0.1934E-08  0.0000E+00  0.2733E-08  0.0000E+00  0.1934E-08  0.0000E+00
    -57.683  0.0000E+00  0.0000E+00  0.0000E+00  0.0000E+00  0.0000E+00  0.0000E+00  0.0000E+00  0.0000E+00  0.0000E+00  0.0000E+00  0.0000E+00  0.0000E+00  0.0000E+00  0.0000E+00  0.0000E+00  0.0000E+00  0.0000E+00  0.0000E+00
    -57.381  0.0000E+00  0.0000E+00  0.0000E+00  0.0000E+00  0.0000E+00  0.0000E+00  0.0000E+00  0.0000E+00  0.0000E+00  0.0000E+00  0.0000E+00  0.0000E+00  0.0000E+00  0.0000E+00  0.0000E+00  0.0000E+00  0.0000E+00  0.0000E+00
    -57.079  0.0000E+00  0.0000E+00  0.0000E+00  0.0000E+00  0.0000E+00  0.0000E+00  0.0000E+00  0.0000E+00  0.0000E+00  0.0000E+00  0.0000E+00  0.0000E+00  0.0000E+00  0.0000E+00  0.0000E+00  0.0000E+00  0.0000E+00  0.0000E+00
    -56.776  0.0000E+00  0.0000E+00  0.0000E+00  0.0000E+00  0.0000E+00  0.0000E+00  0.0000E+00  0.0000E+00  0.0000E+00  0.0000E+00  0.0000E+00  0.0000E+00  0.0000E+00  0.0000E+00  0.0000E+00  0.0000E+00  0.0000E+00  0.0000E+00
    -56.474  0.0000E+00  0.1884E-16  0.0000E+00  0.2738E-10  0.0000E+00  0.2738E-10  0.0000E+00  0.2738E-10  0.0000E+00  0.7336E-17  0.0000E+00  0.7336E-17  0.0000E+00  0.2615E-17  0.0000E+00  0.7336E-17  0.0000E+00  0.2615E-17
    -56.172  0.0000E+00  0.1566E-05  0.0000E+00  0.3115E+01  0.0000E+00  0.3115E+01  0.0000E+00  0.3115E+01  0.0000E+00  0.8823E-06  0.0000E+00  0.8823E-06  0.0000E+00  0.3895E-06  0.0000E+00  0.8823E-06  0.0000E+00  0.3895E-06
    -55.870  0.0000E+00  0.6488E-07  0.0000E+00  0.1812E+00  0.0000E+00  0.1812E+00  0.0000E+00  0.1812E+00  0.0000E+00  0.4821E-07  0.0000E+00  0.4821E-07  0.0000E+00  0.2321E-07  0.0000E+00  0.4821E-07  0.0000E+00  0.2321E-07
    -55.567  0.0000E+00  0.0000E+00  0.0000E+00  0.0000E+00  0.0000E+00  0.0000E+00  0.0000E+00  0.0000E+00  0.0000E+00  0.0000E+00  0.0000E+00  0.0000E+00  0.0000E+00  0.0000E+00  0.0000E+00  0.0000E+00  0.0000E+00  0.0000E+00
    -55.265  0.0000E+00  0.0000E+00  0.0000E+00  0.0000E+00  0.0000E+00  0.0000E+00  0.0000E+00  0.0000E+00  0.0000E+00  0.0000E+00  0.0000E+00  0.0000E+00  0.0000E+00  0.0000E+00  0.0000E+00  0.0000E+00  0.0000E+00  0.0000E+00
    -54.963  0.0000E+00  0.0000E+00  0.0000E+00  0.0000E+00  0.0000E+00  0.0000E+00  0.0000E+00  0.0000E+00  0.0000E+00  0.0000E+00  0.0000E+00  0.0000E+00  0.0000E+00  0.0000E+00  0.0000E+00  0.0000E+00  0.0000E+00  0.0000E+00
    -54.661  0.0000E+00  0.0000E+00  0.0000E+00  0.0000E+00  0.0000E+00  0.0000E+00  0.0000E+00  0.0000E+00  0.0000E+00  0.0000E+00  0.0000E+00  0.0000E+00  0.0000E+00  0.0000E+00  0.0000E+00  0.0000E+00  0.0000E+00  0.0000E+00
    -54.358  0.0000E+00  0.0000E+00  0.0000E+00  0.0000E+00  0.0000E+00  0.0000E+00  0.0000E+00  0.0000E+00  0.0000E+00  0.0000E+00  0.0000E+00  0.0000E+00  0.0000E+00  0.0000E+00  0.0000E+00  0.0000E+00  0.0000E+00  0.0000E+00
    -54.056  0.0000E+00  0.0000E+00  0.0000E+00  0.0000E+00  0.0000E+00  0.0000E+00  0.0000E+00  0.0000E+00  0.0000E+00  0.0000E+00  0.0000E+00  0.0000E+00  0.0000E+00  0.0000E+00  0.0000E+00  0.0000E+00  0.0000E+00  0.0000E+00
    -53.754  0.0000E+00  0.0000E+00  0.0000E+00  0.0000E+00  0.0000E+00  0.0000E+00  0.0000E+00  0.0000E+00  0.0000E+00  0.0000E+00  0.0000E+00  0.0000E+00  0.0000E+00  0.0000E+00  0.0000E+00  0.0000E+00  0.0000E+00  0.0000E+00
    -53.452  0.0000E+00  0.0000E+00  0.0000E+00  0.0000E+00  0.0000E+00  0.0000E+00  0.0000E+00  0.0000E+00  0.0000E+00  0.0000E+00  0.0000E+00  0.0000E+00  0.0000E+00  0.0000E+00  0.0000E+00  0.0000E+00  0.0000E+00  0.0000E+00
    -53.149  0.0000E+00  0.0000E+00  0.0000E+00  0.0000E+00  0.0000E+00  0.0000E+00  0.0000E+00  0.0000E+00  0.0000E+00  0.0000E+00  0.0000E+00  0.0000E+00  0.0000E+00  0.0000E+00  0.0000E+00  0.0000E+00  0.0000E+00  0.0000E+00
    -52.847  0.0000E+00  0.0000E+00  0.0000E+00  0.0000E+00  0.0000E+00  0.0000E+00  0.0000E+00  0.0000E+00  0.0000E+00  0.0000E+00  0.0000E+00  0.0000E+00  0.0000E+00  0.0000E+00  0.0000E+00  0.0000E+00  0.0000E+00  0.0000E+00
    -52.545  0.0000E+00  0.0000E+00  0.0000E+00  0.0000E+00  0.0000E+00  0.0000E+00  0.0000E+00  0.0000E+00  0.0000E+00  0.0000E+00  0.0000E+00  0.0000E+00  0.0000E+00  0.0000E+00  0.0000E+00  0.0000E+00  0.0000E+00  0.0000E+00
    -52.242  0.0000E+00  0.0000E+00  0.0000E+00  0.0000E+00  0.0000E+00  0.0000E+00  0.0000E+00  0.0000E+00  0.0000E+00  0.0000E+00  0.0000E+00  0.0000E+00  0.0000E+00  0.0000E+00  0.0000E+00  0.0000E+00  0.0000E+00  0.0000E+00
    -51.940  0.0000E+00  0.0000E+00  0.0000E+00  0.0000E+00  0.0000E+00  0.0000E+00  0.0000E+00  0.0000E+00  0.0000E+00  0.0000E+00  0.0000E+00  0.0000E+00  0.0000E+00  0.0000E+00  0.0000E+00  0.0000E+00  0.0000E+00  0.0000E+00
    -51.638  0.0000E+00  0.0000E+00  0.0000E+00  0.0000E+00  0.0000E+00  0.0000E+00  0.0000E+00  0.0000E+00  0.0000E+00  0.0000E+00  0.0000E+00  0.0000E+00  0.0000E+00  0.0000E+00  0.0000E+00  0.0000E+00  0.0000E+00  0.0000E+00
    -51.336  0.0000E+00  0.0000E+00  0.0000E+00  0.0000E+00  0.0000E+00  0.0000E+00  0.0000E+00  0.0000E+00  0.0000E+00  0.0000E+00  0.0000E+00  0.0000E+00  0.0000E+00  0.0000E+00  0.0000E+00  0.0000E+00  0.0000E+00  0.0000E+00
    -51.033  0.0000E+00  0.0000E+00  0.0000E+00  0.0000E+00  0.0000E+00  0.0000E+00  0.0000E+00  0.0000E+00  0.0000E+00  0.0000E+00  0.0000E+00  0.0000E+00  0.0000E+00  0.0000E+00  0.0000E+00  0.0000E+00  0.0000E+00  0.0000E+00
    -50.731  0.0000E+00  0.0000E+00  0.0000E+00  0.0000E+00  0.0000E+00  0.0000E+00  0.0000E+00  0.0000E+00  0.0000E+00  0.0000E+00  0.0000E+00  0.0000E+00  0.0000E+00  0.0000E+00  0.0000E+00  0.0000E+00  0.0000E+00  0.0000E+00
    -50.429  0.0000E+00  0.0000E+00  0.0000E+00  0.0000E+00  0.0000E+00  0.0000E+00  0.0000E+00  0.0000E+00  0.0000E+00  0.0000E+00  0.0000E+00  0.0000E+00  0.0000E+00  0.0000E+00  0.0000E+00  0.0000E+00  0.0000E+00  0.0000E+00
    -50.127  0.0000E+00  0.0000E+00  0.0000E+00  0.0000E+00  0.0000E+00  0.0000E+00  0.0000E+00  0.0000E+00  0.0000E+00  0.0000E+00  0.0000E+00  0.0000E+00  0.0000E+00  0.0000E+00  0.0000E+00  0.0000E+00  0.0000E+00  0.0000E+00
    -49.824  0.0000E+00  0.0000E+00  0.0000E+00  0.0000E+00  0.0000E+00  0.0000E+00  0.0000E+00  0.0000E+00  0.0000E+00  0.0000E+00  0.0000E+00  0.0000E+00  0.0000E+00  0.0000E+00  0.0000E+00  0.0000E+00  0.0000E+00  0.0000E+00
    -49.522  0.0000E+00  0.0000E+00  0.0000E+00  0.0000E+00  0.0000E+00  0.0000E+00  0.0000E+00  0.0000E+00  0.0000E+00  0.0000E+00  0.0000E+00  0.0000E+00  0.0000E+00  0.0000E+00  0.0000E+00  0.0000E+00  0.0000E+00  0.0000E+00
    -49.220  0.0000E+00  0.0000E+00  0.0000E+00  0.0000E+00  0.0000E+00  0.0000E+00  0.0000E+00  0.0000E+00  0.0000E+00  0.0000E+00  0.0000E+00  0.0000E+00  0.0000E+00  0.0000E+00  0.0000E+00  0.0000E+00  0.0000E+00  0.0000E+00
    -48.918  0.0000E+00  0.0000E+00  0.0000E+00  0.0000E+00  0.0000E+00  0.0000E+00  0.0000E+00  0.0000E+00  0.0000E+00  0.0000E+00  0.0000E+00  0.0000E+00  0.0000E+00  0.0000E+00  0.0000E+00  0.0000E+00  0.0000E+00  0.0000E+00
    -48.615  0.0000E+00  0.0000E+00  0.0000E+00  0.0000E+00  0.0000E+00  0.0000E+00  0.0000E+00  0.0000E+00  0.0000E+00  0.0000E+00  0.0000E+00  0.0000E+00  0.0000E+00  0.0000E+00  0.0000E+00  0.0000E+00  0.0000E+00  0.0000E+00
    -48.313  0.0000E+00  0.0000E+00  0.0000E+00  0.0000E+00  0.0000E+00  0.0000E+00  0.0000E+00  0.0000E+00  0.0000E+00  0.0000E+00  0.0000E+00  0.0000E+00  0.0000E+00  0.0000E+00  0.0000E+00  0.0000E+00  0.0000E+00  0.0000E+00
    -48.011  0.0000E+00  0.0000E+00  0.0000E+00  0.0000E+00  0.0000E+00  0.0000E+00  0.0000E+00  0.0000E+00  0.0000E+00  0.0000E+00  0.0000E+00  0.0000E+00  0.0000E+00  0.0000E+00  0.0000E+00  0.0000E+00  0.0000E+00  0.0000E+00
    -47.708  0.0000E+00  0.0000E+00  0.0000E+00  0.0000E+00  0.0000E+00  0.0000E+00  0.0000E+00  0.0000E+00  0.0000E+00  0.0000E+00  0.0000E+00  0.0000E+00  0.0000E+00  0.0000E+00  0.0000E+00  0.0000E+00  0.0000E+00  0.0000E+00
    -47.406  0.0000E+00  0.0000E+00  0.0000E+00  0.0000E+00  0.0000E+00  0.0000E+00  0.0000E+00  0.0000E+00  0.0000E+00  0.0000E+00  0.0000E+00  0.0000E+00  0.0000E+00  0.0000E+00  0.0000E+00  0.0000E+00  0.0000E+00  0.0000E+00