    8    8    1    2
  0.9103145E+01  0.4176000E-09  0.4176000E-09  0.4176000E-09  0.5000000E-15
  1.000000000000000E-004
  CAR 
 bulk_NiO                                
     88     20     60
 
  0.6250000E-01  0.6250000E-01  0.6250000E-01  0.1562500E-01
    1      -58.395743    -56.245386   1.000000   1.000000
    2      -58.395743    -56.245386   1.000000   1.000000
    3      -58.395743    -56.245386   1.000000   1.000000
    4      -58.381026    -56.228841   1.000000   1.000000
    5      -58.381026    -56.228841   1.000000   1.000000
    6      -58.381026    -56.228841   1.000000   1.000000
    7      -58.380461    -56.228208   1.000000   1.000000
    8      -58.380461    -56.228208   1.000000   1.000000
    9      -58.380461    -56.228208   1.000000   1.000000
   10      -58.371698    -56.218269   1.000000   1.000000
   11      -58.370279    -56.216545   1.000000   1.000000
   12      -58.370279    -56.216545   1.000000   1.000000
   13      -12.931252    -12.611002   1.000000   1.000000
   14      -11.649725    -11.025713   1.000000   1.000000
   15      -11.649725    -11.025713   1.000000   1.000000
   16      -11.649725    -11.025713   1.000000   1.000000
   17        0.203592      0.634799   1.000000   1.000000
   18        0.203592      0.634799   1.000000   1.000000
   19        0.203592      0.634799   1.000000   1.000000
   20        0.362882      1.673607   1.000000   1.000000
   21        0.362882      1.673607   1.000000   1.000000
   22        0.594489      1.673607   1.000000   1.000000
   23        0.594489      2.409634   1.000000   1.000000
   24        0.594489      2.489837   1.000000   1.000000
   25        0.626287      2.489837   1.000000   1.000000
   26        0.626287      3.220319   1.000000   1.000000
   27        0.626287      3.220319   1.000000   1.000000
   28        1.244035      3.220319   1.000000   1.000000
   29        1.301470      3.255655   1.000000   1.000000
   30        1.301470      3.255655   1.000000   1.000000
   31        1.489539      3.255655   1.000000   1.000000
   32        1.489539      3.616110   1.000000   1.000000
   33        1.489539      3.616110   1.000000   1.000000
   34        2.074785      3.616110   1.000000   1.000000
   35        2.074785      3.620089   1.000000   1.000000
   36        2.074785      3.620089   1.000000   1.000000
   37        2.157163      3.620089   1.000000   1.000000
   38        2.157163      4.619992   1.000000   1.000000
   39        2.157163      4.776038   1.000000   1.000000
   40        3.159300      4.776038   1.000000   1.000000
   41        3.159300      8.564237   1.000000   0.000000
   42        3.159300      8.564237   1.000000   0.000000
   43        3.292245      8.987632   1.000000   0.000000
   44        3.292245      8.987632   1.000000   0.000000
   45        3.292245      8.987632   1.000000   0.000000
   46        4.232151      9.323225   1.000000   0.000000
   47        4.568359      9.425247   1.000000   0.000000
   48        4.568359      9.425247   1.000000   0.000000
   49        8.970627      9.425247   0.000000   0.000000
   50       13.182283     13.772235   0.000000   0.000000
   51       13.182283     13.772235   0.000000   0.000000
   52       13.182283     13.772235   0.000000   0.000000
   53       17.833594     18.122010   0.000000   0.000000
   54       17.833594     18.122010   0.000000   0.000000
   55       17.833594     18.122010   0.000000   0.000000
   56       18.086834     18.436864   0.000000   0.000000
   57       18.086834     18.436864   0.000000   0.000000
   58       18.086834     18.436864   0.000000   0.000000
   59       23.163527     23.334967   0.000000   0.000000
   60       23.651899     24.037945   0.000000   0.000000
 
  0.1875000E+00  0.6250000E-01  0.6250000E-01  0.4687500E-01
    1      -58.394515    -56.244057   1.000000   1.000000
    2      -58.394515    -56.244057   1.000000   1.000000
    3      -58.393618    -56.243058   1.000000   1.000000
    4      -58.382380    -56.230364   1.000000   1.000000
    5      -58.382380    -56.230364   1.000000   1.000000
    6      -58.380285    -56.227986   1.000000   1.000000
    7      -58.380285    -56.227986   1.000000   1.000000
    8      -58.380123    -56.227809   1.000000   1.000000
    9      -58.379573    -56.227193   1.000000   1.000000
   10      -58.373452    -56.220263   1.000000   1.000000
   11      -58.371165    -56.217504   1.000000   1.000000
   12      -58.370814    -56.217209   1.000000   1.000000
   13      -12.811872    -12.488689   1.000000   1.000000
   14      -11.713182    -11.139451   1.000000   1.000000
   15      -11.607204    -10.999874   1.000000   1.000000
   16      -11.607204    -10.999874   1.000000   1.000000
   17       -0.393853      0.638366   1.000000   1.000000
   18        0.057458      0.638366   1.000000   1.000000
   19        0.167354      0.668362   1.000000   1.000000
   20        0.167354      1.467901   1.000000   1.000000
   21        0.223972      1.467901   1.000000   1.000000
   22        0.223972      1.726458   1.000000   1.000000
   23        0.374441      2.268882   1.000000   1.000000
   24        0.512492      2.440717   1.000000   1.000000
   25        0.512492      2.489177   1.000000   1.000000
   26        0.569547      2.876469   1.000000   1.000000
   27        0.669199      2.953276   1.000000   1.000000
   28        1.160515      3.066781   1.000000   1.000000
   29        1.301693      3.066781   1.000000   1.000000
   30        1.314776      3.313694   1.000000   1.000000
   31        1.349157      3.313694   1.000000   1.000000
   32        1.349157      3.571522   1.000000   1.000000
   33        1.700544      3.571522   1.000000   1.000000
   34        1.886856      3.694575   1.000000   1.000000
   35        2.074271      3.694575   1.000000   1.000000
   36        2.074271      3.891347   1.000000   1.000000
   37        2.361372      4.006142   1.000000   1.000000
   38        2.361372      4.021495   1.000000   1.000000
   39        2.404674      4.768204   1.000000   1.000000
   40        3.170540      4.823506   1.000000   1.000000
   41        3.170540      8.595085   1.000000   0.000000
   42        3.468689      8.829624   1.000000   0.000000
   43        3.549665      8.953684   1.000000   0.000000
   44        3.673140      9.175488   1.000000   0.000000
   45        3.673140      9.175488   1.000000   0.000000
   46        3.931070      9.480298   1.000000   0.000000
   47        4.562647      9.515752   1.000000   0.000000
   48        4.721610      9.515752   1.000000   0.000000
   49        9.681180     10.171407   0.000000   0.000000
   50       13.371847     14.024832   0.000000   0.000000
   51       13.683802     14.254158   0.000000   0.000000
   52       13.683802     14.254158   0.000000   0.000000
   53       17.738269     18.033346   0.000000   0.000000
   54       17.738269     18.033346   0.000000   0.000000
   55       17.776010     18.097388   0.000000   0.000000
   56       17.911322     18.238721   0.000000   0.000000
   57       17.911322     18.238721   0.000000   0.000000
   58       18.262056     18.600734   0.000000   0.000000
   59       21.921822     22.119984   0.000000   0.000000
   60       22.911827     23.360744   0.000000   0.000000
 
  0.3125000E+00  0.6250000E-01  0.6250000E-01  0.4687500E-01
    1      -58.392555    -56.241848   1.000000   1.000000
    2      -58.392555    -56.241848   1.000000   1.000000
    3      -58.390415    -56.239458   1.000000   1.000000
    4      -58.384521    -56.232787   1.000000   1.000000
    5      -58.384521    -56.232787   1.000000   1.000000
    6      -58.380381    -56.227962   1.000000   1.000000
    7      -58.380381    -56.227962   1.000000   1.000000
    8      -58.378584    -56.226034   1.000000   1.000000
    9      -58.378234    -56.225664   1.000000   1.000000
   10      -58.376968    -56.224267   1.000000   1.000000
   11      -58.372523    -56.219040   1.000000   1.000000
   12      -58.372200    -56.218765   1.000000   1.000000
   13      -12.596296    -12.261807   1.000000   1.000000
   14      -11.850378    -11.355506   1.000000   1.000000
   15      -11.545768    -10.962995   1.000000   1.000000
   16      -11.545768    -10.962995   1.000000   1.000000
   17       -0.846767      0.663779   1.000000   1.000000
   18       -0.405459      0.663779   1.000000   1.000000
   19       -0.267554      0.816684   1.000000   1.000000
   20       -0.267554      1.196686   1.000000   1.000000
   21        0.140540      1.196686   1.000000   1.000000
   22        0.140540      1.824369   1.000000   1.000000
   23        0.360105      2.061109   1.000000   1.000000
   24        0.360105      2.385496   1.000000   1.000000
   25        0.397030      2.396266   1.000000   1.000000
   26        0.526069      2.612589   1.000000   1.000000
   27        0.747341      2.736043   1.000000   1.000000
   28        1.060301      2.736043   1.000000   1.000000
   29        1.304827      2.736466   1.000000   1.000000
   30        1.304827      3.031413   1.000000   1.000000
   31        1.309986      3.348752   1.000000   1.000000
   32        1.319742      3.348752   1.000000   1.000000
   33        1.544600      3.679997   1.000000   1.000000
   34        1.667852      3.679997   1.000000   1.000000
   35        2.076075      3.803430   1.000000   1.000000
   36        2.076075      3.803430   1.000000   1.000000
   37        2.615993      4.362784   1.000000   1.000000
   38        2.615993      4.386852   1.000000   1.000000
   39        2.918690      4.814736   1.000000   1.000000
   40        3.154680      4.861732   1.000000   1.000000
   41        3.154680      8.652487   1.000000   0.000000
   42        3.706169      8.891697   1.000000   0.000000
   43        3.884226      9.017048   1.000000   0.000000
   44        3.892043      9.283755   1.000000   0.000000
   45        4.048037      9.283755   1.000000   0.000000
   46        4.048037      9.481751   1.000000   0.000000
   47        4.520407      9.707159   1.000000   0.000000
   48        4.724094      9.707159   1.000000   0.000000
   49       10.796632     11.506632   0.000000   0.000000
   50       13.438682     14.224423   0.000000   0.000000
   51       14.548181     15.141615   0.000000   0.000000
   52       14.548181     15.141615   0.000000   0.000000
   53       17.534155     17.843246   0.000000   0.000000
   54       17.534155     17.843246   0.000000   0.000000
   55       17.753404     18.048710   0.000000   0.000000
   56       17.753404     18.048710   0.000000   0.000000
   57       18.028649     18.393456   0.000000   0.000000
   58       18.613051     18.932550   0.000000   0.000000
   59       20.771659     20.998624   0.000000   0.000000
   60       21.743400     22.223135   0.000000   0.000000
 
  0.4375000E+00  0.6250000E-01  0.6250000E-01  0.4687500E-01
    1      -58.390089    -56.239028   1.000000   1.000000
    2      -58.390089    -56.239028   1.000000   1.000000
    3      -58.387009    -56.235591   1.000000   1.000000
    4      -58.387009    -56.235591   1.000000   1.000000
    5      -58.385824    -56.234274   1.000000   1.000000
    6      -58.381549    -56.229474   1.000000   1.000000
    7      -58.380419    -56.228013   1.000000   1.000000
    8      -58.380419    -56.228013   1.000000   1.000000
    9      -58.376624    -56.223744   1.000000   1.000000
   10      -58.376419    -56.223530   1.000000   1.000000
   11      -58.374526    -56.221387   1.000000   1.000000
   12      -58.374409    -56.221272   1.000000   1.000000
   13      -12.328495    -11.965068   1.000000   1.000000
   14      -12.063340    -11.645447   1.000000   1.000000
   15      -11.501265    -10.936544   1.000000   1.000000
   16      -11.501265    -10.936544   1.000000   1.000000
   17       -0.988812      0.722897   1.000000   1.000000
   18       -0.812674      0.722897   1.000000   1.000000
   19       -0.575041      0.982073   1.000000   1.000000
   20       -0.575041      0.982073   1.000000   1.000000
   21        0.154333      1.157576   1.000000   1.000000
   22        0.154333      1.665299   1.000000   1.000000
   23        0.230299      1.960203   1.000000   1.000000
   24        0.230299      2.152297   1.000000   1.000000
   25        0.430682      2.374900   1.000000   1.000000
   26        0.475991      2.445421   1.000000   1.000000
   27        0.847486      2.508795   1.000000   1.000000
   28        0.954754      2.508795   1.000000   1.000000
   29        1.295864      2.624391   1.000000   1.000000
   30        1.295864      2.647904   1.000000   1.000000
   31        1.325736      3.362096   1.000000   1.000000
   32        1.377983      3.362096   1.000000   1.000000
   33        1.400325      3.794801   1.000000   1.000000
   34        1.492664      3.794801   1.000000   1.000000
   35        2.077839      3.857665   1.000000   1.000000
   36        2.077839      3.857665   1.000000   1.000000
   37        2.850702      4.634845   1.000000   1.000000
   38        2.850702      4.664500   1.000000   1.000000
   39        3.073155      4.785402   1.000000   1.000000
   40        3.073155      4.822285   1.000000   1.000000
   41        3.287059      8.728289   1.000000   0.000000
   42        3.521825      8.812282   1.000000   0.000000
   43        4.185621      9.205379   1.000000   0.000000
   44        4.250842      9.316479   1.000000   0.000000
   45        4.250842      9.316479   1.000000   0.000000
   46        4.292111      9.378313   1.000000   0.000000
   47        4.401752      9.835873   1.000000   0.000000
   48        4.579543      9.835873   1.000000   0.000000
   49       11.989365     12.830193   0.000000   0.000000
   50       12.967377     13.836616   0.000000   0.000000
   51       15.380376     16.047241   0.000000   0.000000
   52       15.380376     16.047241   0.000000   0.000000
   53       17.324319     17.627739   0.000000   0.000000
   54       17.324319     17.627739   0.000000   0.000000
   55       17.666769     17.952990   0.000000   0.000000
   56       17.666769     17.952990   0.000000   0.000000
   57       18.975753     19.340750   0.000000   0.000000
   58       19.229240     19.629751   0.000000   0.000000
   59       19.825910     20.088446   0.000000   0.000000
   60       20.794502     21.241079   0.000000   0.000000
 
  0.1875000E+00  0.1875000E+00  0.6250000E-01  0.4687500E-01
    1      -58.393683    -56.243095   1.000000   1.000000
    2      -58.393221    -56.242571   1.000000   1.000000
    3      -58.393221    -56.242571   1.000000   1.000000
    4      -58.384377    -56.232562   1.000000   1.000000
    5      -58.381450    -56.229268   1.000000   1.000000
    6      -58.381450    -56.229268   1.000000   1.000000
    7      -58.379450    -56.227015   1.000000   1.000000
    8      -58.379450    -56.227015   1.000000   1.000000
    9      -58.379304    -56.226875   1.000000   1.000000
   10      -58.376138    -56.223263   1.000000   1.000000
   11      -58.371917    -56.218410   1.000000   1.000000
   12      -58.370986    -56.217445   1.000000   1.000000
   13      -12.696253    -12.371136   1.000000   1.000000
   14      -11.662856    -11.103046   1.000000   1.000000
   15      -11.662856    -11.103046   1.000000   1.000000
   16      -11.571648    -10.983645   1.000000   1.000000
   17       -0.400232      0.582270   1.000000   1.000000
   18       -0.400232      0.582270   1.000000   1.000000
   19       -0.031169      0.618749   1.000000   1.000000
   20        0.042576      1.218253   1.000000   1.000000
   21        0.141066      1.532344   1.000000   1.000000
   22        0.157128      1.532344   1.000000   1.000000
   23        0.189442      1.984852   1.000000   1.000000
   24        0.189442      2.315520   1.000000   1.000000
   25        0.190703      2.564121   1.000000   1.000000
   26        0.539322      2.869044   1.000000   1.000000
   27        0.539322      2.869044   1.000000   1.000000
   28        1.008897      3.091476   1.000000   1.000000
   29        1.277939      3.091476   1.000000   1.000000
   30        1.315625      3.119565   1.000000   1.000000
   31        1.377072      3.380177   1.000000   1.000000
   32        1.511925      3.508310   1.000000   1.000000
   33        1.511925      3.708334   1.000000   1.000000
   34        1.918594      3.826300   1.000000   1.000000
   35        1.918594      3.826300   1.000000   1.000000
   36        2.042928      3.904304   1.000000   1.000000
   37        2.551904      4.056863   1.000000   1.000000
   38        2.609460      4.056863   1.000000   1.000000
   39        2.609460      4.294864   1.000000   1.000000
   40        3.193868      4.843595   1.000000   1.000000
   41        3.484246      8.722042   1.000000   0.000000
   42        3.484246      9.144482   1.000000   0.000000
   43        3.558260      9.144482   1.000000   0.000000
   44        3.952357      9.279079   1.000000   0.000000
   45        3.952357      9.485088   1.000000   0.000000
   46        4.106833      9.496988   1.000000   0.000000
   47        4.596669      9.628846   1.000000   0.000000
   48        5.102982      9.628846   1.000000   0.000000
   49       10.202570     10.623282   0.000000   0.000000
   50       13.824080     14.430233   0.000000   0.000000
   51       13.824080     14.430233   0.000000   0.000000
   52       14.091079     14.635270   0.000000   0.000000
   53       17.439571     17.773478   0.000000   0.000000
   54       17.593792     17.925107   0.000000   0.000000
   55       17.593792     17.925107   0.000000   0.000000
   56       17.828315     18.121970   0.000000   0.000000
   57       18.090751     18.411862   0.000000   0.000000
   58       18.090751     18.411862   0.000000   0.000000
   59       20.946298     21.171872   0.000000   0.000000
   60       22.915918     23.345345   0.000000   0.000000
 
  0.3125000E+00  0.1875000E+00  0.6250000E-01  0.9375000E-01
    1      -58.392181    -56.241426   1.000000   1.000000
    2      -58.391785    -56.240970   1.000000   1.000000
    3      -58.390638    -56.239754   1.000000   1.000000
    4      -58.386225    -56.234677   1.000000   1.000000
    5      -58.383243    -56.231330   1.000000   1.000000
    6      -58.379721    -56.227354   1.000000   1.000000
    7      -58.379641    -56.227219   1.000000   1.000000
    8      -58.379266    -56.226726   1.000000   1.000000
    9      -58.378640    -56.226068   1.000000   1.000000
   10      -58.377788    -56.225060   1.000000   1.000000
   11      -58.373286    -56.220014   1.000000   1.000000
   12      -58.371615    -56.218113   1.000000   1.000000
   13      -12.488141    -12.153612   1.000000   1.000000
   14      -11.785906    -11.300840   1.000000   1.000000
   15      -11.586031    -11.045864   1.000000   1.000000
   16      -11.523639    -10.965010   1.000000   1.000000
   17       -0.853067      0.466335   1.000000   1.000000
   18       -0.428455      0.554466   1.000000   1.000000
   19       -0.404113      0.601609   1.000000   1.000000
   20       -0.374115      0.989593   1.000000   1.000000
   21       -0.303032      1.285394   1.000000   1.000000
   22       -0.065860      1.602043   1.000000   1.000000
   23        0.077723      1.635726   1.000000   1.000000
   24        0.125768      2.122652   1.000000   1.000000
   25        0.138778      2.587332   1.000000   1.000000
   26        0.373434      2.682743   1.000000   1.000000
   27        0.588465      2.807993   1.000000   1.000000
   28        0.862460      2.950707   1.000000   1.000000
   29        1.311094      2.956030   1.000000   1.000000
   30        1.335735      3.194937   1.000000   1.000000
   31        1.423250      3.340409   1.000000   1.000000
   32        1.442366      3.400956   1.000000   1.000000
   33        1.473717      3.636014   1.000000   1.000000
   34        1.738046      3.733127   1.000000   1.000000
   35        1.944629      3.861058   1.000000   1.000000
   36        2.015186      4.102426   1.000000   1.000000
   37        2.788104      4.116179   1.000000   1.000000
   38        2.804622      4.315676   1.000000   1.000000
   39        2.919958      4.403091   1.000000   1.000000
   40        3.228067      4.873380   1.000000   1.000000
   41        3.355410      8.805264   1.000000   0.000000
   42        3.457749      9.082771   1.000000   0.000000
   43        3.875860      9.273543   1.000000   0.000000
   44        4.406382      9.458239   1.000000   0.000000
   45        4.425746      9.570131   1.000000   0.000000
   46        4.537932      9.734990   1.000000   0.000000
   47        4.550819      9.844991   1.000000   0.000000
   48        5.299683      9.891200   1.000000   0.000000
   49       11.124433     11.689134   0.000000   0.000000
   50       13.778199     14.478570   0.000000   0.000000
   51       14.617754     15.194101   0.000000   0.000000
   52       14.838047     15.381858   0.000000   0.000000
   53       16.992659     17.351631   0.000000   0.000000
   54       17.254796     17.608999   0.000000   0.000000
   55       17.751570     18.032669   0.000000   0.000000
   56       17.776503     18.140319   0.000000   0.000000
   57       17.900903     18.205367   0.000000   0.000000
   58       18.411753     18.728321   0.000000   0.000000
   59       19.986665     20.233369   0.000000   0.000000
   60       21.983283     22.436917   0.000000   0.000000
 
  0.4375000E+00  0.1875000E+00  0.6250000E-01  0.9375000E-01
    1      -58.390996    -56.240082   1.000000   1.000000
    2      -58.390254    -56.239263   1.000000   1.000000
    3      -58.387126    -56.235759   1.000000   1.000000
    4      -58.387101    -56.235679   1.000000   1.000000
    5      -58.385563    -56.233951   1.000000   1.000000
    6      -58.383664    -56.231852   1.000000   1.000000
    7      -58.378873    -56.226286   1.000000   1.000000
    8      -58.378707    -56.226047   1.000000   1.000000
    9      -58.377412    -56.224649   1.000000   1.000000
   10      -58.375474    -56.222445   1.000000   1.000000
   11      -58.375262    -56.222260   1.000000   1.000000
   12      -58.373483    -56.220178   1.000000   1.000000
   13      -12.232004    -11.871109   1.000000   1.000000
   14      -11.982178    -11.570119   1.000000   1.000000
   15      -11.520782    -10.992638   1.000000   1.000000
   16      -11.498517    -10.963982   1.000000   1.000000
   17       -1.002458      0.399677   1.000000   1.000000
   18       -0.830834      0.440960   1.000000   1.000000
   19       -0.667788      0.796549   1.000000   1.000000
   20       -0.651310      0.960751   1.000000   1.000000
   21       -0.333895      1.079665   1.000000   1.000000
   22       -0.228813      1.164841   1.000000   1.000000
   23        0.069726      1.769337   1.000000   1.000000
   24        0.093129      1.933351   1.000000   1.000000
   25        0.149649      2.572953   1.000000   1.000000
   26        0.233843      2.584115   1.000000   1.000000
   27        0.656509      2.728327   1.000000   1.000000
   28        0.745372      2.770797   1.000000   1.000000
   29        1.362217      2.918733   1.000000   1.000000
   30        1.363425      3.032875   1.000000   1.000000
   31        1.403974      3.254630   1.000000   1.000000
   32        1.406344      3.296072   1.000000   1.000000
   33        1.484438      3.757881   1.000000   1.000000
   34        1.588899      3.765645   1.000000   1.000000
   35        1.970348      4.009049   1.000000   1.000000
   36        1.992762      4.096044   1.000000   1.000000
   37        2.947062      4.323105   1.000000   1.000000
   38        2.958493      4.387406   1.000000   1.000000
   39        3.128438      4.672437   1.000000   1.000000
   40        3.249542      4.829444   1.000000   1.000000
   41        3.275193      8.900679   1.000000   0.000000
   42        3.375225      8.997895   1.000000   0.000000
   43        4.199390      9.348443   1.000000   0.000000
   44        4.425148      9.408076   1.000000   0.000000
   45        4.694072      9.694536   1.000000   0.000000
   46        4.746801      9.753667   1.000000   0.000000
   47        4.904414     10.050869   1.000000   0.000000
   48        5.221192     10.060788   1.000000   0.000000
   49       12.213549     12.927080   0.000000   0.000000
   50       13.197869     13.956800   0.000000   0.000000
   51       15.486631     16.075758   0.000000   0.000000
   52       15.664623     16.278924   0.000000   0.000000
   53       16.544168     16.892305   0.000000   0.000000
   54       16.772233     17.154114   0.000000   0.000000
   55       17.711993     17.992564   0.000000   0.000000
   56       17.760483     18.052201   0.000000   0.000000
   57       18.487610     18.825540   0.000000   0.000000
   58       19.115308     19.469928   0.000000   0.000000
   59       19.193834     19.521525   0.000000   0.000000
   60       20.591686     21.120822   0.000000   0.000000
 
  0.3125000E+00  0.3125000E+00  0.6250000E-01  0.4687500E-01
    1      -58.391179    -56.240325   1.000000   1.000000
    2      -58.391179    -56.240325   1.000000   1.000000
    3      -58.390796    -56.239848   1.000000   1.000000
    4      -58.387034    -56.235528   1.000000   1.000000
    5      -58.383122    -56.231183   1.000000   1.000000
    6      -58.381424    -56.229229   1.000000   1.000000
    7      -58.381424    -56.229229   1.000000   1.000000
    8      -58.377189    -56.224418   1.000000   1.000000
    9      -58.377006    -56.224176   1.000000   1.000000
   10      -58.377006    -56.224176   1.000000   1.000000
   11      -58.374832    -56.221792   1.000000   1.000000
   12      -58.371731    -56.218290   1.000000   1.000000
   13      -12.295825    -11.955417   1.000000   1.000000
   14      -11.681761    -11.208946   1.000000   1.000000
   15      -11.681761    -11.208946   1.000000   1.000000
   16      -11.502550    -10.981541   1.000000   1.000000
   17       -0.858780      0.309486   1.000000   1.000000
   18       -0.858780      0.332688   1.000000   1.000000
   19       -0.603687      0.332688   1.000000   1.000000
   20       -0.480393      0.929084   1.000000   1.000000
   21       -0.479693      1.104293   1.000000   1.000000
   22       -0.397147      1.381963   1.000000   1.000000
   23       -0.370840      1.381963   1.000000   1.000000
   24       -0.370840      1.868719   1.000000   1.000000
   25        0.121681      2.693502   1.000000   1.000000
   26        0.403387      2.800753   1.000000   1.000000
   27        0.403387      2.800753   1.000000   1.000000
   28        0.684928      2.988011   1.000000   1.000000
   29        1.364745      3.133686   1.000000   1.000000
   30        1.369542      3.133686   1.000000   1.000000
   31        1.463854      3.375268   1.000000   1.000000
   32        1.463854      3.598316   1.000000   1.000000
   33        1.505295      3.744911   1.000000   1.000000
   34        1.794251      3.747640   1.000000   1.000000
   35        1.794251      3.876446   1.000000   1.000000
   36        1.952220      3.876446   1.000000   1.000000
   37        2.978663      4.064568   1.000000   1.000000
   38        2.992430      4.417991   1.000000   1.000000
   39        2.992430      4.417991   1.000000   1.000000
   40        3.203479      4.887762   1.000000   1.000000
   41        3.350345      8.902266   1.000000   0.000000
   42        3.824929      9.214257   1.000000   0.000000
   43        3.824929      9.214257   1.000000   0.000000
   44        4.497432      9.464991   1.000000   0.000000
   45        4.991813     10.153483   1.000000   0.000000
   46        4.991813     10.153483   1.000000   0.000000
   47        5.085720     10.172693   1.000000   0.000000
   48        5.734156     10.211511   1.000000   0.000000
   49       11.776859     12.250500   0.000000   0.000000
   50       14.370603     14.959038   0.000000   0.000000
   51       14.370603     14.959038   0.000000   0.000000
   52       15.386115     15.839919   0.000000   0.000000
   53       16.361647     16.813192   0.000000   0.000000
   54       17.371678     17.763387   0.000000   0.000000
   55       17.371678     17.763387   0.000000   0.000000
   56       17.726046     17.999947   0.000000   0.000000
   57       18.151134     18.463913   0.000000   0.000000
   58       18.151134     18.463913   0.000000   0.000000
   59       19.187687     19.448263   0.000000   0.000000
   60       21.176171     21.641890   0.000000   0.000000
 
  0.4375000E+00  0.3125000E+00  0.6250000E-01  0.9375000E-01
    1      -58.391317    -56.240404   1.000000   1.000000
    2      -58.390887    -56.239936   1.000000   1.000000
    3      -58.389078    -56.237934   1.000000   1.000000
    4      -58.386370    -56.234883   1.000000   1.000000
    5      -58.385978    -56.234349   1.000000   1.000000
    6      -58.383766    -56.231903   1.000000   1.000000
    7      -58.379285    -56.226775   1.000000   1.000000
    8      -58.376993    -56.224191   1.000000   1.000000
    9      -58.376731    -56.223877   1.000000   1.000000
   10      -58.376458    -56.223605   1.000000   1.000000
   11      -58.374690    -56.221564   1.000000   1.000000
   12      -58.372858    -56.219571   1.000000   1.000000
   13      -12.063834    -11.701935   1.000000   1.000000
   14      -11.845242    -11.438223   1.000000   1.000000
   15      -11.578911    -11.108730   1.000000   1.000000
   16      -11.514808    -11.027986   1.000000   1.000000
   17       -1.024066      0.137034   1.000000   1.000000
   18       -0.893550      0.149309   1.000000   1.000000
   19       -0.875333      0.393916   1.000000   1.000000
   20       -0.857897      0.669931   1.000000   1.000000
   21       -0.649035      1.000278   1.000000   1.000000
   22       -0.621731      1.157276   1.000000   1.000000
   23       -0.452027      1.499927   1.000000   1.000000
   24       -0.426177      1.659387   1.000000   1.000000