PROCAR lm decomposed
# of k-points:   20         # of bands:   60         # of ions:    8

 k-point     1 :    0.06250000 0.06250000 0.06250000     weight = 0.01562500

band     1 # energy  -58.39574328 # occ.  1.00000000
 
ion      s     py     pz     px    dxy    dyz    dz2    dxz  x2-y2    tot
    1  0.000  0.000  0.115  0.129  0.000  0.000  0.000  0.000  0.000  0.244
    2  0.000  0.000  0.119  0.134  0.000  0.000  0.000  0.000  0.000  0.253
    3  0.000  0.001  0.115  0.129  0.000  0.000  0.000  0.000  0.000  0.245
    4  0.000  0.001  0.120  0.134  0.000  0.000  0.000  0.000  0.000  0.254
    5  0.000  0.000  0.000  0.000  0.000  0.000  0.000  0.000  0.000  0.000
    6  0.000  0.000  0.000  0.000  0.000  0.000  0.000  0.000  0.000  0.000
    7  0.000  0.000  0.000  0.000  0.000  0.000  0.000  0.000  0.000  0.000
    8  0.000  0.000  0.000  0.000  0.000  0.000  0.000  0.000  0.000  0.000
tot    0.000  0.002  0.469  0.525  0.000  0.000  0.000  0.000  0.000  0.996
 
band     2 # energy  -58.39574328 # occ.  1.00000000
 
ion      s     py     pz     px    dxy    dyz    dz2    dxz  x2-y2    tot
    1  0.000  0.075  0.092  0.089  0.000  0.000  0.000  0.000  0.000  0.256
    2  0.000  0.067  0.089  0.078  0.000  0.000  0.000  0.000  0.000  0.235
    3  0.000  0.071  0.096  0.081  0.000  0.000  0.000  0.000  0.000  0.248
    4  0.000  0.078  0.093  0.086  0.000  0.000  0.000  0.000  0.000  0.257
    5  0.000  0.000  0.000  0.000  0.000  0.000  0.000  0.000  0.000  0.000
    6  0.000  0.000  0.000  0.000  0.000  0.000  0.000  0.000  0.000  0.000
    7  0.000  0.000  0.000  0.000  0.000  0.000  0.000  0.000  0.000  0.000
    8  0.000  0.000  0.000  0.000  0.000  0.000  0.000  0.000  0.000  0.000
tot    0.000  0.292  0.370  0.334  0.000  0.000  0.000  0.000  0.000  0.996
 
band     3 # energy  -58.39574328 # occ.  1.00000000
 
ion      s     py     pz     px    dxy    dyz    dz2    dxz  x2-y2    tot
    1  0.000  0.174  0.042  0.031  0.000  0.000  0.000  0.000  0.000  0.247
    2  0.000  0.181  0.040  0.037  0.000  0.000  0.000  0.000  0.000  0.259
    3  0.000  0.177  0.038  0.039  0.000  0.000  0.000  0.000  0.000  0.254
    4  0.000  0.170  0.036  0.030  0.000  0.000  0.000  0.000  0.000  0.236
    5  0.000  0.000  0.000  0.000  0.000  0.000  0.000  0.000  0.000  0.000
    6  0.000  0.000  0.000  0.000  0.000  0.000  0.000  0.000  0.000  0.000
    7  0.000  0.000  0.000  0.000  0.000  0.000  0.000  0.000  0.000  0.000
    8  0.000  0.000  0.000  0.000  0.000  0.000  0.000  0.000  0.000  0.000
tot    0.000  0.703  0.157  0.137  0.000  0.000  0.000  0.000  0.000  0.996
 
band     4 # energy  -58.38102552 # occ.  1.00000000
 
ion      s     py     pz     px    dxy    dyz    dz2    dxz  x2-y2    tot
    1  0.000  0.006  0.059  0.197  0.000  0.000  0.000  0.000  0.000  0.262
    2  0.000  0.054  0.158  0.204  0.000  0.000  0.000  0.000  0.000  0.416
    3  0.000  0.003  0.148  0.037  0.000  0.000  0.000  0.000  0.000  0.188
    4  0.000  0.041  0.053  0.035  0.000  0.000  0.000  0.000  0.000  0.130
    5  0.000  0.000  0.000  0.000  0.000  0.000  0.000  0.000  0.000  0.000
    6  0.000  0.000  0.000  0.000  0.000  0.000  0.000  0.000  0.000  0.000
    7  0.000  0.000  0.000  0.000  0.000  0.000  0.000  0.000  0.000  0.000
    8  0.000  0.000  0.000  0.000  0.000  0.000  0.000  0.000  0.000  0.000
tot    0.000  0.104  0.419  0.473  0.000  0.000  0.000  0.000  0.000  0.996
 
band     5 # energy  -58.38102552 # occ.  1.00000000
 
ion      s     py     pz     px    dxy    dyz    dz2    dxz  x2-y2    tot
    1  0.000  0.241  0.045  0.047  0.000  0.000  0.000  0.000  0.000  0.333
    2  0.000  0.001  0.079  0.037  0.000  0.000  0.000  0.000  0.000  0.117
    3  0.000  0.245  0.093  0.093  0.000  0.000  0.000  0.000  0.000  0.431
    4  0.000  0.000  0.036  0.079  0.000  0.000  0.000  0.000  0.000  0.115
    5  0.000  0.000  0.000  0.000  0.000  0.000  0.000  0.000  0.000  0.000
    6  0.000  0.000  0.000  0.000  0.000  0.000  0.000  0.000  0.000  0.000
    7  0.000  0.000  0.000  0.000  0.000  0.000  0.000  0.000  0.000  0.000
    8  0.000  0.000  0.000  0.000  0.000  0.000  0.000  0.000  0.000  0.000
tot    0.000  0.488  0.252  0.256  0.000  0.000  0.000  0.000  0.000  0.996
 
band     6 # energy  -58.38102552 # occ.  1.00000000
 
ion      s     py     pz     px    dxy    dyz    dz2    dxz  x2-y2    tot
    1  0.000  0.002  0.145  0.005  0.000  0.000  0.000  0.000  0.000  0.152
    2  0.000  0.195  0.012  0.008  0.000  0.000  0.000  0.000  0.000  0.214
    3  0.000  0.001  0.008  0.119  0.000  0.000  0.000  0.000  0.000  0.128
    4  0.000  0.207  0.160  0.135  0.000  0.000  0.000  0.000  0.000  0.502
    5  0.000  0.000  0.000  0.000  0.000  0.000  0.000  0.000  0.000  0.000
    6  0.000  0.000  0.000  0.000  0.000  0.000  0.000  0.000  0.000  0.000
    7  0.000  0.000  0.000  0.000  0.000  0.000  0.000  0.000  0.000  0.000
    8  0.000  0.000  0.000  0.000  0.000  0.000  0.000  0.000  0.000  0.000
tot    0.000  0.404  0.325  0.267  0.000  0.000  0.000  0.000  0.000  0.996
 
band     7 # energy  -58.38046053 # occ.  1.00000000
 
ion      s     py     pz     px    dxy    dyz    dz2    dxz  x2-y2    tot
    1  0.000  0.012  0.166  0.110  0.000  0.000  0.000  0.000  0.000  0.288
    2  0.000  0.015  0.068  0.110  0.000  0.000  0.000  0.000  0.000  0.193
    3  0.000  0.012  0.068  0.127  0.000  0.000  0.000  0.000  0.000  0.207
    4  0.000  0.015  0.166  0.127  0.000  0.000  0.000  0.000  0.000  0.308
    5  0.000  0.000  0.000  0.000  0.000  0.000  0.000  0.000  0.000  0.000
    6  0.000  0.000  0.000  0.000  0.000  0.000  0.000  0.000  0.000  0.000
    7  0.000  0.000  0.000  0.000  0.000  0.000  0.000  0.000  0.000  0.000
    8  0.000  0.000  0.000  0.000  0.000  0.000  0.000  0.000  0.000  0.000
tot    0.000  0.052  0.469  0.475  0.000  0.000  0.000  0.000  0.000  0.996
 
band     8 # energy  -58.38046053 # occ.  1.00000000
 
ion      s     py     pz     px    dxy    dyz    dz2    dxz  x2-y2    tot
    1  0.000  0.237  0.041  0.088  0.000  0.000  0.000  0.000  0.000  0.366
    2  0.000  0.001  0.101  0.088  0.000  0.000  0.000  0.000  0.000  0.190
    3  0.000  0.237  0.101  0.029  0.000  0.000  0.000  0.000  0.000  0.368
    4  0.000  0.001  0.041  0.029  0.000  0.000  0.000  0.000  0.000  0.072
    5  0.000  0.000  0.000  0.000  0.000  0.000  0.000  0.000  0.000  0.000
    6  0.000  0.000  0.000  0.000  0.000  0.000  0.000  0.000  0.000  0.000
    7  0.000  0.000  0.000  0.000  0.000  0.000  0.000  0.000  0.000  0.000
    8  0.000  0.000  0.000  0.000  0.000  0.000  0.000  0.000  0.000  0.000
tot    0.000  0.477  0.285  0.234  0.000  0.000  0.000  0.000  0.000  0.996
 
band     9 # energy  -58.38046053 # occ.  1.00000000
 
ion      s     py     pz     px    dxy    dyz    dz2    dxz  x2-y2    tot
    1  0.000  0.001  0.041  0.051  0.000  0.000  0.000  0.000  0.000  0.093
    2  0.000  0.233  0.080  0.051  0.000  0.000  0.000  0.000  0.000  0.364
    3  0.000  0.001  0.080  0.092  0.000  0.000  0.000  0.000  0.000  0.173
    4  0.000  0.233  0.041  0.092  0.000  0.000  0.000  0.000  0.000  0.367
    5  0.000  0.000  0.000  0.000  0.000  0.000  0.000  0.000  0.000  0.000
    6  0.000  0.000  0.000  0.000  0.000  0.000  0.000  0.000  0.000  0.000
    7  0.000  0.000  0.000  0.000  0.000  0.000  0.000  0.000  0.000  0.000
    8  0.000  0.000  0.000  0.000  0.000  0.000  0.000  0.000  0.000  0.000
tot    0.000  0.467  0.242  0.287  0.000  0.000  0.000  0.000  0.000  0.996
 
band    10 # energy  -58.37169832 # occ.  1.00000000
 
ion      s     py     pz     px    dxy    dyz    dz2    dxz  x2-y2    tot
    1  0.000  0.083  0.083  0.083  0.000  0.000  0.000  0.000  0.000  0.249
    2  0.000  0.083  0.083  0.083  0.000  0.000  0.000  0.000  0.000  0.249
    3  0.000  0.083  0.083  0.083  0.000  0.000  0.000  0.000  0.000  0.249
    4  0.000  0.083  0.083  0.083  0.000  0.000  0.000  0.000  0.000  0.249
    5  0.000  0.000  0.000  0.000  0.000  0.000  0.000  0.000  0.000  0.000
    6  0.000  0.000  0.000  0.000  0.000  0.000  0.000  0.000  0.000  0.000
    7  0.000  0.000  0.000  0.000  0.000  0.000  0.000  0.000  0.000  0.000
    8  0.000  0.000  0.000  0.000  0.000  0.000  0.000  0.000  0.000  0.000
tot    0.000  0.332  0.332  0.332  0.000  0.000  0.000  0.000  0.000  0.997
 
band    11 # energy  -58.37027914 # occ.  1.00000000
 
ion      s     py     pz     px    dxy    dyz    dz2    dxz  x2-y2    tot
    1  0.000  0.076  0.085  0.088  0.000  0.000  0.000  0.000  0.000  0.249
    2  0.000  0.076  0.085  0.088  0.000  0.000  0.000  0.000  0.000  0.249
    3  0.000  0.076  0.085  0.088  0.000  0.000  0.000  0.000  0.000  0.249
    4  0.000  0.076  0.085  0.088  0.000  0.000  0.000  0.000  0.000  0.249
    5  0.000  0.000  0.000  0.000  0.000  0.000  0.000  0.000  0.000  0.000
    6  0.000  0.000  0.000  0.000  0.000  0.000  0.000  0.000  0.000  0.000
    7  0.000  0.000  0.000  0.000  0.000  0.000  0.000  0.000  0.000  0.000
    8  0.000  0.000  0.000  0.000  0.000  0.000  0.000  0.000  0.000  0.000
tot    0.000  0.304  0.341  0.352  0.000  0.000  0.000  0.000  0.000  0.997
 
band    12 # energy  -58.37027914 # occ.  1.00000000
 
ion      s     py     pz     px    dxy    dyz    dz2    dxz  x2-y2    tot
    1  0.000  0.090  0.081  0.078  0.000  0.000  0.000  0.000  0.000  0.249
    2  0.000  0.090  0.081  0.078  0.000  0.000  0.000  0.000  0.000  0.249
    3  0.000  0.090  0.081  0.078  0.000  0.000  0.000  0.000  0.000  0.249
    4  0.000  0.090  0.081  0.078  0.000  0.000  0.000  0.000  0.000  0.249
    5  0.000  0.000  0.000  0.000  0.000  0.000  0.000  0.000  0.000  0.000
    6  0.000  0.000  0.000  0.000  0.000  0.000  0.000  0.000  0.000  0.000
    7  0.000  0.000  0.000  0.000  0.000  0.000  0.000  0.000  0.000  0.000
    8  0.000  0.000  0.000  0.000  0.000  0.000  0.000  0.000  0.000  0.000
tot    0.000  0.360  0.324  0.313  0.000  0.000  0.000  0.000  0.000  0.997
 
band    13 # energy  -12.93125213 # occ.  1.00000000
 
ion      s     py     pz     px    dxy    dyz    dz2    dxz  x2-y2    tot
    1  0.015  0.000  0.000  0.000  0.000  0.000  0.000  0.000  0.000  0.015
    2  0.015  0.000  0.000  0.000  0.000  0.000  0.000  0.000  0.000  0.015
    3  0.015  0.000  0.000  0.000  0.000  0.000  0.000  0.000  0.000  0.015
    4  0.015  0.000  0.000  0.000  0.000  0.000  0.000  0.000  0.000  0.015
    5  0.166  0.000  0.000  0.000  0.000  0.000  0.000  0.000  0.000  0.166
    6  0.166  0.000  0.000  0.000  0.000  0.000  0.000  0.000  0.000  0.166
    7  0.166  0.000  0.000  0.000  0.000  0.000  0.000  0.000  0.000  0.166
    8  0.166  0.000  0.000  0.000  0.000  0.000  0.000  0.000  0.000  0.166
tot    0.723  0.000  0.000  0.000  0.000  0.000  0.000  0.000  0.000  0.724
 
band    14 # energy  -11.64972536 # occ.  1.00000000
 
ion      s     py     pz     px    dxy    dyz    dz2    dxz  x2-y2    tot
    1  0.003  0.000  0.000  0.000  0.000  0.000  0.001  0.000  0.009  0.013
    2  0.003  0.000  0.000  0.000  0.000  0.000  0.002  0.000  0.009  0.014
    3  0.001  0.000  0.000  0.000  0.000  0.000  0.010  0.000  0.009  0.020
    4  0.001  0.000  0.000  0.000  0.000  0.000  0.011  0.000  0.009  0.021
    5  0.292  0.000  0.000  0.000  0.000  0.000  0.000  0.000  0.000  0.292
    6  0.312  0.000  0.000  0.000  0.000  0.000  0.000  0.000  0.000  0.312
    7  0.054  0.000  0.000  0.000  0.000  0.000  0.000  0.000  0.000  0.054
    8  0.085  0.000  0.000  0.000  0.000  0.000  0.000  0.000  0.000  0.085
tot    0.750  0.000  0.000  0.000  0.000  0.000  0.023  0.000  0.036  0.811
 
band    15 # energy  -11.64972536 # occ.  1.00000000
 
ion      s     py     pz     px    dxy    dyz    dz2    dxz  x2-y2    tot
    1  0.001  0.000  0.000  0.000  0.000  0.000  0.013  0.000  0.007  0.021
    2  0.002  0.000  0.000  0.000  0.000  0.000  0.007  0.000  0.006  0.015
    3  0.001  0.000  0.000  0.000  0.000  0.000  0.010  0.000  0.006  0.018
    4  0.003  0.000  0.000  0.000  0.000  0.000  0.003  0.000  0.007  0.013
    5  0.242  0.000  0.000  0.000  0.000  0.000  0.000  0.000  0.000  0.242
    6  0.056  0.000  0.000  0.000  0.000  0.000  0.000  0.000  0.000  0.056
    7  0.295  0.000  0.000  0.000  0.000  0.000  0.000  0.000  0.000  0.295
    8  0.150  0.000  0.000  0.000  0.000  0.000  0.000  0.000  0.000  0.150
tot    0.750  0.000  0.000  0.000  0.000  0.000  0.033  0.000  0.026  0.811
 
band    16 # energy  -11.64972536 # occ.  1.00000000
 
ion      s     py     pz     px    dxy    dyz    dz2    dxz  x2-y2    tot
    1  0.002  0.000  0.000  0.000  0.000  0.000  0.009  0.000  0.006  0.017
    2  0.000  0.000  0.000  0.000  0.000  0.000  0.014  0.000  0.007  0.022
    3  0.003  0.000  0.000  0.000  0.000  0.000  0.002  0.000  0.007  0.013
    4  0.002  0.000  0.000  0.000  0.000  0.000  0.008  0.000  0.006  0.016
    5  0.023  0.000  0.000  0.000  0.000  0.000  0.000  0.000  0.000  0.023
    6  0.189  0.000  0.000  0.000  0.000  0.000  0.000  0.000  0.000  0.189
    7  0.208  0.000  0.000  0.000  0.000  0.000  0.000  0.000  0.000  0.208
    8  0.323  0.000  0.000  0.000  0.000  0.000  0.000  0.000  0.000  0.323
tot    0.750  0.000  0.000  0.000  0.000  0.000  0.032  0.000  0.027  0.811
 
band    17 # energy    0.20359191 # occ.  1.00000000
 
ion      s     py     pz     px    dxy    dyz    dz2    dxz  x2-y2    tot
    1  0.002  0.015  0.004  0.002  0.004  0.005  0.001  0.002  0.006  0.040
    2  0.001  0.015  0.004  0.002  0.001  0.005  0.001  0.000  0.029  0.058
    3  0.000  0.015  0.004  0.002  0.001  0.000  0.014  0.002  0.029  0.068
    4  0.000  0.015  0.004  0.002  0.004  0.001  0.030  0.000  0.006  0.062
    5  0.001  0.068  0.020  0.010  0.000  0.000  0.000  0.000  0.000  0.099
    6  0.002  0.069  0.020  0.011  0.000  0.000  0.000  0.000  0.000  0.102
    7  0.000  0.068  0.019  0.011  0.000  0.000  0.000  0.000  0.000  0.099
    8  0.000  0.068  0.020  0.010  0.000  0.000  0.000  0.000  0.000  0.098
tot    0.006  0.331  0.096  0.051  0.010  0.011  0.047  0.004  0.070  0.626
 
band    18 # energy    0.20359191 # occ.  1.00000000
 
ion      s     py     pz     px    dxy    dyz    dz2    dxz  x2-y2    tot
    1  0.000  0.004  0.014  0.003  0.001  0.000  0.031  0.003  0.009  0.065
    2  0.000  0.004  0.014  0.003  0.001  0.000  0.034  0.002  0.005  0.065
    3  0.001  0.004  0.014  0.003  0.001  0.005  0.011  0.003  0.005  0.048
    4  0.001  0.004  0.014  0.003  0.001  0.005  0.012  0.002  0.009  0.051
    5  0.000  0.018  0.066  0.014  0.000  0.000  0.000  0.000  0.000  0.098
    6  0.000  0.018  0.066  0.014  0.000  0.000  0.000  0.000  0.000  0.098
    7  0.001  0.019  0.066  0.014  0.000  0.000  0.000  0.000  0.000  0.100
    8  0.001  0.019  0.066  0.014  0.000  0.000  0.000  0.000  0.000  0.101
tot    0.006  0.091  0.321  0.067  0.004  0.010  0.088  0.010  0.029  0.626
 
band    19 # energy    0.20359191 # occ.  1.00000000
 
ion      s     py     pz     px    dxy    dyz    dz2    dxz  x2-y2    tot
    1  0.000  0.003  0.003  0.016  0.001  0.001  0.012  0.002  0.029  0.066
    2  0.001  0.002  0.003  0.016  0.004  0.001  0.009  0.004  0.009  0.048
    3  0.001  0.002  0.003  0.016  0.004  0.001  0.018  0.002  0.009  0.056
    4  0.001  0.003  0.003  0.016  0.001  0.001  0.001  0.004  0.029  0.058
    5  0.001  0.012  0.013  0.074  0.000  0.000  0.000  0.000  0.000  0.101
    6  0.000  0.011  0.013  0.074  0.000  0.000  0.000  0.000  0.000  0.098
    7  0.001  0.011  0.013  0.074  0.000  0.000  0.000  0.000  0.000  0.099
    8  0.001  0.012  0.013  0.074  0.000  0.000  0.000  0.000  0.000  0.100
tot    0.006  0.057  0.062  0.360  0.010  0.003  0.041  0.011  0.076  0.626
 
band    20 # energy    0.36288173 # occ.  1.00000000
 
ion      s     py     pz     px    dxy    dyz    dz2    dxz  x2-y2    tot
    1  0.000  0.000  0.000  0.000  0.000  0.000  0.235  0.000  0.000  0.235
    2  0.000  0.000  0.000  0.000  0.000  0.000  0.235  0.000  0.000  0.235
    3  0.000  0.000  0.000  0.000  0.000  0.000  0.235  0.000  0.000  0.235
    4  0.000  0.000  0.000  0.000  0.000  0.000  0.235  0.000  0.000  0.235
    5  0.000  0.001  0.002  0.001  0.000  0.000  0.000  0.000  0.000  0.003
    6  0.000  0.001  0.002  0.001  0.000  0.000  0.000  0.000  0.000  0.003
    7  0.000  0.001  0.002  0.001  0.000  0.000  0.000  0.000  0.000  0.003
    8  0.000  0.001  0.002  0.001  0.000  0.000  0.000  0.000  0.000  0.003
tot    0.000  0.002  0.008  0.002  0.001  0.000  0.939  0.000  0.000  0.953
 
band    21 # energy    0.36288173 # occ.  1.00000000
 
ion      s     py     pz     px    dxy    dyz    dz2    dxz  x2-y2    tot
    1  0.000  0.000  0.000  0.000  0.000  0.000  0.000  0.000  0.235  0.235
    2  0.000  0.000  0.000  0.000  0.000  0.000  0.000  0.000  0.235  0.235
    3  0.000  0.000  0.000  0.000  0.000  0.000  0.000  0.000  0.235  0.235
    4  0.000  0.000  0.000  0.000  0.000  0.000  0.000  0.000  0.235  0.235
    5  0.000  0.002  0.000  0.002  0.000  0.000  0.000  0.000  0.000  0.003
    6  0.000  0.002  0.000  0.002  0.000  0.000  0.000  0.000  0.000  0.003
    7  0.000  0.002  0.000  0.002  0.000  0.000  0.000  0.000  0.000  0.003
    8  0.000  0.002  0.000  0.002  0.000  0.000  0.000  0.000  0.000  0.003
tot    0.000  0.006  0.000  0.006  0.000  0.000  0.000  0.000  0.939  0.953
 
band    22 # energy    0.59448887 # occ.  1.00000000
 
ion      s     py     pz     px    dxy    dyz    dz2    dxz  x2-y2    tot
    1  0.000  0.000  0.000  0.000  0.000  0.000  0.014  0.000  0.319  0.334
    2  0.000  0.000  0.000  0.000  0.000  0.000  0.114  0.000  0.203  0.318
    3  0.000  0.000  0.000  0.000  0.000  0.000  0.114  0.000  0.099  0.214
    4  0.000  0.000  0.000  0.000  0.000  0.000  0.014  0.000  0.050  0.064
    5  0.000  0.001  0.002  0.006  0.000  0.000  0.000  0.000  0.000  0.009
    6  0.000  0.004  0.000  0.006  0.000  0.000  0.000  0.000  0.000  0.010
    7  0.000  0.001  0.000  0.000  0.000  0.000  0.000  0.000  0.000  0.002
    8  0.000  0.004  0.002  0.000  0.000  0.000  0.000  0.000  0.000  0.006
tot    0.000  0.010  0.005  0.013  0.000  0.000  0.256  0.000  0.672  0.957
 
band    23 # energy    0.59448887 # occ.  1.00000000
 
ion      s     py     pz     px    dxy    dyz    dz2    dxz  x2-y2    tot
    1  0.000  0.000  0.000  0.000  0.000  0.000  0.334  0.000  0.014  0.349
    2  0.000  0.000  0.000  0.000  0.000  0.000  0.004  0.000  0.064  0.068
    3  0.000  0.000  0.000  0.000  0.000  0.000  0.004  0.000  0.172  0.176
    4  0.000  0.000  0.000  0.000  0.000  0.000  0.334  0.000  0.002  0.337
    5  0.000  0.001  0.000  0.001  0.000  0.000  0.000  0.000  0.000  0.002
    6  0.000  0.003  0.006  0.001  0.000  0.000  0.000  0.000  0.000  0.010
    7  0.000  0.001  0.006  0.002  0.000  0.000  0.000  0.000  0.000  0.010
    8  0.000  0.003  0.000  0.002  0.000  0.000  0.000  0.000  0.000  0.005
tot    0.000  0.009  0.014  0.006  0.000  0.000  0.676  0.000  0.252  0.957
 
band    24 # energy    0.59448887 # occ.  1.00000000
 
ion      s     py     pz     px    dxy    dyz    dz2    dxz  x2-y2    tot
    1  0.000  0.000  0.000  0.000  0.000  0.000  0.000  0.000  0.015  0.015
    2  0.000  0.000  0.000  0.000  0.000  0.000  0.230  0.000  0.081  0.311
    3  0.000  0.000  0.000  0.000  0.000  0.000  0.230  0.000  0.077  0.307
    4  0.000  0.000  0.000  0.000  0.000  0.000  0.000  0.000  0.295  0.296
    5  0.000  0.004  0.004  0.000  0.000  0.000  0.000  0.000  0.000  0.009
    6  0.000  0.000  0.000  0.000  0.000  0.000  0.000  0.000  0.000  0.000
    7  0.000  0.004  0.000  0.004  0.000  0.000  0.000  0.000  0.000  0.009
    8  0.000  0.000  0.004  0.004  0.000  0.000  0.000  0.000  0.000  0.009
tot    0.000  0.010  0.009  0.009  0.000  0.000  0.460  0.000  0.468  0.957
 
band    25 # energy    0.62628674 # occ.  1.00000000
 
ion      s     py     pz     px    dxy    dyz    dz2    dxz  x2-y2    tot
    1  0.000  0.000  0.000  0.000  0.067  0.072  0.000  0.057  0.000  0.197
    2  0.000  0.000  0.000  0.000  0.073  0.084  0.000  0.062  0.001  0.220
    3  0.000  0.000  0.000  0.000  0.073  0.077  0.000  0.068  0.001  0.219
    4  0.000  0.000  0.000  0.000  0.079  0.078  0.001  0.063  0.000  0.221
    5  0.000  0.000  0.000  0.003  0.000  0.000  0.000  0.000  0.000  0.003
    6  0.000  0.002  0.002  0.002  0.000  0.000  0.000  0.000  0.000  0.006
    7  0.000  0.000  0.003  0.000  0.000  0.000  0.000  0.000  0.000  0.003
    8  0.000  0.003  0.000  0.000  0.000  0.000  0.000  0.000  0.000  0.003
tot    0.000  0.006  0.006  0.005  0.291  0.311  0.002  0.250  0.002  0.873
 
band    26 # energy    0.62628674 # occ.  1.00000000
 
ion      s     py     pz     px    dxy    dyz    dz2    dxz  x2-y2    tot
    1  0.000  0.000  0.000  0.000  0.102  0.116  0.001  0.003  0.000  0.223
    2  0.000  0.000  0.000  0.000  0.094  0.107  0.000  0.002  0.000  0.204
    3  0.000  0.000  0.000  0.000  0.103  0.115  0.001  0.003  0.000  0.222
    4  0.000  0.000  0.000  0.000  0.095  0.108  0.000  0.005  0.000  0.209
    5  0.000  0.003  0.001  0.001  0.000  0.000  0.000  0.000  0.000  0.005
    6  0.000  0.000  0.001  0.001  0.000  0.000  0.000  0.000  0.000  0.003
    7  0.000  0.004  0.001  0.001  0.000  0.000  0.000  0.000  0.000  0.005
    8  0.000  0.000  0.002  0.001  0.000  0.000  0.000  0.000  0.000  0.003
tot    0.000  0.008  0.005  0.004  0.393  0.446  0.002  0.013  0.001  0.873
 
band    27 # energy    0.62628674 # occ.  1.00000000
 
ion      s     py     pz     px    dxy    dyz    dz2    dxz  x2-y2    tot
    1  0.000  0.000  0.000  0.000  0.044  0.025  0.000  0.153  0.001  0.223
    2  0.000  0.000  0.000  0.000  0.046  0.023  0.001  0.149  0.000  0.219
    3  0.000  0.000  0.000  0.000  0.038  0.021  0.000  0.142  0.000  0.202
    4  0.000  0.000  0.000  0.000  0.039  0.027  0.000  0.146  0.001  0.213
    5  0.000  0.000  0.003  0.000  0.000  0.000  0.000  0.000  0.000  0.003
    6  0.000  0.001  0.001  0.000  0.000  0.000  0.000  0.000  0.000  0.003
    7  0.000  0.000  0.001  0.003  0.000  0.000  0.000  0.000  0.000  0.004
    8  0.000  0.001  0.002  0.003  0.000  0.000  0.000  0.000  0.000  0.006
tot    0.000  0.003  0.007  0.008  0.168  0.095  0.001  0.589  0.002  0.873
 
band    28 # energy    1.24403518 # occ.  1.00000000
 
ion      s     py     pz     px    dxy    dyz    dz2    dxz  x2-y2    tot
    1  0.000  0.000  0.000  0.000  0.076  0.076  0.000  0.076  0.000  0.229
    2  0.000  0.000  0.000  0.000  0.076  0.076  0.000  0.076  0.000  0.229
    3  0.000  0.000  0.000  0.000  0.076  0.076  0.000  0.076  0.000  0.229
    4  0.000  0.000  0.000  0.000  0.076  0.076  0.000  0.076  0.000  0.229
    5  0.000  0.001  0.001  0.001  0.000  0.000  0.000  0.000  0.000  0.003
    6  0.000  0.001  0.001  0.001  0.000  0.000  0.000  0.000  0.000  0.003
    7  0.000  0.001  0.001  0.001  0.000  0.000  0.000  0.000  0.000  0.003
    8  0.000  0.001  0.001  0.001  0.000  0.000  0.000  0.000  0.000  0.003
tot    0.000  0.004  0.004  0.004  0.305  0.305  0.000  0.305  0.000  0.928
 
band    29 # energy    1.30147046 # occ.  1.00000000
 
ion      s     py     pz     px    dxy    dyz    dz2    dxz  x2-y2    tot
    1  0.000  0.000  0.000  0.000  0.088  0.086  0.000  0.058  0.000  0.233
    2  0.000  0.000  0.000  0.000  0.088  0.086  0.000  0.058  0.000  0.233
    3  0.000  0.000  0.000  0.000  0.088  0.086  0.000  0.058  0.000  0.233
    4  0.000  0.000  0.000  0.000  0.088  0.086  0.000  0.058  0.000  0.233
    5  0.000  0.000  0.000  0.000  0.000  0.000  0.000  0.000  0.000  0.000
    6  0.000  0.000  0.000  0.000  0.000  0.000  0.000  0.000  0.000  0.000
    7  0.000  0.000  0.000  0.000  0.000  0.000  0.000  0.000  0.000  0.000
    8  0.000  0.000  0.000  0.000  0.000  0.000  0.000  0.000  0.000  0.000
tot    0.000  0.000  0.001  0.001  0.353  0.345  0.001  0.233  0.001  0.934
 
band    30 # energy    1.30147046 # occ.  1.00000000
 
ion      s     py     pz     px    dxy    dyz    dz2    dxz  x2-y2    tot
    1  0.000  0.000  0.000  0.000  0.067  0.069  0.000  0.097  0.000  0.233
    2  0.000  0.000  0.000  0.000  0.067  0.069  0.000  0.097  0.000  0.233
    3  0.000  0.000  0.000  0.000  0.067  0.069  0.000  0.097  0.000  0.233
    4  0.000  0.000  0.000  0.000  0.067  0.069  0.000  0.097  0.000  0.233
    5  0.000  0.000  0.000  0.000  0.000  0.000  0.000  0.000  0.000  0.000
    6  0.000  0.000  0.000  0.000  0.000  0.000  0.000  0.000  0.000  0.000
    7  0.000  0.000  0.000  0.000  0.000  0.000  0.000  0.000  0.000  0.000
    8  0.000  0.000  0.000  0.000  0.000  0.000  0.000  0.000  0.000  0.000
tot    0.000  0.001  0.001  0.001  0.268  0.275  0.001  0.388  0.001  0.934
 
band    31 # energy    1.48953902 # occ.  1.00000000
 
ion      s     py     pz     px    dxy    dyz    dz2    dxz  x2-y2    tot
    1  0.000  0.000  0.002  0.001  0.004  0.005  0.068  0.008  0.101  0.189
    2  0.000  0.000  0.001  0.000  0.001  0.000  0.260  0.000  0.015  0.278
    3  0.000  0.001  0.003  0.002  0.010  0.011  0.025  0.014  0.015  0.081
    4  0.000  0.000  0.001  0.000  0.000  0.003  0.160  0.001  0.101  0.266
    5  0.001  0.001  0.015  0.008  0.000  0.000  0.000  0.000  0.000  0.025
    6  0.017  0.010  0.004  0.001  0.000  0.000  0.000  0.000  0.000  0.032
    7  0.003  0.001  0.009  0.013  0.000  0.000  0.000  0.000  0.000  0.026
    8  0.036  0.002  0.001  0.000  0.000  0.000  0.000  0.000  0.000  0.039
tot    0.056  0.016  0.036  0.026  0.015  0.019  0.514  0.023  0.231  0.936
 
band    32 # energy    1.48953902 # occ.  1.00000000
 
ion      s     py     pz     px    dxy    dyz    dz2    dxz  x2-y2    tot
    1  0.000  0.003  0.001  0.001  0.008  0.009  0.011  0.005  0.121  0.158
    2  0.000  0.002  0.001  0.001  0.008  0.009  0.004  0.005  0.129  0.159
    3  0.000  0.002  0.000  0.000  0.003  0.002  0.115  0.001  0.129  0.252
    4  0.000  0.002  0.000  0.000  0.004  0.002  0.114  0.001  0.121  0.244
    5  0.022  0.006  0.000  0.005  0.000  0.000  0.000  0.000  0.000  0.034
    6  0.022  0.006  0.001  0.005  0.000  0.000  0.000  0.000  0.000  0.034
    7  0.007  0.012  0.007  0.002  0.000  0.000  0.000  0.000  0.000  0.027
    8  0.005  0.013  0.007  0.002  0.000  0.000  0.000  0.000  0.000  0.027
tot    0.056  0.045  0.017  0.016  0.022  0.023  0.245  0.012  0.501  0.936
 
band    33 # energy    1.48953902 # occ.  1.00000000
 
ion      s     py     pz     px    dxy    dyz    dz2    dxz  x2-y2    tot
    1  0.000  0.000  0.000  0.001  0.003  0.001  0.200  0.001  0.057  0.263
    2  0.000  0.000  0.001  0.002  0.006  0.005  0.015  0.009  0.136  0.174
    3  0.000  0.000  0.000  0.001  0.001  0.001  0.139  0.000  0.136  0.277
    4  0.000  0.001  0.002  0.003  0.010  0.009  0.005  0.012  0.057  0.100
    5  0.019  0.009  0.001  0.004  0.000  0.000  0.000  0.000  0.000  0.033
    6  0.003  0.001  0.012  0.010  0.000  0.000  0.000  0.000  0.000  0.026
    7  0.033  0.004  0.000  0.002  0.000  0.000  0.000  0.000  0.000  0.038
    8  0.001  0.002  0.008  0.014  0.000  0.000  0.000  0.000  0.000  0.025
tot    0.056  0.017  0.025  0.036  0.019  0.015  0.359  0.022  0.386  0.936
 
band    34 # energy    2.07478476 # occ.  1.00000000
 
ion      s     py     pz     px    dxy    dyz    dz2    dxz  x2-y2    tot
    1  0.000  0.000  0.000  0.000  0.044  0.145  0.000  0.031  0.001  0.222
    2  0.000  0.000  0.000  0.000  0.031  0.145  0.000  0.175  0.001  0.353
    3  0.000  0.000  0.000  0.000  0.031  0.050  0.000  0.031  0.000  0.113
    4  0.000  0.000  0.000  0.000  0.044  0.050  0.000  0.175  0.001  0.271
    5  0.000  0.002  0.000  0.002  0.000  0.000  0.000  0.000  0.000  0.005
    6  0.000  0.000  0.001  0.002  0.000  0.000  0.000  0.000  0.000  0.003
    7  0.000  0.002  0.001  0.001  0.000  0.000  0.000  0.000  0.000  0.003
    8  0.000  0.000  0.000  0.001  0.000  0.000  0.000  0.000  0.000  0.001
tot    0.000  0.006  0.002  0.005  0.152  0.390  0.001  0.412  0.003  0.971
 
band    35 # energy    2.07478476 # occ.  1.00000000
 
ion      s     py     pz     px    dxy    dyz    dz2    dxz  x2-y2    tot
    1  0.000  0.000  0.000  0.000  0.023  0.088  0.000  0.028  0.000  0.140
    2  0.000  0.000  0.000  0.000  0.180  0.088  0.001  0.044  0.000  0.313
    3  0.000  0.000  0.000  0.000  0.180  0.114  0.001  0.028  0.000  0.324
    4  0.000  0.000  0.000  0.000  0.023  0.114  0.000  0.044  0.001  0.182
    5  0.000  0.001  0.002  0.001  0.000  0.000  0.000  0.000  0.000  0.004
    6  0.000  0.000  0.000  0.001  0.000  0.000  0.000  0.000  0.000  0.002
    7  0.000  0.001  0.000  0.001  0.000  0.000  0.000  0.000  0.000  0.002
    8  0.000  0.000  0.002  0.001  0.000  0.000  0.000  0.000  0.000  0.004
tot    0.000  0.002  0.006  0.006  0.407  0.403  0.002  0.144  0.001  0.971
 
band    36 # energy    2.07478476 # occ.  1.00000000
 
ion      s     py     pz     px    dxy    dyz    dz2    dxz  x2-y2    tot
    1  0.000  0.000  0.000  0.000  0.171  0.006  0.001  0.179  0.000  0.357
    2  0.000  0.000  0.000  0.000  0.027  0.006  0.000  0.020  0.000  0.053
    3  0.000  0.000  0.000  0.000  0.027  0.075  0.000  0.179  0.001  0.282
    4  0.000  0.000  0.000  0.000  0.171  0.075  0.001  0.020  0.000  0.266
    5  0.000  0.000  0.000  0.000  0.000  0.000  0.000  0.000  0.000  0.001
    6  0.000  0.002  0.002  0.000  0.000  0.000  0.000  0.000  0.000  0.005
    7  0.000  0.000  0.002  0.001  0.000  0.000  0.000  0.000  0.000  0.003
    8  0.000  0.002  0.000  0.001  0.000  0.000  0.000  0.000  0.000  0.004
tot    0.000  0.006  0.006  0.002  0.395  0.161  0.002  0.398  0.001  0.971
 
band    37 # energy    2.15716321 # occ.  1.00000000
 
ion      s     py     pz     px    dxy    dyz    dz2    dxz  x2-y2    tot
    1  0.000  0.000  0.001  0.000  0.033  0.050  0.002  0.210  0.003  0.300
    2  0.000  0.000  0.001  0.001  0.058  0.042  0.010  0.002  0.002  0.116
    3  0.000  0.000  0.000  0.000  0.070  0.093  0.001  0.214  0.002  0.380
    4  0.000  0.000  0.001  0.001  0.025  0.081  0.008  0.002  0.003  0.122