 running on    4 total cores
 distrk:  each k-point on    4 cores,    1 groups
 distr:  one band on    1 cores,    4 groups
 vasp.6.2.0 18Jan21 (build Aug 12 2022 13:00:08) complex                        
  
 POSCAR found type information on POSCAR NiO 
 POSCAR found :  2 types and       8 ions
 scaLAPACK will be used
 -----------------------------------------------------------------------------
|                                                                             |
|               ----> ADVICE to this user running VASP <----                  |
|                                                                             |
|     You have a (more or less) 'small supercell' and for smaller cells       |
|     it is recommended to use the reciprocal-space projection scheme!        |
|     The real-space optimization is not efficient for small cells and it     |
|     is also less accurate ...                                               |
|     Therefore, set LREAL=.FALSE. in the INCAR file.                         |
|                                                                             |
 -----------------------------------------------------------------------------

 LDA part: xc-table for Pade appr. of Perdew
 POSCAR, INCAR and KPOINTS ok, starting setup
 FFT: planning ...
 WAVECAR not read
 entering main loop
       N       E                     dE             d eps       ncg     rms          rms(c)
DAV:   1     0.128991632621E+04    0.12899E+04   -0.53571E+04  5272   0.194E+03
DAV:   2     0.842519380933E+02   -0.12057E+04   -0.11436E+04  4864   0.603E+02
DAV:   3    -0.320261297722E+02   -0.11628E+03   -0.11130E+03  5344   0.206E+02
DAV:   4    -0.354866186465E+02   -0.34605E+01   -0.34236E+01  5260   0.352E+01
DAV:   5    -0.355287997369E+02   -0.42181E-01   -0.42170E-01  5160   0.431E+00    0.331E+01
DAV:   6    -0.354475127695E+02    0.81287E-01   -0.61350E+01  6328   0.842E+01    0.368E+01
DAV:   7    -0.357877666326E+02   -0.34025E+00   -0.10170E+01  5208   0.392E+01    0.169E+01
DAV:   8    -0.368516540224E+02   -0.10639E+01   -0.97913E-01  5800   0.655E+00    0.122E+01
DAV:   9    -0.373807991384E+02   -0.52915E+00   -0.21280E-01  6136   0.654E+00    0.262E+00
DAV:  10    -0.374530628801E+02   -0.72264E-01   -0.20440E-01  6032   0.331E+00    0.629E-01
DAV:  11    -0.374532978054E+02   -0.23493E-03   -0.33037E-02  5608   0.191E+00    0.281E-01
DAV:  12    -0.374552106799E+02   -0.19129E-02   -0.29150E-03  5192   0.551E-01    0.109E-01
DAV:  13    -0.374556000225E+02   -0.38934E-03   -0.64910E-04  5344   0.199E-01    0.515E-02
DAV:  14    -0.374556401499E+02   -0.40127E-04   -0.97320E-05  5228   0.659E-02    0.330E-02
DAV:  15    -0.374556436525E+02   -0.35026E-05   -0.13657E-05  4428   0.284E-02    0.155E-02
DAV:  16    -0.374556436980E+02   -0.45489E-07   -0.29296E-06  3752   0.144E-02
   1 F= -.37455644E+02 E0= -.37455644E+02  d E =-.344935E-25  mag=     8.0000
 writing wavefunctions
