bulk_NiO                                
           1
     4.176000    0.000000    0.000000
     0.000000    4.176000    0.000000
     0.000000    0.000000    4.176000
   Ni   O 
     4     4
Direct configuration=     1
   0.00000000  0.00000000  0.00000000
   0.00000000  0.50000000  0.50000000
   0.50000000  0.00000000  0.50000000
   0.50000000  0.50000000  0.00000000
   0.50000000  0.00000000  0.00000000
   0.50000000  0.50000000  0.50000000
   0.00000000  0.00000000  0.50000000
   0.00000000  0.50000000  0.00000000
