unknown system                          
   1.00000000000000     
     2.828151   -0.000000    0.000000
     0.000000    2.828151    0.000000
    -0.000000    0.000000    2.828151
   Fe
     2
Direct
  0.000000 -0.000000  0.000000
  0.500000  0.500000  0.500000
 
   36   36   36
 0.19150769981E+03 0.18684102310E+03 0.17349109301E+03 0.15325075621E+03 0.12866641686E+03
 0.10252601846E+03 0.77398288275E+02 0.55284284551E+02 0.37442550682E+02 0.24344549345E+02
 0.15750780340E+02 0.10847257526E+02 0.84875371201E+01 0.73776365902E+01 0.66220717247E+01
 0.60974799904E+01 0.57754731878E+01 0.56083710772E+01 0.55564711585E+01 0.56083710772E+01
 0.57754731878E+01 0.60974799904E+01 0.66220717247E+01 0.73776365902E+01 0.84875371201E+01
 0.10847257526E+02 0.15750780340E+02 0.24344549345E+02 0.37442550682E+02 0.55284284551E+02
 0.77398288275E+02 0.10252601846E+03 0.12866641686E+03 0.15325075621E+03 0.17349109301E+03
 0.18684102310E+03 0.18684102310E+03 0.18230320149E+03 0.16931761591E+03 0.14961568839E+03
 0.12566382398E+03 0.10017024972E+03 0.75642208556E+02 0.54043075582E+02 0.36620812631E+02
 0.23843973085E+02 0.15480796630E+02 0.10727378029E+02 0.84476175980E+01 0.73618993339E+01
 0.66122167304E+01 0.60943383188E+01 0.57759082067E+01 0.56114765230E+01 0.55598624644E+01
 0.56114765230E+01 0.57759082067E+01 0.60943383188E+01 0.66122167304E+01 0.73618993339E+01
 0.84476175980E+01 0.10727378029E+02 0.15480796630E+02 0.23843973085E+02 0.36620812631E+02
 0.54043075582E+02 0.75642208556E+02 0.10017024972E+03 0.12566382398E+03 0.14961568839E+03
 0.16931761591E+03 0.18230320149E+03 0.17349109301E+03 0.16931761591E+03 0.15736200409E+03
 0.13918541322E+03 0.11702870637E+03 0.93378168084E+02 0.70569561202E+02 0.50460259008E+02
 0.34250462219E+02 0.22406566173E+02 0.14713207107E+02 0.10390856747E+02 0.83365089863E+01
 0.73143574003E+01 0.65832006406E+01 0.60846359697E+01 0.57771183461E+01 0.56199928564E+01
 0.55696450903E+01 0.56199928564E+01 0.57771183461E+01 0.60846359697E+01 0.65832006406E+01
 0.73143574003E+01 0.83365089863E+01 0.10390856747E+02 0.14713207107E+02 0.22406566173E+02
 0.34250462219E+02 0.50460259008E+02 0.70569561202E+02 0.93378168084E+02 0.11702870637E+03
 0.13918541322E+03 0.15736200409E+03 0.16931761591E+03 0.15325075621E+03 0.14961568839E+03
 0.13918541322E+03 0.12327773756E+03 0.10380960330E+03 0.82943658021E+02 0.62756806945E+02
 0.44938880161E+02 0.30613824829E+02 0.20224067419E+02 0.13568319845E+02 0.99041609088E+01
 0.81740846869E+01 0.72344887581E+01 0.65357839559E+01 0.60682498090E+01 0.57788393181E+01
 0.56328864670E+01 0.55849254701E+01 0.56328864670E+01 0.57788393181E+01 0.60682498090E+01
 0.65357839559E+01 0.72344887581E+01 0.81740846869E+01 0.99041609088E+01 0.13568319845E+02
 0.20224067419E+02 0.30613824829E+02 0.44938880161E+02 0.62756806945E+02 0.82943658021E+02
 0.10380960330E+03 0.12327773756E+03 0.13918541322E+03 0.14961568839E+03 0.12866641686E+03
 0.12566382398E+03 0.11702870637E+03 0.10380960330E+03 0.87555138718E+02 0.70058618034E+02
 0.53087254593E+02 0.38121194825E+02 0.26158266507E+02 0.17596551401E+02 0.12230243110E+02
 0.93587800959E+01 0.79806720152E+01 0.71205090321E+01 0.64732310500E+01 0.60444247710E+01
 0.57810199825E+01 0.56474681082E+01 0.56044040324E+01 0.56474681082E+01 0.57810199825E+01
 0.60444247710E+01 0.64732310500E+01 0.71205090321E+01 0.79806720152E+01 0.93587800959E+01
 0.12230243110E+02 0.17596551401E+02 0.26158266507E+02 0.38121194825E+02 0.53087254593E+02
 0.70058618034E+02 0.87555138718E+02 0.10380960330E+03 0.11702870637E+03 0.12566382398E+03
 0.10252601846E+03 0.10017024972E+03 0.93378168084E+02 0.82943658021E+02 0.70058618034E+02
 0.56148117102E+02 0.42649620395E+02 0.30803019727E+02 0.21445404052E+02 0.14891059515E+02
 0.10908768527E+02 0.88419508365E+01 0.77619715792E+01 0.69758191318E+01 0.63984191752E+01
 0.60140716434E+01 0.57827885304E+01 0.56621138473E+01 0.56258648420E+01 0.56621138473E+01
 0.57827885304E+01 0.60140716434E+01 0.63984191752E+01 0.69758191318E+01 0.77619715792E+01
 0.88419508365E+01 0.10908768527E+02 0.14891059515E+02 0.21445404052E+02 0.30803019727E+02
 0.42649620395E+02 0.56148117102E+02 0.70058618034E+02 0.82943658021E+02 0.93378168084E+02
 0.10017024972E+03 0.77398288275E+02 0.75642208556E+02 0.70569561202E+02 0.62756806945E+02
 0.53087254593E+02 0.42649620395E+02 0.32567874656E+02 0.23822699280E+02 0.17052978311E+02
 0.12463792518E+02 0.97859158574E+01 0.83936483340E+01 0.75104006241E+01 0.68116785572E+01
 0.63138262843E+01 0.59800266694E+01 0.57817141786E+01 0.56756973811E+01 0.56453701112E+01
 0.56756973811E+01 0.57817141786E+01 0.59800266694E+01 0.63138262843E+01 0.68116785572E+01
 0.75104006241E+01 0.83936483340E+01 0.97859158574E+01 0.12463792518E+02 0.17052978311E+02
 0.23822699280E+02 0.32567874656E+02 0.42649620395E+02 0.53087254593E+02 0.62756806945E+02
 0.70569561202E+02 0.75642208556E+02 0.55284284551E+02 0.54043075582E+02 0.50460259008E+02
 0.44938880161E+02 0.38121194825E+02 0.30803019727E+02 0.23822699280E+02 0.17889624397E+02
 0.13451937724E+02 0.10569590422E+02 0.89447403225E+01 0.79859496370E+01 0.72290250056E+01
 0.66422292709E+01 0.62222293777E+01 0.59454131579E+01 0.57759218416E+01 0.56878943650E+01
 0.56598041507E+01 0.56878943650E+01 0.57759218416E+01 0.59454131579E+01 0.62222293777E+01
 0.66422292709E+01 0.72290250056E+01 0.79859496370E+01 0.89447403225E+01 0.10569590422E+02
 0.13451937724E+02 0.17889624397E+02 0.23822699280E+02 0.30803019727E+02 0.38121194825E+02
 0.44938880161E+02 0.50460259008E+02 0.54043075582E+02 0.37442550682E+02 0.36620812631E+02
 0.34250462219E+02 0.30613824829E+02 0.26158266507E+02 0.21445404052E+02 0.17052978311E+02
 0.13451937724E+02 0.10878080939E+02 0.92816197890E+01 0.83197177923E+01 0.75705454525E+01
 0.69467012833E+01 0.64725974209E+01 0.61334610556E+01 0.59077769883E+01 0.57677862559E+01
 0.56934757465E+01 0.56698896927E+01 0.56934757465E+01 0.57677862559E+01 0.59077769883E+01
 0.61334610556E+01 0.64725974209E+01 0.69467012833E+01 0.75705454525E+01 0.83197177923E+01
 0.92816197890E+01 0.10878080939E+02 0.13451937724E+02 0.17052978311E+02 0.21445404052E+02
 0.26158266507E+02 0.30613824829E+02 0.34250462219E+02 0.36620812631E+02 0.24344549345E+02
 0.23843973085E+02 0.22406566173E+02 0.20224067419E+02 0.17596551401E+02 0.14891059515E+02
 0.12463792518E+02 0.10569590422E+02 0.92816197890E+01 0.84411945934E+01 0.77628149665E+01
 0.71646443781E+01 0.66818739077E+01 0.63132125828E+01 0.60493674065E+01 0.58692487392E+01
 0.57560236869E+01 0.56934010814E+01 0.56740121282E+01 0.56934010814E+01 0.57560236869E+01
 0.58692487392E+01 0.60493674065E+01 0.63132125828E+01 0.66818739077E+01 0.71646443781E+01
 0.77628149665E+01 0.84411945934E+01 0.92816197890E+01 0.10569590422E+02 0.12463792518E+02
 0.14891059515E+02 0.17596551401E+02 0.20224067419E+02 0.22406566173E+02 0.23843973085E+02
 0.15750780340E+02 0.15480796630E+02 0.14713207107E+02 0.13568319845E+02 0.12230243110E+02
 0.10908768527E+02 0.97859158574E+01 0.89447403225E+01 0.83197177923E+01 0.77628149665E+01
 0.72440021700E+01 0.68017833242E+01 0.64442000306E+01 0.61715788985E+01 0.59714966465E+01
 0.58315431901E+01 0.57390653469E+01 0.56870356745E+01 0.56698896927E+01 0.56870356745E+01
 0.57390653469E+01 0.58315431901E+01 0.59714966465E+01 0.61715788985E+01 0.64442000306E+01
 0.68017833242E+01 0.72440021700E+01 0.77628149665E+01 0.83197177923E+01 0.89447403225E+01
 0.97859158574E+01 0.10908768527E+02 0.12230243110E+02 0.13568319845E+02 0.14713207107E+02
 0.15480796630E+02 0.10847257526E+02 0.10727378029E+02 0.10390856747E+02 0.99041609088E+01
 0.93587800959E+01 0.88419508365E+01 0.83936483340E+01 0.79859496370E+01 0.75705454525E+01
 0.71646443781E+01 0.68017833242E+01 0.64923253979E+01 0.62430328677E+01 0.60482472744E+01
 0.59004030602E+01 0.57917610651E+01 0.57176431409E+01 0.56740294494E+01 0.56598041507E+01
 0.56740294494E+01 0.57176431409E+01 0.57917610651E+01 0.59004030602E+01 0.60482472744E+01
 0.62430328677E+01 0.64923253979E+01 0.68017833242E+01 0.71646443781E+01 0.75705454525E+01
 0.79859496370E+01 0.83936483340E+01 0.88419508365E+01 0.93587800959E+01 0.99041609088E+01
 0.10390856747E+02 0.10727378029E+02 0.84875371201E+01 0.84476175980E+01 0.83365089863E+01
 0.81740846869E+01 0.79806720152E+01 0.77619715792E+01 0.75104006241E+01 0.72290250056E+01
 0.69467012833E+01 0.66818739077E+01 0.64442000306E+01 0.62430328677E+01 0.60768366025E+01
 0.59419411436E+01 0.58348358622E+01 0.57529118643E+01 0.56937242636E+01 0.56576647838E+01
 0.56453701112E+01 0.56576647838E+01 0.56937242636E+01 0.57529118643E+01 0.58348358622E+01
 0.59419411436E+01 0.60768366025E+01 0.62430328677E+01 0.64442000306E+01 0.66818739077E+01
 0.69467012833E+01 0.72290250056E+01 0.75104006241E+01 0.77619715792E+01 0.79806720152E+01
 0.81740846869E+01 0.83365089863E+01 0.84476175980E+01 0.73776365902E+01 0.73618993339E+01
 0.73143574003E+01 0.72344887581E+01 0.71205090321E+01 0.69758191318E+01 0.68116785572E+01
 0.66422292709E+01 0.64725974209E+01 0.63132125828E+01 0.61715788985E+01 0.60482472744E+01
 0.59419411436E+01 0.58515804548E+01 0.57762207948E+01 0.57138914549E+01 0.56663835718E+01
 0.56361367630E+01 0.56258648420E+01 0.56361367630E+01 0.56663835718E+01 0.57138914549E+01
 0.57762207948E+01 0.58515804548E+01 0.59419411436E+01 0.60482472744E+01 0.61715788985E+01
 0.63132125828E+01 0.64725974209E+01 0.66422292709E+01 0.68116785572E+01 0.69758191318E+01
 0.71205090321E+01 0.72344887581E+01 0.73143574003E+01 0.73618993339E+01 0.66220717247E+01
 0.66122167304E+01 0.65832006406E+01 0.65357839559E+01 0.64732310500E+01 0.63984191752E+01
 0.63138262843E+01 0.62222293777E+01 0.61334610556E+01 0.60493674065E+01 0.59714966465E+01
 0.59004030602E+01 0.58348358622E+01 0.57762207948E+01 0.57222383488E+01 0.56748492367E+01
 0.56370716641E+01 0.56129052399E+01 0.56044040324E+01 0.56129052399E+01 0.56370716641E+01
 0.56748492367E+01 0.57222383488E+01 0.57762207948E+01 0.58348358622E+01 0.59004030602E+01
 0.59714966465E+01 0.60493674065E+01 0.61334610556E+01 0.62222293777E+01 0.63138262843E+01
 0.63984191752E+01 0.64732310500E+01 0.65357839559E+01 0.65832006406E+01 0.66122167304E+01
 0.60974799904E+01 0.60943383188E+01 0.60846359697E+01 0.60682498090E+01 0.60444247710E+01
 0.60140716434E+01 0.59800266694E+01 0.59454131579E+01 0.59077769883E+01 0.58692487392E+01
 0.58315431901E+01 0.57917610651E+01 0.57529118643E+01 0.57138914549E+01 0.56748492367E+01
 0.56388686274E+01 0.56100699027E+01 0.55913429390E+01 0.55849254701E+01 0.55913429390E+01
 0.56100699027E+01 0.56388686274E+01 0.56748492367E+01 0.57138914549E+01 0.57529118643E+01
 0.57917610651E+01 0.58315431901E+01 0.58692487392E+01 0.59077769883E+01 0.59454131579E+01
 0.59800266694E+01 0.60140716434E+01 0.60444247710E+01 0.60682498090E+01 0.60846359697E+01
 0.60943383188E+01 0.57754731878E+01 0.57759082067E+01 0.57771183461E+01 0.57788393181E+01
 0.57810199825E+01 0.57827885304E+01 0.57817141786E+01 0.57759218416E+01 0.57677862559E+01
 0.57560236869E+01 0.57390653469E+01 0.57176431409E+01 0.56937242636E+01 0.56663835718E+01
 0.56370716641E+01 0.56100699027E+01 0.55884110203E+01 0.55745064509E+01 0.55696450903E+01
 0.55745064509E+01 0.55884110203E+01 0.56100699027E+01 0.56370716641E+01 0.56663835718E+01
 0.56937242636E+01 0.57176431409E+01 0.57390653469E+01 0.57560236869E+01 0.57677862559E+01
 0.57759218416E+01 0.57817141786E+01 0.57827885304E+01 0.57810199825E+01 0.57788393181E+01
 0.57771183461E+01 0.57759082067E+01 0.56083710772E+01 0.56114765230E+01 0.56199928564E+01
 0.56328864670E+01 0.56474681082E+01 0.56621138473E+01 0.56756973811E+01 0.56878943650E+01
 0.56934757465E+01 0.56934010814E+01 0.56870356745E+01 0.56740294494E+01 0.56576647838E+01
 0.56361367630E+01 0.56129052399E+01 0.55913429390E+01 0.55745064509E+01 0.55635400715E+01
 0.55598624644E+01 0.55635400715E+01 0.55745064509E+01 0.55913429390E+01 0.56129052399E+01
 0.56361367630E+01 0.56576647838E+01 0.56740294494E+01 0.56870356745E+01 0.56934010814E+01
 0.56934757465E+01 0.56878943650E+01 0.56756973811E+01 0.56621138473E+01 0.56474681082E+01
 0.56328864670E+01 0.56199928564E+01 0.56114765230E+01 0.55564711585E+01 0.55598624644E+01
 0.55696450903E+01 0.55849254701E+01 0.56044040324E+01 0.56258648420E+01 0.56453701112E+01
 0.56598041507E+01 0.56698896927E+01 0.56740121282E+01 0.56698896927E+01 0.56598041507E+01
 0.56453701112E+01 0.56258648420E+01 0.56044040324E+01 0.55849254701E+01 0.55696450903E+01
 0.55598624644E+01 0.55564711585E+01 0.55598624644E+01 0.55696450903E+01 0.55849254701E+01
 0.56044040324E+01 0.56258648420E+01 0.56453701112E+01 0.56598041507E+01 0.56698896927E+01
 0.56740121282E+01 0.56698896927E+01 0.56598041507E+01 0.56453701112E+01 0.56258648420E+01
 0.56044040324E+01 0.55849254701E+01 0.55696450903E+01 0.55598624644E+01 0.56083710772E+01
 0.56114765230E+01 0.56199928564E+01 0.56328864670E+01 0.56474681082E+01 0.56621138473E+01
 0.56756973811E+01 0.56878943650E+01 0.56934757465E+01 0.56934010814E+01 0.56870356745E+01
 0.56740294494E+01 0.56576647838E+01 0.56361367630E+01 0.56129052399E+01 0.55913429390E+01
 0.55745064509E+01 0.55635400715E+01 0.55598624644E+01 0.55635400715E+01 0.55745064509E+01
 0.55913429390E+01 0.56129052399E+01 0.56361367630E+01 0.56576647838E+01 0.56740294494E+01
 0.56870356745E+01 0.56934010814E+01 0.56934757465E+01 0.56878943650E+01 0.56756973811E+01
 0.56621138473E+01 0.56474681082E+01 0.56328864670E+01 0.56199928564E+01 0.56114765230E+01
 0.57754731878E+01 0.57759082067E+01 0.57771183461E+01 0.57788393181E+01 0.57810199825E+01
 0.57827885304E+01 0.57817141786E+01 0.57759218416E+01 0.57677862559E+01 0.57560236869E+01
 0.57390653469E+01 0.57176431409E+01 0.56937242636E+01 0.56663835718E+01 0.56370716641E+01
 0.56100699027E+01 0.55884110203E+01 0.55745064509E+01 0.55696450903E+01 0.55745064509E+01
 0.55884110203E+01 0.56100699027E+01 0.56370716641E+01 0.56663835718E+01 0.56937242636E+01
 0.57176431409E+01 0.57390653469E+01 0.57560236869E+01 0.57677862559E+01 0.57759218416E+01
 0.57817141786E+01 0.57827885304E+01 0.57810199825E+01 0.57788393181E+01 0.57771183461E+01
 0.57759082067E+01 0.60974799904E+01 0.60943383188E+01 0.60846359697E+01 0.60682498090E+01
 0.60444247710E+01 0.60140716434E+01 0.59800266694E+01 0.59454131579E+01 0.59077769883E+01
 0.58692487392E+01 0.58315431901E+01 0.57917610651E+01 0.57529118643E+01 0.57138914549E+01
 0.56748492367E+01 0.56388686274E+01 0.56100699027E+01 0.55913429390E+01 0.55849254701E+01
 0.55913429390E+01 0.56100699027E+01 0.56388686274E+01 0.56748492367E+01 0.57138914549E+01
 0.57529118643E+01 0.57917610651E+01 0.58315431901E+01 0.58692487392E+01 0.59077769883E+01
 0.59454131579E+01 0.59800266694E+01 0.60140716434E+01 0.60444247710E+01 0.60682498090E+01
 0.60846359697E+01 0.60943383188E+01 0.66220717247E+01 0.66122167304E+01 0.65832006406E+01
 0.65357839559E+01 0.64732310500E+01 0.63984191752E+01 0.63138262843E+01 0.62222293777E+01
 0.61334610556E+01 0.60493674065E+01 0.59714966465E+01 0.59004030602E+01 0.58348358622E+01
 0.57762207948E+01 0.57222383488E+01 0.56748492367E+01 0.56370716641E+01 0.56129052399E+01
 0.56044040324E+01 0.56129052399E+01 0.56370716641E+01 0.56748492367E+01 0.57222383488E+01
 0.57762207948E+01 0.58348358622E+01 0.59004030602E+01 0.59714966465E+01 0.60493674065E+01
 0.61334610556E+01 0.62222293777E+01 0.63138262843E+01 0.63984191752E+01 0.64732310500E+01
 0.65357839559E+01 0.65832006406E+01 0.66122167304E+01 0.73776365902E+01 0.73618993339E+01
 0.73143574003E+01 0.72344887581E+01 0.71205090321E+01 0.69758191318E+01 0.68116785572E+01
 0.66422292709E+01 0.64725974209E+01 0.63132125828E+01 0.61715788985E+01 0.60482472744E+01
 0.59419411436E+01 0.58515804548E+01 0.57762207948E+01 0.57138914549E+01 0.56663835718E+01
 0.56361367630E+01 0.56258648420E+01 0.56361367630E+01 0.56663835718E+01 0.57138914549E+01
 0.57762207948E+01 0.58515804548E+01 0.59419411436E+01 0.60482472744E+01 0.61715788985E+01
 0.63132125828E+01 0.64725974209E+01 0.66422292709E+01 0.68116785572E+01 0.69758191318E+01
 0.71205090321E+01 0.72344887581E+01 0.73143574003E+01 0.73618993339E+01 0.84875371201E+01
 0.84476175980E+01 0.83365089863E+01 0.81740846869E+01 0.79806720152E+01 0.77619715792E+01
 0.75104006241E+01 0.72290250056E+01 0.69467012833E+01 0.66818739077E+01 0.64442000306E+01
 0.62430328677E+01 0.60768366025E+01 0.59419411436E+01 0.58348358622E+01 0.57529118643E+01
 0.56937242636E+01 0.56576647838E+01 0.56453701112E+01 0.56576647838E+01 0.56937242636E+01
 0.57529118643E+01 0.58348358622E+01 0.59419411436E+01 0.60768366025E+01 0.62430328677E+01
 0.64442000306E+01 0.66818739077E+01 0.69467012833E+01 0.72290250056E+01 0.75104006241E+01
 0.77619715792E+01 0.79806720152E+01 0.81740846869E+01 0.83365089863E+01 0.84476175980E+01
 0.10847257526E+02 0.10727378029E+02 0.10390856747E+02 0.99041609088E+01 0.93587800959E+01
 0.88419508365E+01 0.83936483340E+01 0.79859496370E+01 0.75705454525E+01 0.71646443781E+01
 0.68017833242E+01 0.64923253979E+01 0.62430328677E+01 0.60482472744E+01 0.59004030602E+01
 0.57917610651E+01 0.57176431409E+01 0.56740294494E+01 0.56598041507E+01 0.56740294494E+01
 0.57176431409E+01 0.57917610651E+01 0.59004030602E+01 0.60482472744E+01 0.62430328677E+01
 0.64923253979E+01 0.68017833242E+01 0.71646443781E+01 0.75705454525E+01 0.79859496370E+01
 0.83936483340E+01 0.88419508365E+01 0.93587800959E+01 0.99041609088E+01 0.10390856747E+02
 0.10727378029E+02 0.15750780340E+02 0.15480796630E+02 0.14713207107E+02 0.13568319845E+02
 0.12230243110E+02 0.10908768527E+02 0.97859158574E+01 0.89447403225E+01 0.83197177923E+01
 0.77628149665E+01 0.72440021700E+01 0.68017833242E+01 0.64442000306E+01 0.61715788985E+01
 0.59714966465E+01 0.58315431901E+01 0.57390653469E+01 0.56870356745E+01 0.56698896927E+01
 0.56870356745E+01 0.57390653469E+01 0.58315431901E+01 0.59714966465E+01 0.61715788985E+01
 0.64442000306E+01 0.68017833242E+01 0.72440021700E+01 0.77628149665E+01 0.83197177923E+01
 0.89447403225E+01 0.97859158574E+01 0.10908768527E+02 0.12230243110E+02 0.13568319845E+02
 0.14713207107E+02 0.15480796630E+02 0.24344549345E+02 0.23843973085E+02 0.22406566173E+02
 0.20224067419E+02 0.17596551401E+02 0.14891059515E+02 0.12463792518E+02 0.10569590422E+02
 0.92816197890E+01 0.84411945934E+01 0.77628149665E+01 0.71646443781E+01 0.66818739077E+01
 0.63132125828E+01 0.60493674065E+01 0.58692487392E+01 0.57560236869E+01 0.56934010814E+01
 0.56740121282E+01 0.56934010814E+01 0.57560236869E+01 0.58692487392E+01 0.60493674065E+01
 0.63132125828E+01 0.66818739077E+01 0.71646443781E+01 0.77628149665E+01 0.84411945934E+01
 0.92816197890E+01 0.10569590422E+02 0.12463792518E+02 0.14891059515E+02 0.17596551401E+02
 0.20224067419E+02 0.22406566173E+02 0.23843973085E+02 0.37442550682E+02 0.36620812631E+02
 0.34250462219E+02 0.30613824829E+02 0.26158266507E+02 0.21445404052E+02 0.17052978311E+02
 0.13451937724E+02 0.10878080939E+02 0.92816197890E+01 0.83197177923E+01 0.75705454525E+01
 0.69467012833E+01 0.64725974209E+01 0.61334610556E+01 0.59077769883E+01 0.57677862559E+01
 0.56934757465E+01 0.56698896927E+01 0.56934757465E+01 0.57677862559E+01 0.59077769883E+01
 0.61334610556E+01 0.64725974209E+01 0.69467012833E+01 0.75705454525E+01 0.83197177923E+01
 0.92816197890E+01 0.10878080939E+02 0.13451937724E+02 0.17052978311E+02 0.21445404052E+02
 0.26158266507E+02 0.30613824829E+02 0.34250462219E+02 0.36620812631E+02 0.55284284551E+02
 0.54043075582E+02 0.50460259008E+02 0.44938880161E+02 0.38121194825E+02 0.30803019727E+02
 0.23822699280E+02 0.17889624397E+02 0.13451937724E+02 0.10569590422E+02 0.89447403225E+01
 0.79859496370E+01 0.72290250056E+01 0.66422292709E+01 0.62222293777E+01 0.59454131579E+01
 0.57759218416E+01 0.56878943650E+01 0.56598041507E+01 0.56878943650E+01 0.57759218416E+01
 0.59454131579E+01 0.62222293777E+01 0.66422292709E+01 0.72290250056E+01 0.79859496370E+01
 0.89447403225E+01 0.10569590422E+02 0.13451937724E+02 0.17889624397E+02 0.23822699280E+02
 0.30803019727E+02 0.38121194825E+02 0.44938880161E+02 0.50460259008E+02 0.54043075582E+02
 0.77398288275E+02 0.75642208556E+02 0.70569561202E+02 0.62756806945E+02 0.53087254593E+02
 0.42649620395E+02 0.32567874656E+02 0.23822699280E+02 0.17052978311E+02 0.12463792518E+02
 0.97859158574E+01 0.83936483340E+01 0.75104006241E+01 0.68116785572E+01 0.63138262843E+01
 0.59800266694E+01 0.57817141786E+01 0.56756973811E+01 0.56453701112E+01 0.56756973811E+01
 0.57817141786E+01 0.59800266694E+01 0.63138262843E+01 0.68116785572E+01 0.75104006241E+01
 0.83936483340E+01 0.97859158574E+01 0.12463792518E+02 0.17052978311E+02 0.23822699280E+02
 0.32567874656E+02 0.42649620395E+02 0.53087254593E+02 0.62756806945E+02 0.70569561202E+02
 0.75642208556E+02 0.10252601846E+03 0.10017024972E+03 0.93378168084E+02 0.82943658021E+02
 0.70058618034E+02 0.56148117102E+02 0.42649620395E+02 0.30803019727E+02 0.21445404052E+02
 0.14891059515E+02 0.10908768527E+02 0.88419508365E+01 0.77619715792E+01 0.69758191318E+01
 0.63984191752E+01 0.60140716434E+01 0.57827885304E+01 0.56621138473E+01 0.56258648420E+01
 0.56621138473E+01 0.57827885304E+01 0.60140716434E+01 0.63984191752E+01 0.69758191318E+01
 0.77619715792E+01 0.88419508365E+01 0.10908768527E+02 0.14891059515E+02 0.21445404052E+02
 0.30803019727E+02 0.42649620395E+02 0.56148117102E+02 0.70058618034E+02 0.82943658021E+02
 0.93378168084E+02 0.10017024972E+03 0.12866641686E+03 0.12566382398E+03 0.11702870637E+03
 0.10380960330E+03 0.87555138718E+02 0.70058618034E+02 0.53087254593E+02 0.38121194825E+02
 0.26158266507E+02 0.17596551401E+02 0.12230243110E+02 0.93587800959E+01 0.79806720152E+01
 0.71205090321E+01 0.64732310500E+01 0.60444247710E+01 0.57810199825E+01 0.56474681082E+01
 0.56044040324E+01 0.56474681082E+01 0.57810199825E+01 0.60444247710E+01 0.64732310500E+01
 0.71205090321E+01 0.79806720152E+01 0.93587800959E+01 0.12230243110E+02 0.17596551401E+02
 0.26158266507E+02 0.38121194825E+02 0.53087254593E+02 0.70058618034E+02 0.87555138718E+02
 0.10380960330E+03 0.11702870637E+03 0.12566382398E+03 0.15325075621E+03 0.14961568839E+03
 0.13918541322E+03 0.12327773756E+03 0.10380960330E+03 0.82943658021E+02 0.62756806945E+02
 0.44938880161E+02 0.30613824829E+02 0.20224067419E+02 0.13568319845E+02 0.99041609088E+01
 0.81740846869E+01 0.72344887581E+01 0.65357839559E+01 0.60682498090E+01 0.57788393181E+01
 0.56328864670E+01 0.55849254701E+01 0.56328864670E+01 0.57788393181E+01 0.60682498090E+01
 0.65357839559E+01 0.72344887581E+01 0.81740846869E+01 0.99041609088E+01 0.13568319845E+02
 0.20224067419E+02 0.30613824829E+02 0.44938880161E+02 0.62756806945E+02 0.82943658021E+02
 0.10380960330E+03 0.12327773756E+03 0.13918541322E+03 0.14961568839E+03 0.17349109301E+03
 0.16931761591E+03 0.15736200409E+03 0.13918541322E+03 0.11702870637E+03 0.93378168084E+02
 0.70569561202E+02 0.50460259008E+02 0.34250462219E+02 0.22406566173E+02 0.14713207107E+02
 0.10390856747E+02 0.83365089863E+01 0.73143574003E+01 0.65832006406E+01 0.60846359697E+01
 0.57771183461E+01 0.56199928564E+01 0.55696450903E+01 0.56199928564E+01 0.57771183461E+01
 0.60846359697E+01 0.65832006406E+01 0.73143574003E+01 0.83365089863E+01 0.10390856747E+02
 0.14713207107E+02 0.22406566173E+02 0.34250462219E+02 0.50460259008E+02 0.70569561202E+02
 0.93378168084E+02 0.11702870637E+03 0.13918541322E+03 0.15736200409E+03 0.16931761591E+03
 0.18684102310E+03 0.18230320149E+03 0.16931761591E+03 0.14961568839E+03 0.12566382398E+03
 0.10017024972E+03 0.75642208556E+02 0.54043075582E+02 0.36620812631E+02 0.23843973085E+02
 0.15480796630E+02 0.10727378029E+02 0.84476175980E+01 0.73618993339E+01 0.66122167304E+01
 0.60943383188E+01 0.57759082067E+01 0.56114765230E+01 0.55598624644E+01 0.56114765230E+01
 0.57759082067E+01 0.60943383188E+01 0.66122167304E+01 0.73618993339E+01 0.84476175980E+01
 0.10727378029E+02 0.15480796630E+02 0.23843973085E+02 0.36620812631E+02 0.54043075582E+02
 0.75642208556E+02 0.10017024972E+03 0.12566382398E+03 0.14961568839E+03 0.16931761591E+03
 0.18230320149E+03 0.18684102310E+03 0.18230320149E+03 0.16931761591E+03 0.14961568839E+03
 0.12566382398E+03 0.10017024972E+03 0.75642208556E+02 0.54043075582E+02 0.36620812631E+02
 0.23843973085E+02 0.15480796630E+02 0.10727378029E+02 0.84476175980E+01 0.73618993339E+01
 0.66122167304E+01 0.60943383188E+01 0.57759082067E+01 0.56114765230E+01 0.55598624644E+01
 0.56114765230E+01 0.57759082067E+01 0.60943383188E+01 0.66122167304E+01 0.73618993339E+01
 0.84476175980E+01 0.10727378029E+02 0.15480796630E+02 0.23843973085E+02 0.36620812631E+02
 0.54043075582E+02 0.75642208556E+02 0.10017024972E+03 0.12566382398E+03 0.14961568839E+03
 0.16931761591E+03 0.18230320149E+03 0.18230320149E+03 0.17788978629E+03 0.16525612839E+03
 0.14607489276E+03 0.12273565562E+03 0.97869753106E+02 0.73925151873E+02 0.52828938862E+02
 0.35817644060E+02 0.23355789137E+02 0.15218942049E+02 0.10612335890E+02 0.84097783996E+01
 0.73467457143E+01 0.66030210552E+01 0.60916647041E+01 0.57767239155E+01 0.56148474231E+01
 0.55635400715E+01 0.56148474231E+01 0.57767239155E+01 0.60916647041E+01 0.66030210552E+01
 0.73467457143E+01 0.84097783996E+01 0.10612335890E+02 0.15218942049E+02 0.23355789137E+02
 0.35817644060E+02 0.52828938862E+02 0.73925151873E+02 0.97869753106E+02 0.12273565562E+03
 0.14607489276E+03 0.16525612839E+03 0.17788978629E+03 0.16931761591E+03 0.16525612839E+03
 0.15361763004E+03 0.13591194712E+03 0.11431198250E+03 0.91236028846E+02 0.68965673725E+02
 0.49325024116E+02 0.33501522018E+02 0.21954839578E+02 0.14475097459E+02 0.10289559954E+02
 0.83046375694E+01 0.73008404662E+01 0.65756312846E+01 0.60833149815E+01 0.57792752109E+01
 0.56244793083E+01 0.55745064509E+01 0.56244793083E+01 0.57792752109E+01 0.60833149815E+01
 0.65756312846E+01 0.73008404662E+01 0.83046375694E+01 0.10289559954E+02 0.14475097459E+02
 0.21954839578E+02 0.33501522018E+02 0.49325024116E+02 0.68965673725E+02 0.91236028846E+02
 0.11431198250E+03 0.13591194712E+03 0.15361763004E+03 0.16525612839E+03 0.14961568839E+03
 0.14607489276E+03 0.13591194712E+03 0.12040386609E+03 0.10141191813E+03 0.81042874978E+02
 0.61327583867E+02 0.43927834592E+02 0.29950763950E+02 0.19830119363E+02 0.13367251392E+02
 0.98235839711E+01 0.81500112587E+01 0.72232188540E+01 0.65310023320E+01 0.60688783495E+01
 0.57828823983E+01 0.56387286888E+01 0.55913429390E+01 0.56387286888E+01 0.57828823983E+01
 0.60688783495E+01 0.65310023320E+01 0.72232188540E+01 0.81500112587E+01 0.98235839711E+01
 0.13367251392E+02 0.19830119363E+02 0.29950763950E+02 0.43927834592E+02 0.61327583867E+02
 0.81042874978E+02 0.10141191813E+03 0.12040386609E+03 0.13591194712E+03 0.14607489276E+03
 0.12566382398E+03 0.12273565562E+03 0.11431198250E+03 0.10141191813E+03 0.85542039026E+02
 0.68453739916E+02 0.51877302902E+02 0.37268720219E+02 0.25605264923E+02 0.17276942125E+02
 0.12075255492E+02 0.93023653348E+01 0.79641910534E+01 0.71120061968E+01 0.64717151378E+01
 0.60474544261E+01 0.57874804041E+01 0.56551898940E+01 0.56129052399E+01 0.56551898940E+01
 0.57874804041E+01 0.60474544261E+01 0.64717151378E+01 0.71120061968E+01 0.79641910534E+01
 0.93023653348E+01 0.12075255492E+02 0.17276942125E+02 0.25605264923E+02 0.37268720219E+02
 0.51877302902E+02 0.68453739916E+02 0.85542039026E+02 0.10141191813E+03 0.11431198250E+03
 0.12273565562E+03 0.10017024972E+03 0.97869753106E+02 0.91236028846E+02 0.81042874978E+02
 0.68453739916E+02 0.54863569925E+02 0.41683107785E+02 0.30128574830E+02 0.21016932279E+02
 0.14654471245E+02 0.10802841954E+02 0.88083917235E+01 0.77508666549E+01 0.69710976255E+01
 0.64003787394E+01 0.60199321465E+01 0.57914424594E+01 0.56717892967E+01 0.56361367630E+01
 0.56717892967E+01 0.57914424594E+01 0.60199321465E+01 0.64003787394E+01 0.69710976255E+01
 0.77508666549E+01 0.88083917235E+01 0.10802841954E+02 0.14654471245E+02 0.21016932279E+02
 0.30128574830E+02 0.41683107785E+02 0.54863569925E+02 0.68453739916E+02 0.81042874978E+02
 0.91236028846E+02 0.97869753106E+02 0.75642208556E+02 0.73925151873E+02 0.68965673725E+02
 0.61327583867E+02 0.51877302902E+02 0.41683107785E+02 0.31847585501E+02 0.23328516515E+02
 0.16751623655E+02 0.12308538081E+02 0.97250644224E+01 0.83763192211E+01 0.75031993817E+01
 0.68114693119E+01 0.63189227325E+01 0.59889858289E+01 0.57926806463E+01 0.56878402334E+01
 0.56576647838E+01 0.56878402334E+01 0.57926806463E+01 0.59889858289E+01 0.63189227325E+01
 0.68114693119E+01 0.75031993817E+01 0.83763192211E+01 0.97250644224E+01 0.12308538081E+02
 0.16751623655E+02 0.23328516515E+02 0.31847585501E+02 0.41683107785E+02 0.51877302902E+02
 0.61327583867E+02 0.68965673725E+02 0.73925151873E+02 0.54043075582E+02 0.52828938862E+02
 0.49325024116E+02 0.43927834592E+02 0.37268720219E+02 0.30128574830E+02 0.23328516515E+02
 0.17563448204E+02 0.13265836605E+02 0.10483940114E+02 0.89170235008E+01 0.79766231160E+01
 0.72264012153E+01 0.66464215919E+01 0.62310151415E+01 0.59572388125E+01 0.57891970331E+01
 0.57019978548E+01 0.56740294494E+01 0.57019978548E+01 0.57891970331E+01 0.59572388125E+01
 0.62310151415E+01 0.66464215919E+01 0.72264012153E+01 0.79766231160E+01 0.89170235008E+01
 0.10483940114E+02 0.13265836605E+02 0.17563448204E+02 0.23328516515E+02 0.30128574830E+02
 0.37268720219E+02 0.43927834592E+02 0.49325024116E+02 0.52828938862E+02 0.36620812631E+02
 0.35817644060E+02 0.33501522018E+02 0.29950763950E+02 0.25605264923E+02 0.21016932279E+02
 0.16751623655E+02 0.13265836605E+02 0.10782532104E+02 0.92457376913E+01 0.83080609681E+01
 0.75661550253E+01 0.69496508546E+01 0.64808784210E+01 0.61457080388E+01 0.59224671985E+01
 0.57840738040E+01 0.57103467849E+01 0.56870356745E+01 0.57103467849E+01 0.57840738040E+01
 0.59224671985E+01 0.61457080388E+01 0.64808784210E+01 0.69496508546E+01 0.75661550253E+01
 0.83080609681E+01 0.92457376913E+01 0.10782532104E+02 0.13265836605E+02 0.16751623655E+02
 0.21016932279E+02 0.25605264923E+02 0.29950763950E+02 0.33501522018E+02 0.35817644060E+02
 0.23843973085E+02 0.23355789137E+02 0.21954839578E+02 0.19830119363E+02 0.17276942125E+02
 0.14654471245E+02 0.12308538081E+02 0.10483940114E+02 0.92457376913E+01 0.84284227583E+01