    2    2  100    2
  0.1173411E+02  0.2863035E-09  0.2863035E-09  0.2863035E-09  0.5000000E-15
  1.000000000000000E-004
  CAR 
 unknown system                          
     16     20     20
 
  0.0000000E+00  0.0000000E+00  0.0000000E+00  0.2915452E-02
    1       -2.611715     -2.403478   1.000000   1.000000
    2        0.981860      2.825068   1.000000   1.000000
    3        0.981861      2.825211   1.000000   1.000000
    4        3.559024      5.447472   1.000000   1.014835
    5        3.559025      5.447607   1.000000   1.014862
    6        3.559025      5.447618   1.000000   1.014864
    7        4.765032      7.529025   1.000000  -0.000000
    8        4.765034      7.529191   1.000000  -0.000000
    9        5.995466      8.151746  -0.019183  -0.000000
   10        5.995469      8.151871  -0.019185  -0.000000
   11        5.995469      8.151883  -0.019185  -0.000000
   12       15.816547     16.120599   0.000000   0.000000
   13       15.816547     16.120599   0.000000   0.000000
   14       15.816547     16.120602   0.000000   0.000000
   15       21.539334     22.640163   0.000000   0.000000
   16       21.539337     22.640175   0.000000   0.000000
   17       26.718008     27.843527   0.000000   0.000000
   18       30.908938     30.709797   0.000000   0.000000
   19       30.908938     30.709797   0.000000   0.000000
   20       30.908938     30.709798   0.000000   0.000000
 
  0.1428571E+00  0.3081488E-32  0.0000000E+00  0.1749271E-01
    1       -2.191025     -1.980135   1.000000   1.000000
    2        1.161422      2.963064   1.000000   1.000000
    3        1.162164      3.039150   1.000000   1.000000
    4        3.558796      5.432833   1.000000   1.012138
    5        3.558798      5.432977   1.000000   1.012163
    6        3.674648      5.574727   1.000000   1.034593
    7        4.576469      7.284284   1.000000  -0.000000
    8        4.839078      7.620721   1.000000  -0.000000
    9        5.660189      7.721800   0.968622  -0.000000
   10        5.660192      7.721934   0.968618  -0.000000
   11        5.870255      8.011592   0.240877  -0.000000
   12       13.434977     14.086940   0.000000   0.000000
   13       16.597707     16.999585   0.000000   0.000000
   14       16.597707     16.999588   0.000000   0.000000
   15       21.663725     22.727338   0.000000   0.000000
   16       23.041399     23.896672   0.000000   0.000000
   17       28.234392     28.846203   0.000000   0.000000
   18       28.818304     29.279588   0.000000   0.000000
   19       30.388131     30.395519   0.000000   0.000000
   20       30.388131     30.395522   0.000000   0.000000
 
  0.2857143E+00  0.6162976E-32  0.0000000E+00  0.1749271E-01
    1       -1.016828     -0.780131   1.000000   1.000000
    2        1.533148      3.112966   1.000000   1.000000
    3        1.672926      3.650446   1.000000   1.000000
    4        3.607846      5.451084   1.000000   1.015550
    5        3.607848      5.451226   1.000000   1.015578
    6        4.001453      5.934639   1.000000   0.060310
    7        4.044634      6.598706   1.000000  -0.000000
    8        4.943056      6.863502   1.000000  -0.000000
    9        4.943059      6.863634   1.000000  -0.000000
   10        5.052222      7.621099   1.000001  -0.000000
   11        5.521112      7.848887   1.030964  -0.000000
   12        9.852444     11.012696  -0.000000  -0.000000
   13       18.630337     19.180867   0.000000   0.000000
   14       18.630338     19.180871   0.000000   0.000000
   15       22.069173     23.021930   0.000000   0.000000
   16       24.103026     24.801966   0.000000   0.000000
   17       26.146952     26.428781   0.000000   0.000000
   18       27.961166     28.424136   0.000000   0.000000
   19       27.961167     28.424143   0.000000   0.000000
   20       29.733045     30.197830   0.000000   0.000000
 
  0.4285714E+00  0.2465190E-31  0.0000000E+00  0.1749271E-01
    1        0.539629      0.937900   1.000000   1.000000
    2        1.553502      2.524291   1.000000   1.000000
    3        2.424977      4.565226   1.000000   1.000000
    4        3.273716      5.619963   1.000000   1.015818
    5        3.814089      5.637509   1.000000   0.999452
    6        3.814091      5.637646   1.000000   0.999299
    7        4.263352      6.105014   1.000000  -0.027735
    8        4.263354      6.105148   1.000000  -0.027705
    9        4.481114      6.464652   1.000000  -0.000016
   10        5.023458      7.066527   1.000000  -0.000000
   11        5.535103      8.174334   1.033389  -0.000000
   12        6.986672      8.957363  -0.000000  -0.000000
   13       21.427588     22.061304   0.000000   0.000000
   14       21.427589     22.061305   0.000000   0.000000
   15       22.853287     23.625417   0.000000   0.000000
   16       24.161432     24.699553   0.000000   0.000000
   17       24.652467     25.280100   0.000000   0.000000
   18       24.652468     25.280103   0.000000   0.000000
   19       25.085264     25.632947   0.000000   0.000000
   20       26.890200     27.351868   0.000000   0.000000
 
  0.1428571E+00  0.1428571E+00  0.0000000E+00  0.3498542E-01
    1       -1.787017     -1.570596   1.000000   1.000000
    2        1.304487      3.162024   1.000000   1.000000
    3        1.362044      3.171751   1.000000   1.000000
    4        3.341049      5.187159   1.000000   1.000056
    5        3.511420      5.371374   1.000000   1.004443
    6        4.001742      5.929215   1.000000   0.071584
    7        4.603449      7.090799   1.000000  -0.000000
    8        4.785572      7.292974   1.000000  -0.000000
    9        5.115456      7.321100   1.000006  -0.000000
   10        5.336822      7.552885   1.002270  -0.000000
   11        6.046449      8.208547  -0.035398  -0.000000
   12       13.551312     14.294930   0.000000   0.000000
   13       14.650536     15.373684   0.000000   0.000000
   14       17.289197     17.745404   0.000000   0.000000
   15       22.408182     23.325366   0.000000   0.000000
   16       24.589107     25.260299   0.000000   0.000000
   17       26.711130     27.027692   0.000000   0.000000
   18       29.280451     29.507747   0.000000   0.000000
   19       29.474174     30.309194   0.000000   0.000000
   20       30.430233     30.471028   0.000000   0.000000
 
  0.2857143E+00  0.1428571E+00  0.0000000E+00  0.6997085E-01
    1       -0.679273     -0.419703   1.000000   1.000000
    2        1.622086      3.276237   1.000000   1.000000
    3        1.856440      3.722012   1.000000   1.000000
    4        3.224581      5.034643   1.000000   1.000000
    5        3.426947      5.263071   1.000000   1.000427
    6        4.351279      6.217771   1.000000  -0.006512
    7        4.351468      6.442439   1.000000  -0.000032
    8        4.471427      6.659632   1.000000  -0.000000
    9        4.721300      6.879862   1.000000  -0.000000
   10        4.975474      7.760985   1.000000  -0.000000
   11        5.916567      8.056522   0.100760  -0.000000
   12       10.273142     11.437130  -0.000000   0.000000
   13       15.922067     16.769342   0.000000   0.000000
   14       19.158411     19.714163   0.000000   0.000000
   15       22.915379     23.696195   0.000000   0.000000
   16       23.529887     24.093100   0.000000   0.000000
   17       26.465382     27.006958   0.000000   0.000000
   18       27.432510     27.662510   0.000000   0.000000
   19       28.366882     28.847057   0.000000   0.000000
   20       32.858936     33.332871   0.000000   0.000000
 
  0.4285714E+00  0.1428571E+00  0.0000000E+00  0.6997085E-01
    1        0.717319      1.193734   1.000000   1.000000
    2        1.605098      2.662993   1.000000   1.000000
    3        2.495699      4.464625   1.000000   1.000000
    4        3.123864      5.066501   1.000000   1.000001
    5        3.328503      5.118715   1.000000   1.000007
    6        3.709802      5.514306   1.000000   1.029586
    7        4.240433      6.369237   1.000000  -0.000248
    8        4.344687      6.415716   1.000000  -0.000070
    9        5.002608      7.027868   1.000000  -0.000000
   10        5.522287      7.608250   1.031191  -0.000000
   11        5.522741      8.128630   1.031278  -0.000000
   12        7.253544      9.118082  -0.000000  -0.000000
   13       18.095265     18.945470   0.000000   0.000000
   14       20.638459     21.386858   0.000000   0.000000
   15       21.830203     22.454118   0.000000   0.000000
   16       23.766543     24.358121   0.000000   0.000000
   17       25.002476     25.629296   0.000000   0.000000
   18       25.259059     25.657163   0.000000   0.000000
   19       28.021067     28.495884   0.000000   0.000000
   20       30.171071     30.621010   0.000000   0.000000
 
  0.2857143E+00  0.2857143E+00  0.0000000E+00  0.3498542E-01
    1        0.138974      0.541462   1.000000   1.000000
    2        1.588860      3.209768   1.000000   1.000000
    3        2.492684      4.212068   1.000000   1.000000
    4        2.873647      4.635085   1.000000   1.000000
    5        3.503807      5.104912   1.000000   1.000004
    6        3.585830      5.372112   1.000000   1.004503
    7        4.452585      6.546039   1.000000  -0.000001
    8        4.662951      7.133579   1.000000  -0.000000
    9        4.857576      7.199556   1.000000  -0.000000
   10        5.095917      7.646848   1.000003  -0.000000
   11        6.161356      8.336486  -0.015218  -0.000000
   12       10.187416     11.317745  -0.000000   0.000000
   13       13.598745     14.773074   0.000000   0.000000
   14       20.056555     20.819749   0.000000   0.000000
   15       20.674077     21.249780   0.000000   0.000000
   16       23.282105     23.896854   0.000000   0.000000
   17       26.422680     26.570013   0.000000   0.000000
   18       29.153018     29.895354   0.000000   0.000000
   19       29.780787     30.128161   0.000000   0.000000
   20       30.421241     30.742375   0.000000   0.000000
 
  0.4285714E+00  0.2857143E+00  0.0000000E+00  0.6997085E-01
    1        0.897442      1.717122   1.000000   1.000000
    2        1.348983      2.649251   1.000000   1.000000
    3        2.787339      4.521773   1.000000   1.000000
    4        3.028285      4.768985   1.000000   1.000000
    5        3.221498      4.879451   1.000000   1.000000
    6        3.699671      5.158888   1.000000   1.000024
    7        4.532738      6.830526   1.000000  -0.000000
    8        4.713996      7.085406   1.000000  -0.000000
    9        5.472492      7.758556   1.020120  -0.000000
   10        5.655002      7.969195   0.976708  -0.000000
   11        6.047482      8.203820  -0.035426  -0.000000
   12        7.682713      9.272559  -0.000000  -0.000000
   13       14.734919     15.855510   0.000000   0.000000
   14       17.070978     18.019764   0.000000   0.000000
   15       23.003018     23.607282   0.000000   0.000000
   16       23.887443     24.290130   0.000000   0.000000
   17       24.992640     25.211135   0.000000   0.000000
   18       25.944969     26.571175   0.000000   0.000000
   19       31.387928     31.879786   0.000000   0.000000
   20       32.836534     33.190840   0.000000   0.000000
 
  0.4285714E+00  0.4285714E+00  0.0000000E+00  0.3498542E-01
    1        0.906551      2.082584   1.000000   1.000000
    2        1.035624      2.358504   1.000000   1.000000
    3        2.518363      4.220704   1.000000   1.000000
    4        2.599905      4.303815   1.000000   1.000000
    5        4.274030      5.870668   1.000000   0.239415
    6        4.738423      6.024165   1.000000  -0.032327
    7        4.773292      7.218456   1.000000  -0.000000
    8        4.942330      7.360133   1.000000  -0.000000
    9        5.637596      7.766005   0.999355  -0.000000
   10        6.107136      8.271337  -0.027260  -0.000000
   11        6.254327      8.440010  -0.003354  -0.000000
   12        7.201173      8.572733  -0.000000  -0.000000
   13       13.280428     14.636989   0.000000   0.000000
   14       14.393687     15.596292   0.000000   0.000000
   15       24.083056     24.276769   0.000000   0.000000
   16       24.503256     24.611748   0.000000   0.000000
   17       24.807984     25.401124   0.000000   0.000000
   18       26.511782     27.131914   0.000000   0.000000
   19       29.449546     29.950167   0.000000   0.000000
   20       30.925720     31.443261   0.000000   0.000000
 
  0.1428571E+00  0.1428571E+00  0.1428571E+00  0.2332362E-01
    1       -1.394126     -1.171327   1.000000   1.000000
    2        1.500838      3.330829   1.000000   1.000000
    3        1.500839      3.330963   1.000000   1.000000
    4        3.280661      5.115138   1.000000   1.000006
    5        3.280662      5.115232   1.000000   1.000006
    6        4.349422      6.278056   1.000000  -0.002086
    7        4.447437      6.291532   1.000000  -0.001569
    8        4.697054      7.417351   1.000000  -0.000000
    9        4.697056      7.417515   1.000000  -0.000000
   10        5.713596      7.804568   0.846732  -0.000000
   11        5.713598      7.804657   0.846727  -0.000000
   12       14.223261     15.046837   0.000000   0.000000
   13       14.223262     15.046858   0.000000   0.000000
   14       15.621886     16.297213   0.000000   0.000000
   15       24.848264     25.487480   0.000000   0.000000
   16       24.848266     25.487485   0.000000   0.000000
   17       26.503395     26.818781   0.000000   0.000000
   18       26.503395     26.818784   0.000000   0.000000
   19       30.055472     31.068110   0.000000   0.000000
   20       30.259234     31.113821   0.000000   0.000000
 
  0.2857143E+00  0.1428571E+00  0.1428571E+00  0.6997085E-01
    1       -0.333493     -0.058579   1.000000   1.000000
    2        1.880519      3.499425   1.000000   1.000000
    3        1.881203      3.760195   1.000000   1.000000
    4        3.120237      4.900299   1.000000   1.000000
    5        3.131967      4.942583   1.000000   1.000000
    6        3.730468      5.499508   1.000000   1.026323
    7        4.478980      6.891920   1.000000  -0.000000
    8        4.882565      7.054305   1.000000  -0.000000
    9        4.970991      7.075690   1.000000  -0.000000
   10        5.047698      7.700072   1.000001  -0.000000
   11        5.764168      7.898064   0.670377  -0.000000
   12       10.776177     11.962101  -0.000000   0.000000
   13       15.885427     16.797197   0.000000   0.000000
   14       16.742902     17.475169   0.000000   0.000000
   15       23.295958     23.838419   0.000000   0.000000
   16       24.430696     24.946120   0.000000   0.000000
   17       25.667566     26.221953   0.000000   0.000000
   18       27.135832     27.631472   0.000000   0.000000
   19       29.092436     29.757820   0.000000   0.000000
   20       31.445394     31.505664   0.000000   0.000000
 
  0.4285714E+00  0.1428571E+00  0.1428571E+00  0.6997085E-01
    1        0.947364      1.470979   1.000000   1.000000
    2        1.788163      2.856778   1.000000   1.000000
    3        2.389241      4.297303   1.000000   1.000000
    4        2.842336      4.703576   1.000000   1.000000
    5        3.295056      4.981786   1.000000   1.000000
    6        3.459618      5.224437   1.000000   1.000157
    7        4.327341      6.609742   1.000000  -0.000000
    8        4.509011      6.659277   1.000000  -0.000000
    9        5.138368      7.455377   1.000013  -0.000000
   10        5.487713      7.705692   1.023604  -0.000000
   11        5.870241      8.170780   0.240925  -0.000000
   12        7.734227      9.485414  -0.000000  -0.000000
   13       18.046229     18.936311   0.000000   0.000000
   14       18.762412     19.476527   0.000000   0.000000
   15       20.503902     21.254545   0.000000   0.000000
   16       21.380715     22.025186   0.000000   0.000000
   17       27.126311     27.571975   0.000000   0.000000
   18       28.377392     28.827612   0.000000   0.000000
   19       29.187989     29.523137   0.000000   0.000000
   20       29.206305     29.691264   0.000000   0.000000
 
  0.2857143E+00  0.2857143E+00  0.1428571E+00  0.6997085E-01
    1        0.499448      0.899036   1.000000   1.000000
    2        1.855874      3.484665   1.000000   1.000000
    3        2.506557      4.201572   1.000000   1.000000
    4        2.798526      4.535698   1.000000   1.000000
    5        3.097167      4.752499   1.000000   1.000000
    6        3.107337      4.827689   1.000000   1.000000
    7        4.694641      6.993015   1.000000  -0.000000
    8        4.834172      7.299354   1.000000  -0.000000
    9        4.855189      7.627858   1.000000  -0.000000
   10        5.684198      7.645481   0.922668  -0.000000
   11        5.778081      7.958901   0.614363  -0.000000
   12       10.967381     12.123651  -0.000000   0.000000
   13       13.673605     14.815984   0.000000   0.000000
   14       17.546153     18.301580   0.000000   0.000000
   15       20.275872     20.999905   0.000000   0.000000
   16       23.942610     24.345954   0.000000   0.000000
   17       26.087658     26.824871   0.000000   0.000000
   18       26.813810     27.254626   0.000000   0.000000
   19       30.722305     31.028499   0.000000   0.000000
   20       31.981983     32.519252   0.000000   0.000000
 
  0.4285714E+00  0.2857143E+00  0.1428571E+00  0.1399417E+00
    1        1.211830      2.042665   1.000000   1.000000
    2        1.615376      2.925932   1.000000   1.000000
    3        2.673537      4.381572   1.000000   1.000000
    4        2.715479      4.406604   1.000000   1.000000
    5        3.249648      4.817122   1.000000   1.000000
    6        3.401158      4.840533   1.000000   1.000000
    7        4.672185      7.012961   1.000000  -0.000000
    8        4.683325      7.166078   1.000000  -0.000000
    9        5.099697      7.774235   1.000004  -0.000000
   10        5.582982      7.897568   1.033187  -0.000000
   11        6.667535      8.557771  -0.000000  -0.000000
   12        8.556531     10.076716  -0.000000  -0.000000
   13       14.909846     15.979815   0.000000   0.000000
   14       17.288379     18.189913   0.000000   0.000000
   15       19.329995     20.016932   0.000000   0.000000
   16       21.697491     22.264094   0.000000   0.000000
   17       26.281199     26.811226   0.000000   0.000000
   18       27.106797     27.499284   0.000000   0.000000
   19       30.611662     31.071201   0.000000   0.000000
   20       31.389553     31.664943   0.000000   0.000000
 
  0.4285714E+00  0.4285714E+00  0.1428571E+00  0.6997085E-01
    1        1.204848      2.402622   1.000000   1.000000
    2        1.308243      2.648532   1.000000   1.000000
    3        2.476365      4.144220   1.000000   1.000000
    4        2.532716      4.199841   1.000000   1.000000
    5        4.049114      5.391195   1.000000   1.006314
    6        4.379755      5.428602   1.000000   1.011420
    7        4.807320      7.327788   1.000000  -0.000000
    8        4.859690      7.424521   1.000000  -0.000000
    9        4.950149      7.774180   1.000000  -0.000000
   10        5.447082      7.899994   1.014759  -0.000000
   11        7.594148      9.196644  -0.000000  -0.000000
   12        8.620058      9.941166  -0.000000  -0.000000
   13       13.345076     14.649159   0.000000   0.000000
   14       14.547879     15.688578   0.000000   0.000000
   15       20.815389     21.369353   0.000000   0.000000
   16       22.418806     22.795148   0.000000   0.000000
   17       23.980314     24.635845   0.000000   0.000000
   18       25.227605     25.697392   0.000000   0.000000
   19       31.290997     31.655168   0.000000   0.000000
   20       31.991666     32.234187   0.000000   0.000000
 
  0.2857143E+00  0.2857143E+00  0.2857143E+00  0.2332362E-01
    1        1.376200      1.824661   1.000000   1.000000
    2        2.452775      4.007071   1.000000   1.000000
    3        2.519452      4.155021   1.000000   1.000000
    4        2.519453      4.155119   1.000000   1.000000
    5        2.641289      4.319199   1.000000   1.000000
    6        2.641290      4.319290   1.000000   1.000000
    7        4.836236      7.497792   1.000000  -0.000000
    8        4.836238      7.497912   1.000000  -0.000000
    9        5.193950      7.556690   1.000068  -0.000000
   10        5.193952      7.556851   1.000068  -0.000000
   11        6.701563      8.572324  -0.000000  -0.000000
   12       12.748513     13.857873   0.000000   0.000000
   13       12.748515     13.857906   0.000000   0.000000
   14       15.371994     16.278439   0.000000   0.000000
   15       20.664396     21.289235   0.000000   0.000000
   16       20.664397     21.289238   0.000000   0.000000
   17       22.560208     23.316926   0.000000   0.000000
   18       28.125698     28.673679   0.000000   0.000000
   19       31.626387     31.889379   0.000000   0.000000
   20       31.626387     31.889384   0.000000   0.000000
 
  0.4285714E+00  0.2857143E+00  0.2857143E+00  0.6997085E-01
    1        1.855047      2.794384   1.000000   1.000000
    2        2.029840      3.400767   1.000000   1.000000
    3        2.505093      4.101793   1.000000   1.000000
    4        2.525976      4.143931   1.000000   1.000000
    5        2.945053      4.347628   1.000000   1.000000
    6        3.091778      4.547705   1.000000   1.000000
    7        4.811652      7.358952   1.000000  -0.000000
    8        4.877564      7.437431   1.000000  -0.000000
    9        5.004573      7.738693   1.000000  -0.000000
   10        5.200644      7.765857   1.000082  -0.000000
   11        7.988060      9.661923  -0.000000  -0.000000
   12       10.028913     11.383049  -0.000000   0.000000
   13       15.028129     16.013249   0.000000   0.000000
   14       16.368624     17.197266   0.000000   0.000000
   15       17.673311     18.490202   0.000000   0.000000
   16       18.538043     19.261207   0.000000   0.000000
   17       22.957021     23.564491   0.000000   0.000000
   18       25.169861     25.718327   0.000000   0.000000
   19       33.106725     33.295059   0.000000   0.000000
   20       34.941566     34.980140   0.000000   0.000000
 
  0.4285714E+00  0.4285714E+00  0.2857143E+00  0.6997085E-01
    1        1.922746      3.202726   1.000000   1.000000
    2        1.938055      3.316770   1.000000   1.000000
    3        2.414129      3.993952   1.000000   1.000000
    4        2.479916      4.033744   1.000000   1.000000
    5        3.341443      4.529632   1.000000   1.000000
    6        3.390984      4.681708   1.000000   1.000000
    7        4.924061      7.570865   1.000000  -0.000000
    8        4.933409      7.613234   1.000000  -0.000000
    9        4.966319      7.780996   1.000000  -0.000000
   10        5.063127      7.789041   1.000001  -0.000000
   11        9.445635     10.835532  -0.000000  -0.000000
   12       10.808651     11.950456  -0.000000   0.000000
   13       13.585730     14.735133   0.000000   0.000000
   14       15.138380     16.114909   0.000000   0.000000
   15       17.369249     18.112878   0.000000   0.000000
   16       19.240187     19.870557   0.000000   0.000000
   17       20.291129     20.974736   0.000000   0.000000
   18       22.159884     22.753779   0.000000   0.000000
   19       35.464782     35.590840   0.000000   0.000000
   20       36.541571     36.558685   0.000000   0.000000
 
  0.4285714E+00  0.4285714E+00  0.4285714E+00  0.2332362E-01
    1        2.249277      3.710006   1.000000   1.000000
    2        2.474786      3.944648   1.000000   1.000000
    3        2.474787      3.944726   1.000000   1.000000
    4        2.788334      4.004766   1.000000   1.000000
    5        2.788335      4.152184   1.000000   1.000000
    6        2.828164      4.152253   1.000000   1.000000
    7        4.978933      7.780932   1.000000  -0.000000
    8        4.978935      7.781096   1.000000  -0.000000
    9        4.992570      7.792648   1.000000  -0.000000
   10        4.992572      7.792814   1.000000  -0.000000
   11       11.387724     12.567160   0.000000   0.000000
   12       13.344391     14.330690   0.000000   0.000000
   13       13.344392     14.330711   0.000000   0.000000
   14       15.494488     16.381166   0.000000   0.000000
   15       16.170216     16.993678   0.000000   0.000000
   16       16.170217     16.993689   0.000000   0.000000
   17       17.677124     18.402289   0.000000   0.000000
   18       19.156685     19.827448   0.000000   0.000000
   19       40.418340     40.444603   0.000000   0.000000
   20       40.418340     40.444604   0.000000   0.000000
