 vasp.6.2.0 18Jan21 (build Aug 12 2022 13:00:08) complex                        
  
 executed on             LinuxIFC date 2024.11.04  05:20:42
 running on    4 total cores
 distrk:  each k-point on    4 cores,    1 groups
 distr:  one band on NCORE=   1 cores,    4 groups


--------------------------------------------------------------------------------------------------------


 INCAR:
   ISTART = 0            (Read existing wavefunction, if there)
   ISPIN = 2            (Non-Spin polarised DFT)
   MAGMOM = 5 5          (Set this parameters manually)
   GGA_COMPAT = .FALSE.   (Apply spherical cutoff on gradient field)
   VOSKOWN = 1        (Enhances the magnetic moments and the magnetic energies)
   LMAXMIX = 4        (For d elements increase LMAXMIX to 4, f: LMAXMIX \= 6)
   LREAL = .FALSE.       (Projection operators: automatic)
   ENCUT = 350          (Cut-off energy for plane wave basis set, in eV)
   LORBIT = 11           (Write orbital decomposed charge densities and magnetic moments)
   ADDGRID = .TRUE.        (Increase grid, helps GGA convergence)
   LASPH = .TRUE.        (Give more accurate total energies and band structure calculations)
   PREC = Accurate      (Accurate strictly avoids any aliasing or wrap around errors)
   KSPACING = 0.36
   ISMEAR = 1            (Gaussian smearing, metals:1)
   SIGMA = 0.2          (Smearing value in eV, metals:0.2)
   NELM = 90           (Max electronic SCF steps)
   NELMIN = 6            (Min electronic SCF steps)
   EDIFF = 1E-06        (SCF energy convergence, in eV)
   NSW = 100          (Max ionic steps)
   IBRION = 2            (Algorithm: 0-MD, 1-Quasi-New, 2-CG)
   ISIF = 3            (Stress/relaxation: 2-Ions, 3-Shape/Ions/V, 4-Shape/Ions)
   EDIFFG = -2E-03        (Ionic convergence, eV/AA)
   ISYM = 2              (Symmetry: 0\=none, 2\=GGA, 3\=hybrids)

 POTCAR:    PAW_PBE Fe 06Sep2000                  
 POTCAR:    PAW_PBE Fe 06Sep2000                  
   VRHFIN =Fe:  d7 s1                                                                               
   LEXCH  = PE                                                                                      
   EATOM  =   594.3153 eV,   43.6809 Ry                                                             
                                                                                                    
   TITEL  = PAW_PBE Fe 06Sep2000                                                                    
   LULTRA =        F    use ultrasoft PP ?                                                          
   IUNSCR =        1    unscreen: 0-lin 1-nonlin 2-no                                               
   RPACOR =    2.000    partial core radius                                                         
   POMASS =   55.847; ZVAL   =    8.000    mass and valenz                                          
   RCORE  =    2.300    outmost cutoff radius                                                       
   RWIGS  =    2.460; RWIGS  =    1.302    wigner-seitz radius (au A)                               
   ENMAX  =  267.882; ENMIN  =  200.911 eV                                                          
   RCLOC  =    1.701    cutoff for local pot                                                        
   LCOR   =        T    correct aug charges                                                         
   LPAW   =        T    paw PP                                                                      
   EAUG   =  511.368                                                                                
   DEXC   =    0.000                                                                                
   RMAX   =    2.356    core radius for proj-oper                                                   
   RAUG   =    1.300    factor for augmentation sphere                                              
   RDEP   =    2.442    radius for radial grids                                                     
   RDEPT  =    1.890    core radius for aug-charge                                                  
                                                                                                    
   Atomic configuration                                                                             
    9 entries                                                                                       
     n  l   j            E        occ.                                                              
     1  0  0.50     -6993.8440   2.0000                                                             
     2  0  0.50      -814.6047   2.0000                                                             
     2  1  1.50      -693.3689   6.0000                                                             
     3  0  0.50       -89.4732   2.0000                                                             
     3  1  1.50       -55.6373   6.0000                                                             
     3  2  2.50        -3.8151   7.0000                                                             
     4  0  0.50        -4.2551   1.0000                                                             
     4  1  1.50        -3.4015   0.0000                                                             
     4  3  2.50        -1.3606   0.0000                                                             
   Description                                                                                      
     l       E           TYP  RCUT    TYP  RCUT                                                     
     2     -3.8151135     23  2.300                                                                 
     2     -5.1756961     23  2.300                                                                 
     0     -4.2550963     23  2.300                                                                 
     0      7.2035603     23  2.300                                                                 
     1     -2.7211652     23  2.300                                                                 
     1     18.4316424     23  2.300                                                                 
  local pseudopotential read in
  partial core-charges read in
  partial kinetic energy density read in
  atomic valenz-charges read in
  non local Contribution for L=           2  read in
    real space projection operators read in
  non local Contribution for L=           2  read in
    real space projection operators read in
  non local Contribution for L=           0  read in
    real space projection operators read in
  non local Contribution for L=           0  read in
    real space projection operators read in
  non local Contribution for L=           1  read in
    real space projection operators read in
  non local Contribution for L=           1  read in
    real space projection operators read in
    PAW grid and wavefunctions read in
 
   number of l-projection  operators is LMAX  =           6
   number of lm-projection operators is LMMAX =          18
 
  PAW_PBE Fe 06Sep2000                  :
 energy of atom  1       EATOM= -594.3153
 kinetic energy error for atom=    0.0205 (will be added to EATOM!!)
 
 
 POSCAR: Fe2
  positions in direct lattice
  No initial velocities read in
 exchange correlation table for  LEXCH =        8
   RHO(1)=    0.500       N(1)  =     2000
   RHO(2)=  100.500       N(2)  =     4000
 


--------------------------------------------------------------------------------------------------------


 ion  position               nearest neighbor table
   1  0.000  0.000  0.000-   2 2.48   2 2.48   2 2.48   2 2.48   2 2.48   2 2.48   2 2.48   2 2.48

   2  0.500  0.500  0.500-   1 2.48   1 2.48   1 2.48   1 2.48   1 2.48   1 2.48   1 2.48   1 2.48

 
  LATTYP: Found a simple cubic cell.
 ALAT       =     2.8630354989
  
  Lattice vectors:
  
 A1 = (   2.8630354989,   0.0000000000,   0.0000000000)
 A2 = (   0.0000000000,   2.8630354989,   0.0000000000)
 A3 = (   0.0000000000,   0.0000000000,   2.8630354989)


Analysis of symmetry for initial positions (statically):
=====================================================================
 Subroutine PRICEL returns following result:
 
  LATTYP: Found a body centered cubic cell.
 ALAT       =     2.8630354989
  
  Lattice vectors:
  
 A1 = (   1.4315177495,   1.4315177495,  -1.4315177495)
 A2 = (  -1.4315177495,   1.4315177495,   1.4315177495)
 A3 = (   1.4315177495,  -1.4315177495,   1.4315177495)
 
   2 primitive cells build up your supercell.
 

 Routine SETGRP: Setting up the symmetry group for a 
 simple cubic supercell.


 Subroutine GETGRP returns: Found 48 space group operations
 (whereof 48 operations were pure point group operations)
 out of a pool of 48 trial point group operations.


The static configuration has the point symmetry O_h .


Analysis of symmetry for dynamics (positions and initial velocities):
=====================================================================
 Subroutine PRICEL returns following result:
 
  LATTYP: Found a body centered cubic cell.
 ALAT       =     2.8630354989
  
  Lattice vectors:
  
 A1 = (   1.4315177495,   1.4315177495,  -1.4315177495)
 A2 = (  -1.4315177495,   1.4315177495,   1.4315177495)
 A3 = (   1.4315177495,  -1.4315177495,   1.4315177495)
 
   2 primitive cells build up your supercell.
 

 Routine SETGRP: Setting up the symmetry group for a 
 simple cubic supercell.


 Subroutine GETGRP returns: Found 48 space group operations
 (whereof 48 operations were pure point group operations)
 out of a pool of 48 trial point group operations.


The dynamic configuration has the point symmetry O_h .


Analysis of structural, dynamic, and magnetic symmetry:
=====================================================================
 Subroutine PRICEL returns following result:
 
  LATTYP: Found a body centered cubic cell.
 ALAT       =     2.8630354989
  
  Lattice vectors:
  
 A1 = (   1.4315177495,   1.4315177495,  -1.4315177495)
 A2 = (  -1.4315177495,   1.4315177495,   1.4315177495)
 A3 = (   1.4315177495,  -1.4315177495,   1.4315177495)
 
   2 primitive cells build up your supercell.
 

 Routine SETGRP: Setting up the symmetry group for a 
 simple cubic supercell.


 Subroutine GETGRP returns: Found 48 space group operations
 (whereof 48 operations were pure point group operations)
 out of a pool of 48 trial point group operations.


The overall configuration has the point symmetry O_h .


 Subroutine INISYM returns: Found 48 space group operations
 (whereof 48 operations are pure point group operations),
 and found     2 'primitive' translations


----------------------------------------------------------------------------------------

                                     Primitive cell                                     

  volume of cell :      11.7341

  direct lattice vectors                    reciprocal lattice vectors
     1.431517749  1.431517749 -1.431517749     0.349279637  0.349279637  0.000000000
    -1.431517749  1.431517749  1.431517749     0.000000000  0.349279637  0.349279637
     1.431517749 -1.431517749  1.431517749     0.349279637 -0.000000000  0.349279637

  length of vectors
     2.479461474  2.479461474  2.479461474     0.493956000  0.493956000  0.493956000

  position of ions in fractional coordinates (direct lattice)
     0.000000000  0.000000000  0.000000000

  ion indices of the primitive-cell ions
   primitive index   ion index
                 1           1

----------------------------------------------------------------------------------------

 
 -----------------------------------------------------------------------------
|                                                                             |
|           W    W    AA    RRRRR   N    N  II  N    N   GGGG   !!!           |
|           W    W   A  A   R    R  NN   N  II  NN   N  G    G  !!!           |
|           W    W  A    A  R    R  N N  N  II  N N  N  G       !!!           |
|           W WW W  AAAAAA  RRRRR   N  N N  II  N  N N  G  GGG   !            |
|           WW  WW  A    A  R   R   N   NN  II  N   NN  G    G                |
|           W    W  A    A  R    R  N    N  II  N    N   GGGG   !!!           |
|                                                                             |
|     The requested file  could not be found or opened for reading            |
|     k-point information. Automatic k-point generation is used as a          |
|     fallback, which may lead to unwanted results.                           |
|                                                                             |
 -----------------------------------------------------------------------------

 

Automatic generation of k-mesh.
 Grid dimensions derived from KSPACING:
 generate k-points for:    7    7    7

 Generating k-lattice:

  Cartesian coordinates                     Fractional coordinates (reciprocal lattice)
     0.049897091 -0.000000000  0.000000000     0.142857143  0.000000000  0.000000000
     0.000000000  0.049897091  0.000000000     0.000000000  0.142857143  0.000000000
    -0.000000000 -0.000000000  0.049897091     0.000000000  0.000000000  0.142857143

  Length of vectors
     0.049897091  0.049897091  0.049897091

  Shift w.r.t. Gamma in fractional coordinates (k-lattice)
     0.000000000  0.000000000  0.000000000

 
 Subroutine IBZKPT returns following result:
 ===========================================
 
 Found     20 irreducible k-points:
 
 Following reciprocal coordinates:
            Coordinates               Weight
  0.000000  0.000000  0.000000      1.000000
  0.142857  0.000000  0.000000      6.000000
  0.285714  0.000000  0.000000      6.000000
  0.428571  0.000000  0.000000      6.000000
  0.142857  0.142857  0.000000     12.000000
  0.285714  0.142857  0.000000     24.000000
  0.428571  0.142857  0.000000     24.000000
  0.285714  0.285714  0.000000     12.000000
  0.428571  0.285714  0.000000     24.000000
  0.428571  0.428571  0.000000     12.000000
  0.142857  0.142857  0.142857      8.000000
  0.285714  0.142857  0.142857     24.000000
  0.428571  0.142857  0.142857     24.000000
  0.285714  0.285714  0.142857     24.000000
  0.428571  0.285714  0.142857     48.000000
  0.428571  0.428571  0.142857     24.000000
  0.285714  0.285714  0.285714      8.000000
  0.428571  0.285714  0.285714     24.000000
  0.428571  0.428571  0.285714     24.000000
  0.428571  0.428571  0.428571      8.000000
 
 Following cartesian coordinates:
            Coordinates               Weight
  0.000000  0.000000  0.000000      1.000000
  0.049897 -0.000000  0.000000      6.000000
  0.099794 -0.000000  0.000000      6.000000
  0.149691 -0.000000  0.000000      6.000000
  0.049897  0.049897  0.000000     12.000000
  0.099794  0.049897  0.000000     24.000000
  0.149691  0.049897  0.000000     24.000000
  0.099794  0.099794  0.000000     12.000000
  0.149691  0.099794  0.000000     24.000000
  0.149691  0.149691  0.000000     12.000000
  0.049897  0.049897  0.049897      8.000000
  0.099794  0.049897  0.049897     24.000000
  0.149691  0.049897  0.049897     24.000000
  0.099794  0.099794  0.049897     24.000000
  0.149691  0.099794  0.049897     48.000000
  0.149691  0.149691  0.049897     24.000000
  0.099794  0.099794  0.099794      8.000000
  0.149691  0.099794  0.099794     24.000000
  0.149691  0.149691  0.099794     24.000000
  0.149691  0.149691  0.149691      8.000000
 


--------------------------------------------------------------------------------------------------------




 Dimension of arrays:
   k-points           NKPTS =     20   k-points in BZ     NKDIM =     20   number of bands    NBANDS=     20
   number of dos      NEDOS =    301   number of ions     NIONS =      2
   non local maximal  LDIM  =      6   non local SUM 2l+1 LMDIM =     18
   total plane-waves  NPLWV =   5832
   max r-space proj   IRMAX =      1   max aug-charges    IRDMAX=  71010
   dimension x,y,z NGX =    18 NGY =   18 NGZ =   18
   dimension x,y,z NGXF=    36 NGYF=   36 NGZF=   36
   support grid    NGXF=    72 NGYF=   72 NGZF=   72
   ions per type =               2
   NGX,Y,Z   is equivalent  to a cutoff of  10.45, 10.45, 10.45 a.u.
   NGXF,Y,Z  is equivalent  to a cutoff of  20.90, 20.90, 20.90 a.u.

 SYSTEM =  unknown system                          
 POSCAR =  Fe2                                     

 Startparameter for this run:
   NWRITE =      2    write-flag & timer
   PREC   = accura    normal or accurate (medium, high low for compatibility)
   ISTART =      0    job   : 0-new  1-cont  2-samecut
   ICHARG =      2    charge: 1-file 2-atom 10-const
   ISPIN  =      2    spin polarized calculation?
   LNONCOLLINEAR =      F non collinear calculations
   LSORBIT =      F    spin-orbit coupling
   INIWAV =      1    electr: 0-lowe 1-rand  2-diag
   LASPH  =      T    aspherical Exc in radial PAW
   METAGGA=      F    non-selfconsistent MetaGGA calc.

 Electronic Relaxation 1
   ENCUT  =  350.0 eV  25.72 Ry    5.07 a.u.   4.37  4.37  4.37*2*pi/ulx,y,z
   ENINI  =  350.0     initial cutoff
   ENAUG  =  511.4 eV  augmentation charge cutoff
   NELM   =     90;   NELMIN=  6; NELMDL= -5     # of ELM steps 
   EDIFF  = 0.1E-05   stopping-criterion for ELM
   LREAL  =      F    real-space projection
   NLSPLINE    = F    spline interpolate recip. space projectors
   LCOMPAT=      F    compatible to vasp.4.4
   GGA_COMPAT  = F    GGA compatible to vasp.4.4-vasp.4.6
   LMAXPAW     = -100 max onsite density
   LMAXMIX     =    4 max onsite mixed and CHGCAR
   VOSKOWN=      1    Vosko Wilk Nusair interpolation
   ROPT   =    0.00000
 Ionic relaxation
   EDIFFG = -.2E-02   stopping-criterion for IOM
   NSW    =    100    number of steps for IOM
   NBLOCK =      1;   KBLOCK =    100    inner block; outer block 
   IBRION =      2    ionic relax: 0-MD 1-quasi-New 2-CG
   NFREE  =      1    steps in history (QN), initial steepest desc. (CG)
   ISIF   =      3    stress and relaxation
   IWAVPR =     11    prediction:  0-non 1-charg 2-wave 3-comb
   ISYM   =      2    0-nonsym 1-usesym 2-fastsym
   LCORR  =      T    Harris-Foulkes like correction to forces

   POTIM  = 0.5000    time-step for ionic-motion
   TEIN   =    0.0    initial temperature
   TEBEG  =    0.0;   TEEND  =   0.0 temperature during run
   SMASS  =  -3.00    Nose mass-parameter (am)
   estimated Nose-frequenzy (Omega)   =  0.10E-29 period in steps = 0.13E+47 mass=  -0.187E-27a.u.
   SCALEE = 1.0000    scale energy and forces
   NPACO  =    256;   APACO  = 16.0  distance and # of slots for P.C.
   PSTRESS=    0.0 pullay stress

  Mass of Ions in am
   POMASS =  55.85
  Ionic Valenz
   ZVAL   =   8.00
  Atomic Wigner-Seitz radii
   RWIGS  =  -1.00
  virtual crystal weights 
   VCA    =   1.00
   NELECT =      16.0000    total number of electrons
   NUPDOWN=      -1.0000    fix difference up-down

 DOS related values:
   EMIN   =  10.00;   EMAX   =-10.00  energy-range for DOS
   EFERMI =   0.00
   ISMEAR =     1;   SIGMA  =   0.20  broadening in eV -4-tet -1-fermi 0-gaus

 Electronic relaxation 2 (details)
   IALGO  =     38    algorithm
   LDIAG  =      T    sub-space diagonalisation (order eigenvalues)
   LSUBROT=      F    optimize rotation matrix (better conditioning)
   TURBO    =      0    0=normal 1=particle mesh
   IRESTART =      0    0=no restart 2=restart with 2 vectors
   NREBOOT  =      0    no. of reboots
   NMIN     =      0    reboot dimension
   EREF     =   0.00    reference energy to select bands
   IMIX   =      4    mixing-type and parameters
     AMIX     =   0.40;   BMIX     =  1.00
     AMIX_MAG =   1.60;   BMIX_MAG =  1.00
     AMIN     =   0.10
     WC   =   100.;   INIMIX=   1;  MIXPRE=   1;  MAXMIX= -45

 Intra band minimization:
   WEIMIN = 0.0010     energy-eigenvalue tresh-hold
   EBREAK =  0.12E-07  absolut break condition
   DEPER  =   0.30     relativ break condition  

   TIME   =   0.40     timestep for ELM

  volume/ion in A,a.u.               =      11.73        79.19
  Fermi-wavevector in a.u.,A,eV,Ry     =   1.440859  2.722828 28.246703  2.076074
  Thomas-Fermi vector in A             =   2.559556
 
 Write flags
   LWAVE        =      T    write WAVECAR
   LDOWNSAMPLE  =      F    k-point downsampling of WAVECAR
   LCHARG       =      T    write CHGCAR
   LVTOT        =      F    write LOCPOT, total local potential
   LVHAR        =      F    write LOCPOT, Hartree potential only
   LELF         =      F    write electronic localiz. function (ELF)
   LORBIT       =     11    0 simple, 1 ext, 2 COOP (PROOUT), +10 PAW based schemes


 Dipole corrections
   LMONO  =      F    monopole corrections only (constant potential shift)
   LDIPOL =      F    correct potential (dipole corrections)
   IDIPOL =      0    1-x, 2-y, 3-z, 4-all directions 
   EPSILON=  1.0000000 bulk dielectric constant

 Exchange correlation treatment:
   GGA     =    --    GGA type
   LEXCH   =     8    internal setting for exchange type
   VOSKOWN=      1    Vosko Wilk Nusair interpolation
   LHFCALC =     F    Hartree Fock is set to
   LHFONE  =     F    Hartree Fock one center treatment
   AEXX    =    0.0000 exact exchange contribution

 Linear response parameters
   LEPSILON=     F    determine dielectric tensor
   LRPA    =     F    only Hartree local field effects (RPA)
   LNABLA  =     F    use nabla operator in PAW spheres
   LVEL    =     F    velocity operator in full k-point grid
   LINTERFAST=   F  fast interpolation
   KINTER  =     0    interpolate to denser k-point grid
   CSHIFT  =0.1000    complex shift for real part using Kramers Kronig
   OMEGAMAX=  -1.0    maximum frequency
   DEG_THRESHOLD= 0.2000000E-02 threshold for treating states as degnerate
   RTIME   =   -0.100 relaxation time in fs
  (WPLASMAI=    0.000 imaginary part of plasma frequency in eV, 0.658/RTIME)
   DFIELD  = 0.0000000 0.0000000 0.0000000 field for delta impulse in time
 
 Orbital magnetization related:
   ORBITALMAG=     F  switch on orbital magnetization
   LCHIMAG   =     F  perturbation theory with respect to B field
   DQ        =  0.001000  dq finite difference perturbation B field
   LLRAUG    =     F  two centre corrections for induced B field



--------------------------------------------------------------------------------------------------------


 conjugate gradient relaxation of ions
 charge density and potential will be updated during run
 spin polarized calculation
 Variant of blocked Davidson
 Davidson routine will perform the subspace rotation
 perform sub-space diagonalisation
    after iterative eigenvector-optimisation
 modified Broyden-mixing scheme, WC =      100.0
 initial mixing is a Kerker type mixing with AMIX =  0.4000 and BMIX =      1.0000
 Hartree-type preconditioning will be used
 using additional bands           12
 reciprocal scheme for non local part
 use partial core corrections
 calculate Harris-corrections to forces 
   (improved forces if not selfconsistent)
 use gradient corrections 
 use of overlap-Matrix (Vanderbilt PP)
 Methfessel and Paxton  Order N= 1 SIGMA  =   0.20


--------------------------------------------------------------------------------------------------------


  energy-cutoff  :      350.00
  volume of cell :       23.47
      direct lattice vectors                 reciprocal lattice vectors
     2.863035499  0.000000000  0.000000000     0.349279637 -0.000000000  0.000000000
     0.000000000  2.863035499  0.000000000     0.000000000  0.349279637  0.000000000
     0.000000000  0.000000000  2.863035499    -0.000000000 -0.000000000  0.349279637

  length of vectors
     2.863035499  2.863035499  2.863035499     0.349279637  0.349279637  0.349279637


 
 k-points in units of 2pi/SCALE and weight: read from INCAR                         
   0.00000000  0.00000000  0.00000000       0.003
   0.04989709 -0.00000000  0.00000000       0.017
   0.09979418 -0.00000000  0.00000000       0.017
   0.14969127 -0.00000000  0.00000000       0.017
   0.04989709  0.04989709  0.00000000       0.035
   0.09979418  0.04989709  0.00000000       0.070
   0.14969127  0.04989709  0.00000000       0.070
   0.09979418  0.09979418  0.00000000       0.035
   0.14969127  0.09979418  0.00000000       0.070
   0.14969127  0.14969127  0.00000000       0.035
   0.04989709  0.04989709  0.04989709       0.023
   0.09979418  0.04989709  0.04989709       0.070
   0.14969127  0.04989709  0.04989709       0.070
   0.09979418  0.09979418  0.04989709       0.070
   0.14969127  0.09979418  0.04989709       0.140
   0.14969127  0.14969127  0.04989709       0.070
   0.09979418  0.09979418  0.09979418       0.023
   0.14969127  0.09979418  0.09979418       0.070
   0.14969127  0.14969127  0.09979418       0.070
   0.14969127  0.14969127  0.14969127       0.023
 
 k-points in reciprocal lattice and weights: read from INCAR                         
   0.00000000  0.00000000  0.00000000       0.003
   0.14285714  0.00000000  0.00000000       0.017
   0.28571429  0.00000000  0.00000000       0.017
   0.42857143  0.00000000  0.00000000       0.017
   0.14285714  0.14285714  0.00000000       0.035
   0.28571429  0.14285714  0.00000000       0.070
   0.42857143  0.14285714  0.00000000       0.070
   0.28571429  0.28571429  0.00000000       0.035
   0.42857143  0.28571429  0.00000000       0.070
   0.42857143  0.42857143  0.00000000       0.035
   0.14285714  0.14285714  0.14285714       0.023
   0.28571429  0.14285714  0.14285714       0.070
   0.42857143  0.14285714  0.14285714       0.070
   0.28571429  0.28571429  0.14285714       0.070
   0.42857143  0.28571429  0.14285714       0.140
   0.42857143  0.42857143  0.14285714       0.070
   0.28571429  0.28571429  0.28571429       0.023
   0.42857143  0.28571429  0.28571429       0.070
   0.42857143  0.42857143  0.28571429       0.070
   0.42857143  0.42857143  0.42857143       0.023
 
 position of ions in fractional coordinates (direct lattice) 
   0.00000000  0.00000000  0.00000000
   0.50000000  0.50000000  0.50000000
 
 position of ions in cartesian coordinates  (Angst):
   0.00000000  0.00000000  0.00000000
   1.43151775  1.43151775  1.43151775
 


--------------------------------------------------------------------------------------------------------


 k-point   1 :   0.0000 0.0000 0.0000  plane waves:     365
 k-point   2 :   0.1429 0.0000 0.0000  plane waves:     353
 k-point   3 :   0.2857 0.0000 0.0000  plane waves:     357
 k-point   4 :   0.4286 0.0000 0.0000  plane waves:     352
 k-point   5 :   0.1429 0.1429 0.0000  plane waves:     356
 k-point   6 :   0.2857 0.1429 0.0000  plane waves:     351
 k-point   7 :   0.4286 0.1429 0.0000  plane waves:     348
 k-point   8 :   0.2857 0.2857 0.0000  plane waves:     346
 k-point   9 :   0.4286 0.2857 0.0000  plane waves:     352
 k-point  10 :   0.4286 0.4286 0.0000  plane waves:     354
 k-point  11 :   0.1429 0.1429 0.1429  plane waves:     353
 k-point  12 :   0.2857 0.1429 0.1429  plane waves:     353
 k-point  13 :   0.4286 0.1429 0.1429  plane waves:     351
 k-point  14 :   0.2857 0.2857 0.1429  plane waves:     353
 k-point  15 :   0.4286 0.2857 0.1429  plane waves:     346
 k-point  16 :   0.4286 0.4286 0.1429  plane waves:     347
 k-point  17 :   0.2857 0.2857 0.2857  plane waves:     350
 k-point  18 :   0.4286 0.2857 0.2857  plane waves:     346
 k-point  19 :   0.4286 0.4286 0.2857  plane waves:     342
 k-point  20 :   0.4286 0.4286 0.4286  plane waves:     344

 maximum and minimum number of plane-waves per node :       365      342

 maximum number of plane-waves:       365
 maximum index in each direction: 
   IXMAX=    4   IYMAX=    4   IZMAX=    4
   IXMIN=   -4   IYMIN=   -4   IZMIN=   -4


 serial   3D FFT for wavefunctions
 parallel 3D FFT for charge:
    minimum data exchange during FFTs selected (reduces bandwidth)


 total amount of memory used by VASP MPI-rank0    35553. kBytes
=======================================================================

   base      :      30000. kBytes
   nonl-proj :       1071. kBytes
   fftplans  :       1775. kBytes
   grid      :       1353. kBytes
   one-center:         62. kBytes
   wavefun   :       1292. kBytes
 
     INWAV:  cpu time    0.0000: real time    0.0005
 Broyden mixing: mesh for mixing (old mesh)
   NGX =  9   NGY =  9   NGZ =  9
  (NGX  = 36   NGY  = 36   NGZ  = 36)
  gives a total of    729 points

 initial charge density was supplied:
 charge density of overlapping atoms calculated
 number of electron      16.0000000 magnetization      10.0000000
 keeping initial charge density in first step


--------------------------------------------------------------------------------------------------------


 Maximum index for augmentation-charges        17277 (set IRDMAX)


--------------------------------------------------------------------------------------------------------


 First call to EWALD:  gamma=   0.619
 Maximum number of real-space cells 3x 3x 3
 Maximum number of reciprocal cells 3x 3x 3

    FEWALD:  cpu time    0.0030: real time    0.0033


--------------------------------------- Iteration      1(   1)  ---------------------------------------


    POTLOK:  cpu time    0.0340: real time    0.0383
    SETDIJ:  cpu time    1.6018: real time    1.6014
     EDDAV:  cpu time    0.6349: real time    0.6363
       DOS:  cpu time    0.0030: real time    0.0024
    --------------------------------------------
      LOOP:  cpu time    2.2737: real time    2.2787

 eigenvalue-minimisations  :  1760
 total energy-change (2. order) : 0.6481750E+02  (-0.6093399E+03)
 number of electron      16.0000000 magnetization      10.0000000
 augmentation part       16.0000000 magnetization      10.0000000

 Free energy of the ion-electron system (eV)
  ---------------------------------------------------
  alpha Z        PSCENC =       117.79976220
  Ewald energy   TEWEN  =     -1171.43779597
  -Hartree energ DENC   =      -228.04061711
  -exchange      EXHF   =         0.00000000
  -V(xc)+E(xc)   XCENC  =        14.27160946
  PAW double counting   =      1103.49540010    -1119.11610375
  entropy T*S    EENTRO =        -0.00617532
  eigenvalues    EBANDS =       159.26176073
  atomic energy  EATOM  =      1188.58965621
  Solvation  Ediel_sol  =         0.00000000
  ---------------------------------------------------
  free energy    TOTEN  =        64.81749654 eV

  energy without entropy =       64.82367187  energy(sigma->0) =       64.81955499


--------------------------------------------------------------------------------------------------------




--------------------------------------- Iteration      1(   2)  ---------------------------------------


     EDDAV:  cpu time    0.5909: real time    0.6080
       DOS:  cpu time    0.0030: real time    0.0024
    --------------------------------------------
      LOOP:  cpu time    0.5939: real time    0.6103

 eigenvalue-minimisations  :  1628
 total energy-change (2. order) :-0.7799411E+02  (-0.6870496E+02)
 number of electron      16.0000000 magnetization      10.0000000
 augmentation part       16.0000000 magnetization      10.0000000

 Free energy of the ion-electron system (eV)
  ---------------------------------------------------
  alpha Z        PSCENC =       117.79976220
  Ewald energy   TEWEN  =     -1171.43779597
  -Hartree energ DENC   =      -228.04061711
  -exchange      EXHF   =         0.00000000
  -V(xc)+E(xc)   XCENC  =        14.27160946
  PAW double counting   =      1103.49540010    -1119.11610375
  entropy T*S    EENTRO =         0.00162643
  eigenvalues    EBANDS =        81.25984558
  atomic energy  EATOM  =      1188.58965621
  Solvation  Ediel_sol  =         0.00000000
  ---------------------------------------------------
  free energy    TOTEN  =       -13.17661685 eV

  energy without entropy =      -13.17824328  energy(sigma->0) =      -13.17715900


--------------------------------------------------------------------------------------------------------




--------------------------------------- Iteration      1(   3)  ---------------------------------------


     EDDAV:  cpu time    0.6389: real time    0.6462
       DOS:  cpu time    0.0020: real time    0.0025
    --------------------------------------------
      LOOP:  cpu time    0.6419: real time    0.6487

 eigenvalue-minimisations  :  1804
 total energy-change (2. order) :-0.2882683E+01  (-0.2811660E+01)
 number of electron      16.0000000 magnetization      10.0000000
 augmentation part       16.0000000 magnetization      10.0000000

 Free energy of the ion-electron system (eV)
  ---------------------------------------------------
  alpha Z        PSCENC =       117.79976220
  Ewald energy   TEWEN  =     -1171.43779597
  -Hartree energ DENC   =      -228.04061711
  -exchange      EXHF   =         0.00000000
  -V(xc)+E(xc)   XCENC  =        14.27160946
  PAW double counting   =      1103.49540010    -1119.11610375
  entropy T*S    EENTRO =         0.00478365
  eigenvalues    EBANDS =        78.37400545
  atomic energy  EATOM  =      1188.58965621
  Solvation  Ediel_sol  =         0.00000000
  ---------------------------------------------------
  free energy    TOTEN  =       -16.05929976 eV

  energy without entropy =      -16.06408341  energy(sigma->0) =      -16.06089431


--------------------------------------------------------------------------------------------------------




--------------------------------------- Iteration      1(   4)  ---------------------------------------


     EDDAV:  cpu time    0.6219: real time    0.6378
       DOS:  cpu time    0.0010: real time    0.0022
    --------------------------------------------
      LOOP:  cpu time    0.6229: real time    0.6399

 eigenvalue-minimisations  :  1740
 total energy-change (2. order) :-0.2227885E-01  (-0.2227323E-01)
 number of electron      16.0000000 magnetization      10.0000000
 augmentation part       16.0000000 magnetization      10.0000000

 Free energy of the ion-electron system (eV)
  ---------------------------------------------------
  alpha Z        PSCENC =       117.79976220
  Ewald energy   TEWEN  =     -1171.43779597
  -Hartree energ DENC   =      -228.04061711
  -exchange      EXHF   =         0.00000000
  -V(xc)+E(xc)   XCENC  =        14.27160946
  PAW double counting   =      1103.49540010    -1119.11610375
  entropy T*S    EENTRO =         0.00480923
  eigenvalues    EBANDS =        78.35170102
  atomic energy  EATOM  =      1188.58965621
  Solvation  Ediel_sol  =         0.00000000
  ---------------------------------------------------
  free energy    TOTEN  =       -16.08157861 eV

  energy without entropy =      -16.08638784  energy(sigma->0) =      -16.08318169


--------------------------------------------------------------------------------------------------------




--------------------------------------- Iteration      1(   5)  ---------------------------------------


     EDDAV:  cpu time    0.6409: real time    0.6475
       DOS:  cpu time    0.0020: real time    0.0023
    CHARGE:  cpu time    0.0750: real time    0.0746
    MIXING:  cpu time    0.0010: real time    0.0011
    --------------------------------------------
      LOOP:  cpu time    0.7179: real time    0.7255

 eigenvalue-minimisations  :  1812
 total energy-change (2. order) :-0.2667619E-03  (-0.2667563E-03)
 number of electron      16.0000001 magnetization       4.4943102
 augmentation part        7.3763055 magnetization       2.7916739

 Broyden mixing:
  rms(total) = 0.19421E+01    rms(broyden)= 0.19420E+01
  rms(prec ) = 0.35315E+01
  weight for this iteration     100.00

 Free energy of the ion-electron system (eV)
  ---------------------------------------------------
  alpha Z        PSCENC =       117.79976220
  Ewald energy   TEWEN  =     -1171.43779597
  -Hartree energ DENC   =      -228.04061711
  -exchange      EXHF   =         0.00000000
  -V(xc)+E(xc)   XCENC  =        14.27160946
  PAW double counting   =      1103.49540010    -1119.11610375
  entropy T*S    EENTRO =         0.00480966
  eigenvalues    EBANDS =        78.35143383
  atomic energy  EATOM  =      1188.58965621
  Solvation  Ediel_sol  =         0.00000000
  ---------------------------------------------------
  free energy    TOTEN  =       -16.08184537 eV

  energy without entropy =      -16.08665503  energy(sigma->0) =      -16.08344859


--------------------------------------------------------------------------------------------------------




--------------------------------------- Iteration      1(   6)  ---------------------------------------


    POTLOK:  cpu time    0.0350: real time    0.0506
    SETDIJ:  cpu time    1.6008: real time    1.6008
     EDDAV:  cpu time    0.6389: real time    0.6394
       DOS:  cpu time    0.0020: real time    0.0025
    CHARGE:  cpu time    0.0690: real time    0.0686
    MIXING:  cpu time    0.0010: real time    0.0012
    --------------------------------------------
      LOOP:  cpu time    2.3466: real time    2.3631

 eigenvalue-minimisations  :  1788
 total energy-change (2. order) :-0.4758588E+00  (-0.5184271E+00)
 number of electron      16.0000001 magnetization       4.6505125
 augmentation part        8.4818015 magnetization       3.8035012

 Broyden mixing:
  rms(total) = 0.59647E+00    rms(broyden)= 0.59561E+00
  rms(prec ) = 0.66894E+00
  weight for this iteration     100.00

 eigenvalues of (default mixing * dielectric matrix)
  average eigenvalue GAMMA=   0.9060
  0.9060

 Free energy of the ion-electron system (eV)
  ---------------------------------------------------
  alpha Z        PSCENC =       117.79976220
  Ewald energy   TEWEN  =     -1171.43779597
  -Hartree energ DENC   =      -196.90806444
  -exchange      EXHF   =         0.00000000
  -V(xc)+E(xc)   XCENC  =         8.33317041
  PAW double counting   =      1215.89022362    -1228.17965092
  entropy T*S    EENTRO =        -0.00009874
  eigenvalues    EBANDS =        49.35509344
  atomic energy  EATOM  =      1188.58965621
  Solvation  Ediel_sol  =         0.00000000
  ---------------------------------------------------
  free energy    TOTEN  =       -16.55770419 eV

  energy without entropy =      -16.55760544  energy(sigma->0) =      -16.55767127


--------------------------------------------------------------------------------------------------------




--------------------------------------- Iteration      1(   7)  ---------------------------------------


    POTLOK:  cpu time    0.0360: real time    0.0511
    SETDIJ:  cpu time    1.5948: real time    1.5956
     EDDAV:  cpu time    0.6599: real time    0.6609
       DOS:  cpu time    0.0020: real time    0.0026
    CHARGE:  cpu time    0.0690: real time    0.0692
    MIXING:  cpu time    0.0010: real time    0.0011
    --------------------------------------------
      LOOP:  cpu time    2.3636: real time    2.3805

 eigenvalue-minimisations  :  1884
 total energy-change (2. order) : 0.5216729E-01  (-0.3785830E-01)
 number of electron      16.0000001 magnetization       4.5055920
 augmentation part        8.2475042 magnetization       3.6881246

 Broyden mixing:
  rms(total) = 0.44292E+00    rms(broyden)= 0.44273E+00
  rms(prec ) = 0.52710E+00
  weight for this iteration     100.00

 eigenvalues of (default mixing * dielectric matrix)
  average eigenvalue GAMMA=   0.7762
  1.0558  0.4967

 Free energy of the ion-electron system (eV)
  ---------------------------------------------------
  alpha Z        PSCENC =       117.79976220
  Ewald energy   TEWEN  =     -1171.43779597
  -Hartree energ DENC   =      -199.36662720
  -exchange      EXHF   =         0.00000000
  -V(xc)+E(xc)   XCENC  =         8.87801359
  PAW double counting   =      1293.72939709    -1309.07171460
  entropy T*S    EENTRO =         0.00205600
  eigenvalues    EBANDS =        54.37171578
  atomic energy  EATOM  =      1188.58965621
  Solvation  Ediel_sol  =         0.00000000
  ---------------------------------------------------
  free energy    TOTEN  =       -16.50553690 eV

  energy without entropy =      -16.50759290  energy(sigma->0) =      -16.50622223


--------------------------------------------------------------------------------------------------------




--------------------------------------- Iteration      1(   8)  ---------------------------------------


    POTLOK:  cpu time    0.0360: real time    0.0517
    SETDIJ:  cpu time    1.5998: real time    1.5998
     EDDAV:  cpu time    0.7329: real time    0.7338
       DOS:  cpu time    0.0020: real time    0.0025
    CHARGE:  cpu time    0.0700: real time    0.0693
    MIXING:  cpu time    0.0010: real time    0.0011
    --------------------------------------------
      LOOP:  cpu time    2.4406: real time    2.4583

 eigenvalue-minimisations  :  2144
 total energy-change (2. order) : 0.1557428E-01  (-0.9485149E-03)
 number of electron      16.0000001 magnetization       4.4060035
 augmentation part        8.2746899 magnetization       3.5852614

 Broyden mixing:
  rms(total) = 0.15589E+00    rms(broyden)= 0.15584E+00
  rms(prec ) = 0.23029E+00
  weight for this iteration     100.00

 eigenvalues of (default mixing * dielectric matrix)
  average eigenvalue GAMMA=   1.0810
  1.7996  0.8638  0.5795

 Free energy of the ion-electron system (eV)
  ---------------------------------------------------
  alpha Z        PSCENC =       117.79976220
  Ewald energy   TEWEN  =     -1171.43779597
  -Hartree energ DENC   =      -197.60480667
  -exchange      EXHF   =         0.00000000
  -V(xc)+E(xc)   XCENC  =         8.60386501
  PAW double counting   =      1331.31133104    -1347.45349943
  entropy T*S    EENTRO =         0.00369612
  eigenvalues    EBANDS =        53.69782886
  atomic energy  EATOM  =      1188.58965621
  Solvation  Ediel_sol  =         0.00000000
  ---------------------------------------------------
  free energy    TOTEN  =       -16.48996262 eV

  energy without entropy =      -16.49365874  energy(sigma->0) =      -16.49119466


--------------------------------------------------------------------------------------------------------




--------------------------------------- Iteration      1(   9)  ---------------------------------------


    POTLOK:  cpu time    0.0350: real time    0.0507
    SETDIJ:  cpu time    1.5968: real time    1.5964
     EDDAV:  cpu time    0.7809: real time    0.7821
       DOS:  cpu time    0.0020: real time    0.0025
    CHARGE:  cpu time    0.0690: real time    0.0692
    MIXING:  cpu time    0.0010: real time    0.0012
    --------------------------------------------
      LOOP:  cpu time    2.4856: real time    2.5022

 eigenvalue-minimisations  :  2292
 total energy-change (2. order) : 0.1113634E-01  (-0.3089043E-03)
 number of electron      16.0000001 magnetization       4.4443874
 augmentation part        8.3126039 magnetization       3.6222781

 Broyden mixing:
  rms(total) = 0.41624E-01    rms(broyden)= 0.41572E-01
  rms(prec ) = 0.47909E-01
  weight for this iteration     100.00

 eigenvalues of (default mixing * dielectric matrix)
  average eigenvalue GAMMA=   1.1548
  2.2132  1.0675  0.6693  0.6693

 Free energy of the ion-electron system (eV)
  ---------------------------------------------------
  alpha Z        PSCENC =       117.79976220
  Ewald energy   TEWEN  =     -1171.43779597
  -Hartree energ DENC   =      -195.23694466
  -exchange      EXHF   =         0.00000000
  -V(xc)+E(xc)   XCENC  =         8.41121721
  PAW double counting   =      1387.64956889    -1405.06081987
  entropy T*S    EENTRO =         0.00509829
  eigenvalues    EBANDS =        52.80143142
  atomic energy  EATOM  =      1188.58965621
  Solvation  Ediel_sol  =         0.00000000
  ---------------------------------------------------
  free energy    TOTEN  =       -16.47882628 eV

  energy without entropy =      -16.48392457  energy(sigma->0) =      -16.48052571


--------------------------------------------------------------------------------------------------------




--------------------------------------- Iteration      1(  10)  ---------------------------------------


    POTLOK:  cpu time    0.0370: real time    0.0508
    SETDIJ:  cpu time    1.5938: real time    1.5957
     EDDAV:  cpu time    0.6619: real time    0.6625
       DOS:  cpu time    0.0020: real time    0.0025
    CHARGE:  cpu time    0.0700: real time    0.0693
    MIXING:  cpu time    0.0010: real time    0.0012
    --------------------------------------------
      LOOP:  cpu time    2.3646: real time    2.3819

 eigenvalue-minimisations  :  1888
 total energy-change (2. order) : 0.4300457E-03  (-0.1458941E-03)
 number of electron      16.0000001 magnetization       4.4598523
 augmentation part        8.3023965 magnetization       3.6361112

 Broyden mixing:
  rms(total) = 0.68852E-02    rms(broyden)= 0.68839E-02
  rms(prec ) = 0.10561E-01
  weight for this iteration     100.00

 eigenvalues of (default mixing * dielectric matrix)
  average eigenvalue GAMMA=   1.2050
  2.4057  0.6435  0.7556  0.9419  1.2782

 Free energy of the ion-electron system (eV)
  ---------------------------------------------------
  alpha Z        PSCENC =       117.79976220
  Ewald energy   TEWEN  =     -1171.43779597
  -Hartree energ DENC   =      -194.98920362
  -exchange      EXHF   =         0.00000000
  -V(xc)+E(xc)   XCENC  =         8.45426142
  PAW double counting   =      1406.69915740    -1424.63561096
  entropy T*S    EENTRO =         0.00495014
  eigenvalues    EBANDS =        53.03642695
  atomic energy  EATOM  =      1188.58965621
  Solvation  Ediel_sol  =         0.00000000
  ---------------------------------------------------
  free energy    TOTEN  =       -16.47839623 eV

  energy without entropy =      -16.48334637  energy(sigma->0) =      -16.48004628


--------------------------------------------------------------------------------------------------------




--------------------------------------- Iteration      1(  11)  ---------------------------------------


    POTLOK:  cpu time    0.0360: real time    0.1083
    SETDIJ:  cpu time    1.5958: real time    1.5959
     EDDAV:  cpu time    0.6589: real time    0.6598
       DOS:  cpu time    0.0020: real time    0.0025
    CHARGE:  cpu time    0.0690: real time    0.0693
    MIXING:  cpu time    0.0010: real time    0.0012
    --------------------------------------------
      LOOP:  cpu time    2.3636: real time    2.4371

 eigenvalue-minimisations  :  1880
 total energy-change (2. order) :-0.6899627E-04  (-0.1548585E-04)
 number of electron      16.0000001 magnetization       4.4546671
 augmentation part        8.3047110 magnetization       3.6317595

 Broyden mixing:
  rms(total) = 0.66498E-02    rms(broyden)= 0.66485E-02
  rms(prec ) = 0.70591E-02
  weight for this iteration     100.00

 eigenvalues of (default mixing * dielectric matrix)
  average eigenvalue GAMMA=   1.1210
  2.3862  1.3237  0.9906  0.7037  0.7037  0.6178

 Free energy of the ion-electron system (eV)
  ---------------------------------------------------
  alpha Z        PSCENC =       117.79976220
  Ewald energy   TEWEN  =     -1171.43779597
  -Hartree energ DENC   =      -194.90037108
  -exchange      EXHF   =         0.00000000
  -V(xc)+E(xc)   XCENC  =         8.47053064
  PAW double counting   =      1409.99564972    -1427.97980193
  entropy T*S    EENTRO =         0.00494358
  eigenvalues    EBANDS =        52.97896140
  atomic energy  EATOM  =      1188.58965621
  Solvation  Ediel_sol  =         0.00000000
  ---------------------------------------------------
  free energy    TOTEN  =       -16.47846523 eV

  energy without entropy =      -16.48340881  energy(sigma->0) =      -16.48011309


--------------------------------------------------------------------------------------------------------




--------------------------------------- Iteration      1(  12)  ---------------------------------------


    POTLOK:  cpu time    0.0360: real time    0.0513
    SETDIJ:  cpu time    1.5948: real time    1.5950
     EDDAV:  cpu time    0.6329: real time    0.6332
       DOS:  cpu time    0.0020: real time    0.0027
    CHARGE:  cpu time    0.0700: real time    0.0695
    MIXING:  cpu time    0.0000: real time    0.0013
    --------------------------------------------
      LOOP:  cpu time    2.3356: real time    2.3530

 eigenvalue-minimisations  :  1768
 total energy-change (2. order) : 0.2961695E-04  (-0.7085607E-06)
 number of electron      16.0000001 magnetization       4.4521617
 augmentation part        8.3041785 magnetization       3.6291052

 Broyden mixing:
  rms(total) = 0.32243E-02    rms(broyden)= 0.32243E-02
  rms(prec ) = 0.36264E-02
  weight for this iteration     100.00

 eigenvalues of (default mixing * dielectric matrix)
  average eigenvalue GAMMA=   1.2257
  2.4460  2.0991  1.0889  0.8261  0.8109  0.6545  0.6545

 Free energy of the ion-electron system (eV)
  ---------------------------------------------------
  alpha Z        PSCENC =       117.79976220
  Ewald energy   TEWEN  =     -1171.43779597
  -Hartree energ DENC   =      -194.91921065
  -exchange      EXHF   =         0.00000000
  -V(xc)+E(xc)   XCENC  =         8.46529122
  PAW double counting   =      1409.74554940    -1427.71655439
  entropy T*S    EENTRO =         0.00493639
  eigenvalues    EBANDS =        52.98992998
  atomic energy  EATOM  =      1188.58965621
  Solvation  Ediel_sol  =         0.00000000
  ---------------------------------------------------
  free energy    TOTEN  =       -16.47843561 eV

  energy without entropy =      -16.48337200  energy(sigma->0) =      -16.48008107


--------------------------------------------------------------------------------------------------------




--------------------------------------- Iteration      1(  13)  ---------------------------------------


    POTLOK:  cpu time    0.0360: real time    0.0503
    SETDIJ:  cpu time    1.5948: real time    1.5951
     EDDAV:  cpu time    0.5369: real time    0.5373
       DOS:  cpu time    0.0020: real time    0.0025
    CHARGE:  cpu time    0.0690: real time    0.0692
    MIXING:  cpu time    0.0020: real time    0.0013
    --------------------------------------------
      LOOP:  cpu time    2.2397: real time    2.2557

 eigenvalue-minimisations  :  1392
 total energy-change (2. order) :-0.1820013E-05  (-0.1377513E-06)
 number of electron      16.0000001 magnetization       4.4509796
 augmentation part        8.3046653 magnetization       3.6280307

 Broyden mixing:
  rms(total) = 0.13462E-02    rms(broyden)= 0.13462E-02
  rms(prec ) = 0.15122E-02
  weight for this iteration     100.00

 eigenvalues of (default mixing * dielectric matrix)
  average eigenvalue GAMMA=   1.2424
  2.6224  2.3845  1.1626  1.0411  0.7943  0.7036  0.6504  0.5805

 Free energy of the ion-electron system (eV)
  ---------------------------------------------------
  alpha Z        PSCENC =       117.79976220
  Ewald energy   TEWEN  =     -1171.43779597
  -Hartree energ DENC   =      -194.92075981
  -exchange      EXHF   =         0.00000000
  -V(xc)+E(xc)   XCENC  =         8.46401496
  PAW double counting   =      1410.29107125    -1428.24700125
  entropy T*S    EENTRO =         0.00495456
  eigenvalues    EBANDS =        52.97766041
  atomic energy  EATOM  =      1188.58965621
  Solvation  Ediel_sol  =         0.00000000
  ---------------------------------------------------
  free energy    TOTEN  =       -16.47843743 eV

  energy without entropy =      -16.48339200  energy(sigma->0) =      -16.48008895


--------------------------------------------------------------------------------------------------------




--------------------------------------- Iteration      1(  14)  ---------------------------------------


    POTLOK:  cpu time    0.0360: real time    0.0510
    SETDIJ:  cpu time    1.5948: real time    1.5957
     EDDAV:  cpu time    0.4179: real time    0.4185
       DOS:  cpu time    0.0020: real time    0.0025
    CHARGE:  cpu time    0.0690: real time    0.0692
    MIXING:  cpu time    0.0010: real time    0.0014
    --------------------------------------------
      LOOP:  cpu time    2.1217: real time    2.1384

 eigenvalue-minimisations  :   896
 total energy-change (2. order) : 0.1873815E-05  (-0.3774364E-07)
 number of electron      16.0000001 magnetization       4.4508146
 augmentation part        8.3044493 magnetization       3.6277677

 Broyden mixing:
  rms(total) = 0.70666E-04    rms(broyden)= 0.69807E-04
  rms(prec ) = 0.10764E-03
  weight for this iteration     100.00

 eigenvalues of (default mixing * dielectric matrix)
  average eigenvalue GAMMA=   1.2112
  2.6749  2.4261  1.2444  1.0313  0.8373  0.7811  0.6602  0.6602  0.5857

 Free energy of the ion-electron system (eV)
  ---------------------------------------------------
  alpha Z        PSCENC =       117.79976220
  Ewald energy   TEWEN  =     -1171.43779597
  -Hartree energ DENC   =      -194.92668666
  -exchange      EXHF   =         0.00000000
  -V(xc)+E(xc)   XCENC  =         8.46224066
  PAW double counting   =      1410.25126150    -1428.20376363
  entropy T*S    EENTRO =         0.00495327
  eigenvalues    EBANDS =        52.98193687
  atomic energy  EATOM  =      1188.58965621
  Solvation  Ediel_sol  =         0.00000000
  ---------------------------------------------------
  free energy    TOTEN  =       -16.47843556 eV

  energy without entropy =      -16.48338883  energy(sigma->0) =      -16.48008665


--------------------------------------------------------------------------------------------------------




--------------------------------------- Iteration      1(  15)  ---------------------------------------


    POTLOK:  cpu time    0.0360: real time    0.0511
    SETDIJ:  cpu time    1.5948: real time    1.5945
     EDDAV:  cpu time    0.4119: real time    0.4119
       DOS:  cpu time    0.0010: real time    0.0025
    --------------------------------------------
      LOOP:  cpu time    2.0437: real time    2.0600

 eigenvalue-minimisations  :   868
 total energy-change (2. order) : 0.5107768E-07  (-0.7790900E-08)
 number of electron      16.0000001 magnetization       4.4508146
 augmentation part        8.3044493 magnetization       3.6277677

 Free energy of the ion-electron system (eV)
  ---------------------------------------------------
  alpha Z        PSCENC =       117.79976220
  Ewald energy   TEWEN  =     -1171.43779597
  -Hartree energ DENC   =      -194.92758645
  -exchange      EXHF   =         0.00000000
  -V(xc)+E(xc)   XCENC  =         8.46213193
  PAW double counting   =      1410.23499515    -1428.18648518
  entropy T*S    EENTRO =         0.00495340
  eigenvalues    EBANDS =        52.98193319
  atomic energy  EATOM  =      1188.58965621
  Solvation  Ediel_sol  =         0.00000000
  ---------------------------------------------------
  free energy    TOTEN  =       -16.47843551 eV

  energy without entropy =      -16.48338891  energy(sigma->0) =      -16.48008664


--------------------------------------------------------------------------------------------------------




 average (electrostatic) potential at core
  the test charge radii are     1.0103
  (the norm of the test charge is              1.0000)
       1 -43.6286       2 -43.6286
 
 
 
 E-fermi :   5.4038     XC(G=0): -12.9387     alpha+bet :-13.2097

 Fermi energy:         5.4038245771

 spin component 1

 k-point     1 :       0.0000    0.0000    0.0000
  band No.  band energies     occupation 
      1      -2.7637      1.00000
      2       0.8181      1.00000
      3       0.8181      1.00000
      4       3.2581      1.00000
      5       3.2581      1.00000
      6       3.2581      1.00000
      7       4.3842      1.00000
      8       4.3842      1.00000
      9       5.5621      0.01217
     10       5.5621      0.01217
     11       5.5621      0.01217
     12      15.1914      0.00000
     13      15.1914      0.00000
     14      15.1914      0.00000
     15      20.7903      0.00000
     16      20.7903      0.00000
     17      25.5281      0.00000
     18      30.1817      0.00000
     19      30.1817      0.00000
     20      30.1817      0.00000

 k-point     2 :       0.1429    0.0000    0.0000
  band No.  band energies     occupation 
      1      -2.3548      1.00000
      2       0.9865      1.00000
      3       0.9894      1.00000
      4       3.2584      1.00000
      5       3.2584      1.00000
      6       3.3678      1.00000
      7       4.2080      1.00000
      8       4.4534      1.00000
      9       5.2471      0.98568
     10       5.2471      0.98568
     11       5.4441      0.33345
     12      12.8384      0.00000
     13      15.9422      0.00000
     14      15.9422      0.00000
     15      20.9183      0.00000
     16      22.2509      0.00000
     17      27.0608      0.00000
     18      28.0872      0.00000
     19      29.5949      0.00000
     20      29.5949      0.00000

 k-point     3 :       0.2857    0.0000    0.0000
  band No.  band energies     occupation 
      1      -1.2101      1.00000
      2       1.3323      1.00000
      3       1.4740      1.00000
      4       3.3060      1.00000
      5       3.3060      1.00000
      6       3.6777      1.00000
      7       3.7101      1.00000
      8       4.5711      1.00000
      9       4.5711      1.00000
     10       4.6528      1.00000
     11       5.1148      1.03002
     12       9.3188     -0.00000
     13      17.9050      0.00000
     14      17.9050      0.00000
     15      21.3331      0.00000
     16      23.2475      0.00000
     17      25.4298      0.00000
     18      27.0647      0.00000
     19      27.0647      0.00000
     20      28.7778      0.00000

 k-point     4 :       0.4286    0.0000    0.0000
  band No.  band energies     occupation 
      1       0.3188      1.00000
      2       1.3316      1.00000
      3       2.1857      1.00000
      4       2.9860      1.00000
      5       3.5023      1.00000
      6       3.5023      1.00000
      7       3.9282      1.00000
      8       3.9282      1.00000
      9       4.1320      1.00000
     10       4.6449      1.00000
     11       5.1097      1.02893
     12       6.5143     -0.00000
     13      20.6222      0.00000
     14      20.6222      0.00000
     15      22.1294      0.00000
     16      23.4462      0.00000
     17      23.7781      0.00000
     18      23.7781      0.00000
     19      24.2142      0.00000
     20      25.9919      0.00000

 k-point     5 :       0.1429    0.1429    0.0000
  band No.  band energies     occupation 
      1      -1.9614      1.00000
      2       1.1234      1.00000
      3       1.1765      1.00000
      4       3.0531      1.00000
      5       3.2140      1.00000
      6       3.6773      1.00000
      7       4.2335      1.00000
      8       4.4035      1.00000
      9       4.7335      1.00001
     10       4.9423      1.00262
     11       5.6102     -0.02811
     12      12.9585      0.00000
     13      13.9989      0.00000
     14      16.6095      0.00000
     15      21.6413      0.00000
     16      23.8110      0.00000
     17      25.9236      0.00000
     18      28.0881      0.00000
     19      28.7080      0.00000
     20      29.6355      0.00000

 k-point     6 :       0.2857    0.1429    0.0000
  band No.  band energies     occupation 
      1      -0.8786      1.00000
      2       1.4203      1.00000
      3       1.6442      1.00000
      4       2.9439      1.00000
      5       3.1342      1.00000
      6       3.9995      1.00000
      7       4.0116      1.00000
      8       4.1220      1.00000
      9       4.3595      1.00000
     10       4.5810      1.00000
     11       5.4879      0.17679
     12       9.7317     -0.00000
     13      15.2344      0.00000
     14      18.4183      0.00000
     15      22.1459      0.00000
     16      22.7455      0.00000
     17      25.6215      0.00000
     18      26.6479      0.00000
     19      27.4531      0.00000
     20      31.8495      0.00000

 k-point     7 :       0.4286    0.1429    0.0000
  band No.  band energies     occupation 
      1       0.4986      1.00000
      2       1.3859      1.00000
      3       2.2506      1.00000
      4       2.8455      1.00000
      5       3.0431      1.00000
      6       3.4045      1.00000
      7       3.9011      1.00000
      8       4.0013      1.00000
      9       4.6248      1.00000
     10       5.1006      1.02692
     11       5.1159      1.03023
     12       6.7788     -0.00000
     13      17.3605      0.00000
     14      19.8714      0.00000
     15      21.0151      0.00000
     16      23.0002      0.00000
     17      24.1168      0.00000
     18      24.4866      0.00000
     19      27.1314      0.00000
     20      29.2317      0.00000

 k-point     8 :       0.2857    0.2857    0.0000
  band No.  band energies     occupation 
      1      -0.0669      1.00000
      2       1.3880      1.00000
      3       2.2457      1.00000
      4       2.6124      1.00000
      5       3.2054      1.00000
      6       3.2874      1.00000
      7       4.1010      1.00000
      8       4.2922      1.00000
      9       4.4703      1.00000
     10       4.7124      1.00001
     11       5.7185     -0.02431
     12       9.6732     -0.00000
     13      12.9182      0.00000
     14      19.2967      0.00000
     15      19.8920      0.00000
     16      22.5208      0.00000
     17      25.6854      0.00000
     18      28.1107      0.00000
     19      28.9098      0.00000
     20      29.5631      0.00000

 k-point     9 :       0.4286    0.2857    0.0000
  band No.  band energies     occupation 
      1       0.6984      1.00000
      2       1.1516      1.00000
      3       2.5312      1.00000
      4       2.7596      1.00000
      5       2.9359      1.00000
      6       3.3891      1.00000
      7       4.1727      1.00000
      8       4.3432      1.00000
      9       5.0650      1.01881
     10       5.2407      0.99390
     11       5.6112     -0.02854
     12       7.2199     -0.00000
     13      14.0386      0.00000
     14      16.3447      0.00000
     15      22.1585      0.00000
     16      23.1491      0.00000
     17      24.2674      0.00000
     18      25.0253      0.00000
     19      30.4202      0.00000
     20      31.8854      0.00000

 k-point    10 :       0.4286    0.4286    0.0000
  band No.  band energies     occupation 
      1       0.7254      1.00000
      2       0.8543      1.00000
      3       2.2767      1.00000
      4       2.3540      1.00000
      5       3.9314      1.00000
      6       4.3625      1.00000
      7       4.3951      1.00000
      8       4.5486      1.00000
      9       5.2817      0.92478
     10       5.6673     -0.03429
     11       5.8062     -0.00770
     12       6.7923     -0.00000
     13      12.5840      0.00000
     14      13.6923      0.00000
     15      23.3833      0.00000
     16      23.8135      0.00000
     17      23.9137      0.00000
     18      25.5550      0.00000
     19      28.5419      0.00000
     20      29.9647      0.00000

 k-point    11 :       0.1429    0.1429    0.1429
  band No.  band energies     occupation 
      1      -1.5785      1.00000
      2       1.3084      1.00000
      3       1.3084      1.00000
      4       2.9964      1.00000
      5       2.9964      1.00000
      6       4.0062      1.00000
      7       4.1024      1.00000
      8       4.3209      1.00000
      9       4.3209      1.00000
     10       5.2970      0.88826
     11       5.2970      0.88826
     12      13.6060      0.00000
     13      13.6060      0.00000
     14      14.9279      0.00000
     15      24.0671      0.00000
     16      24.0671      0.00000
     17      25.7255      0.00000
     18      25.7255      0.00000
     19      28.8506      0.00000
     20      29.1474      0.00000

 k-point    12 :       0.2857    0.1429    0.1429
  band No.  band energies     occupation 
      1      -0.5405      1.00000
      2       1.6635      1.00000
      3       1.6696      1.00000
      4       2.8452      1.00000
      5       2.8562      1.00000
      6       3.4233      1.00000
      7       4.1183      1.00000
      8       4.5013      1.00000
      9       4.5873      1.00000
     10       4.6679      1.00000
     11       5.3436      0.74255
     12      10.2198     -0.00000
     13      15.2194      0.00000
     14      16.0178      0.00000
     15      22.5388      0.00000
     16      23.6003      0.00000
     17      24.8752      0.00000
     18      26.2776      0.00000
     19      28.0896      0.00000
     20      30.6192      0.00000

 k-point    13 :       0.4286    0.1429    0.1429
  band No.  band energies     occupation 
      1       0.7253      1.00000
      2       1.5612      1.00000
      3       2.1515      1.00000
      4       2.5815      1.00000
      5       3.0106      1.00000
      6       3.1668      1.00000
      7       3.9802      1.00000
      8       4.1564      1.00000
      9       4.7409      1.00001
     10       5.0790      1.02194
     11       5.4447      0.33111
     12       7.2461     -0.00000
     13      17.3373      0.00000
     14      17.9923      0.00000
     15      19.7673      0.00000
     16      20.5676      0.00000
     17      26.3103      0.00000
     18      27.4674      0.00000
     19      28.2381      0.00000
     20      28.3624      0.00000

 k-point    14 :       0.2857    0.2857    0.1429
  band No.  band energies     occupation 
      1       0.2823      1.00000
      2       1.6419      1.00000
      3       2.2592      1.00000
      4       2.5415      1.00000
      5       2.8216      1.00000
      6       2.8330      1.00000
      7       4.3203      1.00000
      8       4.4622      1.00000
      9       4.4682      1.00000
     10       5.2724      0.94408
     11       5.3561      0.69557
     12      10.4250     -0.00000
     13      13.0047      0.00000
     14      16.8199      0.00000
     15      19.5215      0.00000
     16      23.1927      0.00000
     17      25.1084      0.00000
     18      25.9869      0.00000
     19      29.8595      0.00000
     20      30.9622      0.00000

 k-point    15 :       0.4286    0.2857    0.1429
  band No.  band energies     occupation 
      1       1.0018      1.00000
      2       1.4065      1.00000
      3       2.4231      1.00000
      4       2.4612      1.00000
      5       2.9652      1.00000
      6       3.1083      1.00000
      7       4.3045      1.00000
      8       4.3126      1.00000
      9       4.7005      1.00000
     10       5.1686      1.03507
     11       6.2156     -0.00000
     12       8.0579     -0.00000
     13      14.2208      0.00000
     14      16.5668      0.00000
     15      18.5802      0.00000
     16      20.9265      0.00000
     17      25.3839      0.00000
     18      26.2497      0.00000
     19      29.6816      0.00000
     20      30.5009      0.00000

 k-point    16 :       0.4286    0.4286    0.1429
  band No.  band energies     occupation 
      1       1.0117      1.00000
      2       1.1152      1.00000
      3       2.2369      1.00000
      4       2.2902      1.00000
      5       3.7238      1.00000
      6       4.0479      1.00000
      7       4.4271      1.00000
      8       4.4768      1.00000
      9       4.5559      1.00000
     10       5.0412      1.01393
     11       7.1263     -0.00000
     12       8.1452     -0.00000
     13      12.6551      0.00000
     14      13.8523      0.00000
     15      20.0643      0.00000
     16      21.7055      0.00000
     17      23.0712      0.00000
     18      24.3707      0.00000
     19      30.3783      0.00000
     20      31.1031      0.00000

 k-point    17 :       0.2857    0.2857    0.2857
  band No.  band energies     occupation 
      1       1.1358      1.00000
      2       2.2112      1.00000
      3       2.2724      1.00000
      4       2.2724      1.00000
      5       2.3926      1.00000
      6       2.3926      1.00000
      7       4.4512      1.00000
      8       4.4512      1.00000
      9       4.8001      1.00008
     10       4.8001      1.00008
     11       6.2446     -0.00000
     12      12.1556      0.00000
     13      12.1556      0.00000
     14      14.6336      0.00000
     15      19.9413      0.00000
     16      19.9413      0.00000
     17      21.6287      0.00000
     18      27.1896      0.00000
     19      30.7500      0.00000
     20      30.7500      0.00000

 k-point    18 :       0.4286    0.2857    0.2857
  band No.  band energies     occupation 
      1       1.6268      1.00000
      2       1.8056      1.00000
      3       2.2607      1.00000
      4       2.2823      1.00000
      5       2.6757      1.00000
      6       2.8167      1.00000
      7       4.4302      1.00000
      8       4.4962      1.00000
      9       4.6085      1.00000
     10       4.8004      1.00008
     11       7.4898     -0.00000
     12       9.4872     -0.00000
     13      14.3861      0.00000
     14      15.6250      0.00000
     15      16.9879      0.00000
     16      17.7737      0.00000
     17      22.1125      0.00000
     18      24.2982      0.00000
     19      32.2124      0.00000
     20      34.0451      0.00000

 k-point    19 :       0.4286    0.4286    0.2857
  band No.  band energies     occupation 
      1       1.7044      1.00000
      2       1.7159      1.00000
      3       2.1775      1.00000
      4       2.2389      1.00000
      5       3.0552      1.00000
      6       3.1028      1.00000
      7       4.5342      1.00000
      8       4.5444      1.00000
      9       4.5711      1.00000
     10       4.6661      1.00000
     11       8.9171     -0.00000
     12      10.2693     -0.00000
     13      12.9195      0.00000
     14      14.4572      0.00000
     15      16.6473      0.00000
     16      18.5450      0.00000
     17      19.4515      0.00000
     18      21.3414      0.00000
     19      34.5306      0.00000
     20      35.6169      0.00000

 k-point    20 :       0.4286    0.4286    0.4286
  band No.  band energies     occupation 
      1       2.0191      1.00000
      2       2.2339      1.00000
      3       2.2339      1.00000
      4       2.5304      1.00000
      5       2.5304      1.00000
      6       2.5654      1.00000
      7       4.5832      1.00000
      8       4.5832      1.00000
      9       4.5968      1.00000
     10       4.5968      1.00000
     11      10.8123     -0.00000
     12      12.7444      0.00000
     13      12.7444      0.00000
     14      14.7646      0.00000
     15      15.5165      0.00000
     16      15.5165      0.00000
     17      16.8564      0.00000
     18      18.3825      0.00000
     19      39.4063      0.00000
     20      39.4063      0.00000
 Fermi energy:         5.4038245771

 spin component 2

 k-point     1 :       0.0000    0.0000    0.0000
  band No.  band energies     occupation 
      1      -2.5736      1.00000
      2       2.6913      1.00000
      3       2.6914      1.00000
      4       5.1729      1.03463
      5       5.1730      1.03461
      6       5.1730      1.03461
      7       7.1780     -0.00000
      8       7.1782     -0.00000
      9       7.7461     -0.00000
     10       7.7462     -0.00000
     11       7.7463     -0.00000
     12      15.4766      0.00000
     13      15.4766      0.00000
     14      15.4766      0.00000
     15      21.8649      0.00000
     16      21.8649      0.00000
     17      26.6538      0.00000
     18      29.9540      0.00000
     19      29.9540      0.00000
     20      29.9540      0.00000

 k-point     2 :       0.1429    0.0000    0.0000
  band No.  band energies     occupation 
      1      -2.1623      1.00000
      2       2.8155      1.00000
      3       2.8970      1.00000
      4       5.1589      1.03546
      5       5.1591      1.03546
      6       5.2944      0.89494
      7       6.9467     -0.00000
      8       7.2646     -0.00000
      9       7.3367     -0.00000
     10       7.3369     -0.00000
     11       7.6132     -0.00000
     12      13.4750      0.00000
     13      16.3252      0.00000
     14      16.3252      0.00000
     15      21.9549      0.00000
     16      23.0887      0.00000
     17      28.0889      0.00000
     18      28.0964      0.00000
     19      29.5921      0.00000
     20      29.5921      0.00000

 k-point     3 :       0.2857    0.0000    0.0000
  band No.  band energies     occupation 
      1      -0.9928      1.00000
      2       2.9271      1.00000
      3       3.4839      1.00000
      4       5.1758      1.03422
      5       5.1760      1.03419
      6       5.6378     -0.03495
      7       6.2973     -0.00000
      8       6.5190     -0.00000
      9       6.5191     -0.00000
     10       7.2426     -0.00000
     11       7.4787     -0.00000
     12      10.4748     -0.00000
     13      18.4378      0.00000
     14      18.4378      0.00000
     15      22.2573      0.00000
     16      23.9424      0.00000
     17      25.6825      0.00000
     18      27.5248      0.00000
     19      27.5248      0.00000
     20      29.2409      0.00000

 k-point     4 :       0.4286    0.0000    0.0000
  band No.  band energies     occupation 
      1       0.6955      1.00000
      2       2.2903      1.00000
      3       4.3600      1.00000
      4       5.3524      0.70992
      5       5.3525      0.70936
      6       5.3668      0.65359
      7       5.7967     -0.00896
      8       5.7968     -0.00894
      9       6.1428     -0.00000
     10       6.7157     -0.00000
     11       7.7792     -0.00000
     12       8.5062     -0.00000
     13      21.2404      0.00000
     14      21.2404      0.00000
     15      22.8711      0.00000
     16      23.9535      0.00000
     17      24.3938      0.00000
     18      24.3938      0.00000
     19      24.7609      0.00000
     20      26.4528      0.00000

 k-point     5 :       0.1429    0.1429    0.0000
  band No.  band energies     occupation 
      1      -1.7636      1.00000
      2       3.0101      1.00000
      3       3.0132      1.00000
      4       4.9256      1.00186
      5       5.1006      1.02694
      6       5.6314     -0.03415
      7       6.7365     -0.00000
      8       6.9539     -0.00000
      9       6.9542     -0.00000
     10       7.2006     -0.00000
     11       7.8000     -0.00000
     12      13.6845      0.00000
     13      14.7082      0.00000
     14      17.0473      0.00000
     15      22.5366      0.00000
     16      24.4571      0.00000
     17      26.2272      0.00000
     18      28.7249      0.00000
     19      29.1094      0.00000
     20      29.6575      0.00000

 k-point     6 :       0.2857    0.1429    0.0000
  band No.  band energies     occupation 
      1      -0.6391      1.00000
      2       3.0877      1.00000
      3       3.5420      1.00000
      4       4.7804      1.00005
      5       4.9976      1.00722
      6       5.9051     -0.00112
      7       6.1200     -0.00000
      8       6.3260     -0.00000
      9       6.5601     -0.00000
     10       7.3959     -0.00000
     11       7.6556     -0.00000
     12      10.8894      0.00000
     13      16.0656      0.00000
     14      18.9570      0.00000
     15      22.9068      0.00000
     16      23.2944      0.00000
     17      26.1497      0.00000
     18      26.8631      0.00000
     19      27.9324      0.00000
     20      32.3182      0.00000

 k-point     7 :       0.4286    0.1429    0.0000
  band No.  band energies     occupation 
      1       0.9525      1.00000
      2       2.4333      1.00000
      3       4.2508      1.00000
      4       4.8160      1.00013
      5       4.8598      1.00041
      6       5.2356      0.99988
      7       6.0557     -0.00002
      8       6.1096     -0.00000
      9       6.6775     -0.00000
     10       7.2296     -0.00000
     11       7.7365     -0.00000
     12       8.6606     -0.00000
     13      18.1934      0.00000
     14      20.6028      0.00000
     15      21.6236      0.00000
     16      23.5736      0.00000
     17      24.7315      0.00000
     18      24.8685      0.00000
     19      27.5965      0.00000
     20      29.6718      0.00000

 k-point     8 :       0.2857    0.2857    0.0000
  band No.  band energies     occupation 
      1       0.3119      1.00000
      2       3.0276      1.00000
      3       3.9848      1.00000
      4       4.4002      1.00000
      5       4.8375      1.00023
      6       5.1002      1.02684
      7       6.2251     -0.00000
      8       6.7773     -0.00000
      9       6.8591     -0.00000
     10       7.2891     -0.00000
     11       7.9213     -0.00000
     12      10.7897     -0.00000
     13      14.0878      0.00000
     14      20.0447      0.00000
     15      20.4516      0.00000
     16      23.1190      0.00000
     17      25.8165      0.00000
     18      28.8404      0.00000
     19      29.2391      0.00000
     20      29.8615      0.00000

 k-point     9 :       0.4286    0.2857    0.0000
  band No.  band energies     occupation 
      1       1.4982      1.00000
      2       2.4555      1.00000
      3       4.2918      1.00000
      4       4.5264      1.00000
      5       4.6130      1.00000
      6       4.8739      1.00058
      7       6.5018     -0.00000
      8       6.7465     -0.00000
      9       7.3719     -0.00000
     10       7.5880     -0.00000
     11       7.7952     -0.00000
     12       8.8152     -0.00000
     13      15.1491      0.00000
     14      17.2793      0.00000
     15      22.7478      0.00000
     16      23.5368      0.00000
     17      24.4709      0.00000
     18      25.6390      0.00000
     19      30.8921      0.00000
     20      32.2295      0.00000

 k-point    10 :       0.4286    0.4286    0.0000
  band No.  band energies     occupation 
      1       1.9029      1.00000
      2       2.1890      1.00000
      3       4.0050      1.00000
      4       4.0839      1.00000
      5       5.5412      0.04473
      6       5.6671     -0.03432
      7       6.8728     -0.00000
      8       7.0073     -0.00000
      9       7.4009     -0.00000
     10       7.8592     -0.00000
     11       8.0195     -0.00000
     12       8.1547     -0.00000
     13      13.9420      0.00000
     14      14.8882      0.00000
     15      23.5623      0.00000
     16      23.9062      0.00000
     17      24.4925      0.00000
     18      26.1616      0.00000
     19      29.0234      0.00000
     20      30.4634      0.00000

 k-point    11 :       0.1429    0.1429    0.1429
  band No.  band energies     occupation 
      1      -1.3746      1.00000
      2       3.1658      1.00000
      3       3.1659      1.00000
      4       4.8574      1.00039
      5       4.8575      1.00039
      6       5.9592     -0.00031
      7       5.9752     -0.00020
      8       7.0716     -0.00000
      9       7.0717     -0.00000
     10       7.4160     -0.00000
     11       7.4161     -0.00000
     12      14.4112      0.00000
     13      14.4112      0.00000
     14      15.5931      0.00000
     15      24.6817      0.00000
     16      24.6817      0.00000
     17      26.0240      0.00000
     18      26.0240      0.00000
     19      29.8587      0.00000
     20      29.9914      0.00000

 k-point    12 :       0.2857    0.1429    0.1429
  band No.  band energies     occupation 
      1      -0.2857      1.00000
      2       3.2991      1.00000
      3       3.5766      1.00000
      4       4.6515      1.00000
      5       4.6941      1.00000
      6       5.2185      1.01578
      7       6.5459     -0.00000
      8       6.7244     -0.00000
      9       6.7251     -0.00000
     10       7.3382     -0.00000
     11       7.5054     -0.00000
     12      11.3979      0.00000
     13      16.1114      0.00000
     14      16.7393      0.00000
     15      23.0628      0.00000
     16      24.1112      0.00000
[...]

 k-point    14 :       0.2857    0.2857    0.1429
  band No.  band energies     occupation 
      1       0.8990      1.00000
      2       3.4847      1.00000
      3       4.2016      1.00000
      4       4.5357      1.00000
      5       4.7525      1.00000
      6       4.8277      1.00000
      7       6.9930     -0.00000
      8       7.2994     -0.00000
      9       7.6279     -0.00000
     10       7.6455     -0.00000
     11       7.9589     -0.00000
     12      12.1237      0.00000
     13      14.8160      0.00000
     14      18.3016      0.00000
     15      20.9999      0.00000
     16      24.3460      0.00000
     17      26.8249      0.00000
     18      27.2546      0.00000
     19      31.0285      0.00000
     20      32.5193      0.00000

 k-point    15 :       0.4286    0.2857    0.1429
  band No.  band energies     occupation 
      1       2.0427      1.00000
      2       2.9259      1.00000
      3       4.3816      1.00000
      4       4.4066      1.00000
      5       4.8171      1.00000
      6       4.8405      1.00000
      7       7.0130     -0.00000
      8       7.1661     -0.00000
      9       7.7742     -0.00000
     10       7.8976     -0.00000
     11       8.5578     -0.00000
     12      10.0767     -0.00000
     13      15.9798      0.00000
     14      18.1899      0.00000
     15      20.0169      0.00000
     16      22.2641      0.00000
     17      26.8112      0.00000
     18      27.4993      0.00000
     19      31.0712      0.00000
     20      31.6649      0.00000

 k-point    16 :       0.4286    0.4286    0.1429
  band No.  band energies     occupation 
      1       2.4026      1.00000
      2       2.6485      1.00000
      3       4.1442      1.00000
      4       4.1998      1.00000
      5       5.3912      1.00631
      6       5.4286      1.01142
      7       7.3278     -0.00000
      8       7.4245     -0.00000
      9       7.7742     -0.00000
     10       7.9000     -0.00000
     11       9.1966     -0.00000
     12       9.9412     -0.00000
     13      14.6492      0.00000
     14      15.6886      0.00000
     15      21.3694      0.00000
     16      22.7951      0.00000
     17      24.6358      0.00000
     18      25.6974      0.00000
     19      31.6552      0.00000
     20      32.2342      0.00000

 k-point    17 :       0.2857    0.2857    0.2857
  band No.  band energies     occupation 
      1       1.8247      1.00000
      2       4.0071      1.00000
      3       4.1550      1.00000
      4       4.1551      1.00000
      5       4.3192      1.00000
      6       4.3193      1.00000
      7       7.4978     -0.00000
      8       7.4979     -0.00000
      9       7.5567     -0.00000
     10       7.5569     -0.00000
     11       8.5723     -0.00000
     12      13.8579      0.00000
     13      13.8579      0.00000
     14      16.2784      0.00000
     15      21.2892      0.00000
     16      21.2892      0.00000
     17      23.3169      0.00000
     18      28.6737      0.00000
     19      31.8894      0.00000
     20      31.8894      0.00000

 k-point    18 :       0.4286    0.2857    0.2857
  band No.  band energies     occupation 
      1       2.7944      1.00000
      2       3.4008      1.00000
      3       4.1018      1.00000
      4       4.1439      1.00000
      5       4.3476      1.00000
      6       4.5477      1.00000
      7       7.3590     -0.00000
      8       7.4374     -0.00000
      9       7.7387     -0.00000
     10       7.7659     -0.00000
     11       9.6619     -0.00000
     12      11.3830      0.00000
     13      16.0132      0.00000
     14      17.1973      0.00000
     15      18.4902      0.00000
     16      19.2612      0.00000
     17      23.5645      0.00000
     18      25.7183      0.00000
     19      33.2951      0.00000
     20      34.9801      0.00000

 k-point    19 :       0.4286    0.4286    0.2857
  band No.  band energies     occupation 
      1       3.2027      1.00000
      2       3.3168      1.00000
      3       3.9940      1.00000
      4       4.0337      1.00000
      5       4.5296      1.00000
      6       4.6817      1.00000
      7       7.5709     -0.00000
      8       7.6132     -0.00000
      9       7.7810     -0.00000
     10       7.7890     -0.00000
     11      10.8355     -0.00000
     12      11.9505      0.00000
     13      14.7351      0.00000
     14      16.1149      0.00000
     15      18.1129      0.00000
     16      19.8706      0.00000
     17      20.9747      0.00000
     18      22.7538      0.00000
     19      35.5908      0.00000
     20      36.5587      0.00000

 k-point    20 :       0.4286    0.4286    0.4286
  band No.  band energies     occupation 
      1       3.7100      1.00000
      2       3.9446      1.00000
      3       3.9447      1.00000
      4       4.0048      1.00000
      5       4.1522      1.00000
      6       4.1523      1.00000
      7       7.7809     -0.00000
      8       7.7811     -0.00000
      9       7.7926     -0.00000
     10       7.7928     -0.00000
     11      12.5672      0.00000
     12      14.3307      0.00000
     13      14.3307      0.00000
     14      16.3812      0.00000
     15      16.9937      0.00000
     16      16.9937      0.00000
     17      18.4023      0.00000
     18      19.8274      0.00000
     19      40.4446      0.00000
     20      40.4446      0.00000


--------------------------------------------------------------------------------------------------------


 soft charge-density along one line, spin component           1
         0         1         2         3         4         5         6         7         8         9
 total charge-density along one line
 
 soft charge-density along one line, spin component           2
         0         1         2         3         4         5         6         7         8         9
 total charge-density along one line
 
 pseudopotential strength for first ion, spin component:           1
 -5.568   0.000  -0.000   0.000  -0.000  -6.099  -0.000  -0.000
  0.000  -5.568   0.000   0.000   0.000  -0.000  -6.099   0.000
 -0.000   0.000  -5.786   0.000   0.000  -0.000   0.000  -6.310
  0.000   0.000   0.000  -5.568  -0.000   0.000   0.000   0.000
 -0.000   0.000   0.000  -0.000  -5.786  -0.000   0.000   0.000
 -6.099  -0.000  -0.000   0.000  -0.000  -6.589  -0.000  -0.000
 -0.000  -6.099   0.000   0.000   0.000  -0.000  -6.589   0.000
 -0.000   0.000  -6.310   0.000   0.000  -0.000   0.000  -6.793
  0.000   0.000   0.000  -6.099  -0.000   0.000   0.000   0.000
 -0.000   0.000   0.000  -0.000  -6.310  -0.000   0.000   0.000
 -0.000  -0.000   0.000  -0.000  -0.000  -0.000  -0.000   0.000
 -0.000  -0.000   0.000  -0.000  -0.000  -0.000  -0.000   0.000
  0.000   0.000  -0.000   0.000  -0.000   0.000   0.000  -0.000
  0.000   0.000   0.000  -0.000   0.000  -0.000   0.000   0.000
  0.000   0.000   0.000   0.000  -0.000   0.000  -0.000   0.000
  0.000   0.000  -0.000   0.000  -0.000   0.000   0.000  -0.000
  0.000   0.000   0.000  -0.000   0.000   0.000   0.000   0.000
  0.000   0.000   0.000   0.000  -0.000   0.000   0.000   0.000
 pseudopotential strength for first ion, spin component:           2
 -4.148   0.000   0.000  -0.000   0.000  -4.723   0.000   0.000
  0.000  -4.148  -0.000  -0.000  -0.000   0.000  -4.723  -0.000
  0.000  -0.000  -3.885  -0.000  -0.000   0.000  -0.000  -4.469
 -0.000  -0.000  -0.000  -4.148   0.000  -0.000  -0.000  -0.000
  0.000  -0.000  -0.000   0.000  -3.885   0.000  -0.000  -0.000
 -4.723   0.000   0.000  -0.000   0.000  -5.255   0.000   0.000
  0.000  -4.723  -0.000  -0.000  -0.000   0.000  -5.255  -0.000
  0.000  -0.000  -4.469  -0.000  -0.000   0.000  -0.000  -5.010
 -0.000  -0.000  -0.000  -4.723   0.000  -0.000  -0.000  -0.000
  0.000  -0.000  -0.000   0.000  -4.469   0.000  -0.000  -0.000
  0.000  -0.000  -0.000  -0.000   0.000   0.000  -0.000  -0.000
  0.000  -0.000  -0.000  -0.000   0.000   0.000  -0.000  -0.000
  0.000   0.000  -0.000   0.000  -0.000   0.000   0.000  -0.000
  0.000   0.000   0.000  -0.000  -0.000   0.000   0.000   0.000
  0.000   0.000  -0.000   0.000  -0.000   0.000   0.000  -0.000
  0.000   0.000  -0.000   0.000  -0.000   0.000   0.000  -0.000
  0.000   0.000   0.000  -0.000  -0.000   0.000   0.000   0.000
  0.000   0.000  -0.000   0.000  -0.000   0.000   0.000  -0.000
 total augmentation occupancy for first ion, spin component:           1
  2.194   0.000  -0.000   0.000  -0.000  -1.211  -0.000   0.000  -0.000   0.000   0.000   0.000  -0.000   0.000   0.000   0.000
  0.000   2.194   0.000   0.000  -0.000  -0.000  -1.211   0.000  -0.000   0.000  -0.000  -0.000  -0.000   0.000   0.000  -0.000
 -0.000   0.000   3.752   0.000   0.000   0.000   0.000  -2.446   0.000  -0.000  -0.000   0.000  -0.000  -0.000   0.000   0.000
  0.000   0.000   0.000   2.194   0.000  -0.000  -0.000  -0.000  -1.211  -0.000   0.000   0.000   0.000   0.000   0.000   0.000
 -0.000  -0.000   0.000   0.000   3.752   0.000   0.000   0.000  -0.000  -2.446  -0.000  -0.000  -0.000   0.000  -0.000   0.000
 -1.211  -0.000   0.000  -0.000   0.000   1.617   0.000  -0.000   0.000  -0.000  -0.000  -0.000   0.000   0.000   0.000   0.000
 -0.000  -1.211  -0.000  -0.000   0.000   0.000   1.617   0.000   0.000  -0.000  -0.000  -0.000   0.000   0.000   0.000   0.000
  0.000   0.000  -2.446  -0.000   0.000  -0.000   0.000   2.410   0.000   0.000   0.000  -0.000   0.000   0.000  -0.000   0.000
 -0.000  -0.000   0.000  -1.211  -0.000   0.000   0.000   0.000   1.617   0.000  -0.000  -0.000   0.000   0.000   0.000   0.000
  0.000   0.000   0.000  -0.000  -2.446  -0.000  -0.000   0.000   0.000   2.410   0.000   0.000  -0.000   0.000  -0.000  -0.000
 -0.000  -0.000  -0.000  -0.000  -0.000  -0.000   0.000   0.000  -0.000   0.000   2.435  -0.282  -0.000  -0.000   0.000   0.000
  0.000  -0.000   0.000   0.000  -0.000   0.000  -0.000  -0.000  -0.000   0.000  -0.282   0.039   0.000  -0.000   0.000   0.000
  0.000   0.000   0.000   0.000   0.000   0.000   0.000   0.000   0.000   0.000  -0.000  -0.000   0.297   0.000   0.000  -0.026
  0.000  -0.000   0.000   0.000  -0.000   0.000   0.000   0.000   0.000   0.000   0.000  -0.000   0.000   0.297   0.000  -0.000
 -0.000   0.000   0.000  -0.000   0.000   0.000   0.000   0.000   0.000  -0.000   0.000   0.000   0.000   0.000   0.297  -0.000
 -0.000  -0.000  -0.000   0.000   0.000   0.000  -0.000  -0.000   0.000  -0.000   0.000   0.000  -0.026  -0.000  -0.000   0.002
  0.000   0.000  -0.000  -0.000   0.000   0.000  -0.000  -0.000   0.000   0.000  -0.000   0.000  -0.000  -0.026  -0.000   0.000
  0.000   0.000   0.000  -0.000   0.000   0.000   0.000   0.000   0.000  -0.000   0.000   0.000  -0.000  -0.000  -0.026   0.000
 total augmentation occupancy for first ion, spin component:           2
  1.816   0.000  -0.000   0.000  -0.000  -0.754  -0.000   0.000  -0.000   0.000  -0.000  -0.000   0.000   0.000  -0.000  -0.000
  0.000   1.816   0.000   0.000  -0.000  -0.000  -0.754  -0.000  -0.000   0.000  -0.000   0.000   0.000  -0.000   0.000   0.000
 -0.000   0.000   3.189   0.000  -0.000   0.000  -0.000  -1.446   0.000  -0.000  -0.000  -0.000  -0.000  -0.000   0.000   0.000
  0.000   0.000   0.000   1.816   0.000  -0.000  -0.000  -0.000  -0.754  -0.000  -0.000   0.000   0.000  -0.000  -0.000   0.000
 -0.000  -0.000  -0.000   0.000   3.189   0.000   0.000   0.000  -0.000  -1.446   0.000   0.000  -0.000  -0.000   0.000   0.000
 -0.754  -0.000   0.000  -0.000   0.000   0.078  -0.000  -0.000   0.000  -0.000   0.000  -0.000   0.000   0.000  -0.000   0.000
 -0.000  -0.754  -0.000  -0.000   0.000   0.000   0.078  -0.000   0.000  -0.000   0.000   0.000   0.000   0.000   0.000   0.000
  0.000  -0.000  -1.446  -0.000   0.000  -0.000  -0.000   0.425  -0.000   0.000   0.000   0.000  -0.000   0.000  -0.000  -0.000
 -0.000  -0.000   0.000  -0.754  -0.000   0.000   0.000  -0.000   0.078   0.000   0.000   0.000   0.000   0.000   0.000   0.000
  0.000   0.000   0.000  -0.000  -1.446  -0.000  -0.000  -0.000   0.000   0.425   0.000  -0.000   0.000  -0.000   0.000  -0.000
 -0.000  -0.000  -0.000  -0.000   0.000   0.000   0.000   0.000   0.000  -0.000  -0.315   0.098  -0.000   0.000   0.000   0.000
 -0.000   0.000  -0.000   0.000   0.000  -0.000   0.000   0.000   0.000  -0.000   0.098  -0.017   0.000   0.000   0.000  -0.000
  0.000   0.000  -0.000   0.000  -0.000   0.000   0.000   0.000   0.000   0.000  -0.000   0.000  -0.030  -0.000  -0.000   0.006
  0.000  -0.000  -0.000  -0.000   0.000   0.000   0.000  -0.000   0.000  -0.000   0.000   0.000  -0.000  -0.030  -0.000   0.000
  0.000   0.000  -0.000   0.000   0.000   0.000   0.000  -0.000   0.000  -0.000   0.000   0.000  -0.000  -0.000  -0.030   0.000
 -0.000   0.000   0.000   0.000   0.000   0.000  -0.000  -0.000   0.000  -0.000   0.000   0.000   0.006   0.000   0.000  -0.001
  0.000  -0.000   0.000  -0.000  -0.000   0.000  -0.000   0.000   0.000   0.000   0.000   0.000   0.000   0.006   0.000  -0.000
 -0.000   0.000   0.000   0.000  -0.000  -0.000   0.000  -0.000   0.000   0.000   0.000   0.000   0.000   0.000   0.006  -0.000


------------------------ aborting loop because EDIFF is reached ----------------------------------------





 total charge

# of ion       s       p       d       tot
------------------------------------------
    1        0.491   0.547   6.235   7.273
    2        0.491   0.547   6.235   7.273
--------------------------------------------------
tot          0.983   1.093  12.470  14.546



 magnetization (x)

# of ion       s       p       d       tot
------------------------------------------
    1       -0.010  -0.042   2.239   2.188
    2       -0.010  -0.042   2.239   2.188
--------------------------------------------------
tot         -0.020  -0.083   4.479   4.376
 
    CHARGE:  cpu time    0.0680: real time    0.0693
    FORLOC:  cpu time    0.0000: real time    0.0008
    FORNL :  cpu time    0.2420: real time    0.2418
    STRESS:  cpu time    0.7919: real time    0.7929
    FORCOR:  cpu time    0.0340: real time    0.0338
    FORHAR:  cpu time    0.0030: real time    0.0028
    MIXING:  cpu time    0.0000: real time    0.0010
    OFIELD:  cpu time    0.0010: real time    0.0002

  FORCE on cell =-STRESS in cart. coord.  units (eV):
  Direction    XX          YY          ZZ          XY          YZ          ZX
  --------------------------------------------------------------------------------------
  Alpha Z   122.21284   122.21284   122.21284
  Ewald    -395.29569  -395.29569  -395.29569     0.00000     0.00000     0.00000
  Hartree    63.08976    63.08976    63.08976    -0.00000    -0.00000    -0.00000
  E(xc)     -79.44130   -79.44130   -79.44130     0.00000     0.00000     0.00000
  Local     118.12057   118.12057   118.12057    -0.00000    -0.00000     0.00000
  n-local   -54.46865   -51.67462   -48.81036     2.57453    -0.76451     0.53557
  augment    77.42150    77.42150    77.42150     0.00000     0.00000     0.00000
  Kinetic   148.27027   145.18348   143.17398     3.02046    -0.36729     0.10956
  Fock        0.00000     0.00000     0.00000     0.00000     0.00000     0.00000
  -------------------------------------------------------------------------------------
  Total      -0.00096    -0.00096    -0.00096     0.00000     0.00000    -0.00000
  in kB      -0.06803    -0.06803    -0.06803     0.00000     0.00000    -0.00000
  external pressure =       -0.07 kB  Pullay stress =        0.00 kB


 VOLUME and BASIS-vectors are now :
 -----------------------------------------------------------------------------
  energy-cutoff  :      350.00
  volume of cell :       22.62
      direct lattice vectors                 reciprocal lattice vectors
     2.828151026 -0.000000000  0.000000000     0.353587906 -0.000000000  0.000000000
     0.000000000  2.828151026  0.000000000     0.000000000  0.353587906 -0.000000000
    -0.000000000  0.000000000  2.828151026    -0.000000000 -0.000000000  0.353587906

  length of vectors
     2.828151026  2.828151026  2.828151026     0.353587906  0.353587906  0.353587906


 FORCES acting on ions
    electron-ion (+dipol)            ewald-force                    non-local-force                 convergence-correction
 -----------------------------------------------------------------------------------------------
   -.857E-14 -.144E-13 -.209E-13   -.917E-14 -.493E-16 -.290E-14   0.445E-25 0.519E-25 0.000E+00   -.198E-14 0.243E-13 -.150E-15
   0.146E-12 -.543E-12 0.517E-13   0.776E-14 0.159E-14 0.224E-14   -.838E-25 0.104E-24 0.000E+00   0.152E-13 0.127E-13 0.287E-14
 -----------------------------------------------------------------------------------------------
   0.138E-12 -.557E-12 0.308E-13   -.141E-14 0.154E-14 -.656E-15   -.394E-25 0.156E-24 0.000E+00   0.132E-13 0.370E-13 0.272E-14
 
 
 POSITION                                       TOTAL-FORCE (eV/Angst)
 -----------------------------------------------------------------------------------
      0.00000     -0.00000      0.00000        -0.000000      0.000000      0.000000
      1.41408      1.41408      1.41408         0.000000     -0.000000     -0.000000
 -----------------------------------------------------------------------------------
    total drift:                                0.000000     -0.000000      0.000000


--------------------------------------------------------------------------------------------------------



  FREE ENERGIE OF THE ION-ELECTRON SYSTEM (eV)
  ---------------------------------------------------
  free  energy   TOTEN  =       -16.49797218 eV

  energy  without entropy=      -16.50225741  energy(sigma->0) =      -16.49940059
 
 d Force = 0.0000000E+00[ 0.000E+00, 0.000E+00]  d Energy = 0.2229147E-01-0.223E-01
 d Force = 0.0000000E+00[ 0.000E+00, 0.000E+00]  d Ewald  =-0.1509555E+02 0.151E+02


--------------------------------------------------------------------------------------------------------


    POTLOK:  cpu time    1.5808: real time    1.5878


--------------------------------------------------------------------------------------------------------




--------------------------------------------------------------------------------------------------------


  
 reached required accuracy - stopping structural energy minimisation
 writing wavefunctions
     LOOP+:  cpu time   25.0742: real time   25.4897
    4ORBIT:  cpu time    0.0000: real time    0.0000



 total charge

# of ion       s       p       d       tot
------------------------------------------
    1        0.491   0.547   6.235   7.273
    2        0.491   0.547   6.235   7.273
--------------------------------------------------
tot          0.983   1.093  12.470  14.546



 magnetization (x)

# of ion       s       p       d       tot
------------------------------------------
    1       -0.010  -0.042   2.239   2.188
    2       -0.010  -0.042   2.239   2.188
--------------------------------------------------
tot         -0.020  -0.083   4.479   4.376
 

 total amount of memory used by VASP MPI-rank0    35553. kBytes
=======================================================================

   base      :      30000. kBytes
   nonl-proj :       1071. kBytes
   fftplans  :       1775. kBytes
   grid      :       1353. kBytes
   one-center:         62. kBytes
   wavefun   :       1292. kBytes
 
  
  
 General timing and accounting informations for this job:
 ========================================================
  
                  Total CPU time used (sec):       84.918
                            User time (sec):       83.794
                          System time (sec):        1.124
                         Elapsed time (sec):       89.246
  
                   Maximum memory used (kb):       64948.
                   Average memory used (kb):          N/A
  
                          Minor page faults:        10537
                          Major page faults:            1
                 Voluntary context switches:       100456
