   2   2   0   0
  0.2016476E+02  0.3849278E-09  0.3849279E-09  0.3849278E-09  0.5000000E-15
  1.000000000000000E-004
  CAR 
 unknown system                          
     16.50018765     -7.26423091  301      5.80867476      1.00000000
     -7.264  0.0000E+00  0.0000E+00
     -7.185  0.0000E+00  0.0000E+00
     -7.106  0.0000E+00  0.0000E+00
     -7.027  0.0000E+00  0.0000E+00
     -6.947  0.0000E+00  0.0000E+00
     -6.868  0.0000E+00  0.0000E+00
     -6.789  0.0000E+00  0.0000E+00
     -6.710  0.0000E+00  0.0000E+00
     -6.631  0.0000E+00  0.0000E+00
     -6.551  0.0000E+00  0.0000E+00
     -6.472  0.2053E-19  0.1626E-20
     -6.393  0.2162E-12  0.1713E-13
     -6.314  0.1589E-07  0.1259E-08
     -6.234  0.1288E-04  0.1021E-05
     -6.155  0.3128E-03  0.2580E-04
     -6.076  0.9635E-03  0.1021E-03
     -5.997  0.1384E-02  0.2118E-03
     -5.918  0.1779E-02  0.3526E-03
     -5.838  0.1984E-02  0.5098E-03
     -5.759  0.2335E-02  0.6948E-03
     -5.680  0.2330E-02  0.8793E-03
     -5.601  0.2950E-02  0.1113E-02
     -5.522  0.2664E-02  0.1324E-02
     -5.442  0.3307E-02  0.1586E-02
     -5.363  0.3278E-02  0.1846E-02
     -5.284  0.3397E-02  0.2115E-02
     -5.205  0.3537E-02  0.2395E-02
     -5.125  0.4311E-02  0.2736E-02
     -5.046  0.3532E-02  0.3016E-02
     -4.967  0.4284E-02  0.3356E-02
     -4.888  0.4689E-02  0.3727E-02
     -4.809  0.4327E-02  0.4070E-02
     -4.729  0.4699E-02  0.4442E-02
     -4.650  0.4794E-02  0.4822E-02
     -4.571  0.5506E-02  0.5258E-02
     -4.492  0.5516E-02  0.5695E-02
     -4.413  0.4668E-02  0.6065E-02
     -4.333  0.6336E-02  0.6567E-02
     -4.254  0.6330E-02  0.7068E-02
     -4.175  0.6133E-02  0.7554E-02
     -4.096  0.6737E-02  0.8087E-02
     -4.016  0.6608E-02  0.8611E-02
     -3.937  0.8241E-02  0.9264E-02
     -3.858  0.9633E-02  0.1003E-01
     -3.779  0.8061E-02  0.1067E-01
     -3.700  0.8576E-02  0.1134E-01
     -3.620  0.8370E-02  0.1201E-01
     -3.541  0.8004E-02  0.1264E-01
     -3.462  0.8745E-02  0.1333E-01
     -3.383  0.6577E-02  0.1386E-01
     -3.303  0.7484E-02  0.1445E-01
     -3.224  0.6485E-02  0.1496E-01
     -3.145  0.6375E-02  0.1547E-01
     -3.066  0.7521E-02  0.1606E-01
     -2.987  0.6663E-02  0.1659E-01
     -2.907  0.4716E-02  0.1696E-01
     -2.828  0.3900E-02  0.1727E-01
     -2.749  0.5965E-02  0.1775E-01
     -2.670  0.7048E-02  0.1830E-01
     -2.591  0.4045E-02  0.1862E-01
     -2.511  0.3161E-02  0.1887E-01
     -2.432  0.2279E-02  0.1906E-01
     -2.353  0.3798E-02  0.1936E-01
     -2.274  0.4886E-02  0.1974E-01
     -2.194  0.2085E-02  0.1991E-01
     -2.115  0.1109E-02  0.2000E-01
     -2.036  0.4912E-04  0.2000E-01
     -1.957  0.1908E-04  0.2000E-01
     -1.878  0.1147E-02  0.2009E-01
     -1.798  0.4224E-02  0.2043E-01
     -1.719  0.3522E-02  0.2071E-01
     -1.640  0.1916E-02  0.2086E-01
     -1.561  0.1845E-02  0.2100E-01
     -1.482  0.2341E-02  0.2119E-01
     -1.402  0.6649E-02  0.2172E-01
     -1.323  0.8829E-02  0.2242E-01
     -1.244  0.4154E-02  0.2274E-01
     -1.165  0.7447E-02  0.2333E-01
     -1.085  0.1503E-01  0.2452E-01
     -1.006  0.1620E-01  0.2581E-01
     -0.927  0.1225E-01  0.2678E-01
     -0.848  0.1076E-01  0.2763E-01
     -0.769  0.6943E-02  0.2818E-01
     -0.689  0.8068E-02  0.2882E-01
     -0.610  0.5148E-02  0.2923E-01
     -0.531  0.8067E-02  0.2987E-01
     -0.452  0.6392E-02  0.3037E-01
     -0.373  0.5221E-02  0.3079E-01
     -0.293  0.6966E-02  0.3134E-01
     -0.214  0.4845E-02  0.3172E-01
     -0.135  0.2503E-02  0.3192E-01
     -0.056  0.5750E-02  0.3238E-01
      0.024  0.6125E-02  0.3286E-01
      0.103  0.2688E-02  0.3308E-01
      0.182  0.3690E-02  0.3337E-01
      0.261  0.5878E-02  0.3383E-01
      0.340  0.3162E-02  0.3408E-01
      0.420  0.1767E-02  0.3422E-01
      0.499  0.3199E-02  0.3448E-01
      0.578  0.5610E-02  0.3492E-01
      0.657  0.2522E-02  0.3512E-01
      0.736  0.2213E-02  0.3530E-01
      0.816  0.2124E-02  0.3546E-01
      0.895  0.4737E-02  0.3584E-01
      0.974  0.1811E-02  0.3598E-01
      1.053  0.1596E-02  0.3611E-01
      1.133  0.2221E-02  0.3629E-01
      1.212  0.3808E-02  0.3659E-01
      1.291  0.2621E-02  0.3679E-01
      1.370  0.3257E-02  0.3705E-01
      1.449  0.5627E-02  0.3750E-01
      1.529  0.9948E-02  0.3829E-01
      1.608  0.1220E-01  0.3925E-01
      1.687  0.1082E-01  0.4011E-01
      1.766  0.1299E-01  0.4114E-01
      1.845  0.1071E-01  0.4199E-01
      1.925  0.1038E-01  0.4281E-01
      2.004  0.1097E-01  0.4368E-01
      2.083  0.1090E-01  0.4454E-01
      2.162  0.8666E-02  0.4523E-01
      2.242  0.1083E-01  0.4609E-01
      2.321  0.1275E-01  0.4710E-01
      2.400  0.9097E-02  0.4782E-01
      2.479  0.1190E-01  0.4876E-01
      2.558  0.1164E-01  0.4968E-01
      2.638  0.1053E-01  0.5052E-01
      2.717  0.1509E-01  0.5171E-01
      2.796  0.1202E-01  0.5266E-01
      2.875  0.1511E-01  0.5386E-01
      2.954  0.1642E-01  0.5516E-01
      3.034  0.1456E-01  0.5631E-01
      3.113  0.1451E-01  0.5746E-01
      3.192  0.1586E-01  0.5872E-01
      3.271  0.1423E-01  0.5985E-01
      3.351  0.1383E-01  0.6094E-01
      3.430  0.1357E-01  0.6202E-01
      3.509  0.1545E-01  0.6324E-01
      3.588  0.1349E-01  0.6431E-01
      3.667  0.1138E-01  0.6521E-01
      3.747  0.1498E-01  0.6640E-01
      3.826  0.1315E-01  0.6744E-01
      3.905  0.1189E-01  0.6838E-01
      3.984  0.1237E-01  0.6936E-01
      4.063  0.1359E-01  0.7044E-01
      4.143  0.1146E-01  0.7135E-01
      4.222  0.1129E-01  0.7224E-01
      4.301  0.1282E-01  0.7326E-01
      4.380  0.1206E-01  0.7421E-01
      4.460  0.9000E-02  0.7492E-01
      4.539  0.1024E-01  0.7574E-01
      4.618  0.9143E-02  0.7646E-01
      4.697  0.5510E-02  0.7690E-01
      4.776  0.5932E-02  0.7737E-01
      4.856  0.6301E-02  0.7787E-01
      4.935  0.4466E-02  0.7822E-01
      5.014  0.4520E-02  0.7858E-01
      5.093  0.3821E-02  0.7888E-01
      5.172  0.2897E-02  0.7911E-01
      5.252  0.3561E-02  0.7939E-01
      5.331  0.2354E-02  0.7958E-01
      5.410  0.1926E-02  0.7973E-01
      5.489  0.1807E-02  0.7987E-01
      5.569  0.1112E-02  0.7996E-01
      5.648  0.4524E-03  0.8000E-01
      5.727  0.3042E-04  0.8000E-01
      5.806  0.5244E-07  0.8000E-01
      5.885  0.9483E-12  0.8000E-01
      5.965  0.1369E-18  0.8000E-01
      6.044  0.4115E-14  0.8000E-01
      6.123  0.1743E-08  0.8000E-01
      6.202  0.6973E-05  0.8000E-01
      6.281  0.4109E-03  0.8003E-01
      6.361  0.1057E-02  0.8012E-01
      6.440  0.1511E-02  0.8024E-01
      6.519  0.3532E-02  0.8052E-01
      6.598  0.2817E-02  0.8074E-01
      6.678  0.3111E-02  0.8099E-01
      6.757  0.4463E-02  0.8134E-01
      6.836  0.5492E-02  0.8177E-01
      6.915  0.4693E-02  0.8215E-01
      6.994  0.5307E-02  0.8257E-01
      7.074  0.5290E-02  0.8299E-01
      7.153  0.7138E-02  0.8355E-01
      7.232  0.7566E-02  0.8415E-01
      7.311  0.8874E-02  0.8485E-01
      7.390  0.8671E-02  0.8554E-01
      7.470  0.8146E-02  0.8619E-01
      7.549  0.1109E-01  0.8706E-01
      7.628  0.1169E-01  0.8799E-01
      7.707  0.1358E-01  0.8907E-01
      7.787  0.1319E-01  0.9011E-01
      7.866  0.1633E-01  0.9140E-01
      7.945  0.1776E-01  0.9281E-01
      8.024  0.1347E-01  0.9388E-01
      8.103  0.1621E-01  0.9516E-01
      8.183  0.1536E-01  0.9638E-01
      8.262  0.1380E-01  0.9747E-01
      8.341  0.1199E-01  0.9842E-01
      8.420  0.1162E-01  0.9934E-01
      8.500  0.1091E-01  0.1002E+00
      8.579  0.1110E-01  0.1011E+00
      8.658  0.1023E-01  0.1019E+00
      8.737  0.1224E-01  0.1029E+00
      8.816  0.1114E-01  0.1037E+00
      8.896  0.1849E-01  0.1052E+00
      8.975  0.2326E-01  0.1071E+00
      9.054  0.2210E-01  0.1088E+00
      9.133  0.1901E-01  0.1103E+00
      9.212  0.1655E-01  0.1116E+00
      9.292  0.1647E-01  0.1129E+00
      9.371  0.1622E-01  0.1142E+00
      9.450  0.1606E-01  0.1155E+00
      9.529  0.1900E-01  0.1170E+00
      9.609  0.1278E-01  0.1180E+00
      9.688  0.1203E-01  0.1190E+00
      9.767  0.9450E-02  0.1197E+00
      9.846  0.1334E-01  0.1208E+00
      9.925  0.1374E-01  0.1218E+00
     10.005  0.1501E-01  0.1230E+00
     10.084  0.1110E-01  0.1239E+00
     10.163  0.1164E-01  0.1248E+00
     10.242  0.1125E-01  0.1257E+00
     10.321  0.1357E-01  0.1268E+00
     10.401  0.1543E-01  0.1280E+00
     10.480  0.1586E-01  0.1293E+00
     10.559  0.1183E-01  0.1302E+00
     10.638  0.9731E-02  0.1310E+00
     10.718  0.1089E-01  0.1319E+00
     10.797  0.1300E-01  0.1329E+00
     10.876  0.1131E-01  0.1338E+00
     10.955  0.1383E-01  0.1349E+00
     11.034  0.1228E-01  0.1359E+00
     11.114  0.1015E-01  0.1367E+00
     11.193  0.1206E-01  0.1376E+00
     11.272  0.1259E-01  0.1386E+00
     11.351  0.7851E-02  0.1392E+00
     11.430  0.1074E-01  0.1401E+00
     11.510  0.1341E-01  0.1411E+00
     11.589  0.1137E-01  0.1420E+00
     11.668  0.1052E-01  0.1429E+00
     11.747  0.8482E-02  0.1435E+00
     11.827  0.7717E-02  0.1442E+00
     11.906  0.8175E-02  0.1448E+00
     11.985  0.1133E-01  0.1457E+00
     12.064  0.1190E-01  0.1466E+00
     12.143  0.1071E-01  0.1475E+00
     12.223  0.9486E-02  0.1482E+00
     12.302  0.8102E-02  0.1489E+00
     12.381  0.6280E-02  0.1494E+00
     12.460  0.7246E-02  0.1500E+00
     12.539  0.7565E-02  0.1506E+00
     12.619  0.7628E-02  0.1512E+00
     12.698  0.1101E-01  0.1520E+00
     12.777  0.1018E-01  0.1528E+00
     12.856  0.4369E-02  0.1532E+00
     12.936  0.3627E-02  0.1535E+00
     13.015  0.5676E-02  0.1539E+00
     13.094  0.5261E-02  0.1543E+00
     13.173  0.4924E-02  0.1547E+00
     13.252  0.6951E-02  0.1553E+00
     13.332  0.7323E-02  0.1559E+00
     13.411  0.6302E-02  0.1564E+00
     13.490  0.5704E-02  0.1568E+00
     13.569  0.3741E-02  0.1571E+00
     13.648  0.2151E-02  0.1573E+00
     13.728  0.4066E-02  0.1576E+00
     13.807  0.6005E-02  0.1581E+00
     13.886  0.3958E-02  0.1584E+00
     13.965  0.1779E-02  0.1585E+00
     14.045  0.5061E-03  0.1586E+00
     14.124  0.1814E-02  0.1587E+00
     14.203  0.4455E-03  0.1588E+00
     14.282  0.1542E-02  0.1589E+00
     14.361  0.2775E-02  0.1591E+00
     14.441  0.2997E-02  0.1593E+00
     14.520  0.1162E-02  0.1594E+00
     14.599  0.5767E-03  0.1595E+00
     14.678  0.9367E-04  0.1595E+00
     14.757  0.6198E-03  0.1595E+00
     14.837  0.1088E-02  0.1596E+00
     14.916  0.1495E-02  0.1597E+00
     14.995  0.1470E-02  0.1598E+00
     15.074  0.4361E-03  0.1599E+00
     15.154  0.2802E-04  0.1599E+00
     15.233  0.9571E-04  0.1599E+00
     15.312  0.5517E-03  0.1599E+00
     15.391  0.3671E-03  0.1600E+00
     15.470  0.4325E-03  0.1600E+00
     15.550  0.3205E-04  0.1600E+00
     15.629  0.4639E-07  0.1600E+00
     15.708  0.6466E-12  0.1600E+00
     15.787  0.8212E-19  0.1600E+00
     15.866  0.0000E+00  0.1600E+00
     15.946  0.0000E+00  0.1600E+00
     16.025  0.0000E+00  0.1600E+00
     16.104  0.0000E+00  0.1600E+00
     16.183  0.0000E+00  0.1600E+00
     16.263  0.0000E+00  0.1600E+00
     16.342  0.0000E+00  0.1600E+00
     16.421  0.0000E+00  0.1600E+00
     16.500  0.0000E+00  0.1600E+00
