    2    2  100    1
  0.2016476E+02  0.3849278E-09  0.3849279E-09  0.3849278E-09  0.5000000E-15
  1.000000000000000E-004
  CAR 
 unknown system                          
      8    408      8
 
  0.3125000E-01  0.3125000E-01  0.3125000E-01  0.4882812E-03
    1       -6.184030   1.000000
    2        5.473462   1.000000
    3        5.601973   1.000000
    4        5.601976   1.000000
    5        8.212480   0.000000
    6        8.212909   0.000000
    7        8.212916   0.000000
    8        8.860991   0.000000
 
  0.9375000E-01  0.3125000E-01  0.3125000E-01  0.1464844E-02
    1       -6.116926   1.000000
    2        4.895830   1.000000
    3        5.354779   1.000000
    4        5.572546   1.000000
    5        8.271214   0.000000
    6        8.279966   0.000000
    7        8.410110   0.000000
    8        9.382310   0.000000
 
  0.1562500E+00  0.3125000E-01  0.3125000E-01  0.1464844E-02
    1       -5.950319   1.000000
    2        3.828258   1.000000
    3        5.095995   1.000000
    4        5.404407   1.000000
    5        8.112116   0.000000
    6        8.539511   0.000000
    7        8.759959   0.000000
    8       10.378266   0.000000
 
  0.2187500E+00  0.3125000E-01  0.3125000E-01  0.1464844E-02
    1       -5.687580   1.000000
    2        2.675858   1.000000
    3        4.845110   1.000000
    4        5.175608   1.000000
    5        7.873736   0.000000
    6        8.841074   0.000000
    7        9.085842   0.000000
    8       11.424868   0.000000
 
  0.2812500E+00  0.3125000E-01  0.3125000E-01  0.1464844E-02
    1       -5.335963   1.000000
    2        1.554121   1.000000
    3        4.631832   1.000000
    4        4.944903   1.000000
    5        7.638541   0.000000
    6        9.034211   0.000000
    7        9.244828   0.000000
    8       12.336605   0.000000
 
  0.3437500E+00  0.3125000E-01  0.3125000E-01  0.1464844E-02
    1       -4.910759   1.000000
    2        0.516888   1.000000
    3        4.471362   1.000000
    4        4.742769   1.000000
    5        7.440970   0.000000
    6        9.075579   0.000000
    7        9.223025   0.000000
    8       13.071017   0.000000
 
  0.4062500E+00  0.3125000E-01  0.3125000E-01  0.1464844E-02
    1       -4.448371   1.000000
    2       -0.381930   1.000000
    3        4.369604   1.000000
    4        4.583369   1.000000
    5        7.296764   0.000000
    6        9.038775   0.000000
    7        9.114688   0.000000
    8       13.424152   0.000000
 
  0.4687500E+00  0.3125000E-01  0.3125000E-01  0.1464844E-02
    1       -4.045038   1.000000
    2       -1.037258   1.000000
    3        4.327814   1.000000
    4        4.473769   1.000000
    5        7.213171   0.000000
    6        9.007604   0.000000
    7        9.008886   0.000000
    8       13.401056   0.000000
 
 -0.4687500E+00  0.3125000E-01  0.3125000E-01  0.1464844E-02
    1       -3.910955   1.000000
    2       -1.234632   1.000000
    3        4.344883   1.000000
    4        4.418021   1.000000
    5        7.192560   0.000000
    6        8.951604   0.000000
    7        9.025623   0.000000
    8       13.376675   0.000000
 
 -0.4062500E+00  0.3125000E-01  0.3125000E-01  0.1464844E-02
    1       -4.162222   1.000000
    2       -0.856969   1.000000
    3        4.418596   1.000000
    4        4.418937   1.000000
    5        7.235648   0.000000
    6        8.954436   0.000000
    7        9.101320   0.000000
    8       13.400525   0.000000
 
 -0.3437500E+00  0.3125000E-01  0.3125000E-01  0.1464844E-02
    1       -4.602586   1.000000
    2       -0.102521   1.000000
    3        4.478470   1.000000
    4        4.545935   1.000000
    5        7.341124   0.000000
    6        8.998017   0.000000
    7        9.212918   0.000000
    8       13.212502   0.000000
 
 -0.2812500E+00  0.3125000E-01  0.3125000E-01  0.1464844E-02
    1       -5.059036   1.000000
    2        0.850228   1.000000
    3        4.597002   1.000000
    4        4.722340   1.000000
    5        7.504791   0.000000
    6        9.023661   0.000000
    7        9.301533   0.000000
    8       12.561612   0.000000
 
 -0.2187500E+00  0.3125000E-01  0.3125000E-01  0.1464844E-02
    1       -5.462307   1.000000
    2        1.920951   1.000000
    3        4.771801   1.000000
    4        4.939303   1.000000
    5        7.716911   0.000000
    6        8.937798   0.000000
    7        9.271920   0.000000
    8       11.928331   0.000000
 
 -0.1562500E+00  0.3125000E-01  0.3125000E-01  0.1464844E-02
    1       -5.785471   1.000000
    2        3.060865   1.000000
    3        4.993842   1.000000
    4        5.178498   1.000000
    5        7.954833   0.000000
    6        8.694968   0.000000
    7        9.057256   0.000000
    8       11.062545   0.000000
 
 -0.9375000E-01  0.3125000E-01  0.3125000E-01  0.1464844E-02
    1       -6.016731   1.000000
    2        4.208091   1.000000
    3        5.241641   1.000000
    4        5.400624   1.000000
    5        8.156170   0.000000
    6        8.409947   0.000000
    7        8.714887   0.000000
    8       10.010436   0.000000
 
 -0.3125000E-01  0.3125000E-01  0.3125000E-01  0.1464844E-02
    1       -6.150441   1.000000
    2        5.207887   1.000000
    3        5.469722   1.000000
    4        5.533011   1.000000
    5        8.134036   0.000000
    6        8.339957   0.000000
    7        8.386180   0.000000
    8        9.101487   0.000000
 
  0.9375000E-01  0.9375000E-01  0.3125000E-01  0.1464844E-02
    1       -6.083321   1.000000
    2        4.836347   1.000000
    3        5.247176   1.000000
    4        5.323821   1.000000
    5        7.988046   0.000000
    6        8.604248   0.000000
    7        8.690323   0.000000
    8        9.468012   0.000000
 
  0.1562500E+00  0.9375000E-01  0.3125000E-01  0.2929688E-02
    1       -5.949765   1.000000
    2        4.087984   1.000000
    3        4.861314   1.000000
    4        5.234056   1.000000
    5        7.969885   0.000000
    6        8.744402   0.000000
    7        9.029664   0.000000
    8       10.148217   0.000000
 
  0.2187500E+00  0.9375000E-01  0.3125000E-01  0.2929688E-02
    1       -5.718755   1.000000
    2        3.020512   1.000000
    3        4.564159   1.000000
    4        5.053815   1.000000
    5        8.093786   0.000000
    6        8.699985   0.000000
    7        9.409616   0.000000
    8       10.818912   0.000000
 
  0.2812500E+00  0.9375000E-01  0.3125000E-01  0.2929688E-02
    1       -5.395944   1.000000
    2        1.916342   1.000000
    3        4.326251   1.000000
    4        4.816074   1.000000
    5        8.048732   0.000000
    6        8.813192   0.000000
    7        9.633296   0.000000
    8       11.164443   0.000000
 
  0.3437500E+00  0.9375000E-01  0.3125000E-01  0.2929688E-02
    1       -4.993003   1.000000
    2        0.864803   1.000000
    3        4.144016   1.000000
    4        4.586164   1.000000
    5        7.895057   0.000000
    6        8.907519   0.000000
    7        9.646673   0.000000
    8       11.637803   0.000000
 
  0.4062500E+00  0.9375000E-01  0.3125000E-01  0.2929688E-02
    1       -4.536629   1.000000
    2       -0.077220   1.000000
    3        4.011103   1.000000
    4        4.405241   1.000000
    5        7.752249   0.000000
    6        8.901058   0.000000
    7        9.533751   0.000000
    8       12.375097   0.000000
 
  0.4687500E+00  0.9375000E-01  0.3125000E-01  0.2929688E-02
    1       -4.095733   1.000000
    2       -0.826459   1.000000
    3        3.913630   1.000000
    4        4.303232   1.000000
    5        7.656069   0.000000
    6        8.872275   0.000000
    7        9.398922   0.000000
    8       13.181896   0.000000
 
 -0.4687500E+00  0.9375000E-01  0.3125000E-01  0.2929688E-02
    1       -3.843719   1.000000
    2       -1.202567   1.000000
    3        3.844317   1.000000
    4        4.294453   1.000000
    5        7.617781   0.000000
    6        8.875352   0.000000
    7        9.307741   0.000000
    8       13.580618   0.000000
 
 -0.4062500E+00  0.9375000E-01  0.3125000E-01  0.2929688E-02
    1       -3.978702   1.000000
    2       -1.005062   1.000000
    3        3.813519   1.000000
    4        4.370745   1.000000
    5        7.640282   0.000000
    6        8.918584   0.000000
    7        9.293006   0.000000
    8       13.535867   0.000000
 
 -0.3437500E+00  0.9375000E-01  0.3125000E-01  0.2929688E-02
    1       -4.382965   1.000000
    2       -0.352879   1.000000
    3        3.836151   1.000000
    4        4.515860   1.000000
    5        7.722879   0.000000
    6        8.979040   0.000000
    7        9.357924   0.000000
    8       12.972104   0.000000
 
 -0.2812500E+00  0.9375000E-01  0.3125000E-01  0.2929688E-02
    1       -4.845402   1.000000
    2        0.537248   1.000000
    3        3.922536   1.000000
    4        4.714117   1.000000
    5        7.860853   0.000000
    6        9.009290   0.000000
    7        9.456968   0.000000
    8       12.192791   0.000000
 
 -0.2187500E+00  0.9375000E-01  0.3125000E-01  0.2929688E-02
    1       -5.270214   1.000000
    2        1.557196   1.000000
    3        4.078816   1.000000
    4        4.947677   1.000000
    5        8.042601   0.000000
    6        8.931885   0.000000
    7        9.480442   0.000000
    8       11.591991   0.000000
 
 -0.1562500E+00  0.9375000E-01  0.3125000E-01  0.2929688E-02
    1       -5.621363   1.000000
    2        2.643558   1.000000
    3        4.310201   1.000000
    4        5.188482   1.000000
    5        8.233626   0.000000
    6        8.712299   0.000000
    7        9.296398   0.000000
    8       11.156230   0.000000
 
 -0.9375000E-01  0.9375000E-01  0.3125000E-01  0.2929688E-02
    1       -5.883677   1.000000
    2        3.706919   1.000000
    3        4.635461   1.000000
    4        5.386277   1.000000
    5        8.267112   0.000000
    6        8.569922   0.000000
    7        8.921099   0.000000
    8       10.538065   0.000000
 
 -0.3125000E-01  0.9375000E-01  0.3125000E-01  0.2929688E-02
    1       -6.049977   1.000000
    2        4.510274   1.000000
    3        5.132008   1.000000
    4        5.468328   1.000000
    5        8.152438   0.000000
    6        8.459478   0.000000
    7        8.649980   0.000000
    8        9.776093   0.000000
 
  0.1562500E+00  0.1562500E+00  0.3125000E-01  0.1464844E-02
    1       -5.849231   1.000000
    2        3.916944   1.000000
    3        4.695869   1.000000
    4        4.734742   1.000000
    5        7.577195   0.000000
    6        9.389459   0.000000
    7        9.522011   0.000000
    8       10.044151   0.000000
 
  0.2187500E+00  0.1562500E+00  0.3125000E-01  0.2929688E-02
    1       -5.650490   1.000000
    2        3.176520   1.000000
    3        4.286876   1.000000
    4        4.607967   1.000000
    5        7.536366   0.000000
    6        9.474576   0.000000
    7        9.949786   0.000000
    8       10.217453   0.000000
 
  0.2812500E+00  0.1562500E+00  0.3125000E-01  0.2929688E-02
    1       -5.357870   1.000000
    2        2.200131   1.000000
    3        3.977908   1.000000
    4        4.404292   1.000000
    5        7.718636   0.000000
    6        9.402381   0.000000
    7       10.197201   0.000000
    8       10.279126   0.000000
 
  0.3437500E+00  0.1562500E+00  0.3125000E-01  0.2929688E-02
    1       -4.980274   1.000000
    2        1.193663   1.000000
    3        3.721859   1.000000
    4        4.185820   1.000000
    5        7.846174   0.000000
    6        9.426687   0.000000
    7       10.280431   0.000000
    8       10.401921   0.000000
 
  0.4062500E+00  0.1562500E+00  0.3125000E-01  0.2929688E-02
    1       -4.537356   1.000000
    2        0.248094   1.000000
    3        3.490104   1.000000
    4        4.034041   1.000000
    5        7.849432   0.000000
    6        9.363527   0.000000
    7       10.262585   0.000000
    8       10.913512   0.000000
 
  0.4687500E+00  0.1562500E+00  0.3125000E-01  0.2929688E-02
    1       -4.078046   1.000000
    2       -0.556957   1.000000
    3        3.281903   1.000000
    4        3.978879   1.000000
    5        7.828793   0.000000
    6        9.253191   0.000000
    7       10.111097   0.000000
    8       11.819424   0.000000
 
 -0.4687500E+00  0.1562500E+00  0.3125000E-01  0.2929688E-02
    1       -3.734345   1.000000
    2       -1.075190   1.000000
    3        3.115148   1.000000
    4        4.016218   1.000000
    5        7.849872   0.000000
    6        9.172720   0.000000
    7        9.969453   0.000000
    8       12.873284   0.000000
 
 -0.4062500E+00  0.1562500E+00  0.3125000E-01  0.2929688E-02
    1       -3.737433   1.000000
    2       -1.069637   1.000000
    3        3.007848   1.000000
    4        4.133851   1.000000
    5        7.931709   0.000000
    6        9.144677   0.000000
    7        9.877244   0.000000
    8       13.731859   0.000000
 
 -0.3437500E+00  0.1562500E+00  0.3125000E-01  0.2929688E-02
    1       -4.084201   1.000000
    2       -0.544281   1.000000
    3        2.973672   1.000000
    4        4.318703   1.000000
    5        8.070706   0.000000
    6        9.164977   0.000000
    7        9.841064   0.000000
    8       12.833575   0.000000
 
 -0.2812500E+00  0.1562500E+00  0.3125000E-01  0.2929688E-02
    1       -4.543525   1.000000
    2        0.260989   1.000000
    3        3.025424   1.000000
    4        4.555092   1.000000
    5        8.252034   0.000000
    6        9.190020   0.000000
    7        9.837921   0.000000
    8       11.936146   0.000000
 
 -0.2187500E+00  0.1562500E+00  0.3125000E-01  0.2929688E-02
    1       -4.985484   1.000000
    2        1.191643   1.000000
    3        3.182469   1.000000
    4        4.819975   1.000000
    5        8.453219   0.000000
    6        9.105767   0.000000
    7        9.794836   0.000000
    8       11.281830   0.000000
 
 -0.1562500E+00  0.1562500E+00  0.3125000E-01  0.2929688E-02
    1       -5.361895   1.000000
    2        2.131097   1.000000
    3        3.494549   1.000000
    4        5.075310   1.000000
    5        8.631150   0.000000
    6        8.826578   0.000000
    7        9.560383   0.000000
    8       11.007993   0.000000
 
 -0.9375000E-01  0.1562500E+00  0.3125000E-01  0.2929688E-02
    1       -5.653322   1.000000
    2        2.901676   1.000000
    3        4.071843   1.000000
    4        5.257879   1.000000
    5        8.458355   0.000000
    6        8.675602   0.000000
    7        9.219944   0.000000
    8       10.967897   0.000000
 
 -0.3125000E-01  0.1562500E+00  0.3125000E-01  0.2929688E-02
    1       -5.850908   1.000000
    2        3.427500   1.000000
    3        4.844875   1.000000
    4        5.295376   1.000000
    5        8.148014   0.000000
    6        8.544090   0.000000
    7        9.032415   0.000000
    8       10.727519   0.000000
 
  0.2187500E+00  0.2187500E+00  0.3125000E-01  0.1464844E-02
    1       -5.483877   1.000000
    2        2.880672   1.000000
    3        4.144329   1.000000
    4        4.145950   1.000000
    5        7.129476   0.000000
    6        9.451940   0.000000
    7       10.464064   0.000000
    8       10.504226   0.000000
 
  0.2812500E+00  0.2187500E+00  0.3125000E-01  0.2929688E-02
    1       -5.222091   1.000000
    2        2.199201   1.000000
    3        3.751887   1.000000
    4        3.995189   1.000000
    5        7.112987   0.000000
    6        9.118233   0.000000
    7       10.695473   0.000000
    8       10.979771   0.000000
 
  0.3437500E+00  0.2187500E+00  0.3125000E-01  0.2929688E-02
    1       -4.871945   1.000000
    2        1.358677   1.000000
    3        3.385819   1.000000
    4        3.803388   1.000000
    5        7.318318   0.000000
    6        9.090217   0.000000
    7       10.616358   0.000000
    8       11.215119   0.000000
 
  0.4062500E+00  0.2187500E+00  0.3125000E-01  0.2929688E-02
    1       -4.447881   1.000000
    2        0.491719   1.000000
    3        3.025161   1.000000
    4        3.673017   1.000000
    5        7.449050   0.000000
    6        9.535739   0.000000
    7       10.442190   0.000000
    8       11.199921   0.000000
 
  0.4687500E+00  0.2187500E+00  0.3125000E-01  0.2929688E-02
    1       -3.984601   1.000000
    2       -0.306840   1.000000
    3        2.698556   1.000000
    4        3.634902   1.000000
    5        7.490823   0.000000
    6       10.240364   0.000000
    7       10.390694   0.000000
    8       11.059089   0.000000
 
 -0.4687500E+00  0.2187500E+00  0.3125000E-01  0.2929688E-02
    1       -3.577614   1.000000
    2       -0.910118   1.000000
    3        2.434794   1.000000
    4        3.685677   1.000000
    5        7.552597   0.000000
    6       10.095111   0.000000
    7       10.897483   0.000000
    8       11.440166   0.000000
 
 -0.4062500E+00  0.2187500E+00  0.3125000E-01  0.2929688E-02
    1       -3.449412   1.000000
    2       -1.081906   1.000000
    3        2.252540   1.000000
    4        3.817337   1.000000
    5        7.681602   0.000000
    6        9.976119   0.000000
    7       10.764874   0.000000
    8       12.628814   0.000000
 
 -0.3437500E+00  0.2187500E+00  0.3125000E-01  0.2929688E-02
    1       -3.717332   1.000000
    2       -0.704953   1.000000
    3        2.168591   1.000000
    4        4.019678   1.000000
    5        7.884549   0.000000
    6        9.893445   0.000000
    7       10.669265   0.000000
    8       12.758700   0.000000
 
 -0.2812500E+00  0.2187500E+00  0.3125000E-01  0.2929688E-02
    1       -4.163092   1.000000
    2       -0.017207   1.000000
    3        2.208475   1.000000
    4        4.277392   1.000000
    5        8.145024   0.000000
    6        9.804490   0.000000
    7       10.580034   0.000000
    8       11.800848   0.000000
 
 -0.2187500E+00  0.2187500E+00  0.3125000E-01  0.2929688E-02
    1       -4.616421   1.000000
    2        0.750333   1.000000
    3        2.429643   1.000000
    4        4.565479   1.000000
    5        8.421258   0.000000
    6        9.573151   0.000000
    7       10.401185   0.000000
    8       11.135606   0.000000
 
 -0.1562500E+00  0.2187500E+00  0.3125000E-01  0.2929688E-02
    1       -5.013901   1.000000
    2        1.411211   1.000000
    3        2.938726   1.000000
    4        4.840569   1.000000
    5        8.601513   0.000000
    6        9.151459   0.000000
    7        9.952402   0.000000
    8       11.007032   0.000000
 
 -0.9375000E-01  0.2187500E+00  0.3125000E-01  0.2929688E-02
    1       -5.331261   1.000000
    2        1.892304   1.000000
    3        3.740756   1.000000
    4        5.031802   1.000000
    5        8.366608   0.000000
    6        8.898828   0.000000
    7        9.532189   0.000000
    8       11.225375   0.000000
 
 -0.3125000E-01  0.2187500E+00  0.3125000E-01  0.2929688E-02
    1       -5.557596   1.000000
    2        2.292025   1.000000
    3        4.598110   1.000000
    4        5.062900   1.000000
    5        7.944036   0.000000
    6        8.807215   0.000000
    7        9.318001   0.000000
    8       11.495589   0.000000
 
  0.2812500E+00  0.2812500E+00  0.3125000E-01  0.1464844E-02
    1       -4.990832   1.000000
    2        1.799497   1.000000
    3        3.638665   1.000000
    4        3.667319   1.000000
    5        6.737285   0.000000
    6        8.564535   0.000000
    7       11.515217   0.000000
    8       11.559791   0.000000
 
  0.3437500E+00  0.2812500E+00  0.3125000E-01  0.2929688E-02
    1       -4.669161   1.000000
    2        1.176255   1.000000
    3        3.300216   1.000000
    4        3.495256   1.000000
    5        6.768883   0.000000
    6        8.265602   0.000000
    7       11.708409   0.000000
    8       12.071717   0.000000
 
  0.4062500E+00  0.2812500E+00  0.3125000E-01  0.2929688E-02
    1       -4.267640   1.000000
    2        0.472893   1.000000
    3        2.847240   1.000000
    4        3.365440   1.000000
    5        6.984048   0.000000
    6        8.382846   0.000000
    7       11.617952   0.000000
    8       12.235703   0.000000
 
  0.4687500E+00  0.2812500E+00  0.3125000E-01  0.2929688E-02
    1       -3.810774   1.000000
    2       -0.229789   1.000000
    3        2.381666   1.000000
    4        3.324007   1.000000
    5        7.094979   0.000000
    6        9.021441   0.000000
    7       11.439691   0.000000
    8       12.162791   0.000000
 
 -0.4687500E+00  0.2812500E+00  0.3125000E-01  0.2929688E-02
    1       -3.365610   1.000000
    2       -0.833202   1.000000
    3        1.989568   1.000000
    4        3.370444   1.000000
    5        7.174418   0.000000
    6        9.987409   0.000000
    7       11.258407   0.000000
    8       12.011989   0.000000
 
 -0.4062500E+00  0.2812500E+00  0.3125000E-01  0.2929688E-02
    1       -3.123164   1.000000
    2       -1.129333   1.000000
    3        1.711029   1.000000
    4        3.499538   1.000000
    5        7.313196   0.000000
    6       10.914844   0.000000
    7       11.300634   0.000000
    8       11.875555   0.000000
 
 -0.3437500E+00  0.2812500E+00  0.3125000E-01  0.2929688E-02
    1       -3.300387   1.000000
    2       -0.905012   1.000000
    3        1.576486   1.000000
    4        3.703030   1.000000
    5        7.532549   0.000000
    6       10.866104   0.000000
    7       11.667060   0.000000
    8       12.460177   0.000000
 
 -0.2812500E+00  0.2812500E+00  0.3125000E-01  0.2929688E-02
    1       -3.723701   1.000000
    2       -0.375736   1.000000
    3        1.638408   1.000000
    4        3.967163   1.000000
    5        7.822245   0.000000
    6       10.624454   0.000000
    7       11.464818   0.000000
    8       11.822660   0.000000
 
 -0.2187500E+00  0.2812500E+00  0.3125000E-01  0.2929688E-02
    1       -4.180467   1.000000
    2        0.153475   1.000000
    3        1.988675   1.000000
    4        4.267995   1.000000
    5        8.143222   0.000000
    6       10.066676   0.000000
    7       10.907373   0.000000
    8       11.415850   0.000000
 
 -0.1562500E+00  0.2812500E+00  0.3125000E-01  0.2929688E-02
    1       -4.591872   1.000000
    2        0.552293   1.000000
    3        2.664319   1.000000
    4        4.562494   1.000000
    5        8.375244   0.000000
    6        9.398715   0.000000
    7       10.140791   0.000000
    8       11.471967   0.000000
 
 -0.9375000E-01  0.2812500E+00  0.3125000E-01  0.2929688E-02
    1       -4.929043   1.000000
    2        0.875588   1.000000
    3        3.540470   1.000000
    4        4.778114   1.000000
    5        8.184525   0.000000
    6        9.053643   0.000000
    7        9.611314   0.000000
    8       11.700300   0.000000
 
 -0.3125000E-01  0.2812500E+00  0.3125000E-01  0.2929688E-02
    1       -5.179225   1.000000
    2        1.200774   1.000000
    3        4.403237   1.000000
    4        4.829835   1.000000
    5        7.730145   0.000000
    6        8.965744   0.000000
    7        9.403416   0.000000
    8       12.047937   0.000000
 
  0.3437500E+00  0.3437500E+00  0.3125000E-01  0.1464844E-02
    1       -4.375431   1.000000
    2        0.709996   1.000000
    3        3.241561   1.000000
    4        3.287318   1.000000
    5        6.450772   0.000000
    6        7.742876   0.000000
    7       12.631791   0.000000
    8       12.658840   0.000000
 
  0.4062500E+00  0.3437500E+00  0.3125000E-01  0.2929688E-02
    1       -3.998366   1.000000
    2        0.135598   1.000000
    3        2.954252   1.000000
    4        3.130327   1.000000
    5        6.541563   0.000000
    6        7.547520   0.000000
    7       12.778651   0.000000
    8       13.205824   0.000000
 
  0.4687500E+00  0.3437500E+00  0.3125000E-01  0.2929688E-02
    1       -3.555014   1.000000
    2       -0.454756   1.000000
    3        2.450251   1.000000
    4        3.074063   1.000000
    5        6.745132   0.000000
    6        7.862519   0.000000
    7       12.663895   0.000000
    8       13.326449   0.000000
 
 -0.4687500E+00  0.3437500E+00  0.3125000E-01  0.2929688E-02
    1       -3.091203   1.000000
    2       -0.996903   1.000000
    3        1.935656   1.000000
    4        3.106978   1.000000
    5        6.848211   0.000000
    6        8.694951   0.000000
    7       12.467853   0.000000
    8       13.225827   0.000000
 
 -0.4062500E+00  0.3437500E+00  0.3125000E-01  0.2929688E-02
    1       -2.763641   1.000000
    2       -1.340435   1.000000
    3        1.534805   1.000000
    4        3.224157   1.000000
    5        6.984334   0.000000
    6        9.788889   0.000000
    7       12.256335   0.000000
    8       13.050833   0.000000
 
 -0.3437500E+00  0.3437500E+00  0.3125000E-01  0.2929688E-02
    1       -2.870747   1.000000
    2       -1.217219   1.000000
    3        1.329002   1.000000
    4        3.419002   1.000000
    5        7.202489   0.000000
    6       10.998477   0.000000
    7       12.000019   0.000000
    8       12.748937   0.000000
 
 -0.2812500E+00  0.3437500E+00  0.3125000E-01  0.2929688E-02
    1       -3.273681   1.000000
    2       -0.833955   1.000000
    3        1.406812   1.000000
    4        3.679759   1.000000
    5        7.499982   0.000000
    6       11.226018   0.000000
    7       12.006907   0.000000
    8       12.271836   0.000000
 
 -0.2187500E+00  0.3437500E+00  0.3125000E-01  0.2929688E-02
    1       -3.720531   1.000000
    2       -0.507514   1.000000
    3        1.836884   1.000000
    4        3.984921   1.000000
    5        7.844931   0.000000
    6       10.301893   0.000000
    7       11.098142   0.000000
    8       12.238758   0.000000
 
 -0.1562500E+00  0.3437500E+00  0.3125000E-01  0.2929688E-02
    1       -4.129896   1.000000
    2       -0.272531   1.000000
    3        2.560671   1.000000
    4        4.295061   1.000000
    5        8.133634   0.000000
    6        9.465285   0.000000
    7       10.199981   0.000000
    8       12.297636   0.000000
 
 -0.9375000E-01  0.3437500E+00  0.3125000E-01  0.2929688E-02
    1       -4.473010   1.000000
    2       -0.051720   1.000000
    3        3.432592   1.000000
    4        4.540674   1.000000
    5        8.022755   0.000000
    6        9.048688   0.000000
    7        9.568081   0.000000
    8       12.455103   0.000000
 
 -0.3125000E-01  0.3437500E+00  0.3125000E-01  0.2929688E-02
    1       -4.735915   1.000000
    2        0.206596   1.000000
    3        4.266587   1.000000
    4        4.628253   1.000000
    5        7.553994   0.000000
    6        8.985017   0.000000
    7        9.330558   0.000000
    8       12.720216   0.000000
 
  0.4062500E+00  0.4062500E+00  0.3125000E-01  0.1464844E-02
    1       -3.645095   1.000000
    2       -0.361622   1.000000
    3        2.962519   1.000000
    4        3.018708   1.000000
    5        6.299510   0.000000
    6        7.095682   0.000000
    7       13.783049   0.000000
    8       13.789741   0.000000
 
  0.4687500E+00  0.4062500E+00  0.3125000E-01  0.2929688E-02
    1       -3.219172   1.000000
    2       -0.891561   1.000000
    3        2.728244   1.000000
    4        2.900188   1.000000
    5        6.450812   0.000000
    6        7.020817   0.000000
    7       13.880828   0.000000
    8       14.361489   0.000000
 
 -0.4687500E+00  0.4062500E+00  0.3125000E-01  0.2929688E-02
    1       -2.750564   1.000000
    2       -1.390092   1.000000
    3        2.227947   1.000000
    4        2.914261   1.000000
    5        6.611910   0.000000
    6        7.567176   0.000000
    7       13.737132   0.000000
    8       14.429870   0.000000
 
 -0.4062500E+00  0.4062500E+00  0.3125000E-01  0.2929688E-02
    1       -2.383419   1.000000
    2       -1.727832   1.000000
    3        1.741173   1.000000
    4        3.014380   1.000000
    5        6.737998   0.000000
    6        8.557337   0.000000
    7       13.473570   0.000000
    8       14.077130   0.000000
 
 -0.3437500E+00  0.4062500E+00  0.3125000E-01  0.2929688E-02
    1       -2.562212   1.000000
    2       -1.518966   1.000000
    3        1.438606   1.000000
    4        3.194864   1.000000
    5        6.945405   0.000000
    6        9.749456   0.000000
    7       12.705552   0.000000
    8       13.402973   0.000000
 
 -0.2812500E+00  0.4062500E+00  0.3125000E-01  0.2929688E-02
    1       -2.960127   1.000000
    2       -1.188736   1.000000
    3        1.462948   1.000000
    4        3.445917   1.000000
    5        7.239848   0.000000
    6       11.007214   0.000000
    7       11.615772   0.000000
    8       12.371278   0.000000
 
 -0.2187500E+00  0.4062500E+00  0.3125000E-01  0.2929688E-02
    1       -3.357492   1.000000
    2       -1.003605   1.000000
    3        1.874094   1.000000
    4        3.749143   1.000000
    5        7.595058   0.000000
    6       10.423525   0.000000
    7       11.218279   0.000000
    8       12.541018   0.000000
 
 -0.1562500E+00  0.4062500E+00  0.3125000E-01  0.2929688E-02
    1       -3.720237   1.000000
    2       -0.905554   1.000000
    3        2.572269   1.000000
    4        4.069989   1.000000
    5        7.925664   0.000000
    6        9.490412   0.000000
    7       10.252013   0.000000
    8       13.309425   0.000000
 
 -0.9375000E-01  0.4062500E+00  0.3125000E-01  0.2929688E-02
    1       -4.031319   1.000000
    2       -0.795810   1.000000
    3        3.403708   1.000000
    4        4.345162   1.000000
    5        7.903553   0.000000
    6        8.979909   0.000000
    7        9.533973   0.000000
    8       13.324848   0.000000
 
 -0.3125000E-01  0.4062500E+00  0.3125000E-01  0.2929688E-02
    1       -4.277458   1.000000
    2       -0.625272   1.000000
    3        4.186653   1.000000
    4        4.476914   1.000000
    5        7.431353   0.000000
    6        8.949588   0.000000
    7        9.209232   0.000000
    8       13.333533   0.000000
 