 vasp.6.2.0 18Jan21 (build Aug 12 2022 13:00:08) complex                        
  
 executed on             LinuxIFC date 2024.11.03  21:59:02
 running on    4 total cores
 distrk:  each k-point on    4 cores,    1 groups
 distr:  one band on NCORE=   1 cores,    4 groups


--------------------------------------------------------------------------------------------------------


 INCAR:
   ISTART = 0            (Read existing wavefunction, if there)
   ISPIN = 1            (Non-Spin polarised DFT)
   LREAL = .FALSE.       (Projection operators: automatic)
   LWAVE = .FALSE.        (Write WAVECAR or not)
   LCHARG = .FALSE.        (Write CHGCAR or not)
   ADDGRID = .TRUE.        (Increase grid, helps GGA convergence)
   LASPH = .TRUE.        (Give more accurate total energies and band structure calculations)
   PREC = Accurate      (Accurate strictly avoids any aliasing or wrap around errors)
   ENCUT = 350          (Cut-off energy for plane wave basis set, in eV)
   ISMEAR = 0            (Gaussian smearing, metals:1)
   SIGMA = 0.05         (Smearing value in eV, metals:0.2)
   NELM = 90           (Max electronic SCF steps)
   NELMIN = 6            (Min electronic SCF steps)
   EDIFF = 1E-06        (SCF energy convergence, in eV)
   NSW = 100          (Max ionic steps)
   IBRION = 2            (Algorithm: 0-MD, 1-Quasi-New, 2-CG)
   ISIF = 3            (Stress/relaxation: 2-Ions, 3-Shape/Ions/V, 4-Shape/Ions)
   EDIFFG = -2E-03        (Ionic convergence, eV/AA)
   ISYM = 2              (Symmetry: 0\=none, 2\=GGA, 3\=hybrids)

 POTCAR:    PAW_PBE Si 05Jan2001                  
 POTCAR:    PAW_PBE Si 05Jan2001                  
   VRHFIN =Si: s2p2                                                                                 
   LEXCH  = PE                                                                                      
   EATOM  =   103.0669 eV,    7.5752 Ry                                                             
                                                                                                    
   TITEL  = PAW_PBE Si 05Jan2001                                                                    
   LULTRA =        F    use ultrasoft PP ?                                                          
   IUNSCR =        1    unscreen: 0-lin 1-nonlin 2-no                                               
   RPACOR =    1.500    partial core radius                                                         
   POMASS =   28.085; ZVAL   =    4.000    mass and valenz                                          
   RCORE  =    1.900    outmost cutoff radius                                                       
   RWIGS  =    2.480; RWIGS  =    1.312    wigner-seitz radius (au A)                               
   ENMAX  =  245.345; ENMIN  =  184.009 eV                                                          
   ICORE  =        2    local potential                                                             
   LCOR   =        T    correct aug charges                                                         
   LPAW   =        T    paw PP                                                                      
   EAUG   =  322.069                                                                                
   DEXC   =    0.000                                                                                
   RMAX   =    1.950    core radius for proj-oper                                                   
   RAUG   =    1.300    factor for augmentation sphere                                              
   RDEP   =    1.993    radius for radial grids                                                     
   RDEPT  =    1.837    core radius for aug-charge                                                  
                                                                                                    
   Atomic configuration                                                                             
    6 entries                                                                                       
     n  l   j            E        occ.                                                              
     1  0  0.50     -1785.8828   2.0000                                                             
     2  0  0.50      -139.4969   2.0000                                                             
     2  1  1.50       -95.5546   6.0000                                                             
     3  0  0.50       -10.8127   2.0000                                                             
     3  1  0.50        -4.0811   2.0000                                                             
     3  2  1.50        -4.0817   0.0000                                                             
   Description                                                                                      
     l       E           TYP  RCUT    TYP  RCUT                                                     
     0    -10.8127223     23  1.900                                                                 
     0     -7.6451159     23  1.900                                                                 
     1     -4.0811372     23  1.900                                                                 
     1      2.4879257     23  1.900                                                                 
     2     -4.0817478      7  1.900                                                                 
  local pseudopotential read in
  partial core-charges read in
  partial kinetic energy density read in
  atomic valenz-charges read in
  non local Contribution for L=           0  read in
    real space projection operators read in
  non local Contribution for L=           0  read in
    real space projection operators read in
  non local Contribution for L=           1  read in
    real space projection operators read in
  non local Contribution for L=           1  read in
    real space projection operators read in
    PAW grid and wavefunctions read in
 
   number of l-projection  operators is LMAX  =           4
   number of lm-projection operators is LMMAX =           8
 
  PAW_PBE Si 05Jan2001                  :
 energy of atom  1       EATOM= -103.0669
 kinetic energy error for atom=    0.0013 (will be added to EATOM!!)
 
 
 POSCAR: Si2
  positions in direct lattice
  No initial velocities read in
 exchange correlation table for  LEXCH =        8
   RHO(1)=    0.500       N(1)  =     2000
   RHO(2)=  100.500       N(2)  =     4000
 


--------------------------------------------------------------------------------------------------------


 ion  position               nearest neighbor table
   1  0.875  0.875  0.875-   2 2.36   2 2.36   2 2.36   2 2.36
   2  0.125  0.125  0.125-   1 2.36   1 2.36   1 2.36   1 2.36
 
  LATTYP: Found a face centered cubic cell.
 ALAT       =     5.4437031493
  
  Lattice vectors:
  
 A1 = (   3.3335730000,   0.0000000000,   1.9246390000)
 A2 = (   1.1111910000,   3.1429240000,   1.9246390000)
 A3 = (   0.0000000000,   0.0000000000,   3.8492780000)


Analysis of symmetry for initial positions (statically):
=====================================================================
 Subroutine PRICEL returns:
 Original cell was already a primitive cell.
 

 Routine SETGRP: Setting up the symmetry group for a 
 face centered cubic supercell.


 Subroutine GETGRP returns: Found 48 space group operations
 (whereof 12 operations were pure point group operations)
 out of a pool of 48 trial point group operations.


The static configuration has the point symmetry D_3d.
 The point group associated with its full space group is O_h .


Analysis of symmetry for dynamics (positions and initial velocities):
=====================================================================
 Subroutine PRICEL returns:
 Original cell was already a primitive cell.
 

 Routine SETGRP: Setting up the symmetry group for a 
 face centered cubic supercell.


 Subroutine GETGRP returns: Found 48 space group operations
 (whereof 12 operations were pure point group operations)
 out of a pool of 48 trial point group operations.


The dynamic configuration has the point symmetry D_3d.
 The point group associated with its full space group is O_h .


 Subroutine INISYM returns: Found 48 space group operations
 (whereof 12 operations are pure point group operations),
 and found     1 'primitive' translations


----------------------------------------------------------------------------------------

                                     Primitive cell                                     

  volume of cell :      40.3295

  direct lattice vectors                    reciprocal lattice vectors
     3.333573000  0.000000000  1.924639000     0.299978432 -0.106058350  0.000000000
     1.111191000  3.142924000  1.924639000     0.000000000  0.318175050  0.000000000
     0.000000000  0.000000000  3.849278000    -0.149989216 -0.106058350  0.259788979

  length of vectors
     3.849278403  3.849279412  3.849278000     0.318175161  0.318175050  0.318175190

  position of ions in fractional coordinates (direct lattice)
     0.875000000  0.875000000  0.875000000
     0.125000000  0.125000000  0.125000000

  ion indices of the primitive-cell ions
   primitive index   ion index
                 1           1
                 2           2

----------------------------------------------------------------------------------------

 
 
 KPOINTS: Automatic                               

Automatic generation of k-mesh.
 Grid dimensions read from file:
 generate k-points for:   16   16   16

 Generating k-lattice:

  Cartesian coordinates                     Fractional coordinates (reciprocal lattice)
     0.018748652 -0.006628647  0.000000000     0.062500000  0.000000000  0.000000000
     0.000000000  0.019885941  0.000000000     0.000000000  0.062500000  0.000000000
    -0.009374326 -0.006628647  0.016236811     0.000000000  0.000000000  0.062500000

  Length of vectors
     0.019885948  0.019885941  0.019885949

  Shift w.r.t. Gamma in fractional coordinates (k-lattice)
     0.500000000  0.500000000  0.500000000

 
 Subroutine IBZKPT returns following result:
 ===========================================
 
 Found    408 irreducible k-points:
 
 Following reciprocal coordinates:
            Coordinates               Weight
  0.031250  0.031250  0.031250      8.000000
  0.093750  0.031250  0.031250     24.000000
  0.156250  0.031250  0.031250     24.000000
  0.218750  0.031250  0.031250     24.000000
  0.281250  0.031250  0.031250     24.000000
  0.343750  0.031250  0.031250     24.000000
  0.406250  0.031250  0.031250     24.000000
  0.468750  0.031250  0.031250     24.000000
 -0.468750  0.031250  0.031250     24.000000
 -0.406250  0.031250  0.031250     24.000000
 -0.343750  0.031250  0.031250     24.000000
 -0.281250  0.031250  0.031250     24.000000
 -0.218750  0.031250  0.031250     24.000000
 -0.156250  0.031250  0.031250     24.000000
 -0.093750  0.031250  0.031250     24.000000
 -0.031250  0.031250  0.031250     24.000000
  0.093750  0.093750  0.031250     24.000000
  0.156250  0.093750  0.031250     48.000000
  0.218750  0.093750  0.031250     48.000000
  0.281250  0.093750  0.031250     48.000000
  0.343750  0.093750  0.031250     48.000000
  0.406250  0.093750  0.031250     48.000000
  0.468750  0.093750  0.031250     48.000000
 -0.468750  0.093750  0.031250     48.000000
 -0.406250  0.093750  0.031250     48.000000
 -0.343750  0.093750  0.031250     48.000000
 -0.281250  0.093750  0.031250     48.000000
 -0.218750  0.093750  0.031250     48.000000
 -0.156250  0.093750  0.031250     48.000000
 -0.093750  0.093750  0.031250     48.000000
 -0.031250  0.093750  0.031250     48.000000
  0.156250  0.156250  0.031250     24.000000
  0.218750  0.156250  0.031250     48.000000
  0.281250  0.156250  0.031250     48.000000
  0.343750  0.156250  0.031250     48.000000
  0.406250  0.156250  0.031250     48.000000
  0.468750  0.156250  0.031250     48.000000
 -0.468750  0.156250  0.031250     48.000000
 -0.406250  0.156250  0.031250     48.000000
 -0.343750  0.156250  0.031250     48.000000
 -0.281250  0.156250  0.031250     48.000000
 -0.218750  0.156250  0.031250     48.000000
 -0.156250  0.156250  0.031250     48.000000
 -0.093750  0.156250  0.031250     48.000000
 -0.031250  0.156250  0.031250     48.000000
  0.218750  0.218750  0.031250     24.000000
  0.281250  0.218750  0.031250     48.000000
  0.343750  0.218750  0.031250     48.000000
  0.406250  0.218750  0.031250     48.000000
  0.468750  0.218750  0.031250     48.000000
 -0.468750  0.218750  0.031250     48.000000
 -0.406250  0.218750  0.031250     48.000000
 -0.343750  0.218750  0.031250     48.000000
 -0.281250  0.218750  0.031250     48.000000
 -0.218750  0.218750  0.031250     48.000000
 -0.156250  0.218750  0.031250     48.000000
 -0.093750  0.218750  0.031250     48.000000
 -0.031250  0.218750  0.031250     48.000000
  0.281250  0.281250  0.031250     24.000000
  0.343750  0.281250  0.031250     48.000000
  0.406250  0.281250  0.031250     48.000000
  0.468750  0.281250  0.031250     48.000000
 -0.468750  0.281250  0.031250     48.000000
 -0.406250  0.281250  0.031250     48.000000
 -0.343750  0.281250  0.031250     48.000000
 -0.281250  0.281250  0.031250     48.000000
 -0.218750  0.281250  0.031250     48.000000
 -0.156250  0.281250  0.031250     48.000000
 -0.093750  0.281250  0.031250     48.000000
 -0.031250  0.281250  0.031250     48.000000
  0.343750  0.343750  0.031250     24.000000
  0.406250  0.343750  0.031250     48.000000
  0.468750  0.343750  0.031250     48.000000
 -0.468750  0.343750  0.031250     48.000000
 -0.406250  0.343750  0.031250     48.000000
 -0.343750  0.343750  0.031250     48.000000
 -0.281250  0.343750  0.031250     48.000000
 -0.218750  0.343750  0.031250     48.000000
 -0.156250  0.343750  0.031250     48.000000
 -0.093750  0.343750  0.031250     48.000000
 -0.031250  0.343750  0.031250     48.000000
  0.406250  0.406250  0.031250     24.000000
  0.468750  0.406250  0.031250     48.000000
 -0.468750  0.406250  0.031250     48.000000
 -0.406250  0.406250  0.031250     48.000000
 -0.343750  0.406250  0.031250     48.000000
 -0.281250  0.406250  0.031250     48.000000
 -0.218750  0.406250  0.031250     48.000000
 -0.156250  0.406250  0.031250     48.000000
 -0.093750  0.406250  0.031250     48.000000
 -0.031250  0.406250  0.031250     48.000000
  0.468750  0.468750  0.031250     24.000000
 -0.468750  0.468750  0.031250     48.000000
 -0.406250  0.468750  0.031250     48.000000
 -0.343750  0.468750  0.031250     48.000000
 -0.281250  0.468750  0.031250     48.000000
 -0.218750  0.468750  0.031250     48.000000
 -0.156250  0.468750  0.031250     48.000000
 -0.093750  0.468750  0.031250     48.000000
 -0.031250  0.468750  0.031250     48.000000
 -0.468750 -0.468750  0.031250     24.000000
 -0.406250 -0.468750  0.031250     48.000000
 -0.343750 -0.468750  0.031250     48.000000
 -0.281250 -0.468750  0.031250     48.000000
 -0.218750 -0.468750  0.031250     48.000000
 -0.156250 -0.468750  0.031250     48.000000
 -0.093750 -0.468750  0.031250     48.000000
 -0.406250 -0.406250  0.031250     24.000000
 -0.343750 -0.406250  0.031250     48.000000
 -0.281250 -0.406250  0.031250     48.000000
 -0.218750 -0.406250  0.031250     48.000000
 -0.156250 -0.406250  0.031250     48.000000
 -0.093750 -0.406250  0.031250     48.000000
 -0.343750 -0.343750  0.031250     24.000000
 -0.281250 -0.343750  0.031250     48.000000
 -0.218750 -0.343750  0.031250     48.000000
 -0.156250 -0.343750  0.031250     48.000000
 -0.093750 -0.343750  0.031250     48.000000
 -0.281250 -0.281250  0.031250     24.000000
 -0.218750 -0.281250  0.031250     48.000000
 -0.156250 -0.281250  0.031250     48.000000
 -0.093750 -0.281250  0.031250     48.000000
 -0.218750 -0.218750  0.031250     24.000000
 -0.156250 -0.218750  0.031250     48.000000
 -0.093750 -0.218750  0.031250     48.000000
 -0.156250 -0.156250  0.031250     24.000000
 -0.093750 -0.156250  0.031250     48.000000
 -0.093750 -0.093750  0.031250     24.000000
  0.093750  0.093750  0.093750      8.000000
  0.156250  0.093750  0.093750     24.000000
  0.218750  0.093750  0.093750     24.000000
  0.281250  0.093750  0.093750     24.000000
  0.343750  0.093750  0.093750     24.000000
  0.406250  0.093750  0.093750     24.000000
  0.468750  0.093750  0.093750     24.000000
 -0.468750  0.093750  0.093750     24.000000
 -0.406250  0.093750  0.093750     24.000000
 -0.343750  0.093750  0.093750     24.000000
 -0.281250  0.093750  0.093750     24.000000
 -0.218750  0.093750  0.093750     24.000000
 -0.156250  0.093750  0.093750     24.000000
 -0.093750  0.093750  0.093750     24.000000
  0.156250  0.156250  0.093750     24.000000
  0.218750  0.156250  0.093750     48.000000
  0.281250  0.156250  0.093750     48.000000
  0.343750  0.156250  0.093750     48.000000
  0.406250  0.156250  0.093750     48.000000
  0.468750  0.156250  0.093750     48.000000
 -0.468750  0.156250  0.093750     48.000000
 -0.406250  0.156250  0.093750     48.000000
 -0.343750  0.156250  0.093750     48.000000
 -0.281250  0.156250  0.093750     48.000000
 -0.218750  0.156250  0.093750     48.000000
 -0.156250  0.156250  0.093750     48.000000
 -0.093750  0.156250  0.093750     48.000000
  0.218750  0.218750  0.093750     24.000000
  0.281250  0.218750  0.093750     48.000000
  0.343750  0.218750  0.093750     48.000000
  0.406250  0.218750  0.093750     48.000000
  0.468750  0.218750  0.093750     48.000000
 -0.468750  0.218750  0.093750     48.000000
 -0.406250  0.218750  0.093750     48.000000
 -0.343750  0.218750  0.093750     48.000000
 -0.281250  0.218750  0.093750     48.000000
 -0.218750  0.218750  0.093750     48.000000
 -0.156250  0.218750  0.093750     48.000000
 -0.093750  0.218750  0.093750     48.000000
  0.281250  0.281250  0.093750     24.000000
  0.343750  0.281250  0.093750     48.000000
  0.406250  0.281250  0.093750     48.000000
  0.468750  0.281250  0.093750     48.000000
 -0.468750  0.281250  0.093750     48.000000
 -0.406250  0.281250  0.093750     48.000000
 -0.343750  0.281250  0.093750     48.000000
 -0.281250  0.281250  0.093750     48.000000
 -0.218750  0.281250  0.093750     48.000000
 -0.156250  0.281250  0.093750     48.000000
 -0.093750  0.281250  0.093750     48.000000
  0.343750  0.343750  0.093750     24.000000
  0.406250  0.343750  0.093750     48.000000
  0.468750  0.343750  0.093750     48.000000
 -0.468750  0.343750  0.093750     48.000000
 -0.406250  0.343750  0.093750     48.000000
 -0.343750  0.343750  0.093750     48.000000
 -0.281250  0.343750  0.093750     48.000000
 -0.218750  0.343750  0.093750     48.000000
 -0.156250  0.343750  0.093750     48.000000
 -0.093750  0.343750  0.093750     48.000000
  0.406250  0.406250  0.093750     24.000000
  0.468750  0.406250  0.093750     48.000000
 -0.468750  0.406250  0.093750     48.000000
 -0.406250  0.406250  0.093750     48.000000
 -0.343750  0.406250  0.093750     48.000000
 -0.281250  0.406250  0.093750     48.000000
 -0.218750  0.406250  0.093750     48.000000
 -0.156250  0.406250  0.093750     48.000000
 -0.093750  0.406250  0.093750     48.000000
  0.468750  0.468750  0.093750     24.000000
 -0.468750  0.468750  0.093750     48.000000
 -0.406250  0.468750  0.093750     48.000000
 -0.343750  0.468750  0.093750     48.000000
 -0.281250  0.468750  0.093750     48.000000
 -0.218750  0.468750  0.093750     48.000000
 -0.156250  0.468750  0.093750     48.000000
 -0.093750  0.468750  0.093750     48.000000
 -0.468750 -0.468750  0.093750     24.000000
 -0.406250 -0.468750  0.093750     48.000000
 -0.343750 -0.468750  0.093750     48.000000
 -0.281250 -0.468750  0.093750     48.000000
 -0.218750 -0.468750  0.093750     48.000000
 -0.156250 -0.468750  0.093750     48.000000
 -0.406250 -0.406250  0.093750     24.000000
 -0.343750 -0.406250  0.093750     48.000000
 -0.281250 -0.406250  0.093750     48.000000
 -0.218750 -0.406250  0.093750     48.000000
 -0.156250 -0.406250  0.093750     48.000000
 -0.343750 -0.343750  0.093750     24.000000
 -0.281250 -0.343750  0.093750     48.000000
 -0.218750 -0.343750  0.093750     48.000000
 -0.156250 -0.343750  0.093750     48.000000
 -0.281250 -0.281250  0.093750     24.000000
 -0.218750 -0.281250  0.093750     48.000000
 -0.156250 -0.281250  0.093750     48.000000
 -0.218750 -0.218750  0.093750     24.000000
 -0.156250 -0.218750  0.093750     48.000000
 -0.156250 -0.156250  0.093750     24.000000
  0.156250  0.156250  0.156250      8.000000
  0.218750  0.156250  0.156250     24.000000
  0.281250  0.156250  0.156250     24.000000
  0.343750  0.156250  0.156250     24.000000
  0.406250  0.156250  0.156250     24.000000
  0.468750  0.156250  0.156250     24.000000
 -0.468750  0.156250  0.156250     24.000000
 -0.406250  0.156250  0.156250     24.000000
 -0.343750  0.156250  0.156250     24.000000
 -0.281250  0.156250  0.156250     24.000000
 -0.218750  0.156250  0.156250     24.000000
 -0.156250  0.156250  0.156250     24.000000
  0.218750  0.218750  0.156250     24.000000
  0.281250  0.218750  0.156250     48.000000
  0.343750  0.218750  0.156250     48.000000
  0.406250  0.218750  0.156250     48.000000
  0.468750  0.218750  0.156250     48.000000
 -0.468750  0.218750  0.156250     48.000000
 -0.406250  0.218750  0.156250     48.000000
 -0.343750  0.218750  0.156250     48.000000
 -0.281250  0.218750  0.156250     48.000000
 -0.218750  0.218750  0.156250     48.000000
 -0.156250  0.218750  0.156250     48.000000
  0.281250  0.281250  0.156250     24.000000
  0.343750  0.281250  0.156250     48.000000
  0.406250  0.281250  0.156250     48.000000
  0.468750  0.281250  0.156250     48.000000
 -0.468750  0.281250  0.156250     48.000000
 -0.406250  0.281250  0.156250     48.000000
 -0.343750  0.281250  0.156250     48.000000
 -0.281250  0.281250  0.156250     48.000000
 -0.218750  0.281250  0.156250     48.000000
 -0.156250  0.281250  0.156250     48.000000
  0.343750  0.343750  0.156250     24.000000
  0.406250  0.343750  0.156250     48.000000
  0.468750  0.343750  0.156250     48.000000
 -0.468750  0.343750  0.156250     48.000000
 -0.406250  0.343750  0.156250     48.000000
 -0.343750  0.343750  0.156250     48.000000
 -0.281250  0.343750  0.156250     48.000000
 -0.218750  0.343750  0.156250     48.000000
 -0.156250  0.343750  0.156250     48.000000
  0.406250  0.406250  0.156250     24.000000
  0.468750  0.406250  0.156250     48.000000
 -0.468750  0.406250  0.156250     48.000000
 -0.406250  0.406250  0.156250     48.000000
 -0.343750  0.406250  0.156250     48.000000
 -0.281250  0.406250  0.156250     48.000000
 -0.218750  0.406250  0.156250     48.000000
 -0.156250  0.406250  0.156250     48.000000
  0.468750  0.468750  0.156250     24.000000
 -0.468750  0.468750  0.156250     48.000000
 -0.406250  0.468750  0.156250     48.000000
 -0.343750  0.468750  0.156250     48.000000
 -0.281250  0.468750  0.156250     48.000000
 -0.218750  0.468750  0.156250     48.000000
 -0.156250  0.468750  0.156250     48.000000
 -0.468750 -0.468750  0.156250     24.000000
 -0.406250 -0.468750  0.156250     48.000000
 -0.343750 -0.468750  0.156250     48.000000
 -0.281250 -0.468750  0.156250     48.000000
 -0.218750 -0.468750  0.156250     48.000000
 -0.406250 -0.406250  0.156250     24.000000
 -0.343750 -0.406250  0.156250     48.000000
 -0.281250 -0.406250  0.156250     48.000000
 -0.218750 -0.406250  0.156250     48.000000
 -0.343750 -0.343750  0.156250     24.000000
 -0.281250 -0.343750  0.156250     48.000000
 -0.218750 -0.343750  0.156250     48.000000
 -0.281250 -0.281250  0.156250     24.000000
 -0.218750 -0.281250  0.156250     48.000000
 -0.218750 -0.218750  0.156250     24.000000
  0.218750  0.218750  0.218750      8.000000
  0.281250  0.218750  0.218750     24.000000
  0.343750  0.218750  0.218750     24.000000
  0.406250  0.218750  0.218750     24.000000
  0.468750  0.218750  0.218750     24.000000
 -0.468750  0.218750  0.218750     24.000000
 -0.406250  0.218750  0.218750     24.000000
 -0.343750  0.218750  0.218750     24.000000
 -0.281250  0.218750  0.218750     24.000000
 -0.218750  0.218750  0.218750     24.000000
  0.281250  0.281250  0.218750     24.000000
  0.343750  0.281250  0.218750     48.000000
  0.406250  0.281250  0.218750     48.000000
  0.468750  0.281250  0.218750     48.000000
 -0.468750  0.281250  0.218750     48.000000
 -0.406250  0.281250  0.218750     48.000000
 -0.343750  0.281250  0.218750     48.000000
 -0.281250  0.281250  0.218750     48.000000
 -0.218750  0.281250  0.218750     48.000000
  0.343750  0.343750  0.218750     24.000000
  0.406250  0.343750  0.218750     48.000000
  0.468750  0.343750  0.218750     48.000000
 -0.468750  0.343750  0.218750     48.000000
 -0.406250  0.343750  0.218750     48.000000
 -0.343750  0.343750  0.218750     48.000000
 -0.281250  0.343750  0.218750     48.000000
 -0.218750  0.343750  0.218750     48.000000
  0.406250  0.406250  0.218750     24.000000
  0.468750  0.406250  0.218750     48.000000
 -0.468750  0.406250  0.218750     48.000000
 -0.406250  0.406250  0.218750     48.000000
 -0.343750  0.406250  0.218750     48.000000
 -0.281250  0.406250  0.218750     48.000000
 -0.218750  0.406250  0.218750     48.000000
  0.468750  0.468750  0.218750     24.000000
 -0.468750  0.468750  0.218750     48.000000
 -0.406250  0.468750  0.218750     48.000000
 -0.343750  0.468750  0.218750     48.000000
 -0.281250  0.468750  0.218750     48.000000
 -0.218750  0.468750  0.218750     48.000000
 -0.468750 -0.468750  0.218750     24.000000
 -0.406250 -0.468750  0.218750     48.000000
 -0.343750 -0.468750  0.218750     48.000000
 -0.281250 -0.468750  0.218750     48.000000
 -0.406250 -0.406250  0.218750     24.000000
 -0.343750 -0.406250  0.218750     48.000000
 -0.281250 -0.406250  0.218750     48.000000
 -0.343750 -0.343750  0.218750     24.000000
 -0.281250 -0.343750  0.218750     48.000000
 -0.281250 -0.281250  0.218750     24.000000
  0.281250  0.281250  0.281250      8.000000
  0.343750  0.281250  0.281250     24.000000
  0.406250  0.281250  0.281250     24.000000
  0.468750  0.281250  0.281250     24.000000
 -0.468750  0.281250  0.281250     24.000000
 -0.406250  0.281250  0.281250     24.000000
 -0.343750  0.281250  0.281250     24.000000
 -0.281250  0.281250  0.281250     24.000000
  0.343750  0.343750  0.281250     24.000000
  0.406250  0.343750  0.281250     48.000000
  0.468750  0.343750  0.281250     48.000000
 -0.468750  0.343750  0.281250     48.000000
 -0.406250  0.343750  0.281250     48.000000
 -0.343750  0.343750  0.281250     48.000000
 -0.281250  0.343750  0.281250     48.000000
  0.406250  0.406250  0.281250     24.000000
  0.468750  0.406250  0.281250     48.000000
 -0.468750  0.406250  0.281250     48.000000
 -0.406250  0.406250  0.281250     48.000000
 -0.343750  0.406250  0.281250     48.000000
 -0.281250  0.406250  0.281250     48.000000
  0.468750  0.468750  0.281250     24.000000
 -0.468750  0.468750  0.281250     48.000000
 -0.406250  0.468750  0.281250     48.000000
 -0.343750  0.468750  0.281250     48.000000
 -0.281250  0.468750  0.281250     48.000000
 -0.468750 -0.468750  0.281250     24.000000
 -0.406250 -0.468750  0.281250     48.000000
 -0.343750 -0.468750  0.281250     48.000000
 -0.406250 -0.406250  0.281250     24.000000
 -0.343750 -0.406250  0.281250     48.000000
 -0.343750 -0.343750  0.281250     24.000000
  0.343750  0.343750  0.343750      8.000000
  0.406250  0.343750  0.343750     24.000000
  0.468750  0.343750  0.343750     24.000000
 -0.468750  0.343750  0.343750     24.000000
 -0.406250  0.343750  0.343750     24.000000
 -0.343750  0.343750  0.343750     24.000000
  0.406250  0.406250  0.343750     24.000000
  0.468750  0.406250  0.343750     48.000000
 -0.468750  0.406250  0.343750     48.000000
 -0.406250  0.406250  0.343750     48.000000
 -0.343750  0.406250  0.343750     48.000000
  0.468750  0.468750  0.343750     24.000000
 -0.468750  0.468750  0.343750     48.000000
 -0.406250  0.468750  0.343750     48.000000
 -0.343750  0.468750  0.343750     48.000000
 -0.468750 -0.468750  0.343750     24.000000
 -0.406250 -0.468750  0.343750     48.000000
 -0.406250 -0.406250  0.343750     24.000000
  0.406250  0.406250  0.406250      8.000000
  0.468750  0.406250  0.406250     24.000000
 -0.468750  0.406250  0.406250     24.000000
 -0.406250  0.406250  0.406250     24.000000
  0.468750  0.468750  0.406250     24.000000
 -0.468750  0.468750  0.406250     48.000000
 -0.406250  0.468750  0.406250     48.000000
 -0.468750 -0.468750  0.406250     24.000000
  0.468750  0.468750  0.468750      8.000000
 -0.468750  0.468750  0.468750     24.000000
 
 Following cartesian coordinates:
            Coordinates               Weight
  0.004687  0.003314  0.008118      8.000000
  0.023436 -0.003314  0.008118     24.000000
  0.042184 -0.009943  0.008118     24.000000
  0.060933 -0.016572  0.008118     24.000000
  0.079682 -0.023200  0.008118     24.000000
  0.098430 -0.029829  0.008118     24.000000
  0.117179 -0.036458  0.008118     24.000000
  0.135928 -0.043086  0.008118     24.000000
 -0.145302  0.056343  0.008118     24.000000
 -0.126553  0.049715  0.008118     24.000000
 -0.107805  0.043086  0.008118     24.000000
 -0.089056  0.036458  0.008118     24.000000
 -0.070307  0.029829  0.008118     24.000000
 -0.051559  0.023200  0.008118     24.000000
 -0.032810  0.016572  0.008118     24.000000
 -0.014061  0.009943  0.008118     24.000000
  0.023436  0.016572  0.008118     24.000000
  0.042184  0.009943  0.008118     48.000000
  0.060933  0.003314  0.008118     48.000000
  0.079682 -0.003314  0.008118     48.000000
  0.098430 -0.009943  0.008118     48.000000
  0.117179 -0.016572  0.008118     48.000000
  0.135928 -0.023200  0.008118     48.000000
 -0.145302  0.076229  0.008118     48.000000
 -0.126553  0.069601  0.008118     48.000000
 -0.107805  0.062972  0.008118     48.000000
 -0.089056  0.056343  0.008118     48.000000
 -0.070307  0.049715  0.008118     48.000000
 -0.051559  0.043086  0.008118     48.000000
 -0.032810  0.036458  0.008118     48.000000
 -0.014061  0.029829  0.008118     48.000000
  0.042184  0.029829  0.008118     24.000000
  0.060933  0.023200  0.008118     48.000000
  0.079682  0.016572  0.008118     48.000000
  0.098430  0.009943  0.008118     48.000000
  0.117179  0.003314  0.008118     48.000000
  0.135928 -0.003314  0.008118     48.000000
 -0.145302  0.096115  0.008118     48.000000
 -0.126553  0.089487  0.008118     48.000000
 -0.107805  0.082858  0.008118     48.000000
 -0.089056  0.076229  0.008118     48.000000
 -0.070307  0.069601  0.008118     48.000000
 -0.051559  0.062972  0.008118     48.000000
 -0.032810  0.056343  0.008118     48.000000
 -0.014061  0.049715  0.008118     48.000000
  0.060933  0.043086  0.008118     24.000000
  0.079682  0.036458  0.008118     48.000000
  0.098430  0.029829  0.008118     48.000000
  0.117179  0.023200  0.008118     48.000000
  0.135928  0.016572  0.008118     48.000000
 -0.145302  0.116001  0.008118     48.000000
 -0.126553  0.109373  0.008118     48.000000
 -0.107805  0.102744  0.008118     48.000000
 -0.089056  0.096115  0.008118     48.000000
 -0.070307  0.089487  0.008118     48.000000
 -0.051559  0.082858  0.008118     48.000000
 -0.032810  0.076229  0.008118     48.000000
 -0.014061  0.069601  0.008118     48.000000
  0.079682  0.056343  0.008118     24.000000
  0.098430  0.049715  0.008118     48.000000
  0.117179  0.043086  0.008118     48.000000
  0.135928  0.036458  0.008118     48.000000
 -0.145302  0.135887  0.008118     48.000000
 -0.126553  0.129259  0.008118     48.000000
 -0.107805  0.122630  0.008118     48.000000
 -0.089056  0.116001  0.008118     48.000000
 -0.070307  0.109373  0.008118     48.000000
 -0.051559  0.102744  0.008118     48.000000
 -0.032810  0.096115  0.008118     48.000000
 -0.014061  0.089487  0.008118     48.000000
  0.098430  0.069601  0.008118     24.000000
  0.117179  0.062972  0.008118     48.000000
  0.135928  0.056343  0.008118     48.000000
 -0.145302  0.155773  0.008118     48.000000
 -0.126553  0.149145  0.008118     48.000000
 -0.107805  0.142516  0.008118     48.000000
 -0.089056  0.135887  0.008118     48.000000
 -0.070307  0.129259  0.008118     48.000000
 -0.051559  0.122630  0.008118     48.000000
 -0.032810  0.116001  0.008118     48.000000
 -0.014061  0.109373  0.008118     48.000000
  0.117179  0.082858  0.008118     24.000000
  0.135928  0.076229  0.008118     48.000000
 -0.145302  0.175659  0.008118     48.000000
 -0.126553  0.169030  0.008118     48.000000
 -0.107805  0.162402  0.008118     48.000000
 -0.089056  0.155773  0.008118     48.000000
 -0.070307  0.149145  0.008118     48.000000
 -0.051559  0.142516  0.008118     48.000000
 -0.032810  0.135887  0.008118     48.000000
 -0.014061  0.129259  0.008118     48.000000
  0.135928  0.096115  0.008118     24.000000
 -0.145302  0.195545  0.008118     48.000000
 -0.126553  0.188916  0.008118     48.000000
 -0.107805  0.182288  0.008118     48.000000
 -0.089056  0.175659  0.008118     48.000000
 -0.070307  0.169030  0.008118     48.000000
 -0.051559  0.162402  0.008118     48.000000
 -0.032810  0.155773  0.008118     48.000000
 -0.014061  0.149145  0.008118     48.000000
 -0.145302 -0.102744  0.008118     24.000000
 -0.126553 -0.109373  0.008118     48.000000
 -0.107805 -0.116001  0.008118     48.000000
 -0.089056 -0.122630  0.008118     48.000000
 -0.070307 -0.129259  0.008118     48.000000
 -0.051559 -0.135887  0.008118     48.000000
 -0.032810 -0.142516  0.008118     48.000000
 -0.126553 -0.089487  0.008118     24.000000
 -0.107805 -0.096115  0.008118     48.000000
 -0.089056 -0.102744  0.008118     48.000000
 -0.070307 -0.109373  0.008118     48.000000
 -0.051559 -0.116001  0.008118     48.000000
 -0.032810 -0.122630  0.008118     48.000000
 -0.107805 -0.076229  0.008118     24.000000
 -0.089056 -0.082858  0.008118     48.000000
 -0.070307 -0.089487  0.008118     48.000000
 -0.051559 -0.096115  0.008118     48.000000
 -0.032810 -0.102744  0.008118     48.000000
 -0.089056 -0.062972  0.008118     24.000000
 -0.070307 -0.069601  0.008118     48.000000
 -0.051559 -0.076229  0.008118     48.000000
 -0.032810 -0.082858  0.008118     48.000000
 -0.070307 -0.049715  0.008118     24.000000
 -0.051559 -0.056343  0.008118     48.000000
 -0.032810 -0.062972  0.008118     48.000000
 -0.051559 -0.036458  0.008118     24.000000
 -0.032810 -0.043086  0.008118     48.000000
 -0.032810 -0.023200  0.008118     24.000000
  0.014061  0.009943  0.024355      8.000000
  0.032810  0.003314  0.024355     24.000000
  0.051559 -0.003314  0.024355     24.000000
  0.070307 -0.009943  0.024355     24.000000
  0.089056 -0.016572  0.024355     24.000000
  0.107805 -0.023200  0.024355     24.000000
  0.126553 -0.029829  0.024355     24.000000
 -0.154676  0.069601  0.024355     24.000000
 -0.135928  0.062972  0.024355     24.000000
 -0.117179  0.056343  0.024355     24.000000
 -0.098430  0.049715  0.024355     24.000000
 -0.079682  0.043086  0.024355     24.000000
 -0.060933  0.036458  0.024355     24.000000
 -0.042184  0.029829  0.024355     24.000000
  0.032810  0.023200  0.024355     24.000000
  0.051559  0.016572  0.024355     48.000000
  0.070307  0.009943  0.024355     48.000000
  0.089056  0.003314  0.024355     48.000000
  0.107805 -0.003314  0.024355     48.000000
  0.126553 -0.009943  0.024355     48.000000
 -0.154676  0.089487  0.024355     48.000000
 -0.135928  0.082858  0.024355     48.000000
 -0.117179  0.076229  0.024355     48.000000
 -0.098430  0.069601  0.024355     48.000000
 -0.079682  0.062972  0.024355     48.000000
 -0.060933  0.056343  0.024355     48.000000
 -0.042184  0.049715  0.024355     48.000000
  0.051559  0.036458  0.024355     24.000000
  0.070307  0.029829  0.024355     48.000000
  0.089056  0.023200  0.024355     48.000000
  0.107805  0.016572  0.024355     48.000000
  0.126553  0.009943  0.024355     48.000000
 -0.154676  0.109373  0.024355     48.000000
 -0.135928  0.102744  0.024355     48.000000
 -0.117179  0.096115  0.024355     48.000000
 -0.098430  0.089487  0.024355     48.000000
 -0.079682  0.082858  0.024355     48.000000
 -0.060933  0.076229  0.024355     48.000000
 -0.042184  0.069601  0.024355     48.000000
  0.070307  0.049715  0.024355     24.000000
  0.089056  0.043086  0.024355     48.000000
  0.107805  0.036458  0.024355     48.000000
  0.126553  0.029829  0.024355     48.000000
 -0.154676  0.129259  0.024355     48.000000
 -0.135928  0.122630  0.024355     48.000000
 -0.117179  0.116001  0.024355     48.000000
 -0.098430  0.109373  0.024355     48.000000
 -0.079682  0.102744  0.024355     48.000000
 -0.060933  0.096115  0.024355     48.000000
 -0.042184  0.089487  0.024355     48.000000
  0.089056  0.062972  0.024355     24.000000
  0.107805  0.056343  0.024355     48.000000
  0.126553  0.049715  0.024355     48.000000
 -0.154676  0.149145  0.024355     48.000000
 -0.135928  0.142516  0.024355     48.000000
 -0.117179  0.135887  0.024355     48.000000
 -0.098430  0.129259  0.024355     48.000000
 -0.079682  0.122630  0.024355     48.000000
 -0.060933  0.116001  0.024355     48.000000
 -0.042184  0.109373  0.024355     48.000000
  0.107805  0.076229  0.024355     24.000000
  0.126553  0.069601  0.024355     48.000000
 -0.154676  0.169030  0.024355     48.000000
 -0.135928  0.162402  0.024355     48.000000
 -0.117179  0.155773  0.024355     48.000000
 -0.098430  0.149145  0.024355     48.000000
 -0.079682  0.142516  0.024355     48.000000
 -0.060933  0.135887  0.024355     48.000000
 -0.042184  0.129259  0.024355     48.000000
  0.126553  0.089487  0.024355     24.000000
 -0.154676  0.188916  0.024355     48.000000
 -0.135928  0.182288  0.024355     48.000000
 -0.117179  0.175659  0.024355     48.000000
 -0.098430  0.169030  0.024355     48.000000
 -0.079682  0.162402  0.024355     48.000000
 -0.060933  0.155773  0.024355     48.000000
 -0.042184  0.149145  0.024355     48.000000
 -0.154676 -0.109373  0.024355     24.000000
 -0.135928 -0.116001  0.024355     48.000000
 -0.117179 -0.122630  0.024355     48.000000
 -0.098430 -0.129259  0.024355     48.000000
 -0.079682 -0.135887  0.024355     48.000000
 -0.060933 -0.142516  0.024355     48.000000
 -0.135928 -0.096115  0.024355     24.000000
 -0.117179 -0.102744  0.024355     48.000000
 -0.098430 -0.109373  0.024355     48.000000
 -0.079682 -0.116001  0.024355     48.000000
 -0.060933 -0.122630  0.024355     48.000000
 -0.117179 -0.082858  0.024355     24.000000
 -0.098430 -0.089487  0.024355     48.000000
 -0.079682 -0.096115  0.024355     48.000000
 -0.060933 -0.102744  0.024355     48.000000
 -0.098430 -0.069601  0.024355     24.000000
 -0.079682 -0.076229  0.024355     48.000000
 -0.060933 -0.082858  0.024355     48.000000
 -0.079682 -0.056343  0.024355     24.000000
 -0.060933 -0.062972  0.024355     48.000000
 -0.060933 -0.043086  0.024355     24.000000
  0.023436  0.016572  0.040592      8.000000
  0.042184  0.009943  0.040592     24.000000
  0.060933  0.003314  0.040592     24.000000
  0.079682 -0.003314  0.040592     24.000000
  0.098430 -0.009943  0.040592     24.000000
  0.117179 -0.016572  0.040592     24.000000
 -0.164051  0.082858  0.040592     24.000000
 -0.145302  0.076229  0.040592     24.000000
 -0.126553  0.069601  0.040592     24.000000
 -0.107805  0.062972  0.040592     24.000000
 -0.089056  0.056343  0.040592     24.000000
 -0.070307  0.049715  0.040592     24.000000
  0.042184  0.029829  0.040592     24.000000
  0.060933  0.023200  0.040592     48.000000
  0.079682  0.016572  0.040592     48.000000
  0.098430  0.009943  0.040592     48.000000
  0.117179  0.003314  0.040592     48.000000
 -0.164051  0.102744  0.040592     48.000000
 -0.145302  0.096115  0.040592     48.000000
 -0.126553  0.089487  0.040592     48.000000
 -0.107805  0.082858  0.040592     48.000000
 -0.089056  0.076229  0.040592     48.000000
 -0.070307  0.069601  0.040592     48.000000
  0.060933  0.043086  0.040592     24.000000
  0.079682  0.036458  0.040592     48.000000
  0.098430  0.029829  0.040592     48.000000
  0.117179  0.023200  0.040592     48.000000
 -0.164051  0.122630  0.040592     48.000000
 -0.145302  0.116001  0.040592     48.000000
 -0.126553  0.109373  0.040592     48.000000
 -0.107805  0.102744  0.040592     48.000000
 -0.089056  0.096115  0.040592     48.000000
 -0.070307  0.089487  0.040592     48.000000
  0.079682  0.056343  0.040592     24.000000
  0.098430  0.049715  0.040592     48.000000
  0.117179  0.043086  0.040592     48.000000
 -0.164051  0.142516  0.040592     48.000000
 -0.145302  0.135887  0.040592     48.000000
 -0.126553  0.129259  0.040592     48.000000
 -0.107805  0.122630  0.040592     48.000000
 -0.089056  0.116001  0.040592     48.000000
 -0.070307  0.109373  0.040592     48.000000
  0.098430  0.069601  0.040592     24.000000
  0.117179  0.062972  0.040592     48.000000
 -0.164051  0.162402  0.040592     48.000000
 -0.145302  0.155773  0.040592     48.000000
 -0.126553  0.149145  0.040592     48.000000
 -0.107805  0.142516  0.040592     48.000000
 -0.089056  0.135887  0.040592     48.000000
 -0.070307  0.129259  0.040592     48.000000
  0.117179  0.082858  0.040592     24.000000
 -0.164051  0.182288  0.040592     48.000000
 -0.145302  0.175659  0.040592     48.000000
 -0.126553  0.169030  0.040592     48.000000
 -0.107805  0.162402  0.040592     48.000000
 -0.089056  0.155773  0.040592     48.000000
 -0.070307  0.149145  0.040592     48.000000
 -0.164051 -0.116001  0.040592     24.000000
 -0.145302 -0.122630  0.040592     48.000000
 -0.126553 -0.129259  0.040592     48.000000
 -0.107805 -0.135887  0.040592     48.000000
 -0.089056 -0.142516  0.040592     48.000000
 -0.145302 -0.102744  0.040592     24.000000
 -0.126553 -0.109373  0.040592     48.000000
 -0.107805 -0.116001  0.040592     48.000000
 -0.089056 -0.122630  0.040592     48.000000
 -0.126553 -0.089487  0.040592     24.000000
 -0.107805 -0.096115  0.040592     48.000000
 -0.089056 -0.102744  0.040592     48.000000
 -0.107805 -0.076229  0.040592     24.000000
 -0.089056 -0.082858  0.040592     48.000000
 -0.089056 -0.062972  0.040592     24.000000
  0.032810  0.023200  0.056829      8.000000
  0.051559  0.016572  0.056829     24.000000
  0.070307  0.009943  0.056829     24.000000
  0.089056  0.003314  0.056829     24.000000
  0.107805 -0.003314  0.056829     24.000000
 -0.173425  0.096115  0.056829     24.000000
 -0.154676  0.089487  0.056829     24.000000
 -0.135928  0.082858  0.056829     24.000000
 -0.117179  0.076229  0.056829     24.000000
 -0.098430  0.069601  0.056829     24.000000
  0.051559  0.036458  0.056829     24.000000
  0.070307  0.029829  0.056829     48.000000
  0.089056  0.023200  0.056829     48.000000
  0.107805  0.016572  0.056829     48.000000
 -0.173425  0.116001  0.056829     48.000000
 -0.154676  0.109373  0.056829     48.000000
 -0.135928  0.102744  0.056829     48.000000
 -0.117179  0.096115  0.056829     48.000000
 -0.098430  0.089487  0.056829     48.000000
  0.070307  0.049715  0.056829     24.000000
  0.089056  0.043086  0.056829     48.000000
  0.107805  0.036458  0.056829     48.000000
 -0.173425  0.135887  0.056829     48.000000
 -0.154676  0.129259  0.056829     48.000000
 -0.135928  0.122630  0.056829     48.000000
 -0.117179  0.116001  0.056829     48.000000
 -0.098430  0.109373  0.056829     48.000000
  0.089056  0.062972  0.056829     24.000000
  0.107805  0.056343  0.056829     48.000000
 -0.173425  0.155773  0.056829     48.000000
 -0.154676  0.149145  0.056829     48.000000
 -0.135928  0.142516  0.056829     48.000000
 -0.117179  0.135887  0.056829     48.000000
 -0.098430  0.129259  0.056829     48.000000
  0.107805  0.076229  0.056829     24.000000
 -0.173425  0.175659  0.056829     48.000000
 -0.154676  0.169030  0.056829     48.000000
 -0.135928  0.162402  0.056829     48.000000
 -0.117179  0.155773  0.056829     48.000000
 -0.098430  0.149145  0.056829     48.000000
 -0.173425 -0.122630  0.056829     24.000000
 -0.154676 -0.129259  0.056829     48.000000
 -0.135928 -0.135887  0.056829     48.000000
 -0.117179 -0.142516  0.056829     48.000000
 -0.154676 -0.109373  0.056829     24.000000
 -0.135928 -0.116001  0.056829     48.000000
 -0.117179 -0.122630  0.056829     48.000000
 -0.135928 -0.096115  0.056829     24.000000
 -0.117179 -0.102744  0.056829     48.000000
 -0.117179 -0.082858  0.056829     24.000000
  0.042184  0.029829  0.073066      8.000000
  0.060933  0.023200  0.073066     24.000000
  0.079682  0.016572  0.073066     24.000000
  0.098430  0.009943  0.073066     24.000000
 -0.182799  0.109373  0.073066     24.000000
 -0.164051  0.102744  0.073066     24.000000
 -0.145302  0.096115  0.073066     24.000000
 -0.126553  0.089487  0.073066     24.000000
  0.060933  0.043086  0.073066     24.000000
  0.079682  0.036458  0.073066     48.000000
  0.098430  0.029829  0.073066     48.000000
 -0.182799  0.129259  0.073066     48.000000
 -0.164051  0.122630  0.073066     48.000000
 -0.145302  0.116001  0.073066     48.000000
 -0.126553  0.109373  0.073066     48.000000
  0.079682  0.056343  0.073066     24.000000
  0.098430  0.049715  0.073066     48.000000
 -0.182799  0.149145  0.073066     48.000000
 -0.164051  0.142516  0.073066     48.000000
 -0.145302  0.135887  0.073066     48.000000
 -0.126553  0.129259  0.073066     48.000000
  0.098430  0.069601  0.073066     24.000000
 -0.182799  0.169030  0.073066     48.000000
 -0.164051  0.162402  0.073066     48.000000
 -0.145302  0.155773  0.073066     48.000000
 -0.126553  0.149145  0.073066     48.000000
 -0.182799 -0.129259  0.073066     24.000000
 -0.164051 -0.135887  0.073066     48.000000
 -0.145302 -0.142516  0.073066     48.000000
 -0.164051 -0.116001  0.073066     24.000000
 -0.145302 -0.122630  0.073066     48.000000
 -0.145302 -0.102744  0.073066     24.000000
  0.051559  0.036458  0.089302      8.000000
  0.070307  0.029829  0.089302     24.000000
  0.089056  0.023200  0.089302     24.000000
 -0.192174  0.122630  0.089302     24.000000
 -0.173425  0.116001  0.089302     24.000000
 -0.154676  0.109373  0.089302     24.000000
  0.070307  0.049715  0.089302     24.000000
  0.089056  0.043086  0.089302     48.000000
 -0.192174  0.142516  0.089302     48.000000
 -0.173425  0.135887  0.089302     48.000000
 -0.154676  0.129259  0.089302     48.000000
  0.089056  0.062972  0.089302     24.000000
 -0.192174  0.162402  0.089302     48.000000
 -0.173425  0.155773  0.089302     48.000000
 -0.154676  0.149145  0.089302     48.000000
 -0.192174 -0.135887  0.089302     24.000000
 -0.173425 -0.142516  0.089302     48.000000
 -0.173425 -0.122630  0.089302     24.000000
  0.060933  0.043086  0.105539      8.000000
  0.079682  0.036458  0.105539     24.000000
 -0.201548  0.135887  0.105539     24.000000
 -0.182799  0.129259  0.105539     24.000000
  0.079682  0.056343  0.105539     24.000000
 -0.201548  0.155773  0.105539     48.000000
 -0.182799  0.149145  0.105539     48.000000
 -0.201548 -0.142516  0.105539     24.000000
  0.070307  0.049715  0.121776      8.000000
 -0.210922  0.149145  0.121776     24.000000
 


--------------------------------------------------------------------------------------------------------




 Dimension of arrays:
   k-points           NKPTS =    408   k-points in BZ     NKDIM =    408   number of bands    NBANDS=      8
   number of dos      NEDOS =    301   number of ions     NIONS =      2
   non local maximal  LDIM  =      4   non local SUM 2l+1 LMDIM =      8
   total plane-waves  NPLWV =  13824
   max r-space proj   IRMAX =      1   max aug-charges    IRDMAX=  91874
   dimension x,y,z NGX =    24 NGY =   24 NGZ =   24
   dimension x,y,z NGXF=    48 NGYF=   48 NGZF=   48
   support grid    NGXF=    96 NGYF=   96 NGZF=   96
   ions per type =               2
   NGX,Y,Z   is equivalent  to a cutoff of  10.37, 10.37, 10.37 a.u.
   NGXF,Y,Z  is equivalent  to a cutoff of  20.73, 20.73, 20.73 a.u.

 SYSTEM =  unknown system                          
 POSCAR =  Si2                                     

 Startparameter for this run:
   NWRITE =      2    write-flag & timer
   PREC   = accura    normal or accurate (medium, high low for compatibility)
   ISTART =      0    job   : 0-new  1-cont  2-samecut
   ICHARG =      2    charge: 1-file 2-atom 10-const
   ISPIN  =      1    spin polarized calculation?
   LNONCOLLINEAR =      F non collinear calculations
   LSORBIT =      F    spin-orbit coupling
   INIWAV =      1    electr: 0-lowe 1-rand  2-diag
   LASPH  =      T    aspherical Exc in radial PAW
   METAGGA=      F    non-selfconsistent MetaGGA calc.

 Electronic Relaxation 1
   ENCUT  =  350.0 eV  25.72 Ry    5.07 a.u.   5.87  5.87  5.87*2*pi/ulx,y,z
   ENINI  =  350.0     initial cutoff
   ENAUG  =  322.1 eV  augmentation charge cutoff
   NELM   =     90;   NELMIN=  6; NELMDL= -5     # of ELM steps 
   EDIFF  = 0.1E-05   stopping-criterion for ELM
   LREAL  =      F    real-space projection
   NLSPLINE    = F    spline interpolate recip. space projectors
   LCOMPAT=      F    compatible to vasp.4.4
   GGA_COMPAT  = T    GGA compatible to vasp.4.4-vasp.4.6
   LMAXPAW     = -100 max onsite density
   LMAXMIX     =    2 max onsite mixed and CHGCAR
   VOSKOWN=      0    Vosko Wilk Nusair interpolation
   ROPT   =    0.00000
 Ionic relaxation
   EDIFFG = -.2E-02   stopping-criterion for IOM
   NSW    =    100    number of steps for IOM
   NBLOCK =      1;   KBLOCK =    100    inner block; outer block 
   IBRION =      2    ionic relax: 0-MD 1-quasi-New 2-CG
   NFREE  =      1    steps in history (QN), initial steepest desc. (CG)
   ISIF   =      3    stress and relaxation
   IWAVPR =     11    prediction:  0-non 1-charg 2-wave 3-comb
   ISYM   =      2    0-nonsym 1-usesym 2-fastsym
   LCORR  =      T    Harris-Foulkes like correction to forces

   POTIM  = 0.5000    time-step for ionic-motion
   TEIN   =    0.0    initial temperature
   TEBEG  =    0.0;   TEEND  =   0.0 temperature during run
   SMASS  =  -3.00    Nose mass-parameter (am)
   estimated Nose-frequenzy (Omega)   =  0.10E-29 period in steps = 0.13E+47 mass=  -0.339E-27a.u.
   SCALEE = 1.0000    scale energy and forces
   NPACO  =    256;   APACO  = 16.0  distance and # of slots for P.C.
   PSTRESS=    0.0 pullay stress

  Mass of Ions in am
   POMASS =  28.09
  Ionic Valenz
   ZVAL   =   4.00
  Atomic Wigner-Seitz radii
   RWIGS  =  -1.00
  virtual crystal weights 
   VCA    =   1.00
   NELECT =       8.0000    total number of electrons
   NUPDOWN=      -1.0000    fix difference up-down

 DOS related values:
   EMIN   =  10.00;   EMAX   =-10.00  energy-range for DOS
   EFERMI =   0.00
   ISMEAR =     0;   SIGMA  =   0.05  broadening in eV -4-tet -1-fermi 0-gaus

 Electronic relaxation 2 (details)
   IALGO  =     38    algorithm
   LDIAG  =      T    sub-space diagonalisation (order eigenvalues)
   LSUBROT=      F    optimize rotation matrix (better conditioning)
   TURBO    =      0    0=normal 1=particle mesh
   IRESTART =      0    0=no restart 2=restart with 2 vectors
   NREBOOT  =      0    no. of reboots
   NMIN     =      0    reboot dimension
   EREF     =   0.00    reference energy to select bands
   IMIX   =      4    mixing-type and parameters
     AMIX     =   0.40;   BMIX     =  1.00
     AMIX_MAG =   1.60;   BMIX_MAG =  1.00
     AMIN     =   0.10
     WC   =   100.;   INIMIX=   1;  MIXPRE=   1;  MAXMIX= -45

 Intra band minimization:
   WEIMIN = 0.0010     energy-eigenvalue tresh-hold
   EBREAK =  0.31E-07  absolut break condition
   DEPER  =   0.30     relativ break condition  

   TIME   =   0.40     timestep for ELM

  volume/ion in A,a.u.               =      20.16       136.08
  Fermi-wavevector in a.u.,A,eV,Ry     =   0.954766  1.804247 12.402783  0.911579
  Thomas-Fermi vector in A             =   2.083543
 
 Write flags
   LWAVE        =      F    write WAVECAR
   LDOWNSAMPLE  =      F    k-point downsampling of WAVECAR
   LCHARG       =      F    write CHGCAR
   LVTOT        =      F    write LOCPOT, total local potential
   LVHAR        =      F    write LOCPOT, Hartree potential only
   LELF         =      F    write electronic localiz. function (ELF)
   LORBIT       =      0    0 simple, 1 ext, 2 COOP (PROOUT), +10 PAW based schemes


 Dipole corrections
   LMONO  =      F    monopole corrections only (constant potential shift)
   LDIPOL =      F    correct potential (dipole corrections)
   IDIPOL =      0    1-x, 2-y, 3-z, 4-all directions 
   EPSILON=  1.0000000 bulk dielectric constant

 Exchange correlation treatment:
   GGA     =    --    GGA type
   LEXCH   =     8    internal setting for exchange type
   VOSKOWN=      0    Vosko Wilk Nusair interpolation
   LHFCALC =     F    Hartree Fock is set to
   LHFONE  =     F    Hartree Fock one center treatment
   AEXX    =    0.0000 exact exchange contribution

 Linear response parameters
   LEPSILON=     F    determine dielectric tensor
   LRPA    =     F    only Hartree local field effects (RPA)
   LNABLA  =     F    use nabla operator in PAW spheres
   LVEL    =     F    velocity operator in full k-point grid
   LINTERFAST=   F  fast interpolation
   KINTER  =     0    interpolate to denser k-point grid
   CSHIFT  =0.1000    complex shift for real part using Kramers Kronig
   OMEGAMAX=  -1.0    maximum frequency
   DEG_THRESHOLD= 0.2000000E-02 threshold for treating states as degnerate
   RTIME   =   -0.100 relaxation time in fs
  (WPLASMAI=    0.000 imaginary part of plasma frequency in eV, 0.658/RTIME)
   DFIELD  = 0.0000000 0.0000000 0.0000000 field for delta impulse in time
 
 Orbital magnetization related:
   ORBITALMAG=     F  switch on orbital magnetization
   LCHIMAG   =     F  perturbation theory with respect to B field
   DQ        =  0.001000  dq finite difference perturbation B field
   LLRAUG    =     F  two centre corrections for induced B field



--------------------------------------------------------------------------------------------------------


 conjugate gradient relaxation of ions
 charge density and potential will be updated during run
 non-spin polarized calculation
 Variant of blocked Davidson
 Davidson routine will perform the subspace rotation
 perform sub-space diagonalisation
    after iterative eigenvector-optimisation
 modified Broyden-mixing scheme, WC =      100.0
 initial mixing is a Kerker type mixing with AMIX =  0.4000 and BMIX =      1.0000
 Hartree-type preconditioning will be used
 using additional bands            4
 reciprocal scheme for non local part
 use partial core corrections
 calculate Harris-corrections to forces 
   (improved forces if not selfconsistent)
 use gradient corrections 
 use of overlap-Matrix (Vanderbilt PP)
 Gauss-broadening in eV      SIGMA  =   0.05


--------------------------------------------------------------------------------------------------------


  energy-cutoff  :      350.00
  volume of cell :       40.33
      direct lattice vectors                 reciprocal lattice vectors
     3.333573000  0.000000000  1.924639000     0.299978432 -0.106058350  0.000000000
     1.111191000  3.142924000  1.924639000     0.000000000  0.318175050  0.000000000
     0.000000000  0.000000000  3.849278000    -0.149989216 -0.106058350  0.259788979

  length of vectors
     3.849278403  3.849279412  3.849278000     0.318175161  0.318175050  0.318175190


 
 k-points in units of 2pi/SCALE and weight: Automatic                               
   0.00468716  0.00331432  0.00811841       0.000
   0.02343581 -0.00331432  0.00811841       0.001
   0.04218447 -0.00994297  0.00811841       0.001
   0.06093312 -0.01657162  0.00811841       0.001
   0.07968177 -0.02320026  0.00811841       0.001
   0.09843042 -0.02982891  0.00811841       0.001
   0.11717907 -0.03645756  0.00811841       0.001
   0.13592773 -0.04308620  0.00811841       0.001
  -0.14530205  0.05634350  0.00811841       0.001
  -0.12655340  0.04971485  0.00811841       0.001
  -0.10780475  0.04308620  0.00811841       0.001
  -0.08905610  0.03645756  0.00811841       0.001
  -0.07030744  0.02982891  0.00811841       0.001
  -0.05155879  0.02320026  0.00811841       0.001
  -0.03281014  0.01657162  0.00811841       0.001
  -0.01406149  0.00994297  0.00811841       0.001
   0.02343581  0.01657162  0.00811841       0.001
   0.04218447  0.00994297  0.00811841       0.003
   0.06093312  0.00331432  0.00811841       0.003
   0.07968177 -0.00331432  0.00811841       0.003
   0.09843042 -0.00994297  0.00811841       0.003
   0.11717907 -0.01657162  0.00811841       0.003
   0.13592773 -0.02320026  0.00811841       0.003
  -0.14530205  0.07622944  0.00811841       0.003
  -0.12655340  0.06960079  0.00811841       0.003
  -0.10780475  0.06297215  0.00811841       0.003
  -0.08905610  0.05634350  0.00811841       0.003
  -0.07030744  0.04971485  0.00811841       0.003
  -0.05155879  0.04308620  0.00811841       0.003
  -0.03281014  0.03645756  0.00811841       0.003
  -0.01406149  0.02982891  0.00811841       0.003
   0.04218447  0.02982891  0.00811841       0.001
   0.06093312  0.02320026  0.00811841       0.003
   0.07968177  0.01657162  0.00811841       0.003
   0.09843042  0.00994297  0.00811841       0.003
   0.11717907  0.00331432  0.00811841       0.003
   0.13592773 -0.00331432  0.00811841       0.003
  -0.14530205  0.09611538  0.00811841       0.003
  -0.12655340  0.08948673  0.00811841       0.003
  -0.10780475  0.08285809  0.00811841       0.003
  -0.08905610  0.07622944  0.00811841       0.003
  -0.07030744  0.06960079  0.00811841       0.003
  -0.05155879  0.06297215  0.00811841       0.003
  -0.03281014  0.05634350  0.00811841       0.003
  -0.01406149  0.04971485  0.00811841       0.003
   0.06093312  0.04308620  0.00811841       0.001
   0.07968177  0.03645756  0.00811841       0.003
   0.09843042  0.02982891  0.00811841       0.003
   0.11717907  0.02320026  0.00811841       0.003
   0.13592773  0.01657162  0.00811841       0.003
  -0.14530205  0.11600132  0.00811841       0.003
  -0.12655340  0.10937267  0.00811841       0.003
  -0.10780475  0.10274403  0.00811841       0.003
  -0.08905610  0.09611538  0.00811841       0.003
  -0.07030744  0.08948673  0.00811841       0.003
  -0.05155879  0.08285809  0.00811841       0.003
  -0.03281014  0.07622944  0.00811841       0.003
  -0.01406149  0.06960079  0.00811841       0.003
   0.07968177  0.05634350  0.00811841       0.001
   0.09843042  0.04971485  0.00811841       0.003
   0.11717907  0.04308620  0.00811841       0.003
   0.13592773  0.03645756  0.00811841       0.003
  -0.14530205  0.13588726  0.00811841       0.003
  -0.12655340  0.12925861  0.00811841       0.003
  -0.10780475  0.12262997  0.00811841       0.003
  -0.08905610  0.11600132  0.00811841       0.003
  -0.07030744  0.10937267  0.00811841       0.003
  -0.05155879  0.10274403  0.00811841       0.003
  -0.03281014  0.09611538  0.00811841       0.003
  -0.01406149  0.08948673  0.00811841       0.003
   0.09843042  0.06960079  0.00811841       0.001
   0.11717907  0.06297215  0.00811841       0.003
   0.13592773  0.05634350  0.00811841       0.003
  -0.14530205  0.15577320  0.00811841       0.003
  -0.12655340  0.14914455  0.00811841       0.003
  -0.10780475  0.14251591  0.00811841       0.003
  -0.08905610  0.13588726  0.00811841       0.003
  -0.07030744  0.12925861  0.00811841       0.003
  -0.05155879  0.12262997  0.00811841       0.003
  -0.03281014  0.11600132  0.00811841       0.003
  -0.01406149  0.10937267  0.00811841       0.003
   0.11717907  0.08285809  0.00811841       0.001
   0.13592773  0.07622944  0.00811841       0.003
  -0.14530205  0.17565914  0.00811841       0.003
  -0.12655340  0.16903050  0.00811841       0.003
  -0.10780475  0.16240185  0.00811841       0.003
  -0.08905610  0.15577320  0.00811841       0.003
  -0.07030744  0.14914455  0.00811841       0.003
  -0.05155879  0.14251591  0.00811841       0.003
  -0.03281014  0.13588726  0.00811841       0.003
  -0.01406149  0.12925861  0.00811841       0.003
   0.13592773  0.09611538  0.00811841       0.001
  -0.14530205  0.19554508  0.00811841       0.003
  -0.12655340  0.18891644  0.00811841       0.003
  -0.10780475  0.18228779  0.00811841       0.003
  -0.08905610  0.17565914  0.00811841       0.003
  -0.07030744  0.16903050  0.00811841       0.003
  -0.05155879  0.16240185  0.00811841       0.003
  -0.03281014  0.15577320  0.00811841       0.003
  -0.01406149  0.14914455  0.00811841       0.003
  -0.14530205 -0.10274403  0.00811841       0.001
  -0.12655340 -0.10937267  0.00811841       0.003
  -0.10780475 -0.11600132  0.00811841       0.003
  -0.08905610 -0.12262997  0.00811841       0.003
  -0.07030744 -0.12925861  0.00811841       0.003
  -0.05155879 -0.13588726  0.00811841       0.003
  -0.03281014 -0.14251591  0.00811841       0.003
  -0.12655340 -0.08948673  0.00811841       0.001
  -0.10780475 -0.09611538  0.00811841       0.003
  -0.08905610 -0.10274403  0.00811841       0.003
  -0.07030744 -0.10937267  0.00811841       0.003
  -0.05155879 -0.11600132  0.00811841       0.003
  -0.03281014 -0.12262997  0.00811841       0.003
  -0.10780475 -0.07622944  0.00811841       0.001
  -0.08905610 -0.08285809  0.00811841       0.003
  -0.07030744 -0.08948673  0.00811841       0.003
  -0.05155879 -0.09611538  0.00811841       0.003
  -0.03281014 -0.10274403  0.00811841       0.003
  -0.08905610 -0.06297215  0.00811841       0.001
  -0.07030744 -0.06960079  0.00811841       0.003
  -0.05155879 -0.07622944  0.00811841       0.003
  -0.03281014 -0.08285809  0.00811841       0.003
  -0.07030744 -0.04971485  0.00811841       0.001
  -0.05155879 -0.05634350  0.00811841       0.003
  -0.03281014 -0.06297215  0.00811841       0.003
  -0.05155879 -0.03645756  0.00811841       0.001
  -0.03281014 -0.04308620  0.00811841       0.003
  -0.03281014 -0.02320026  0.00811841       0.001
   0.01406149  0.00994297  0.02435522       0.000
   0.03281014  0.00331432  0.02435522       0.001
   0.05155879 -0.00331432  0.02435522       0.001
   0.07030744 -0.00994297  0.02435522       0.001
   0.08905610 -0.01657162  0.02435522       0.001
   0.10780475 -0.02320026  0.02435522       0.001
   0.12655340 -0.02982891  0.02435522       0.001
  -0.15467638  0.06960079  0.02435522       0.001
  -0.13592773  0.06297215  0.02435522       0.001
  -0.11717907  0.05634350  0.02435522       0.001
  -0.09843042  0.04971485  0.02435522       0.001
  -0.07968177  0.04308620  0.02435522       0.001
  -0.06093312  0.03645756  0.02435522       0.001
  -0.04218447  0.02982891  0.02435522       0.001
   0.03281014  0.02320026  0.02435522       0.001
   0.05155879  0.01657162  0.02435522       0.003
   0.07030744  0.00994297  0.02435522       0.003
   0.08905610  0.00331432  0.02435522       0.003
   0.10780475 -0.00331432  0.02435522       0.003
   0.12655340 -0.00994297  0.02435522       0.003
  -0.15467638  0.08948673  0.02435522       0.003
  -0.13592773  0.08285809  0.02435522       0.003
  -0.11717907  0.07622944  0.02435522       0.003
  -0.09843042  0.06960079  0.02435522       0.003
  -0.07968177  0.06297215  0.02435522       0.003
  -0.06093312  0.05634350  0.02435522       0.003
  -0.04218447  0.04971485  0.02435522       0.003
   0.05155879  0.03645756  0.02435522       0.001
   0.07030744  0.02982891  0.02435522       0.003
   0.08905610  0.02320026  0.02435522       0.003
   0.10780475  0.01657162  0.02435522       0.003
   0.12655340  0.00994297  0.02435522       0.003
  -0.15467638  0.10937267  0.02435522       0.003
  -0.13592773  0.10274403  0.02435522       0.003
  -0.11717907  0.09611538  0.02435522       0.003
  -0.09843042  0.08948673  0.02435522       0.003
  -0.07968177  0.08285809  0.02435522       0.003
  -0.06093312  0.07622944  0.02435522       0.003
  -0.04218447  0.06960079  0.02435522       0.003
   0.07030744  0.04971485  0.02435522       0.001
   0.08905610  0.04308620  0.02435522       0.003
   0.10780475  0.03645756  0.02435522       0.003
   0.12655340  0.02982891  0.02435522       0.003
  -0.15467638  0.12925861  0.02435522       0.003
  -0.13592773  0.12262997  0.02435522       0.003
  -0.11717907  0.11600132  0.02435522       0.003
  -0.09843042  0.10937267  0.02435522       0.003
  -0.07968177  0.10274403  0.02435522       0.003
  -0.06093312  0.09611538  0.02435522       0.003
  -0.04218447  0.08948673  0.02435522       0.003
   0.08905610  0.06297215  0.02435522       0.001
   0.10780475  0.05634350  0.02435522       0.003
   0.12655340  0.04971485  0.02435522       0.003
  -0.15467638  0.14914455  0.02435522       0.003
  -0.13592773  0.14251591  0.02435522       0.003
  -0.11717907  0.13588726  0.02435522       0.003
  -0.09843042  0.12925861  0.02435522       0.003
  -0.07968177  0.12262997  0.02435522       0.003
  -0.06093312  0.11600132  0.02435522       0.003
  -0.04218447  0.10937267  0.02435522       0.003
   0.10780475  0.07622944  0.02435522       0.001
   0.12655340  0.06960079  0.02435522       0.003
  -0.15467638  0.16903050  0.02435522       0.003
  -0.13592773  0.16240185  0.02435522       0.003
  -0.11717907  0.15577320  0.02435522       0.003
  -0.09843042  0.14914455  0.02435522       0.003
  -0.07968177  0.14251591  0.02435522       0.003
  -0.06093312  0.13588726  0.02435522       0.003
  -0.04218447  0.12925861  0.02435522       0.003
   0.12655340  0.08948673  0.02435522       0.001
  -0.15467638  0.18891644  0.02435522       0.003
  -0.13592773  0.18228779  0.02435522       0.003
  -0.11717907  0.17565914  0.02435522       0.003
  -0.09843042  0.16903050  0.02435522       0.003
  -0.07968177  0.16240185  0.02435522       0.003
  -0.06093312  0.15577320  0.02435522       0.003
  -0.04218447  0.14914455  0.02435522       0.003
  -0.15467638 -0.10937267  0.02435522       0.001
  -0.13592773 -0.11600132  0.02435522       0.003
  -0.11717907 -0.12262997  0.02435522       0.003
  -0.09843042 -0.12925861  0.02435522       0.003
  -0.07968177 -0.13588726  0.02435522       0.003
  -0.06093312 -0.14251591  0.02435522       0.003
  -0.13592773 -0.09611538  0.02435522       0.001
  -0.11717907 -0.10274403  0.02435522       0.003
  -0.09843042 -0.10937267  0.02435522       0.003
  -0.07968177 -0.11600132  0.02435522       0.003
  -0.06093312 -0.12262997  0.02435522       0.003
  -0.11717907 -0.08285809  0.02435522       0.001
  -0.09843042 -0.08948673  0.02435522       0.003
  -0.07968177 -0.09611538  0.02435522       0.003
  -0.06093312 -0.10274403  0.02435522       0.003
  -0.09843042 -0.06960079  0.02435522       0.001
  -0.07968177 -0.07622944  0.02435522       0.003
  -0.06093312 -0.08285809  0.02435522       0.003
  -0.07968177 -0.05634350  0.02435522       0.001
  -0.06093312 -0.06297215  0.02435522       0.003
  -0.06093312 -0.04308620  0.02435522       0.001
   0.02343581  0.01657162  0.04059203       0.000
   0.04218447  0.00994297  0.04059203       0.001
   0.06093312  0.00331432  0.04059203       0.001
   0.07968177 -0.00331432  0.04059203       0.001
   0.09843042 -0.00994297  0.04059203       0.001
   0.11717907 -0.01657162  0.04059203       0.001
  -0.16405070  0.08285809  0.04059203       0.001
  -0.14530205  0.07622944  0.04059203       0.001
  -0.12655340  0.06960079  0.04059203       0.001
  -0.10780475  0.06297215  0.04059203       0.001
  -0.08905610  0.05634350  0.04059203       0.001
  -0.07030744  0.04971485  0.04059203       0.001
   0.04218447  0.02982891  0.04059203       0.001
   0.06093312  0.02320026  0.04059203       0.003
   0.07968177  0.01657162  0.04059203       0.003
   0.09843042  0.00994297  0.04059203       0.003
   0.11717907  0.00331432  0.04059203       0.003
  -0.16405070  0.10274403  0.04059203       0.003
  -0.14530205  0.09611538  0.04059203       0.003
  -0.12655340  0.08948673  0.04059203       0.003
  -0.10780475  0.08285809  0.04059203       0.003
  -0.08905610  0.07622944  0.04059203       0.003
  -0.07030744  0.06960079  0.04059203       0.003
   0.06093312  0.04308620  0.04059203       0.001
   0.07968177  0.03645756  0.04059203       0.003
   0.09843042  0.02982891  0.04059203       0.003
   0.11717907  0.02320026  0.04059203       0.003
  -0.16405070  0.12262997  0.04059203       0.003
  -0.14530205  0.11600132  0.04059203       0.003
  -0.12655340  0.10937267  0.04059203       0.003
  -0.10780475  0.10274403  0.04059203       0.003
  -0.08905610  0.09611538  0.04059203       0.003
  -0.07030744  0.08948673  0.04059203       0.003
   0.07968177  0.05634350  0.04059203       0.001
   0.09843042  0.04971485  0.04059203       0.003
   0.11717907  0.04308620  0.04059203       0.003
  -0.16405070  0.14251591  0.04059203       0.003
  -0.14530205  0.13588726  0.04059203       0.003
  -0.12655340  0.12925861  0.04059203       0.003
  -0.10780475  0.12262997  0.04059203       0.003
  -0.08905610  0.11600132  0.04059203       0.003
  -0.07030744  0.10937267  0.04059203       0.003
   0.09843042  0.06960079  0.04059203       0.001
   0.11717907  0.06297215  0.04059203       0.003
  -0.16405070  0.16240185  0.04059203       0.003
  -0.14530205  0.15577320  0.04059203       0.003
  -0.12655340  0.14914455  0.04059203       0.003
  -0.10780475  0.14251591  0.04059203       0.003
  -0.08905610  0.13588726  0.04059203       0.003
  -0.07030744  0.12925861  0.04059203       0.003
   0.11717907  0.08285809  0.04059203       0.001
  -0.16405070  0.18228779  0.04059203       0.003
  -0.14530205  0.17565914  0.04059203       0.003
  -0.12655340  0.16903050  0.04059203       0.003
  -0.10780475  0.16240185  0.04059203       0.003
  -0.08905610  0.15577320  0.04059203       0.003
  -0.07030744  0.14914455  0.04059203       0.003
  -0.16405070 -0.11600132  0.04059203       0.001
  -0.14530205 -0.12262997  0.04059203       0.003
  -0.12655340 -0.12925861  0.04059203       0.003
  -0.10780475 -0.13588726  0.04059203       0.003
  -0.08905610 -0.14251591  0.04059203       0.003
  -0.14530205 -0.10274403  0.04059203       0.001
  -0.12655340 -0.10937267  0.04059203       0.003
  -0.10780475 -0.11600132  0.04059203       0.003
  -0.08905610 -0.12262997  0.04059203       0.003
  -0.12655340 -0.08948673  0.04059203       0.001
  -0.10780475 -0.09611538  0.04059203       0.003
  -0.08905610 -0.10274403  0.04059203       0.003
  -0.10780475 -0.07622944  0.04059203       0.001
  -0.08905610 -0.08285809  0.04059203       0.003
  -0.08905610 -0.06297215  0.04059203       0.001
   0.03281014  0.02320026  0.05682884       0.000
   0.05155879  0.01657162  0.05682884       0.001
   0.07030744  0.00994297  0.05682884       0.001
   0.08905610  0.00331432  0.05682884       0.001
   0.10780475 -0.00331432  0.05682884       0.001
  -0.17342503  0.09611538  0.05682884       0.001
  -0.15467638  0.08948673  0.05682884       0.001
  -0.13592773  0.08285809  0.05682884       0.001
  -0.11717907  0.07622944  0.05682884       0.001
  -0.09843042  0.06960079  0.05682884       0.001
   0.05155879  0.03645756  0.05682884       0.001
   0.07030744  0.02982891  0.05682884       0.003
   0.08905610  0.02320026  0.05682884       0.003
   0.10780475  0.01657162  0.05682884       0.003
  -0.17342503  0.11600132  0.05682884       0.003
  -0.15467638  0.10937267  0.05682884       0.003
  -0.13592773  0.10274403  0.05682884       0.003
  -0.11717907  0.09611538  0.05682884       0.003
  -0.09843042  0.08948673  0.05682884       0.003
   0.07030744  0.04971485  0.05682884       0.001
   0.08905610  0.04308620  0.05682884       0.003
   0.10780475  0.03645756  0.05682884       0.003
  -0.17342503  0.13588726  0.05682884       0.003
  -0.15467638  0.12925861  0.05682884       0.003
  -0.13592773  0.12262997  0.05682884       0.003
  -0.11717907  0.11600132  0.05682884       0.003
  -0.09843042  0.10937267  0.05682884       0.003
   0.08905610  0.06297215  0.05682884       0.001
   0.10780475  0.05634350  0.05682884       0.003
  -0.17342503  0.15577320  0.05682884       0.003
  -0.15467638  0.14914455  0.05682884       0.003
  -0.13592773  0.14251591  0.05682884       0.003
  -0.11717907  0.13588726  0.05682884       0.003
  -0.09843042  0.12925861  0.05682884       0.003
   0.10780475  0.07622944  0.05682884       0.001
  -0.17342503  0.17565914  0.05682884       0.003
  -0.15467638  0.16903050  0.05682884       0.003
  -0.13592773  0.16240185  0.05682884       0.003
  -0.11717907  0.15577320  0.05682884       0.003
  -0.09843042  0.14914455  0.05682884       0.003
  -0.17342503 -0.12262997  0.05682884       0.001
  -0.15467638 -0.12925861  0.05682884       0.003
  -0.13592773 -0.13588726  0.05682884       0.003
  -0.11717907 -0.14251591  0.05682884       0.003
  -0.15467638 -0.10937267  0.05682884       0.001
  -0.13592773 -0.11600132  0.05682884       0.003
  -0.11717907 -0.12262997  0.05682884       0.003
  -0.13592773 -0.09611538  0.05682884       0.001
  -0.11717907 -0.10274403  0.05682884       0.003
  -0.11717907 -0.08285809  0.05682884       0.001
   0.04218447  0.02982891  0.07306565       0.000
   0.06093312  0.02320026  0.07306565       0.001
   0.07968177  0.01657162  0.07306565       0.001
   0.09843042  0.00994297  0.07306565       0.001
  -0.18279936  0.10937267  0.07306565       0.001
  -0.16405070  0.10274403  0.07306565       0.001
  -0.14530205  0.09611538  0.07306565       0.001
  -0.12655340  0.08948673  0.07306565       0.001
   0.06093312  0.04308620  0.07306565       0.001
   0.07968177  0.03645756  0.07306565       0.003
   0.09843042  0.02982891  0.07306565       0.003
  -0.18279936  0.12925861  0.07306565       0.003
  -0.16405070  0.12262997  0.07306565       0.003
  -0.14530205  0.11600132  0.07306565       0.003
  -0.12655340  0.10937267  0.07306565       0.003
   0.07968177  0.05634350  0.07306565       0.001
   0.09843042  0.04971485  0.07306565       0.003
  -0.18279936  0.14914455  0.07306565       0.003
  -0.16405070  0.14251591  0.07306565       0.003
  -0.14530205  0.13588726  0.07306565       0.003
  -0.12655340  0.12925861  0.07306565       0.003
   0.09843042  0.06960079  0.07306565       0.001
  -0.18279936  0.16903050  0.07306565       0.003
  -0.16405070  0.16240185  0.07306565       0.003
  -0.14530205  0.15577320  0.07306565       0.003
  -0.12655340  0.14914455  0.07306565       0.003
  -0.18279936 -0.12925861  0.07306565       0.001
  -0.16405070 -0.13588726  0.07306565       0.003
  -0.14530205 -0.14251591  0.07306565       0.003
  -0.16405070 -0.11600132  0.07306565       0.001
  -0.14530205 -0.12262997  0.07306565       0.003
  -0.14530205 -0.10274403  0.07306565       0.001
   0.05155879  0.03645756  0.08930246       0.000
   0.07030744  0.02982891  0.08930246       0.001
   0.08905610  0.02320026  0.08930246       0.001
  -0.19217368  0.12262997  0.08930246       0.001
  -0.17342503  0.11600132  0.08930246       0.001
  -0.15467638  0.10937267  0.08930246       0.001
   0.07030744  0.04971485  0.08930246       0.001
   0.08905610  0.04308620  0.08930246       0.003
  -0.19217368  0.14251591  0.08930246       0.003
  -0.17342503  0.13588726  0.08930246       0.003
  -0.15467638  0.12925861  0.08930246       0.003
   0.08905610  0.06297215  0.08930246       0.001
  -0.19217368  0.16240185  0.08930246       0.003
  -0.17342503  0.15577320  0.08930246       0.003
  -0.15467638  0.14914455  0.08930246       0.003
  -0.19217368 -0.13588726  0.08930246       0.001
  -0.17342503 -0.14251591  0.08930246       0.003
  -0.17342503 -0.12262997  0.08930246       0.001
   0.06093312  0.04308620  0.10553927       0.000
   0.07968177  0.03645756  0.10553927       0.001
  -0.20154801  0.13588726  0.10553927       0.001
  -0.18279936  0.12925861  0.10553927       0.001
   0.07968177  0.05634350  0.10553927       0.001
  -0.20154801  0.15577320  0.10553927       0.003
  -0.18279936  0.14914455  0.10553927       0.003
  -0.20154801 -0.14251591  0.10553927       0.001
   0.07030744  0.04971485  0.12177608       0.000
  -0.21092233  0.14914455  0.12177608       0.001
 
 k-points in reciprocal lattice and weights: Automatic                               
   0.03125000  0.03125000  0.03125000       0.000
   0.09375000  0.03125000  0.03125000       0.001
   0.15625000  0.03125000  0.03125000       0.001
   0.21875000  0.03125000  0.03125000       0.001
   0.28125000  0.03125000  0.03125000       0.001
   0.34375000  0.03125000  0.03125000       0.001
   0.40625000  0.03125000  0.03125000       0.001
   0.46875000  0.03125000  0.03125000       0.001
  -0.46875000  0.03125000  0.03125000       0.001
  -0.40625000  0.03125000  0.03125000       0.001
  -0.34375000  0.03125000  0.03125000       0.001
  -0.28125000  0.03125000  0.03125000       0.001
  -0.21875000  0.03125000  0.03125000       0.001
  -0.15625000  0.03125000  0.03125000       0.001
  -0.09375000  0.03125000  0.03125000       0.001
  -0.03125000  0.03125000  0.03125000       0.001
   0.09375000  0.09375000  0.03125000       0.001
   0.15625000  0.09375000  0.03125000       0.003
   0.21875000  0.09375000  0.03125000       0.003
   0.28125000  0.09375000  0.03125000       0.003
   0.34375000  0.09375000  0.03125000       0.003
   0.40625000  0.09375000  0.03125000       0.003
   0.46875000  0.09375000  0.03125000       0.003
  -0.46875000  0.09375000  0.03125000       0.003
  -0.40625000  0.09375000  0.03125000       0.003
  -0.34375000  0.09375000  0.03125000       0.003
  -0.28125000  0.09375000  0.03125000       0.003
  -0.21875000  0.09375000  0.03125000       0.003
  -0.15625000  0.09375000  0.03125000       0.003
  -0.09375000  0.09375000  0.03125000       0.003
  -0.03125000  0.09375000  0.03125000       0.003
   0.15625000  0.15625000  0.03125000       0.001
   0.21875000  0.15625000  0.03125000       0.003
   0.28125000  0.15625000  0.03125000       0.003
   0.34375000  0.15625000  0.03125000       0.003
   0.40625000  0.15625000  0.03125000       0.003
   0.46875000  0.15625000  0.03125000       0.003
  -0.46875000  0.15625000  0.03125000       0.003
  -0.40625000  0.15625000  0.03125000       0.003
  -0.34375000  0.15625000  0.03125000       0.003
  -0.28125000  0.15625000  0.03125000       0.003
  -0.21875000  0.15625000  0.03125000       0.003
  -0.15625000  0.15625000  0.03125000       0.003
  -0.09375000  0.15625000  0.03125000       0.003
  -0.03125000  0.15625000  0.03125000       0.003
   0.21875000  0.21875000  0.03125000       0.001
   0.28125000  0.21875000  0.03125000       0.003
   0.34375000  0.21875000  0.03125000       0.003
   0.40625000  0.21875000  0.03125000       0.003
   0.46875000  0.21875000  0.03125000       0.003
  -0.46875000  0.21875000  0.03125000       0.003
  -0.40625000  0.21875000  0.03125000       0.003
  -0.34375000  0.21875000  0.03125000       0.003
  -0.28125000  0.21875000  0.03125000       0.003
  -0.21875000  0.21875000  0.03125000       0.003
  -0.15625000  0.21875000  0.03125000       0.003
  -0.09375000  0.21875000  0.03125000       0.003
  -0.03125000  0.21875000  0.03125000       0.003
   0.28125000  0.28125000  0.03125000       0.001
   0.34375000  0.28125000  0.03125000       0.003
   0.40625000  0.28125000  0.03125000       0.003
   0.46875000  0.28125000  0.03125000       0.003
  -0.46875000  0.28125000  0.03125000       0.003
  -0.40625000  0.28125000  0.03125000       0.003
  -0.34375000  0.28125000  0.03125000       0.003
  -0.28125000  0.28125000  0.03125000       0.003
  -0.21875000  0.28125000  0.03125000       0.003
  -0.15625000  0.28125000  0.03125000       0.003
  -0.09375000  0.28125000  0.03125000       0.003
  -0.03125000  0.28125000  0.03125000       0.003
   0.34375000  0.34375000  0.03125000       0.001
   0.40625000  0.34375000  0.03125000       0.003
   0.46875000  0.34375000  0.03125000       0.003
  -0.46875000  0.34375000  0.03125000       0.003
  -0.40625000  0.34375000  0.03125000       0.003
  -0.34375000  0.34375000  0.03125000       0.003
  -0.28125000  0.34375000  0.03125000       0.003
  -0.21875000  0.34375000  0.03125000       0.003
  -0.15625000  0.34375000  0.03125000       0.003
  -0.09375000  0.34375000  0.03125000       0.003
[...]
      8      12.1104      0.00000

 k-point   374 :      -0.2812    0.4687    0.2812
  band No.  band energies     occupation 
      1      -2.3989      2.00000
      2      -1.5683      2.00000
      3       1.5882      2.00000
      4       2.2898      2.00000
      5       9.0901      0.00000
      6      10.1862      0.00000
      7      10.7541      0.00000
      8      11.0740      0.00000

 k-point   375 :      -0.4687   -0.4688    0.2812
  band No.  band energies     occupation 
      1      -3.3453      2.00000
      2      -0.9467      2.00000
      3       2.0009      2.00000
      4       3.5122      2.00000
      5       7.2156      0.00000
      6      10.5790      0.00000
      7      11.2472      0.00000
      8      11.3935      0.00000

 k-point   376 :      -0.4062   -0.4688    0.2812
  band No.  band energies     occupation 
      1      -3.0459      2.00000
      2      -1.1305      2.00000
      3       1.6931      2.00000
      4       3.2573      2.00000
      5       7.4087      0.00000
      6      10.4654      0.00000
      7      11.0695      0.00000
      8      12.5656      0.00000

 k-point   377 :      -0.3437   -0.4688    0.2812
  band No.  band energies     occupation 
      1      -2.7212      2.00000
      2      -1.3295      2.00000
      3       1.5373      2.00000
      4       2.7791      2.00000
      5       8.1103      0.00000
      6      10.3555      0.00000
      7      10.8623      0.00000
      8      12.3489      0.00000

 k-point   378 :      -0.4062   -0.4062    0.2812
  band No.  band energies     occupation 
      1      -2.8494      2.00000
      2      -1.2786      2.00000
      3       1.4689      2.00000
      4       3.3822      2.00000
      5       7.0256      0.00000
      6      10.4079      0.00000
      7      12.2368      0.00000
      8      12.3882      0.00000

 k-point   379 :      -0.3437   -0.4062    0.2812
  band No.  band energies     occupation 
      1      -2.6756      2.00000
      2      -1.3905      2.00000
      3       1.3795      2.00000
      4       3.1549      2.00000
      5       7.2989      0.00000
      6      10.3871      0.00000
      7      11.9735      0.00000
      8      12.7076      0.00000

 k-point   380 :      -0.3437   -0.3438    0.2812
  band No.  band energies     occupation 
      1      -2.7107      2.00000
      2      -1.3752      2.00000
      3       1.3521      2.00000
      4       3.3559      2.00000
      5       6.9864      0.00000
      6      10.3717      0.00000
      7      12.5760      0.00000
      8      12.9628      0.00000

 k-point   381 :       0.3438    0.3438    0.3438
  band No.  band energies     occupation 
      1      -4.7688      2.00000
      2       0.1940      2.00000
      3       4.6166      2.00000
      4       4.6166      2.00000
      5       7.2920      0.00000
      6       9.1181      0.00000
      7       9.1181      0.00000
      8      13.4477      0.00000

 k-point   382 :       0.4062    0.3438    0.3438
  band No.  band energies     occupation 
      1      -4.5701      2.00000
      2      -0.0882      2.00000
      3       4.0675      2.00000
      4       4.6469      2.00000
      5       7.5730      0.00000
      6       9.0999      0.00000
      7       9.1851      0.00000
      8      13.2057      0.00000

 k-point   383 :       0.4688    0.3438    0.3438
  band No.  band energies     occupation 
      1      -4.2871      2.00000
      2      -0.3136      2.00000
      3       3.2059      2.00000
      4       4.4869      2.00000
      5       8.0103      0.00000
      6       9.2994      0.00000
      7       9.4538      0.00000
      8      13.0543      0.00000

 k-point   384 :      -0.4687    0.3438    0.3438
  band No.  band energies     occupation 
      1      -3.9294      2.00000
      2      -0.5030      2.00000
      3       2.3560      2.00000
      4       4.2078      2.00000
      5       7.9402      0.00000
      6       9.9857      0.00000
      7      10.1054      0.00000
      8      12.9569      0.00000

 k-point   385 :      -0.4062    0.3438    0.3438
  band No.  band energies     occupation 
      1      -3.5132      2.00000
      2      -0.7167      2.00000
      3       1.6870      2.00000
      4       3.8932      2.00000
      5       7.6081      0.00000
      6      10.9532      0.00000
      7      11.0121      0.00000
      8      12.8479      0.00000

 k-point   386 :      -0.3437    0.3438    0.3438
  band No.  band energies     occupation 
      1      -3.0721      2.00000
      2      -1.0315      2.00000
      3       1.3395      2.00000
      4       3.5988      2.00000
      5       7.2661      0.00000
      6      11.5761      0.00000
      7      11.8694      0.00000
      8      12.3731      0.00000

 k-point   387 :       0.4062    0.4062    0.3438
  band No.  band energies     occupation 
      1      -4.4151      2.00000
      2      -0.3680      2.00000
      3       4.2824      2.00000
      4       4.3352      2.00000
      5       7.5374      0.00000
      6       8.8990      0.00000
      7       9.3604      0.00000
      8      12.9145      0.00000

 k-point   388 :       0.4688    0.4062    0.3438
  band No.  band energies     occupation 
      1      -4.1789      2.00000
      2      -0.5834      2.00000
      3       3.5638      2.00000
      4       4.3011      2.00000
      5       7.9214      0.00000
      6       8.8652      0.00000
      7       9.6516      0.00000
      8      12.7038      0.00000

 k-point   389 :      -0.4687    0.4062    0.3438
  band No.  band energies     occupation 
      1      -3.8699      2.00000
      2      -0.7401      2.00000
      3       2.7367      2.00000
      4       4.0719      2.00000
      5       8.2231      0.00000
      6       8.9879      0.00000
      7      10.3480      0.00000
      8      12.5916      0.00000

 k-point   390 :      -0.4062    0.4062    0.3438
  band No.  band energies     occupation 
      1      -3.5008      2.00000
      2      -0.8754      2.00000
      3       2.0027      2.00000
      4       3.7519      2.00000
      5       7.9650      0.00000
      6       9.7590      0.00000
      7      11.3098      0.00000
      8      12.5390      0.00000

 k-point   391 :      -0.3437    0.4062    0.3438
  band No.  band energies     occupation 
      1      -3.0902      2.00000
      2      -1.0709      2.00000
      3       1.5113      2.00000
      4       3.4302      2.00000
      5       7.6095      0.00000
      6      10.7510      0.00000
      7      11.8153      0.00000
      8      12.3441      0.00000

 k-point   392 :       0.4688    0.4688    0.3438
  band No.  band energies     occupation 
      1      -3.9952      2.00000
      2      -0.7899      2.00000
      3       3.4643      2.00000
      4       4.0582      2.00000
      5       7.7889      0.00000
      6       9.1264      0.00000
      7       9.8043      0.00000
      8      12.4258      0.00000

 k-point   393 :      -0.4687    0.4688    0.3438
  band No.  band energies     occupation 
      1      -3.7456      2.00000
      2      -0.9260      2.00000
      3       2.8743      2.00000
      4       3.8731      2.00000
      5       7.9941      0.00000
      6       9.1356      0.00000
      7      10.4391      0.00000
      8      12.2740      0.00000

 k-point   394 :      -0.4062    0.4688    0.3438
  band No.  band energies     occupation 
      1      -3.4416      2.00000
      2      -1.0126      2.00000
      3       2.2410      2.00000
      4       3.5259      2.00000
      5       8.6183      0.00000
      6       8.8198      0.00000
      7      11.4754      0.00000
      8      12.2086      0.00000

 k-point   395 :      -0.3437    0.4688    0.3438
  band No.  band energies     occupation 
      1      -3.0963      2.00000
      2      -1.1136      2.00000
      3       1.7468      2.00000
      4       3.1309      2.00000
      5       8.4396      0.00000
      6       9.5397      0.00000
      7      11.9025      0.00000
      8      12.3094      0.00000

 k-point   396 :      -0.4687   -0.4688    0.3438
  band No.  band energies     occupation 
      1      -3.5673      2.00000
      2      -1.0378      2.00000
      3       2.5592      2.00000
      4       3.8271      2.00000
      5       7.5924      0.00000
      6      10.0059      0.00000
      7      10.4240      0.00000
      8      12.0794      0.00000

 k-point   397 :      -0.4062   -0.4688    0.3438
  band No.  band energies     occupation 
      1      -3.3475      2.00000
      2      -1.0840      2.00000
      3       2.1085      2.00000
      4       3.5844      2.00000
      5       7.7714      0.00000
      6       9.8871      0.00000
      7      11.3987      0.00000
      8      11.9882      0.00000

 k-point   398 :      -0.4062   -0.4062    0.3438
  band No.  band energies     occupation 
      1      -3.2286      2.00000
      2      -1.0888      2.00000
      3       1.7739      2.00000
      4       3.6690      2.00000
      5       7.3721      0.00000
      6      11.0388      0.00000
      7      11.1776      0.00000
      8      11.9044      0.00000

 k-point   399 :       0.4062    0.4062    0.4062
  band No.  band energies     occupation 
      1      -4.3105      2.00000
      2      -0.6410      2.00000
      3       4.5064      2.00000
      4       4.5064      2.00000
      5       7.1654      0.00000
      6       9.0385      0.00000
      7       9.0385      0.00000
      8      13.4211      0.00000

 k-point   400 :       0.4687    0.4062    0.4062
  band No.  band energies     occupation 
      1      -4.1294      2.00000
      2      -0.8405      2.00000
      3       4.0275      2.00000
      4       4.4862      2.00000
      5       7.4717      0.00000
      6       9.0404      0.00000
      7       9.0987      0.00000
      8      13.4984      0.00000

 k-point   401 :      -0.4687    0.4062    0.4062
  band No.  band energies     occupation 
      1      -3.8809      2.00000
      2      -0.9608      2.00000
      3       3.2169      2.00000
      4       4.2853      2.00000
      5       7.8796      0.00000
      6       9.1795      0.00000
      7       9.5313      0.00000
      8      13.7546      0.00000

 k-point   402 :      -0.4062    0.4063    0.4062
  band No.  band energies     occupation 
      1      -3.5766      2.00000
      2      -1.0217      2.00000
      3       2.4085      2.00000
      4       3.9865      2.00000
      5       7.7315      0.00000
      6       9.9694      0.00000
      7      10.2530      0.00000
      8      13.2802      0.00000

 k-point   403 :       0.4687    0.4688    0.4062
  band No.  band energies     occupation 
      1      -4.0115      2.00000
      2      -1.0214      2.00000
      3       4.1392      2.00000
      4       4.3253      2.00000
      5       7.4539      0.00000
      6       8.8898      0.00000
      7       9.2260      0.00000
      8      13.4163      0.00000

 k-point   404 :      -0.4687    0.4688    0.4062
  band No.  band energies     occupation 
      1      -3.8354      2.00000
      2      -1.1102      2.00000
      3       3.5269      2.00000
      4       4.2082      2.00000
      5       7.8666      0.00000
      6       8.8187      0.00000
      7       9.5853      0.00000
      8      13.5274      0.00000

 k-point   405 :      -0.4062    0.4688    0.4062
  band No.  band energies     occupation 
      1      -3.6114      2.00000
      2      -1.1149      2.00000
      3       2.7754      2.00000
      4       3.9279      2.00000
      5       8.0805      0.00000
      6       9.0301      0.00000
      7      10.3722      0.00000
      8      13.4051      0.00000

 k-point   406 :      -0.4687   -0.4687    0.4062
  band No.  band energies     occupation 
      1      -3.7431      2.00000
      2      -1.1609      2.00000
      3       3.3055      2.00000
      4       4.1396      2.00000
      5       7.8042      0.00000
      6       9.1194      0.00000
      7       9.6452      0.00000
      8      13.4144      0.00000

 k-point   407 :       0.4687    0.4688    0.4687
  band No.  band energies     occupation 
      1      -3.9691      2.00000
      2      -1.1722      2.00000
      3       4.4510      2.00000
      4       4.4510      2.00000
      5       7.1013      0.00000
      6       8.9827      0.00000
      7       8.9827      0.00000
      8      13.3396      0.00000

 k-point   408 :      -0.4687    0.4688    0.4687
  band No.  band energies     occupation 
      1      -3.8774      2.00000
      2      -1.2181      2.00000
      3       4.0526      2.00000
      4       4.3770      2.00000
      5       7.4316      0.00000
      6       8.9345      0.00000
      7       9.1346      0.00000
      8      13.5084      0.00000


--------------------------------------------------------------------------------------------------------


 soft charge-density along one line, spin component           1
         0         1         2         3         4         5         6         7         8         9
 total charge-density along one line
 
 pseudopotential strength for first ion, spin component:           1
 18.437  25.722   0.000  -0.000   0.000   0.000  -0.000   0.000
 25.722  35.892   0.000  -0.000   0.000   0.000  -0.000   0.000
  0.000   0.000   4.181  -0.000  -0.000   7.791  -0.000  -0.000
 -0.000  -0.000  -0.000   4.181  -0.000  -0.000   7.791  -0.000
  0.000   0.000  -0.000  -0.000   4.181  -0.000  -0.000   7.791
  0.000   0.000   7.791  -0.000  -0.000  14.528  -0.000  -0.000
 -0.000  -0.000  -0.000   7.791  -0.000  -0.000  14.528  -0.000
  0.000   0.000  -0.000  -0.000   7.791  -0.000  -0.000  14.528
 total augmentation occupancy for first ion, spin component:           1
  5.531  -2.065   0.000  -0.000   0.000   0.000  -0.000   0.000
 -2.065   0.887   0.000   0.000   0.000   0.000   0.000  -0.000
 -0.000  -0.000   2.942   0.000   0.000  -0.663   0.000  -0.000
 -0.000   0.000   0.000   2.942   0.000  -0.000  -0.663   0.000
  0.000   0.000   0.000   0.000   2.942  -0.000   0.000  -0.663
 -0.000   0.000  -0.663   0.000  -0.000   0.158   0.000   0.000
 -0.000  -0.000   0.000  -0.663  -0.000   0.000   0.158   0.000
  0.000  -0.000  -0.000  -0.000  -0.663   0.000   0.000   0.158


------------------------ aborting loop because EDIFF is reached ----------------------------------------


    CHARGE:  cpu time    0.2180: real time    0.2183
    FORLOC:  cpu time    0.0000: real time    0.0017
    FORNL :  cpu time    0.2180: real time    0.2174
    STRESS:  cpu time    2.6206: real time    2.6393
    FORCOR:  cpu time    0.0320: real time    0.0311
    FORHAR:  cpu time    0.0060: real time    0.0060
    MIXING:  cpu time    0.0010: real time    0.0012
    OFIELD:  cpu time    0.0000: real time    0.0002

  FORCE on cell =-STRESS in cart. coord.  units (eV):
  Direction    XX          YY          ZZ          XY          YZ          ZX
  --------------------------------------------------------------------------------------
  Alpha Z     3.29544     3.29544     3.29544
  Ewald     -75.66560   -75.66567   -75.66559     0.00001     0.00000    -0.00000
  Hartree     5.05398     5.05398     5.05398     0.00000     0.00000     0.00000
  E(xc)     -25.25216   -25.25216   -25.25216    -0.00000    -0.00000    -0.00000
  Local     -29.52423   -29.52421   -29.52421    -0.00000     0.00001     0.00001
  n-local    75.15198    77.49986    79.81363    -1.08069    -1.40880     0.09639
  augment   -11.64880   -11.64880   -11.64881    -0.00000    -0.00001    -0.00001
  Kinetic    54.79506    56.26635    57.70261    -0.13746     0.52282    -1.14797
  Fock        0.00000     0.00000     0.00000     0.00000     0.00000     0.00000
  -------------------------------------------------------------------------------------
  Total       0.00178     0.00178     0.00178    -0.00000     0.00000     0.00000
  in kB       0.06964     0.06964     0.06964    -0.00000     0.00000     0.00000
  external pressure =        0.07 kB  Pullay stress =        0.00 kB


 VOLUME and BASIS-vectors are now :
 -----------------------------------------------------------------------------
  energy-cutoff  :      350.00
  volume of cell :       40.86
      direct lattice vectors                 reciprocal lattice vectors
     3.348133077  0.000000000  1.933045261     0.298673911 -0.105597132  0.000000000
     1.116044359  3.156651388  1.933045261     0.000000000  0.316791396  0.000000000
    -0.000000000  0.000000000  3.866090521    -0.149336955 -0.105597132  0.258659231

  length of vectors
     3.866090930  3.866091952  3.866090521     0.316791508  0.316791396  0.316791537


 FORCES acting on ions
    electron-ion (+dipol)            ewald-force                    non-local-force                 convergence-correction
 -----------------------------------------------------------------------------------------------
   0.525E-05 0.245E-04 0.591E-07   -.892E-05 -.418E-04 0.219E-15   -.199E-16 0.105E-16 0.312E-16   -.459E-07 -.322E-07 -.796E-07
   -.525E-05 -.245E-04 -.591E-07   0.892E-05 0.418E-04 -.217E-15   0.203E-16 -.105E-16 -.208E-16   0.459E-07 0.322E-07 0.796E-07
 -----------------------------------------------------------------------------------------------
   0.531E-13 -.486E-13 0.128E-12   -.337E-15 -.718E-16 0.201E-17   0.404E-18 0.000E+00 0.104E-16   0.101E-14 -.779E-16 -.702E-17
 
 
 POSITION                                       TOTAL-FORCE (eV/Angst)
 -----------------------------------------------------------------------------------
      3.90616      2.76207      6.76566         0.000000      0.000000     -0.000000
      0.55802      0.39458      0.96652        -0.000000      0.000000      0.000000
 -----------------------------------------------------------------------------------
    total drift:                                0.000000     -0.000000      0.000000


--------------------------------------------------------------------------------------------------------



  FREE ENERGIE OF THE ION-ELECTRON SYSTEM (eV)
  ---------------------------------------------------
  free  energy   TOTEN  =       -10.84766283 eV

  energy  without entropy=      -10.84766283  energy(sigma->0) =      -10.84766283
 
 d Force = 0.0000000E+00[ 0.000E+00, 0.000E+00]  d Energy = 0.8990871E-03-0.899E-03
 d Force = 0.0000000E+00[ 0.000E+00, 0.000E+00]  d Ewald  = 0.6762078E+00-0.676E+00


--------------------------------------------------------------------------------------------------------


    POTLOK:  cpu time    0.2040: real time    0.2108


--------------------------------------------------------------------------------------------------------




--------------------------------------------------------------------------------------------------------


  
 reached required accuracy - stopping structural energy minimisation
     LOOP+:  cpu time   28.3267: real time   28.7620
    4ORBIT:  cpu time    0.0000: real time    0.0000

 total amount of memory used by VASP MPI-rank0    60308. kBytes
=======================================================================

   base      :      30000. kBytes
   nonl-proj :      16000. kBytes
   fftplans  :       4177. kBytes
   grid      :       1926. kBytes
   one-center:          6. kBytes
   wavefun   :       8199. kBytes
 
  
  
 General timing and accounting informations for this job:
 ========================================================
  
                  Total CPU time used (sec):      121.650
                            User time (sec):      120.254
                          System time (sec):        1.396
                         Elapsed time (sec):      124.283
  
                   Maximum memory used (kb):       95164.
                   Average memory used (kb):          N/A
  
                          Minor page faults:        16913
                          Major page faults:            1
                 Voluntary context switches:        57658
