<?xml version="1.0" encoding="ISO-8859-1"?>
<modeling>
 <generator>
  <i name="program" type="string">vasp </i>
  <i name="version" type="string">6.2.0  </i>
  <i name="subversion" type="string">18Jan21 (build Aug 12 2022 13:00:08) complex                          parallel </i>
  <i name="platform" type="string">LinuxIFC </i>
  <i name="date" type="string">2024 11 03 </i>
  <i name="time" type="string">21:59:02 </i>
 </generator>
 <incar>
  <i type="int" name="ISTART">     0</i>
  <i type="string" name="PREC">Accurate      (Accurate strictly avoids</i>
  <i type="logical" name="ADDGRID"> T  </i>
  <i type="int" name="ISPIN">     1</i>
  <i type="int" name="NELM">    90</i>
  <i type="int" name="NELMIN">     6</i>
  <i type="int" name="IBRION">     2</i>
  <i name="EDIFF">      0.00000100</i>
  <i name="EDIFFG">     -0.00200000</i>
  <i type="int" name="NSW">   100</i>
  <i type="int" name="ISIF">     3</i>
  <i type="int" name="ISYM">     2</i>
  <i name="ENCUT">    350.00000000</i>
  <i type="logical" name="LREAL"> F  </i>
  <i type="int" name="ISMEAR">     0</i>
  <i name="SIGMA">      0.05000000</i>
  <i type="logical" name="LWAVE"> F  </i>
  <i type="logical" name="LCHARG"> F  </i>
  <i type="logical" name="LASPH"> T  </i>
 </incar>
 <primitive_cell>
  <structure name="primitive_cell" >
   <crystal>
    <varray name="basis" >
     <v>       3.33357300       0.00000000       1.92463900 </v>
     <v>       1.11119100       3.14292400       1.92463900 </v>
     <v>       0.00000000       0.00000000       3.84927800 </v>
    </varray>
    <i name="volume">     40.32952685 </i>
    <varray name="rec_basis" >
     <v>       0.29997843      -0.10605835       0.00000000 </v>
     <v>       0.00000000       0.31817505       0.00000000 </v>
     <v>      -0.14998922      -0.10605835       0.25978898 </v>
    </varray>
   </crystal>
   <varray name="positions" >
    <v>       0.87500000       0.87500000       0.87500000 </v>
    <v>       0.12500000       0.12500000       0.12500000 </v>
   </varray>
  </structure>
  <varray name="primitive_index" >
   <v type="int" >        1 </v>
   <v type="int" >        2 </v>
  </varray>
 </primitive_cell>
 <kpoints>
  <generation param="Monkhorst-Pack">
   <v type="int" name="divisions">      16       16       16 </v>
   <v name="usershift">      0.00000000       0.00000000       0.00000000 </v>
   <v name="genvec1">      0.06250000       0.00000000       0.00000000 </v>
   <v name="genvec2">      0.00000000       0.06250000       0.00000000 </v>
   <v name="genvec3">      0.00000000       0.00000000       0.06250000 </v>
   <v name="shift">      0.50000000       0.50000000       0.50000000 </v>
  </generation>
  <varray name="kpointlist" >
   <v>       0.03125000       0.03125000       0.03125000 </v>
   <v>       0.09375000       0.03125000       0.03125000 </v>
   <v>       0.15625000       0.03125000       0.03125000 </v>
   <v>       0.21875000       0.03125000       0.03125000 </v>
   <v>       0.28125000       0.03125000       0.03125000 </v>
   <v>       0.34375000       0.03125000       0.03125000 </v>
   <v>       0.40625000       0.03125000       0.03125000 </v>
   <v>       0.46875000       0.03125000       0.03125000 </v>
   <v>      -0.46875000       0.03125000       0.03125000 </v>
   <v>      -0.40625000       0.03125000       0.03125000 </v>
   <v>      -0.34375000       0.03125000       0.03125000 </v>
   <v>      -0.28125000       0.03125000       0.03125000 </v>
   <v>      -0.21875000       0.03125000       0.03125000 </v>
   <v>      -0.15625000       0.03125000       0.03125000 </v>
   <v>      -0.09375000       0.03125000       0.03125000 </v>
   <v>      -0.03125000       0.03125000       0.03125000 </v>
   <v>       0.09375000       0.09375000       0.03125000 </v>
   <v>       0.15625000       0.09375000       0.03125000 </v>
   <v>       0.21875000       0.09375000       0.03125000 </v>
   <v>       0.28125000       0.09375000       0.03125000 </v>
   <v>       0.34375000       0.09375000       0.03125000 </v>
   <v>       0.40625000       0.09375000       0.03125000 </v>
   <v>       0.46875000       0.09375000       0.03125000 </v>
   <v>      -0.46875000       0.09375000       0.03125000 </v>
   <v>      -0.40625000       0.09375000       0.03125000 </v>
   <v>      -0.34375000       0.09375000       0.03125000 </v>
   <v>      -0.28125000       0.09375000       0.03125000 </v>
   <v>      -0.21875000       0.09375000       0.03125000 </v>
   <v>      -0.15625000       0.09375000       0.03125000 </v>
   <v>      -0.09375000       0.09375000       0.03125000 </v>
   <v>      -0.03125000       0.09375000       0.03125000 </v>
   <v>       0.15625000       0.15625000       0.03125000 </v>
   <v>       0.21875000       0.15625000       0.03125000 </v>
   <v>       0.28125000       0.15625000       0.03125000 </v>
   <v>       0.34375000       0.15625000       0.03125000 </v>
   <v>       0.40625000       0.15625000       0.03125000 </v>
   <v>       0.46875000       0.15625000       0.03125000 </v>
   <v>      -0.46875000       0.15625000       0.03125000 </v>
   <v>      -0.40625000       0.15625000       0.03125000 </v>
   <v>      -0.34375000       0.15625000       0.03125000 </v>
   <v>      -0.28125000       0.15625000       0.03125000 </v>
   <v>      -0.21875000       0.15625000       0.03125000 </v>
   <v>      -0.15625000       0.15625000       0.03125000 </v>
   <v>      -0.09375000       0.15625000       0.03125000 </v>
   <v>      -0.03125000       0.15625000       0.03125000 </v>
   <v>       0.21875000       0.21875000       0.03125000 </v>
   <v>       0.28125000       0.21875000       0.03125000 </v>
   <v>       0.34375000       0.21875000       0.03125000 </v>
   <v>       0.40625000       0.21875000       0.03125000 </v>
   <v>       0.46875000       0.21875000       0.03125000 </v>
   <v>      -0.46875000       0.21875000       0.03125000 </v>
   <v>      -0.40625000       0.21875000       0.03125000 </v>
   <v>      -0.34375000       0.21875000       0.03125000 </v>
   <v>      -0.28125000       0.21875000       0.03125000 </v>
   <v>      -0.21875000       0.21875000       0.03125000 </v>
   <v>      -0.15625000       0.21875000       0.03125000 </v>
   <v>      -0.09375000       0.21875000       0.03125000 </v>
   <v>      -0.03125000       0.21875000       0.03125000 </v>
   <v>       0.28125000       0.28125000       0.03125000 </v>
   <v>       0.34375000       0.28125000       0.03125000 </v>
   <v>       0.40625000       0.28125000       0.03125000 </v>
   <v>       0.46875000       0.28125000       0.03125000 </v>
   <v>      -0.46875000       0.28125000       0.03125000 </v>
   <v>      -0.40625000       0.28125000       0.03125000 </v>
   <v>      -0.34375000       0.28125000       0.03125000 </v>
   <v>      -0.28125000       0.28125000       0.03125000 </v>
   <v>      -0.21875000       0.28125000       0.03125000 </v>
   <v>      -0.15625000       0.28125000       0.03125000 </v>
   <v>      -0.09375000       0.28125000       0.03125000 </v>
   <v>      -0.03125000       0.28125000       0.03125000 </v>
   <v>       0.34375000       0.34375000       0.03125000 </v>
   <v>       0.40625000       0.34375000       0.03125000 </v>
   <v>       0.46875000       0.34375000       0.03125000 </v>
   <v>      -0.46875000       0.34375000       0.03125000 </v>
   <v>      -0.40625000       0.34375000       0.03125000 </v>
   <v>      -0.34375000       0.34375000       0.03125000 </v>
   <v>      -0.28125000       0.34375000       0.03125000 </v>
   <v>      -0.21875000       0.34375000       0.03125000 </v>
   <v>      -0.15625000       0.34375000       0.03125000 </v>
   <v>      -0.09375000       0.34375000       0.03125000 </v>
   <v>      -0.03125000       0.34375000       0.03125000 </v>
   <v>       0.40625000       0.40625000       0.03125000 </v>
   <v>       0.46875000       0.40625000       0.03125000 </v>
   <v>      -0.46875000       0.40625000       0.03125000 </v>
   <v>      -0.40625000       0.40625000       0.03125000 </v>
   <v>      -0.34375000       0.40625000       0.03125000 </v>
   <v>      -0.28125000       0.40625000       0.03125000 </v>
   <v>      -0.21875000       0.40625000       0.03125000 </v>
   <v>      -0.15625000       0.40625000       0.03125000 </v>
   <v>      -0.09375000       0.40625000       0.03125000 </v>
   <v>      -0.03125000       0.40625000       0.03125000 </v>
   <v>       0.46875000       0.46875000       0.03125000 </v>
   <v>      -0.46875000       0.46875000       0.03125000 </v>
   <v>      -0.40625000       0.46875000       0.03125000 </v>
   <v>      -0.34375000       0.46875000       0.03125000 </v>
   <v>      -0.28125000       0.46875000       0.03125000 </v>
   <v>      -0.21875000       0.46875000       0.03125000 </v>
   <v>      -0.15625000       0.46875000       0.03125000 </v>
   <v>      -0.09375000       0.46875000       0.03125000 </v>
   <v>      -0.03125000       0.46875000       0.03125000 </v>
   <v>      -0.46875000      -0.46875000       0.03125000 </v>
   <v>      -0.40625000      -0.46875000       0.03125000 </v>
   <v>      -0.34375000      -0.46875000       0.03125000 </v>
   <v>      -0.28125000      -0.46875000       0.03125000 </v>
   <v>      -0.21875000      -0.46875000       0.03125000 </v>
   <v>      -0.15625000      -0.46875000       0.03125000 </v>
   <v>      -0.09375000      -0.46875000       0.03125000 </v>
   <v>      -0.40625000      -0.40625000       0.03125000 </v>
   <v>      -0.34375000      -0.40625000       0.03125000 </v>
   <v>      -0.28125000      -0.40625000       0.03125000 </v>
   <v>      -0.21875000      -0.40625000       0.03125000 </v>
   <v>      -0.15625000      -0.40625000       0.03125000 </v>
   <v>      -0.09375000      -0.40625000       0.03125000 </v>
   <v>      -0.34375000      -0.34375000       0.03125000 </v>
   <v>      -0.28125000      -0.34375000       0.03125000 </v>
   <v>      -0.21875000      -0.34375000       0.03125000 </v>
   <v>      -0.15625000      -0.34375000       0.03125000 </v>
   <v>      -0.09375000      -0.34375000       0.03125000 </v>
   <v>      -0.28125000      -0.28125000       0.03125000 </v>
   <v>      -0.21875000      -0.28125000       0.03125000 </v>
   <v>      -0.15625000      -0.28125000       0.03125000 </v>
   <v>      -0.09375000      -0.28125000       0.03125000 </v>
   <v>      -0.21875000      -0.21875000       0.03125000 </v>
   <v>      -0.15625000      -0.21875000       0.03125000 </v>
   <v>      -0.09375000      -0.21875000       0.03125000 </v>
   <v>      -0.15625000      -0.15625000       0.03125000 </v>
   <v>      -0.09375000      -0.15625000       0.03125000 </v>
   <v>      -0.09375000      -0.09375000       0.03125000 </v>
   <v>       0.09375000       0.09375000       0.09375000 </v>
   <v>       0.15625000       0.09375000       0.09375000 </v>
   <v>       0.21875000       0.09375000       0.09375000 </v>
   <v>       0.28125000       0.09375000       0.09375000 </v>
   <v>       0.34375000       0.09375000       0.09375000 </v>
   <v>       0.40625000       0.09375000       0.09375000 </v>
   <v>       0.46875000       0.09375000       0.09375000 </v>
   <v>      -0.46875000       0.09375000       0.09375000 </v>
   <v>      -0.40625000       0.09375000       0.09375000 </v>
   <v>      -0.34375000       0.09375000       0.09375000 </v>
   <v>      -0.28125000       0.09375000       0.09375000 </v>
   <v>      -0.21875000       0.09375000       0.09375000 </v>
   <v>      -0.15625000       0.09375000       0.09375000 </v>
   <v>      -0.09375000       0.09375000       0.09375000 </v>
   <v>       0.15625000       0.15625000       0.09375000 </v>
   <v>       0.21875000       0.15625000       0.09375000 </v>
   <v>       0.28125000       0.15625000       0.09375000 </v>
   <v>       0.34375000       0.15625000       0.09375000 </v>
   <v>       0.40625000       0.15625000       0.09375000 </v>
   <v>       0.46875000       0.15625000       0.09375000 </v>
   <v>      -0.46875000       0.15625000       0.09375000 </v>
   <v>      -0.40625000       0.15625000       0.09375000 </v>
   <v>      -0.34375000       0.15625000       0.09375000 </v>
   <v>      -0.28125000       0.15625000       0.09375000 </v>
   <v>      -0.21875000       0.15625000       0.09375000 </v>
   <v>      -0.15625000       0.15625000       0.09375000 </v>
   <v>      -0.09375000       0.15625000       0.09375000 </v>
   <v>       0.21875000       0.21875000       0.09375000 </v>
   <v>       0.28125000       0.21875000       0.09375000 </v>
   <v>       0.34375000       0.21875000       0.09375000 </v>
   <v>       0.40625000       0.21875000       0.09375000 </v>
   <v>       0.46875000       0.21875000       0.09375000 </v>
   <v>      -0.46875000       0.21875000       0.09375000 </v>
   <v>      -0.40625000       0.21875000       0.09375000 </v>
   <v>      -0.34375000       0.21875000       0.09375000 </v>
   <v>      -0.28125000       0.21875000       0.09375000 </v>
   <v>      -0.21875000       0.21875000       0.09375000 </v>
   <v>      -0.15625000       0.21875000       0.09375000 </v>
   <v>      -0.09375000       0.21875000       0.09375000 </v>
   <v>       0.28125000       0.28125000       0.09375000 </v>
   <v>       0.34375000       0.28125000       0.09375000 </v>
   <v>       0.40625000       0.28125000       0.09375000 </v>
   <v>       0.46875000       0.28125000       0.09375000 </v>
   <v>      -0.46875000       0.28125000       0.09375000 </v>
   <v>      -0.40625000       0.28125000       0.09375000 </v>
   <v>      -0.34375000       0.28125000       0.09375000 </v>
   <v>      -0.28125000       0.28125000       0.09375000 </v>
   <v>      -0.21875000       0.28125000       0.09375000 </v>
   <v>      -0.15625000       0.28125000       0.09375000 </v>
   <v>      -0.09375000       0.28125000       0.09375000 </v>
   <v>       0.34375000       0.34375000       0.09375000 </v>
   <v>       0.40625000       0.34375000       0.09375000 </v>
   <v>       0.46875000       0.34375000       0.09375000 </v>
   <v>      -0.46875000       0.34375000       0.09375000 </v>
   <v>      -0.40625000       0.34375000       0.09375000 </v>
   <v>      -0.34375000       0.34375000       0.09375000 </v>
   <v>      -0.28125000       0.34375000       0.09375000 </v>
   <v>      -0.21875000       0.34375000       0.09375000 </v>
   <v>      -0.15625000       0.34375000       0.09375000 </v>
   <v>      -0.09375000       0.34375000       0.09375000 </v>
   <v>       0.40625000       0.40625000       0.09375000 </v>
   <v>       0.46875000       0.40625000       0.09375000 </v>
   <v>      -0.46875000       0.40625000       0.09375000 </v>
   <v>      -0.40625000       0.40625000       0.09375000 </v>
   <v>      -0.34375000       0.40625000       0.09375000 </v>
   <v>      -0.28125000       0.40625000       0.09375000 </v>
   <v>      -0.21875000       0.40625000       0.09375000 </v>
   <v>      -0.15625000       0.40625000       0.09375000 </v>
   <v>      -0.09375000       0.40625000       0.09375000 </v>
   <v>       0.46875000       0.46875000       0.09375000 </v>
   <v>      -0.46875000       0.46875000       0.09375000 </v>
   <v>      -0.40625000       0.46875000       0.09375000 </v>
   <v>      -0.34375000       0.46875000       0.09375000 </v>
   <v>      -0.28125000       0.46875000       0.09375000 </v>
   <v>      -0.21875000       0.46875000       0.09375000 </v>
   <v>      -0.15625000       0.46875000       0.09375000 </v>
   <v>      -0.09375000       0.46875000       0.09375000 </v>
   <v>      -0.46875000      -0.46875000       0.09375000 </v>
   <v>      -0.40625000      -0.46875000       0.09375000 </v>
   <v>      -0.34375000      -0.46875000       0.09375000 </v>
   <v>      -0.28125000      -0.46875000       0.09375000 </v>
   <v>      -0.21875000      -0.46875000       0.09375000 </v>
   <v>      -0.15625000      -0.46875000       0.09375000 </v>
   <v>      -0.40625000      -0.40625000       0.09375000 </v>
   <v>      -0.34375000      -0.40625000       0.09375000 </v>
   <v>      -0.28125000      -0.40625000       0.09375000 </v>
   <v>      -0.21875000      -0.40625000       0.09375000 </v>
   <v>      -0.15625000      -0.40625000       0.09375000 </v>
   <v>      -0.34375000      -0.34375000       0.09375000 </v>
   <v>      -0.28125000      -0.34375000       0.09375000 </v>
   <v>      -0.21875000      -0.34375000       0.09375000 </v>
   <v>      -0.15625000      -0.34375000       0.09375000 </v>
   <v>      -0.28125000      -0.28125000       0.09375000 </v>
   <v>      -0.21875000      -0.28125000       0.09375000 </v>
   <v>      -0.15625000      -0.28125000       0.09375000 </v>
   <v>      -0.21875000      -0.21875000       0.09375000 </v>
   <v>      -0.15625000      -0.21875000       0.09375000 </v>
   <v>      -0.15625000      -0.15625000       0.09375000 </v>
   <v>       0.15625000       0.15625000       0.15625000 </v>
   <v>       0.21875000       0.15625000       0.15625000 </v>
   <v>       0.28125000       0.15625000       0.15625000 </v>
   <v>       0.34375000       0.15625000       0.15625000 </v>
   <v>       0.40625000       0.15625000       0.15625000 </v>
   <v>       0.46875000       0.15625000       0.15625000 </v>
   <v>      -0.46875000       0.15625000       0.15625000 </v>
   <v>      -0.40625000       0.15625000       0.15625000 </v>
   <v>      -0.34375000       0.15625000       0.15625000 </v>
   <v>      -0.28125000       0.15625000       0.15625000 </v>
   <v>      -0.21875000       0.15625000       0.15625000 </v>
   <v>      -0.15625000       0.15625000       0.15625000 </v>
   <v>       0.21875000       0.21875000       0.15625000 </v>
   <v>       0.28125000       0.21875000       0.15625000 </v>
   <v>       0.34375000       0.21875000       0.15625000 </v>
   <v>       0.40625000       0.21875000       0.15625000 </v>
   <v>       0.46875000       0.21875000       0.15625000 </v>
   <v>      -0.46875000       0.21875000       0.15625000 </v>
   <v>      -0.40625000       0.21875000       0.15625000 </v>
   <v>      -0.34375000       0.21875000       0.15625000 </v>
   <v>      -0.28125000       0.21875000       0.15625000 </v>
   <v>      -0.21875000       0.21875000       0.15625000 </v>
   <v>      -0.15625000       0.21875000       0.15625000 </v>
   <v>       0.28125000       0.28125000       0.15625000 </v>
   <v>       0.34375000       0.28125000       0.15625000 </v>
   <v>       0.40625000       0.28125000       0.15625000 </v>
   <v>       0.46875000       0.28125000       0.15625000 </v>
   <v>      -0.46875000       0.28125000       0.15625000 </v>
   <v>      -0.40625000       0.28125000       0.15625000 </v>
   <v>      -0.34375000       0.28125000       0.15625000 </v>
   <v>      -0.28125000       0.28125000       0.15625000 </v>
   <v>      -0.21875000       0.28125000       0.15625000 </v>
   <v>      -0.15625000       0.28125000       0.15625000 </v>
   <v>       0.34375000       0.34375000       0.15625000 </v>
   <v>       0.40625000       0.34375000       0.15625000 </v>
   <v>       0.46875000       0.34375000       0.15625000 </v>
   <v>      -0.46875000       0.34375000       0.15625000 </v>
   <v>      -0.40625000       0.34375000       0.15625000 </v>
   <v>      -0.34375000       0.34375000       0.15625000 </v>
   <v>      -0.28125000       0.34375000       0.15625000 </v>
   <v>      -0.21875000       0.34375000       0.15625000 </v>
   <v>      -0.15625000       0.34375000       0.15625000 </v>
   <v>       0.40625000       0.40625000       0.15625000 </v>
   <v>       0.46875000       0.40625000       0.15625000 </v>
   <v>      -0.46875000       0.40625000       0.15625000 </v>
   <v>      -0.40625000       0.40625000       0.15625000 </v>
   <v>      -0.34375000       0.40625000       0.15625000 </v>
   <v>      -0.28125000       0.40625000       0.15625000 </v>
   <v>      -0.21875000       0.40625000       0.15625000 </v>
   <v>      -0.15625000       0.40625000       0.15625000 </v>
   <v>       0.46875000       0.46875000       0.15625000 </v>
   <v>      -0.46875000       0.46875000       0.15625000 </v>
   <v>      -0.40625000       0.46875000       0.15625000 </v>
   <v>      -0.34375000       0.46875000       0.15625000 </v>
   <v>      -0.28125000       0.46875000       0.15625000 </v>
   <v>      -0.21875000       0.46875000       0.15625000 </v>
   <v>      -0.15625000       0.46875000       0.15625000 </v>
   <v>      -0.46875000      -0.46875000       0.15625000 </v>
   <v>      -0.40625000      -0.46875000       0.15625000 </v>
   <v>      -0.34375000      -0.46875000       0.15625000 </v>
   <v>      -0.28125000      -0.46875000       0.15625000 </v>
   <v>      -0.21875000      -0.46875000       0.15625000 </v>
   <v>      -0.40625000      -0.40625000       0.15625000 </v>
   <v>      -0.34375000      -0.40625000       0.15625000 </v>
   <v>      -0.28125000      -0.40625000       0.15625000 </v>
   <v>      -0.21875000      -0.40625000       0.15625000 </v>
   <v>      -0.34375000      -0.34375000       0.15625000 </v>
   <v>      -0.28125000      -0.34375000       0.15625000 </v>
   <v>      -0.21875000      -0.34375000       0.15625000 </v>
   <v>      -0.28125000      -0.28125000       0.15625000 </v>
   <v>      -0.21875000      -0.28125000       0.15625000 </v>
   <v>      -0.21875000      -0.21875000       0.15625000 </v>
   <v>       0.21875000       0.21875000       0.21875000 </v>
   <v>       0.28125000       0.21875000       0.21875000 </v>
   <v>       0.34375000       0.21875000       0.21875000 </v>
   <v>       0.40625000       0.21875000       0.21875000 </v>
   <v>       0.46875000       0.21875000       0.21875000 </v>
   <v>      -0.46875000       0.21875000       0.21875000 </v>
   <v>      -0.40625000       0.21875000       0.21875000 </v>
   <v>      -0.34375000       0.21875000       0.21875000 </v>
   <v>      -0.28125000       0.21875000       0.21875000 </v>
   <v>      -0.21875000       0.21875000       0.21875000 </v>
   <v>       0.28125000       0.28125000       0.21875000 </v>
   <v>       0.34375000       0.28125000       0.21875000 </v>
   <v>       0.40625000       0.28125000       0.21875000 </v>
   <v>       0.46875000       0.28125000       0.21875000 </v>
   <v>      -0.46875000       0.28125000       0.21875000 </v>
   <v>      -0.40625000       0.28125000       0.21875000 </v>
   <v>      -0.34375000       0.28125000       0.21875000 </v>
   <v>      -0.28125000       0.28125000       0.21875000 </v>
   <v>      -0.21875000       0.28125000       0.21875000 </v>
   <v>       0.34375000       0.34375000       0.21875000 </v>
   <v>       0.40625000       0.34375000       0.21875000 </v>
   <v>       0.46875000       0.34375000       0.21875000 </v>
   <v>      -0.46875000       0.34375000       0.21875000 </v>
   <v>      -0.40625000       0.34375000       0.21875000 </v>
   <v>      -0.34375000       0.34375000       0.21875000 </v>
   <v>      -0.28125000       0.34375000       0.21875000 </v>
   <v>      -0.21875000       0.34375000       0.21875000 </v>
   <v>       0.40625000       0.40625000       0.21875000 </v>
   <v>       0.46875000       0.40625000       0.21875000 </v>
   <v>      -0.46875000       0.40625000       0.21875000 </v>
   <v>      -0.40625000       0.40625000       0.21875000 </v>
   <v>      -0.34375000       0.40625000       0.21875000 </v>
   <v>      -0.28125000       0.40625000       0.21875000 </v>
   <v>      -0.21875000       0.40625000       0.21875000 </v>
   <v>       0.46875000       0.46875000       0.21875000 </v>
   <v>      -0.46875000       0.46875000       0.21875000 </v>
   <v>      -0.40625000       0.46875000       0.21875000 </v>
   <v>      -0.34375000       0.46875000       0.21875000 </v>
   <v>      -0.28125000       0.46875000       0.21875000 </v>
   <v>      -0.21875000       0.46875000       0.21875000 </v>
   <v>      -0.46875000      -0.46875000       0.21875000 </v>
   <v>      -0.40625000      -0.46875000       0.21875000 </v>
   <v>      -0.34375000      -0.46875000       0.21875000 </v>
   <v>      -0.28125000      -0.46875000       0.21875000 </v>
   <v>      -0.40625000      -0.40625000       0.21875000 </v>
   <v>      -0.34375000      -0.40625000       0.21875000 </v>
   <v>      -0.28125000      -0.40625000       0.21875000 </v>
   <v>      -0.34375000      -0.34375000       0.21875000 </v>
   <v>      -0.28125000      -0.34375000       0.21875000 </v>
   <v>      -0.28125000      -0.28125000       0.21875000 </v>
   <v>       0.28125000       0.28125000       0.28125000 </v>
   <v>       0.34375000       0.28125000       0.28125000 </v>
   <v>       0.40625000       0.28125000       0.28125000 </v>
   <v>       0.46875000       0.28125000       0.28125000 </v>
   <v>      -0.46875000       0.28125000       0.28125000 </v>
   <v>      -0.40625000       0.28125000       0.28125000 </v>
   <v>      -0.34375000       0.28125000       0.28125000 </v>
   <v>      -0.28125000       0.28125000       0.28125000 </v>
   <v>       0.34375000       0.34375000       0.28125000 </v>
   <v>       0.40625000       0.34375000       0.28125000 </v>
   <v>       0.46875000       0.34375000       0.28125000 </v>
   <v>      -0.46875000       0.34375000       0.28125000 </v>
   <v>      -0.40625000       0.34375000       0.28125000 </v>
   <v>      -0.34375000       0.34375000       0.28125000 </v>
   <v>      -0.28125000       0.34375000       0.28125000 </v>
   <v>       0.40625000       0.40625000       0.28125000 </v>
   <v>       0.46875000       0.40625000       0.28125000 </v>
   <v>      -0.46875000       0.40625000       0.28125000 </v>
   <v>      -0.40625000       0.40625000       0.28125000 </v>
   <v>      -0.34375000       0.40625000       0.28125000 </v>
   <v>      -0.28125000       0.40625000       0.28125000 </v>
   <v>       0.46875000       0.46875000       0.28125000 </v>
   <v>      -0.46875000       0.46875000       0.28125000 </v>
   <v>      -0.40625000       0.46875000       0.28125000 </v>
   <v>      -0.34375000       0.46875000       0.28125000 </v>
   <v>      -0.28125000       0.46875000       0.28125000 </v>
   <v>      -0.46875000      -0.46875000       0.28125000 </v>
   <v>      -0.40625000      -0.46875000       0.28125000 </v>
   <v>      -0.34375000      -0.46875000       0.28125000 </v>
   <v>      -0.40625000      -0.40625000       0.28125000 </v>
   <v>      -0.34375000      -0.40625000       0.28125000 </v>
   <v>      -0.34375000      -0.34375000       0.28125000 </v>
   <v>       0.34375000       0.34375000       0.34375000 </v>
   <v>       0.40625000       0.34375000       0.34375000 </v>
   <v>       0.46875000       0.34375000       0.34375000 </v>
   <v>      -0.46875000       0.34375000       0.34375000 </v>
   <v>      -0.40625000       0.34375000       0.34375000 </v>
   <v>      -0.34375000       0.34375000       0.34375000 </v>
   <v>       0.40625000       0.40625000       0.34375000 </v>
   <v>       0.46875000       0.40625000       0.34375000 </v>
   <v>      -0.46875000       0.40625000       0.34375000 </v>
   <v>      -0.40625000       0.40625000       0.34375000 </v>
   <v>      -0.34375000       0.40625000       0.34375000 </v>
   <v>       0.46875000       0.46875000       0.34375000 </v>
   <v>      -0.46875000       0.46875000       0.34375000 </v>
   <v>      -0.40625000       0.46875000       0.34375000 </v>
   <v>      -0.34375000       0.46875000       0.34375000 </v>
   <v>      -0.46875000      -0.46875000       0.34375000 </v>
   <v>      -0.40625000      -0.46875000       0.34375000 </v>
   <v>      -0.40625000      -0.40625000       0.34375000 </v>
   <v>       0.40625000       0.40625000       0.40625000 </v>
   <v>       0.46875000       0.40625000       0.40625000 </v>
   <v>      -0.46875000       0.40625000       0.40625000 </v>
   <v>      -0.40625000       0.40625000       0.40625000 </v>
   <v>       0.46875000       0.46875000       0.40625000 </v>
   <v>      -0.46875000       0.46875000       0.40625000 </v>
   <v>      -0.40625000       0.46875000       0.40625000 </v>
   <v>      -0.46875000      -0.46875000       0.40625000 </v>
   <v>       0.46875000       0.46875000       0.46875000 </v>
   <v>      -0.46875000       0.46875000       0.46875000 </v>
  </varray>
  <varray name="weights" >
   <v>       0.00048828 </v>
   <v>       0.00146484 </v>
   <v>       0.00146484 </v>
   <v>       0.00146484 </v>
   <v>       0.00146484 </v>
   <v>       0.00146484 </v>
   <v>       0.00146484 </v>
   <v>       0.00146484 </v>
   <v>       0.00146484 </v>
   <v>       0.00146484 </v>
   <v>       0.00146484 </v>
   <v>       0.00146484 </v>
   <v>       0.00146484 </v>
   <v>       0.00146484 </v>
   <v>       0.00146484 </v>
   <v>       0.00146484 </v>
   <v>       0.00146484 </v>
   <v>       0.00292969 </v>
   <v>       0.00292969 </v>
   <v>       0.00292969 </v>
   <v>       0.00292969 </v>
   <v>       0.00292969 </v>
   <v>       0.00292969 </v>
   <v>       0.00292969 </v>
   <v>       0.00292969 </v>
   <v>       0.00292969 </v>
   <v>       0.00292969 </v>
   <v>       0.00292969 </v>
   <v>       0.00292969 </v>
   <v>       0.00292969 </v>
   <v>       0.00292969 </v>
   <v>       0.00146484 </v>
   <v>       0.00292969 </v>
   <v>       0.00292969 </v>
   <v>       0.00292969 </v>
   <v>       0.00292969 </v>
   <v>       0.00292969 </v>
   <v>       0.00292969 </v>
   <v>       0.00292969 </v>
   <v>       0.00292969 </v>
   <v>       0.00292969 </v>
   <v>       0.00292969 </v>
   <v>       0.00292969 </v>
   <v>       0.00292969 </v>
   <v>       0.00292969 </v>
   <v>       0.00146484 </v>
   <v>       0.00292969 </v>
   <v>       0.00292969 </v>
   <v>       0.00292969 </v>
   <v>       0.00292969 </v>
   <v>       0.00292969 </v>
   <v>       0.00292969 </v>
   <v>       0.00292969 </v>
   <v>       0.00292969 </v>
   <v>       0.00292969 </v>
   <v>       0.00292969 </v>
   <v>       0.00292969 </v>
   <v>       0.00292969 </v>
   <v>       0.00146484 </v>
   <v>       0.00292969 </v>
   <v>       0.00292969 </v>
   <v>       0.00292969 </v>
   <v>       0.00292969 </v>
   <v>       0.00292969 </v>
   <v>       0.00292969 </v>
   <v>       0.00292969 </v>
   <v>       0.00292969 </v>
   <v>       0.00292969 </v>
   <v>       0.00292969 </v>
   <v>       0.00292969 </v>
   <v>       0.00146484 </v>
   <v>       0.00292969 </v>
   <v>       0.00292969 </v>
   <v>       0.00292969 </v>
   <v>       0.00292969 </v>
   <v>       0.00292969 </v>
   <v>       0.00292969 </v>
   <v>       0.00292969 </v>
   <v>       0.00292969 </v>
   <v>       0.00292969 </v>
   <v>       0.00292969 </v>
   <v>       0.00146484 </v>
   <v>       0.00292969 </v>
   <v>       0.00292969 </v>
   <v>       0.00292969 </v>
   <v>       0.00292969 </v>
   <v>       0.00292969 </v>
   <v>       0.00292969 </v>
   <v>       0.00292969 </v>
   <v>       0.00292969 </v>
   <v>       0.00292969 </v>
   <v>       0.00146484 </v>
   <v>       0.00292969 </v>
   <v>       0.00292969 </v>
   <v>       0.00292969 </v>
   <v>       0.00292969 </v>
   <v>       0.00292969 </v>
   <v>       0.00292969 </v>
   <v>       0.00292969 </v>
   <v>       0.00292969 </v>
   <v>       0.00146484 </v>
   <v>       0.00292969 </v>
   <v>       0.00292969 </v>
   <v>       0.00292969 </v>
   <v>       0.00292969 </v>
   <v>       0.00292969 </v>
   <v>       0.00292969 </v>
   <v>       0.00146484 </v>
   <v>       0.00292969 </v>
   <v>       0.00292969 </v>
   <v>       0.00292969 </v>
   <v>       0.00292969 </v>
   <v>       0.00292969 </v>
   <v>       0.00146484 </v>
   <v>       0.00292969 </v>
   <v>       0.00292969 </v>
   <v>       0.00292969 </v>
   <v>       0.00292969 </v>
   <v>       0.00146484 </v>
   <v>       0.00292969 </v>
   <v>       0.00292969 </v>
   <v>       0.00292969 </v>
   <v>       0.00146484 </v>
   <v>       0.00292969 </v>
   <v>       0.00292969 </v>
   <v>       0.00146484 </v>
   <v>       0.00292969 </v>
   <v>       0.00146484 </v>
   <v>       0.00048828 </v>
   <v>       0.00146484 </v>
   <v>       0.00146484 </v>
   <v>       0.00146484 </v>
   <v>       0.00146484 </v>
   <v>       0.00146484 </v>
   <v>       0.00146484 </v>
   <v>       0.00146484 </v>
   <v>       0.00146484 </v>
   <v>       0.00146484 </v>
   <v>       0.00146484 </v>
   <v>       0.00146484 </v>
   <v>       0.00146484 </v>
   <v>       0.00146484 </v>
   <v>       0.00146484 </v>
   <v>       0.00292969 </v>
   <v>       0.00292969 </v>
   <v>       0.00292969 </v>
   <v>       0.00292969 </v>
   <v>       0.00292969 </v>
   <v>       0.00292969 </v>
   <v>       0.00292969 </v>
   <v>       0.00292969 </v>
   <v>       0.00292969 </v>
   <v>       0.00292969 </v>
   <v>       0.00292969 </v>
   <v>       0.00292969 </v>
   <v>       0.00146484 </v>
   <v>       0.00292969 </v>
   <v>       0.00292969 </v>
   <v>       0.00292969 </v>
   <v>       0.00292969 </v>
   <v>       0.00292969 </v>
   <v>       0.00292969 </v>
   <v>       0.00292969 </v>
   <v>       0.00292969 </v>
   <v>       0.00292969 </v>
   <v>       0.00292969 </v>
   <v>       0.00292969 </v>
   <v>       0.00146484 </v>
   <v>       0.00292969 </v>
   <v>       0.00292969 </v>
   <v>       0.00292969 </v>
   <v>       0.00292969 </v>
   <v>       0.00292969 </v>
   <v>       0.00292969 </v>
   <v>       0.00292969 </v>
   <v>       0.00292969 </v>
   <v>       0.00292969 </v>
   <v>       0.00292969 </v>
   <v>       0.00146484 </v>
   <v>       0.00292969 </v>
   <v>       0.00292969 </v>
   <v>       0.00292969 </v>
   <v>       0.00292969 </v>
   <v>       0.00292969 </v>
   <v>       0.00292969 </v>
   <v>       0.00292969 </v>
   <v>       0.00292969 </v>
   <v>       0.00292969 </v>
   <v>       0.00146484 </v>
   <v>       0.00292969 </v>
   <v>       0.00292969 </v>
   <v>       0.00292969 </v>
   <v>       0.00292969 </v>
   <v>       0.00292969 </v>
   <v>       0.00292969 </v>
   <v>       0.00292969 </v>
   <v>       0.00292969 </v>
   <v>       0.00146484 </v>
   <v>       0.00292969 </v>
   <v>       0.00292969 </v>
   <v>       0.00292969 </v>
   <v>       0.00292969 </v>
   <v>       0.00292969 </v>
   <v>       0.00292969 </v>
   <v>       0.00292969 </v>
   <v>       0.00146484 </v>
   <v>       0.00292969 </v>
   <v>       0.00292969 </v>
   <v>       0.00292969 </v>
   <v>       0.00292969 </v>
   <v>       0.00292969 </v>
   <v>       0.00146484 </v>
   <v>       0.00292969 </v>
   <v>       0.00292969 </v>
   <v>       0.00292969 </v>
   <v>       0.00292969 </v>
   <v>       0.00146484 </v>
   <v>       0.00292969 </v>
   <v>       0.00292969 </v>
   <v>       0.00292969 </v>
   <v>       0.00146484 </v>
   <v>       0.00292969 </v>
   <v>       0.00292969 </v>
   <v>       0.00146484 </v>
   <v>       0.00292969 </v>
   <v>       0.00146484 </v>
   <v>       0.00048828 </v>
   <v>       0.00146484 </v>
   <v>       0.00146484 </v>
   <v>       0.00146484 </v>
   <v>       0.00146484 </v>
   <v>       0.00146484 </v>
   <v>       0.00146484 </v>
   <v>       0.00146484 </v>
   <v>       0.00146484 </v>
   <v>       0.00146484 </v>
   <v>       0.00146484 </v>
   <v>       0.00146484 </v>
   <v>       0.00146484 </v>
   <v>       0.00292969 </v>
   <v>       0.00292969 </v>
   <v>       0.00292969 </v>
   <v>       0.00292969 </v>
   <v>       0.00292969 </v>
   <v>       0.00292969 </v>
   <v>       0.00292969 </v>
   <v>       0.00292969 </v>
   <v>       0.00292969 </v>
   <v>       0.00292969 </v>
   <v>       0.00146484 </v>
   <v>       0.00292969 </v>
   <v>       0.00292969 </v>
   <v>       0.00292969 </v>
   <v>       0.00292969 </v>
   <v>       0.00292969 </v>
   <v>       0.00292969 </v>
   <v>       0.00292969 </v>
   <v>       0.00292969 </v>
   <v>       0.00292969 </v>
   <v>       0.00146484 </v>
   <v>       0.00292969 </v>
   <v>       0.00292969 </v>
   <v>       0.00292969 </v>
   <v>       0.00292969 </v>
   <v>       0.00292969 </v>
   <v>       0.00292969 </v>
   <v>       0.00292969 </v>
   <v>       0.00292969 </v>
   <v>       0.00146484 </v>
   <v>       0.00292969 </v>
   <v>       0.00292969 </v>
   <v>       0.00292969 </v>
   <v>       0.00292969 </v>
   <v>       0.00292969 </v>
   <v>       0.00292969 </v>
   <v>       0.00292969 </v>
   <v>       0.00146484 </v>
   <v>       0.00292969 </v>
   <v>       0.00292969 </v>
   <v>       0.00292969 </v>
   <v>       0.00292969 </v>
   <v>       0.00292969 </v>
   <v>       0.00292969 </v>
   <v>       0.00146484 </v>
   <v>       0.00292969 </v>
   <v>       0.00292969 </v>
   <v>       0.00292969 </v>
   <v>       0.00292969 </v>
   <v>       0.00146484 </v>
   <v>       0.00292969 </v>
   <v>       0.00292969 </v>
   <v>       0.00292969 </v>
   <v>       0.00146484 </v>
   <v>       0.00292969 </v>
   <v>       0.00292969 </v>
   <v>       0.00146484 </v>
   <v>       0.00292969 </v>
   <v>       0.00146484 </v>
   <v>       0.00048828 </v>
   <v>       0.00146484 </v>
   <v>       0.00146484 </v>
   <v>       0.00146484 </v>
   <v>       0.00146484 </v>
   <v>       0.00146484 </v>
   <v>       0.00146484 </v>
   <v>       0.00146484 </v>
   <v>       0.00146484 </v>
   <v>       0.00146484 </v>
   <v>       0.00146484 </v>
   <v>       0.00292969 </v>
   <v>       0.00292969 </v>
   <v>       0.00292969 </v>
   <v>       0.00292969 </v>
   <v>       0.00292969 </v>
   <v>       0.00292969 </v>
   <v>       0.00292969 </v>
   <v>       0.00292969 </v>
   <v>       0.00146484 </v>
   <v>       0.00292969 </v>
   <v>       0.00292969 </v>
   <v>       0.00292969 </v>
   <v>       0.00292969 </v>
   <v>       0.00292969 </v>
   <v>       0.00292969 </v>
   <v>       0.00292969 </v>
   <v>       0.00146484 </v>
   <v>       0.00292969 </v>
   <v>       0.00292969 </v>
   <v>       0.00292969 </v>
   <v>       0.00292969 </v>
   <v>       0.00292969 </v>
   <v>       0.00292969 </v>
   <v>       0.00146484 </v>
   <v>       0.00292969 </v>
   <v>       0.00292969 </v>
   <v>       0.00292969 </v>
   <v>       0.00292969 </v>
   <v>       0.00292969 </v>
   <v>       0.00146484 </v>
   <v>       0.00292969 </v>
   <v>       0.00292969 </v>
   <v>       0.00292969 </v>
   <v>       0.00146484 </v>
   <v>       0.00292969 </v>
   <v>       0.00292969 </v>
   <v>       0.00146484 </v>
   <v>       0.00292969 </v>
   <v>       0.00146484 </v>
   <v>       0.00048828 </v>
   <v>       0.00146484 </v>
   <v>       0.00146484 </v>
   <v>       0.00146484 </v>
   <v>       0.00146484 </v>
   <v>       0.00146484 </v>
   <v>       0.00146484 </v>
   <v>       0.00146484 </v>
   <v>       0.00146484 </v>
   <v>       0.00292969 </v>
   <v>       0.00292969 </v>
   <v>       0.00292969 </v>
   <v>       0.00292969 </v>
   <v>       0.00292969 </v>
   <v>       0.00292969 </v>
   <v>       0.00146484 </v>
   <v>       0.00292969 </v>
   <v>       0.00292969 </v>
   <v>       0.00292969 </v>
   <v>       0.00292969 </v>
   <v>       0.00292969 </v>
   <v>       0.00146484 </v>
   <v>       0.00292969 </v>
   <v>       0.00292969 </v>
   <v>       0.00292969 </v>
   <v>       0.00292969 </v>
   <v>       0.00146484 </v>
   <v>       0.00292969 </v>
   <v>       0.00292969 </v>
   <v>       0.00146484 </v>
   <v>       0.00292969 </v>
   <v>       0.00146484 </v>
   <v>       0.00048828 </v>
   <v>       0.00146484 </v>
   <v>       0.00146484 </v>
   <v>       0.00146484 </v>
   <v>       0.00146484 </v>
   <v>       0.00146484 </v>
   <v>       0.00146484 </v>
   <v>       0.00292969 </v>
   <v>       0.00292969 </v>
   <v>       0.00292969 </v>
   <v>       0.00292969 </v>
   <v>       0.00146484 </v>
   <v>       0.00292969 </v>
   <v>       0.00292969 </v>
   <v>       0.00292969 </v>
   <v>       0.00146484 </v>
   <v>       0.00292969 </v>
   <v>       0.00146484 </v>
   <v>       0.00048828 </v>
   <v>       0.00146484 </v>
   <v>       0.00146484 </v>
   <v>       0.00146484 </v>
   <v>       0.00146484 </v>
   <v>       0.00292969 </v>
   <v>       0.00292969 </v>
   <v>       0.00146484 </v>
   <v>       0.00048828 </v>
   <v>       0.00146484 </v>
  </varray>
 </kpoints>
 <parameters>
  <separator name="general" >
   <i type="string" name="SYSTEM">unknown system</i>
   <i type="logical" name="LCOMPAT"> F  </i>
  </separator>
  <separator name="electronic" >
   <i type="string" name="PREC">accura</i>
   <i name="ENMAX">    350.00000000</i>
   <i name="ENAUG">    322.06900000</i>
   <i name="EDIFF">      0.00000100</i>
   <i type="int" name="IALGO">    38</i>
   <i type="int" name="IWAVPR">    11</i>
   <i type="int" name="NBANDS">     8</i>
   <i type="int" name="NBANDSLOW">    -1</i>
   <i type="int" name="NBANDSHIGH">    -1</i>
   <i name="NELECT">      8.00000000</i>
   <i type="int" name="TURBO">     0</i>
   <i type="int" name="IRESTART">     0</i>
   <i type="int" name="NREBOOT">     0</i>
   <i type="int" name="NMIN">     0</i>
   <i name="EREF">      0.00000000</i>
   <separator name="electronic smearing" >
    <i type="int" name="ISMEAR">     0</i>
    <i name="SIGMA">      0.05000000</i>
    <i name="KSPACING">      0.50000000</i>
    <i type="logical" name="KGAMMA"> T  </i>
    <i type="logical" name="KBLOWUP"> T  </i>
   </separator>
   <separator name="electronic projectors" >
    <i type="logical" name="LREAL"> F  </i>
    <v name="ROPT">      0.00000000</v>
    <i type="int" name="LMAXPAW">  -100</i>
    <i type="int" name="LMAXMIX">     2</i>
    <i type="logical" name="NLSPLINE"> F  </i>
   </separator>
   <separator name="electronic startup" >
    <i type="int" name="ISTART">     0</i>
    <i type="int" name="ICHARG">     2</i>
    <i type="int" name="INIWAV">     1</i>
   </separator>
   <separator name="electronic spin" >
    <i type="int" name="ISPIN">     1</i>
    <i type="logical" name="LNONCOLLINEAR"> F  </i>
    <v name="MAGMOM">      1.00000000      1.00000000</v>
    <i name="NUPDOWN">     -1.00000000</i>
    <i type="logical" name="LSORBIT"> F  </i>
    <v name="SAXIS">      0.00000000      0.00000000      1.00000000</v>
    <i type="logical" name="LSPIRAL"> F  </i>
    <v name="QSPIRAL">      0.00000000      0.00000000      0.00000000</v>
    <i type="logical" name="LZEROZ"> F  </i>
   </separator>
   <separator name="electronic exchange-correlation" >
    <i type="logical" name="LASPH"> T  </i>
    <i type="logical" name="LMETAGGA"> F  </i>
   </separator>
   <separator name="electronic convergence" >
    <i type="int" name="NELM">    90</i>
    <i type="int" name="NELMDL">    -5</i>
    <i type="int" name="NELMIN">     6</i>
    <i name="ENINI">    350.00000000</i>
    <separator name="electronic convergence detail" >
     <i type="logical" name="LDIAG"> T  </i>
     <i type="logical" name="LSUBROT"> F  </i>
     <i name="WEIMIN">      0.00100000</i>
     <i name="EBREAK">      0.00000003</i>
     <i name="DEPER">      0.30000000</i>
     <i type="int" name="NRMM">     4</i>
     <i name="TIME">      0.40000000</i>
    </separator>
   </separator>
   <separator name="electronic mixer" >
    <i name="AMIX">      0.40000000</i>
    <i name="BMIX">      1.00000000</i>
    <i name="AMIN">      0.10000000</i>
    <i name="AMIX_MAG">      1.60000000</i>
    <i name="BMIX_MAG">      1.00000000</i>
    <separator name="electronic mixer details" >
     <i type="int" name="IMIX">     4</i>
     <i type="logical" name="MIXFIRST"> F  </i>
     <i type="int" name="MAXMIX">   -45</i>
     <i name="WC">    100.00000000</i>
     <i type="int" name="INIMIX">     1</i>
     <i type="int" name="MIXPRE">     1</i>
     <i type="int" name="MREMOVE">     5</i>
    </separator>
   </separator>
   <separator name="electronic dipolcorrection" >
    <i type="logical" name="LDIPOL"> F  </i>
    <i type="logical" name="LMONO"> F  </i>
    <i type="int" name="IDIPOL">     0</i>
    <i name="EPSILON">      1.00000000</i>
    <v name="DIPOL">   -100.00000000   -100.00000000   -100.00000000</v>
    <i name="EFIELD">      0.00000000</i>
   </separator>
  </separator>
  <separator name="grids" >
   <i type="int" name="NGX">    24</i>
   <i type="int" name="NGY">    24</i>
   <i type="int" name="NGZ">    24</i>
   <i type="int" name="NGXF">    48</i>
   <i type="int" name="NGYF">    48</i>
   <i type="int" name="NGZF">    48</i>
   <i type="logical" name="ADDGRID"> T  </i>
  </separator>
  <separator name="ionic" >
   <i type="int" name="NSW">   100</i>
   <i type="int" name="IBRION">     2</i>
   <i type="int" name="MDALGO">     0</i>
   <i type="int" name="ISIF">     3</i>
   <i name="PSTRESS">      0.00000000</i>
   <i name="EDIFFG">     -0.00200000</i>
   <i type="int" name="NFREE">     1</i>
   <i name="POTIM">      0.50000000</i>
   <i name="SMASS">     -3.00000000</i>
   <i name="SCALEE">      1.00000000</i>
  </separator>
  <separator name="ionic md" >
   <i name="TEBEG">      0.00010000</i>
   <i name="TEEND">      0.00010000</i>
   <i type="int" name="NBLOCK">     1</i>
   <i type="int" name="KBLOCK">   100</i>
   <i type="int" name="NPACO">   256</i>
   <i name="APACO">     16.00000000</i>
  </separator>
  <separator name="symmetry" >
   <i type="int" name="ISYM">     2</i>
   <i name="SYMPREC">      0.00001000</i>
  </separator>
  <separator name="dos" >
   <i type="int" name="LORBIT">     0</i>
   <v name="RWIGS">     -1.00000000</v>
   <i type="int" name="NEDOS">   301</i>
   <i name="EMIN">     10.00000000</i>
   <i name="EMAX">    -10.00000000</i>
   <i name="EFERMI">      0.00000000</i>
  </separator>
  <separator name="writing" >
   <i type="int" name="NWRITE">     2</i>
   <i type="logical" name="LWAVE"> F  </i>
   <i type="logical" name="LDOWNSAMPLE"> F  </i>
   <i type="logical" name="LCHARG"> F  </i>
   <i type="logical" name="LPARD"> F  </i>
   <i type="logical" name="LVTOT"> F  </i>
   <i type="logical" name="LVHAR"> F  </i>
   <i type="logical" name="LELF"> F  </i>
   <i type="logical" name="LOPTICS"> F  </i>
   <v name="STM">      0.00000000      0.00000000      0.00000000      0.00000000      0.00000000      0.00000000      0.00000000</v>
  </separator>
  <separator name="performance" >
   <i type="int" name="NPAR">     4</i>
   <i type="int" name="NSIM">     4</i>
   <i type="int" name="NBLK">    -1</i>
   <i type="logical" name="LPLANE"> T  </i>
   <i type="logical" name="LSCALAPACK"> T  </i>
   <i type="logical" name="LSCAAWARE"> F  </i>
   <i type="logical" name="LSCALU"> F  </i>
   <i type="logical" name="LASYNC"> F  </i>
   <i type="logical" name="LORBITALREAL"> F  </i>
  </separator>
  <separator name="miscellaneous" >
   <i type="int" name="IDIOT">     3</i>
   <i type="int" name="PHON_NSTRUCT">    -1</i>
   <i type="logical" name="LMUSIC"> F  </i>
   <v name="POMASS">     28.08500000</v>
   <v name="DARWINR">      0.00000000</v>
   <v name="DARWINV">      1.00000000</v>
   <i type="logical" name="LCORR"> T  </i>
  </separator>
  <i type="logical" name="GGA_COMPAT"> T  </i>
  <i type="logical" name="LBERRY"> F  </i>
  <i type="int" name="ICORELEVEL">     0</i>
  <i type="logical" name="LDAU"> F  </i>
  <i type="int" name="I_CONSTRAINED_M">     0</i>
  <separator name="electronic exchange-correlation" >
   <i type="string" name="GGA">--</i>
   <i type="int" name="VOSKOWN">     0</i>
   <i type="logical" name="LHFCALC"> F  </i>
   <i type="string" name="PRECFOCK"></i>
   <i type="logical" name="LSYMGRAD"> F  </i>
   <i type="logical" name="LHFONE"> F  </i>
   <i type="logical" name="LRHFCALC"> F  </i>
   <i type="logical" name="LTHOMAS"> F  </i>
   <i type="logical" name="LMODELHF"> F  </i>
   <i type="logical" name="LFOCKACE"> F  </i>
   <i name="ENCUT4O">     -1.00000000</i>
   <i type="int" name="EXXOEP">     0</i>
   <i type="int" name="FOURORBIT">     0</i>
   <i name="AEXX">      0.00000000</i>
   <i name="HFALPHA">      0.00000000</i>
   <i name="MCALPHA">      0.00000000</i>
   <i name="ALDAX">      1.00000000</i>
   <i name="AGGAX">      1.00000000</i>
   <i name="ALDAC">      1.00000000</i>
   <i name="AGGAC">      1.00000000</i>
   <i type="int" name="NKREDX">     1</i>
   <i type="int" name="NKREDY">     1</i>
   <i type="int" name="NKREDZ">     1</i>
   <i type="logical" name="SHIFTRED"> F  </i>
   <i type="logical" name="ODDONLY"> F  </i>
   <i type="logical" name="EVENONLY"> F  </i>
   <i type="int" name="LMAXFOCK">     0</i>
   <i type="int" name="NMAXFOCKAE">     0</i>
   <i type="logical" name="LFOCKAEDFT"> F  </i>
   <i name="HFSCREEN">      0.00000000</i>
   <i name="HFSCREENC">      0.00000000</i>
   <i type="int" name="NBANDSGWLOW">     0</i>
  </separator>
  <separator name="vdW DFT" >
   <i type="logical" name="LUSE_VDW"> F  </i>
   <i name="Zab_VDW">     -0.84910000</i>
   <i name="PARAM1">      0.12340000</i>
   <i name="PARAM2">      1.00000000</i>
   <i name="PARAM3">      0.00000000</i>
  </separator>
  <separator name="model GW" >
   <i type="int" name="MODEL_GW">     0</i>
   <i name="MODEL_EPS0">     12.09885805</i>
   <i name="MODEL_ALPHA">      1.00000000</i>
  </separator>
  <separator name="linear response parameters" >
   <i type="logical" name="LEPSILON"> F  </i>
   <i type="logical" name="LRPA"> F  </i>
   <i type="logical" name="LNABLA"> F  </i>
   <i type="logical" name="LVEL"> F  </i>
   <i type="int" name="KINTER">     0</i>
   <i name="CSHIFT">      0.10000000</i>
   <i name="OMEGAMAX">     -1.00000000</i>
   <i name="DEG_THRESHOLD">      0.00200000</i>
   <i name="RTIME">     -0.10000000</i>
   <i name="WPLASMAI">      0.00000000</i>
   <v name="DFIELD">      0.00000000      0.00000000      0.00000000</v>
   <v name="WPLASMA">      0.00000000      0.00000000      0.00000000      0.00000000      0.00000000      0.00000000      0.00000000      0.00000000      0.00000000</v>
  </separator>
  <separator name="orbital magnetization" >
   <i type="logical" name="NUCIND"> F  </i>
   <v name="MAGPOS">      0.00000000      0.00000000      0.00000000</v>
   <i type="logical" name="LNICSALL"> T  </i>
   <i type="logical" name="ORBITALMAG"> F  </i>
   <i type="logical" name="LMAGBLOCH"> F  </i>
   <i type="logical" name="LCHIMAG"> F  </i>
   <i type="logical" name="LGAUGE"> T  </i>
   <i type="int" name="MAGATOM">     0</i>
   <v name="MAGDIPOL">      0.00000000      0.00000000      0.00000000</v>
   <v name="AVECCONST">      0.00000000      0.00000000      0.00000000</v>
  </separator>
  <separator name="response functions" >
   <i type="logical" name="LFINITE_TEMPERATURE"> F  </i>
   <i type="logical" name="LADDER"> F  </i>
   <i type="logical" name="LRPAFORCE"> F  </i>
   <i type="logical" name="LFXC"> F  </i>
   <i type="logical" name="LHARTREE"> T  </i>
   <i type="int" name="IBSE">     0</i>
   <v type="int" name="KPOINT">    -1     0     0     0</v>
   <i type="logical" name="LTCTC"> F  </i>
   <i type="logical" name="LTCTE"> F  </i>
   <i type="logical" name="LTETE"> F  </i>
   <i type="logical" name="LTRIPLET"> F  </i>
   <i type="logical" name="LFXCEPS"> F  </i>
   <i type="logical" name="LFXHEG"> F  </i>
   <i type="int" name="NATURALO">     2</i>
   <i type="logical" name="LHOLEGF"> F  </i>
   <i type="logical" name="L2ORDER"> F  </i>
   <i type="logical" name="LDMP1"> F  </i>
   <i type="logical" name="LMP2LT"> F  </i>
   <i type="logical" name="LSMP2LT"> F  </i>
   <i type="logical" name="LGWLF"> F  </i>
   <i name="ENCUTGW">     -2.00000000</i>
   <i name="ENCUTGWSOFT">     -2.00000000</i>
   <i name="ENCUTLF">     -1.00000000</i>
   <i type="logical" name="LESF_SPLINES"> F  </i>
   <i type="int" name="LMAXMP2">    -1</i>
   <i name="SCISSOR">      0.00000000</i>
   <i type="int" name="NOMEGA">     0</i>
   <i type="int" name="NOMEGAR">     0</i>
   <i type="int" name="NBANDSGW">    -1</i>
   <i type="int" name="NBANDSO">    -1</i>
   <i type="int" name="NBANDSV">    -1</i>
   <i type="int" name="NELM">    90</i>
   <i type="int" name="NELMHF">     1</i>
   <i type="int" name="DIM">     3</i>
   <i type="int" name="IESPILON">     4</i>
   <i type="int" name="ANTIRES">     0</i>
   <i name="OMEGAMAX">    -30.00000000</i>
   <i name="OMEGAMIN">    -30.00000000</i>
   <i name="OMEGATL">   -200.00000000</i>
   <i type="int" name="OMEGAGRID">     0</i>
   <i name="CSHIFT">     -0.10000000</i>
   <i type="logical" name="LSELFENERGY"> F  </i>
   <i type="logical" name="LSPECTRAL"> F  </i>
   <i type="logical" name="LSPECTRALGW"> F  </i>
   <i type="logical" name="LSINGLES"> F  </i>
   <i type="logical" name="LFERMIGW"> F  </i>
   <i type="logical" name="ODDONLYGW"> F  </i>
   <i type="logical" name="EVENONLYGW"> F  </i>
   <i type="int" name="NKREDLFX">     1</i>
   <i type="int" name="NKREDLFY">     1</i>
   <i type="int" name="NKREDLFZ">     1</i>
   <i type="int" name="MAXMEM">  2800</i>
   <i type="int" name="TELESCOPE">     0</i>
   <i type="int" name="NTAUPAR">    -1</i>
   <i type="int" name="NOMEGAPAR">    -1</i>
   <i name="DAMP_NEWTON">      0.80000001</i>
   <i name="LAMBDA">      1.00000000</i>
  </separator>
  <separator name="External order field" >
   <i name="OFIELD_KAPPA">      0.00000000</i>
   <v name="OFIELD_K">      0.00000000      0.00000000      0.00000000</v>
   <i name="OFIELD_Q6_NEAR">      0.00000000</i>
   <i name="OFIELD_Q6_FAR">      0.00000000</i>
   <i name="OFIELD_A">      0.00000000</i>
  </separator>
 </parameters>
 <atominfo>
  <atoms>       2 </atoms>
  <types>       1 </types>
  <array name="atoms" >
   <dimension dim="1">ion</dimension>
   <field type="string">element</field>
   <field type="int">atomtype</field>
   <set>
    <rc><c>Si</c><c>   1</c></rc>
    <rc><c>Si</c><c>   1</c></rc>
   </set>
  </array>
  <array name="atomtypes" >
   <dimension dim="1">type</dimension>
   <field type="int">atomspertype</field>
   <field type="string">element</field>
   <field>mass</field>
   <field>valence</field>
   <field type="string">pseudopotential</field>
   <set>
    <rc><c>   2</c><c>Si</c><c>     28.08500000</c><c>      4.00000000</c><c>  PAW_PBE Si 05Jan2001                  </c></rc>
   </set>
  </array>
 </atominfo>
 <structure name="initialpos" >
  <crystal>
   <varray name="basis" >
    <v>       3.33357300       0.00000000       1.92463900 </v>
    <v>       1.11119100       3.14292400       1.92463900 </v>
    <v>       0.00000000       0.00000000       3.84927800 </v>
   </varray>
   <i name="volume">     40.32952685 </i>
   <varray name="rec_basis" >
    <v>       0.29997843      -0.10605835       0.00000000 </v>
    <v>       0.00000000       0.31817505       0.00000000 </v>
    <v>      -0.14998922      -0.10605835       0.25978898 </v>
   </varray>
  </crystal>
  <varray name="positions" >
   <v>       0.87500000       0.87500000       0.87500000 </v>
   <v>       0.12500000       0.12500000       0.12500000 </v>
  </varray>
 </structure>
 <calculation>
  <scstep>
   <time name="dav">    3.29    3.30</time>
   <time name="total">    3.51    3.51</time>
   <energy>
    <i name="alphaZ">      3.33880741 </i>
    <i name="ewald">   -227.98820643 </i>
    <i name="hartreedc">    -11.11484531 </i>
    <i name="XCdc">    -18.63153637 </i>
    <i name="pawpsdc">    176.24759923 </i>
    <i name="pawaedc">   -141.06103558 </i>
    <i name="eentropy">     -0.00044121 </i>
    <i name="bandstr">     14.44930190 </i>
    <i name="atom">    206.13125414 </i>
    <i name="e_fr_energy">      1.37089778 </i>
    <i name="e_wo_entrp">      1.37133898 </i>
    <i name="e_0_energy">      1.37111838 </i>
   </energy>
  </scstep>
  <scstep>
   <time name="dav">    4.80    4.82</time>
   <time name="total">    4.80    4.82</time>
   <energy>
    <i name="e_fr_energy">    -10.88224450 </i>
    <i name="e_wo_entrp">    -10.88224450 </i>
    <i name="e_0_energy">    -10.88224450 </i>
   </energy>
  </scstep>
  <scstep>
   <time name="dav">    4.06    4.07</time>
   <time name="total">    4.06    4.08</time>
   <energy>
    <i name="e_fr_energy">    -11.02093484 </i>
    <i name="e_wo_entrp">    -11.02093484 </i>
    <i name="e_0_energy">    -11.02093484 </i>
   </energy>
  </scstep>
  <scstep>
   <time name="dav">    4.91    4.93</time>
   <time name="total">    4.91    4.94</time>
   <energy>
    <i name="e_fr_energy">    -11.02145856 </i>
    <i name="e_wo_entrp">    -11.02145856 </i>
    <i name="e_0_energy">    -11.02145856 </i>
   </energy>
  </scstep>
  <scstep>
   <time name="dav">    4.22    4.25</time>
   <time name="total">    4.45    4.47</time>
   <energy>
    <i name="e_fr_energy">    -11.02145903 </i>
    <i name="e_wo_entrp">    -11.02145903 </i>
    <i name="e_0_energy">    -11.02145903 </i>
   </energy>
  </scstep>
  <scstep>
   <time name="dav">    3.81    3.81</time>
   <time name="total">    4.24    4.25</time>
   <energy>
    <i name="e_fr_energy">    -10.89995408 </i>
    <i name="e_wo_entrp">    -10.89995408 </i>
    <i name="e_0_energy">    -10.89995408 </i>
   </energy>
  </scstep>
  <scstep>
   <time name="dav">    4.15    4.15</time>
   <time name="total">    4.59    4.61</time>
   <energy>
    <i name="e_fr_energy">    -10.84441107 </i>
    <i name="e_wo_entrp">    -10.84441107 </i>
    <i name="e_0_energy">    -10.84441107 </i>
   </energy>
  </scstep>
  <scstep>
   <time name="dav">    4.09    4.09</time>
   <time name="total">    4.52    4.55</time>
   <energy>
    <i name="e_fr_energy">    -10.84546862 </i>
    <i name="e_wo_entrp">    -10.84546862 </i>
    <i name="e_0_energy">    -10.84546862 </i>
   </energy>
  </scstep>
  <scstep>
   <time name="dav">    4.61    4.61</time>
   <time name="total">    5.03    5.06</time>
   <energy>
    <i name="e_fr_energy">    -10.84566136 </i>
    <i name="e_wo_entrp">    -10.84566136 </i>
    <i name="e_0_energy">    -10.84566136 </i>
   </energy>
  </scstep>
  <scstep>
   <time name="dav">    3.79    3.79</time>
   <time name="total">    4.22    4.23</time>
   <energy>
    <i name="e_fr_energy">    -10.84568645 </i>
    <i name="e_wo_entrp">    -10.84568645 </i>
    <i name="e_0_energy">    -10.84568645 </i>
   </energy>
  </scstep>
  <scstep>
   <time name="dav">    4.37    4.38</time>
   <time name="total">    4.58    4.59</time>
   <energy>
    <i name="alphaZ">      3.33880741 </i>
    <i name="ewald">   -227.98820643 </i>
    <i name="hartreedc">    -15.00439642 </i>
    <i name="XCdc">    -17.99570957 </i>
    <i name="pawpsdc">    864.84754968 </i>
    <i name="pawaedc">   -829.87910078 </i>
    <i name="eentropy">     -0.00000000 </i>
    <i name="bandstr">      5.70411583 </i>
    <i name="atom">    206.13125414 </i>
    <i name="e_fr_energy">    -10.84568614 </i>
    <i name="e_wo_entrp">    -10.84568614 </i>
    <i name="e_0_energy">    -10.84568614 </i>
   </energy>
  </scstep>
  <structure>
   <crystal>
    <varray name="basis" >
     <v>       3.33357300       0.00000000       1.92463900 </v>
     <v>       1.11119100       3.14292400       1.92463900 </v>
     <v>       0.00000000       0.00000000       3.84927800 </v>
    </varray>
    <i name="volume">     40.32952685 </i>
    <varray name="rec_basis" >
     <v>       0.29997843      -0.10605835       0.00000000 </v>
     <v>       0.00000000       0.31817505       0.00000000 </v>
     <v>      -0.14998922      -0.10605835       0.25978898 </v>
    </varray>
   </crystal>
   <varray name="positions" >
    <v>       0.87500000       0.87500000       0.87500000 </v>
    <v>       0.12500000       0.12500000       0.12500000 </v>
   </varray>
  </structure>
  <varray name="forces" >
   <v>      -0.00000000      -0.00000000      -0.00000000 </v>
   <v>       0.00000000       0.00000000       0.00000000 </v>
  </varray>
  <varray name="stress" >
   <v>      12.13586393       0.00000000       0.00000000 </v>
   <v>       0.00000000      12.13587347       0.00000000 </v>
   <v>      -0.00000000       0.00000000      12.13586054 </v>
  </varray>
  <energy>
   <i name="e_fr_energy">    -10.84568614 </i>
   <i name="e_wo_entrp">    -10.84568614 </i>
   <i name="e_0_energy">    -10.84568614 </i>
  </energy>
  <time name="totalsc">   52.98   53.49</time>
 </calculation>
 <calculation>
  <scstep>
   <time name="dav">    4.02    4.02</time>
   <time name="total">    4.45    4.46</time>
   <energy>
    <i name="alphaZ">      3.26607498 </i>
    <i name="ewald">   -226.32054268 </i>
    <i name="hartreedc">    -14.89621629 </i>
    <i name="XCdc">    -18.10333497 </i>
    <i name="pawpsdc">    864.80866920 </i>
    <i name="pawaedc">   -829.84023102 </i>
    <i name="eentropy">     -0.00000000 </i>
    <i name="bandstr">      4.10486032 </i>
    <i name="atom">    206.13125414 </i>
    <i name="e_fr_energy">    -10.84946631 </i>
    <i name="e_wo_entrp">    -10.84946631 </i>
    <i name="e_0_energy">    -10.84946631 </i>
   </energy>
  </scstep>
  <scstep>
   <time name="dav">    4.27    4.27</time>
   <time name="total">    4.70    4.72</time>
   <energy>
    <i name="e_fr_energy">    -10.84770007 </i>
    <i name="e_wo_entrp">    -10.84770007 </i>
    <i name="e_0_energy">    -10.84770007 </i>
   </energy>
  </scstep>
  <scstep>
   <time name="dav">    3.84    3.84</time>
   <time name="total">    4.26    4.28</time>
   <energy>
    <i name="e_fr_energy">    -10.84676999 </i>
    <i name="e_wo_entrp">    -10.84676999 </i>
    <i name="e_0_energy">    -10.84676999 </i>
   </energy>
  </scstep>
  <scstep>
   <time name="dav">    4.48    4.49</time>
   <time name="total">    4.91    4.94</time>
   <energy>
    <i name="e_fr_energy">    -10.84676995 </i>
    <i name="e_wo_entrp">    -10.84676995 </i>
    <i name="e_0_energy">    -10.84676995 </i>
   </energy>
  </scstep>
  <scstep>
   <time name="dav">    3.84    3.85</time>
   <time name="total">    4.27    4.30</time>
   <energy>
    <i name="e_fr_energy">    -10.84676356 </i>
    <i name="e_wo_entrp">    -10.84676356 </i>
    <i name="e_0_energy">    -10.84676356 </i>
   </energy>
  </scstep>
  <scstep>
   <time name="dav">    2.61    2.62</time>
   <time name="total">    2.82    2.84</time>
   <energy>
    <i name="alphaZ">      3.26607498 </i>
    <i name="ewald">   -226.32054268 </i>
    <i name="hartreedc">    -15.26869381 </i>
    <i name="XCdc">    -18.09608562 </i>
    <i name="pawpsdc">    826.77317239 </i>
    <i name="pawaedc">   -791.78577046 </i>
    <i name="eentropy">     -0.00000000 </i>
    <i name="bandstr">      4.45382731 </i>
    <i name="atom">    206.13125414 </i>
    <i name="e_fr_energy">    -10.84676374 </i>
    <i name="e_wo_entrp">    -10.84676374 </i>
    <i name="e_0_energy">    -10.84676374 </i>
   </energy>
  </scstep>
  <structure>
   <crystal>
    <varray name="basis" >
     <v>       3.35813674       0.00000000       1.93882087 </v>
     <v>       1.11937891       3.16608294       1.93882087 </v>
     <v>      -0.00000000       0.00000000       3.87764175 </v>
    </varray>
    <i name="volume">     41.22762769 </i>
    <varray name="rec_basis" >
     <v>       0.29778418      -0.10528257       0.00000000 </v>
     <v>       0.00000000       0.31584770       0.00000000 </v>
     <v>      -0.14889209      -0.10528257       0.25788870 </v>
    </varray>
   </crystal>
   <varray name="positions" >
    <v>       0.87500000       0.87500000       0.87500000 </v>
    <v>       0.12500000       0.12500000       0.12500000 </v>
   </varray>
  </structure>
  <varray name="forces" >
   <v>       0.00000000       0.00000000       0.00000000 </v>
   <v>      -0.00000000       0.00000000       0.00000000 </v>
  </varray>
  <varray name="stress" >
   <v>      -7.74996104       0.00000000       0.00000000 </v>
   <v>       0.00000000      -7.74996721      -0.00000000 </v>
   <v>       0.00000000       0.00000000      -7.74995884 </v>
  </varray>
  <energy>
   <i name="e_fr_energy">    -10.84676374 </i>
   <i name="e_wo_entrp">    -10.84676374 </i>
   <i name="e_0_energy">    -10.84676374 </i>
  </energy>
  <time name="totalsc">   29.46   29.93</time>
 </calculation>
 <calculation>
  <scstep>
   <time name="dav">    4.00    4.00</time>
   <time name="total">    4.43    4.44</time>
   <energy>
    <i name="alphaZ">      3.29543799 </i>
    <i name="ewald">   -226.99675052 </i>
    <i name="hartreedc">    -15.31504893 </i>
    <i name="XCdc">    -18.05260937 </i>
    <i name="pawpsdc">    825.00750900 </i>
    <i name="pawaedc">   -790.02021903 </i>
    <i name="eentropy">     -0.00000000 </i>
    <i name="bandstr">      5.10232766 </i>
    <i name="atom">    206.13125414 </i>
    <i name="e_fr_energy">    -10.84809907 </i>
    <i name="e_wo_entrp">    -10.84809907 </i>
    <i name="e_0_energy">    -10.84809907 </i>
   </energy>
  </scstep>
  <scstep>
   <time name="dav">    4.38    4.39</time>
   <time name="total">    4.81    4.84</time>
   <energy>
    <i name="e_fr_energy">    -10.84780772 </i>
    <i name="e_wo_entrp">    -10.84780772 </i>
    <i name="e_0_energy">    -10.84780772 </i>
   </energy>
  </scstep>
  <scstep>
   <time name="dav">    3.82    3.82</time>
   <time name="total">    4.25    4.27</time>
   <energy>
    <i name="e_fr_energy">    -10.84766052 </i>
    <i name="e_wo_entrp">    -10.84766052 </i>
    <i name="e_0_energy">    -10.84766052 </i>
   </energy>
  </scstep>
  <scstep>
   <time name="dav">    4.39    4.40</time>
   <time name="total">    4.82    4.84</time>
   <energy>
    <i name="e_fr_energy">    -10.84766113 </i>
    <i name="e_wo_entrp">    -10.84766113 </i>
    <i name="e_0_energy">    -10.84766113 </i>
   </energy>
  </scstep>
  <scstep>
   <time name="dav">    3.56    3.57</time>
   <time name="total">    3.99    4.01</time>
   <energy>
    <i name="e_fr_energy">    -10.84766290 </i>
    <i name="e_wo_entrp">    -10.84766290 </i>
    <i name="e_0_energy">    -10.84766290 </i>
   </energy>
  </scstep>
  <scstep>
   <time name="dav">    2.23    2.23</time>
   <time name="total">    2.44    2.46</time>
   <energy>
    <i name="alphaZ">      3.29543799 </i>
    <i name="ewald">   -226.99675052 </i>
    <i name="hartreedc">    -15.16217369 </i>
    <i name="XCdc">    -18.05537767 </i>
    <i name="pawpsdc">    840.72994066 </i>
    <i name="pawaedc">   -805.75023471 </i>
    <i name="eentropy">     -0.00000000 </i>
    <i name="bandstr">      4.96024096 </i>
    <i name="atom">    206.13125414 </i>
    <i name="e_fr_energy">    -10.84766283 </i>
    <i name="e_wo_entrp">    -10.84766283 </i>
    <i name="e_0_energy">    -10.84766283 </i>
   </energy>
  </scstep>
  <structure>
   <crystal>
    <varray name="basis" >
     <v>       3.34813308       0.00000000       1.93304526 </v>
     <v>       1.11604436       3.15665139       1.93304526 </v>
     <v>      -0.00000000       0.00000000       3.86609052 </v>
    </varray>
    <i name="volume">     40.86028129 </i>
    <varray name="rec_basis" >
     <v>       0.29867391      -0.10559713       0.00000000 </v>
     <v>       0.00000000       0.31679140       0.00000000 </v>
     <v>      -0.14933696      -0.10559713       0.25865923 </v>
    </varray>
   </crystal>
   <varray name="positions" >
    <v>       0.87500000       0.87500000       0.87500000 </v>
    <v>       0.12500000       0.12500000       0.12500000 </v>
   </varray>
  </structure>
  <varray name="forces" >
   <v>       0.00000000       0.00000000      -0.00000000 </v>
   <v>      -0.00000000       0.00000000       0.00000000 </v>
  </varray>
  <varray name="stress" >
   <v>       0.06964416      -0.00000000       0.00000000 </v>
   <v>      -0.00000000       0.06964422       0.00000000 </v>
   <v>       0.00000000       0.00000000       0.06964414 </v>
  </varray>
  <energy>
   <i name="e_fr_energy">    -10.84766283 </i>
   <i name="e_wo_entrp">    -10.84766283 </i>
   <i name="e_0_energy">    -10.84766283 </i>
  </energy>
  <time name="totalsc">   28.33   28.76</time>
  <eigenvalues>
   <array>
    <dimension dim="1">band</dimension>
    <dimension dim="2">kpoint</dimension>
    <dimension dim="3">spin</dimension>
    <field>eigene</field>
    <field>occ</field>
    <set>
     <set comment="spin 1">
      <set comment="kpoint 1">
       <r>   -6.1840    1.0000 </r>
       <r>    5.4735    1.0000 </r>
       <r>    5.6020    1.0000 </r>
       <r>    5.6020    1.0000 </r>
       <r>    8.2125    0.0000 </r>
       <r>    8.2129    0.0000 </r>
       <r>    8.2129    0.0000 </r>
       <r>    8.8610    0.0000 </r>
      </set>
      <set comment="kpoint 2">
       <r>   -6.1169    1.0000 </r>
       <r>    4.8958    1.0000 </r>
       <r>    5.3548    1.0000 </r>
       <r>    5.5725    1.0000 </r>
       <r>    8.2712    0.0000 </r>
       <r>    8.2800    0.0000 </r>
       <r>    8.4101    0.0000 </r>
       <r>    9.3823    0.0000 </r>
      </set>
      <set comment="kpoint 3">
       <r>   -5.9503    1.0000 </r>
       <r>    3.8283    1.0000 </r>
       <r>    5.0960    1.0000 </r>
       <r>    5.4044    1.0000 </r>
       <r>    8.1121    0.0000 </r>
       <r>    8.5395    0.0000 </r>
       <r>    8.7600    0.0000 </r>
       <r>   10.3783    0.0000 </r>
      </set>
      <set comment="kpoint 4">
       <r>   -5.6876    1.0000 </r>
       <r>    2.6759    1.0000 </r>
       <r>    4.8451    1.0000 </r>
       <r>    5.1756    1.0000 </r>
       <r>    7.8737    0.0000 </r>
       <r>    8.8411    0.0000 </r>
       <r>    9.0858    0.0000 </r>
       <r>   11.4249    0.0000 </r>
      </set>
      <set comment="kpoint 5">
       <r>   -5.3360    1.0000 </r>
       <r>    1.5541    1.0000 </r>
       <r>    4.6318    1.0000 </r>
       <r>    4.9449    1.0000 </r>
       <r>    7.6385    0.0000 </r>
       <r>    9.0342    0.0000 </r>
       <r>    9.2448    0.0000 </r>
       <r>   12.3366    0.0000 </r>
      </set>
      <set comment="kpoint 6">
       <r>   -4.9108    1.0000 </r>
       <r>    0.5169    1.0000 </r>
       <r>    4.4714    1.0000 </r>
       <r>    4.7428    1.0000 </r>
       <r>    7.4410    0.0000 </r>
       <r>    9.0756    0.0000 </r>
       <r>    9.2230    0.0000 </r>
       <r>   13.0710    0.0000 </r>
      </set>
      <set comment="kpoint 7">
       <r>   -4.4484    1.0000 </r>
       <r>   -0.3819    1.0000 </r>
       <r>    4.3696    1.0000 </r>
       <r>    4.5834    1.0000 </r>
       <r>    7.2968    0.0000 </r>
       <r>    9.0388    0.0000 </r>
       <r>    9.1147    0.0000 </r>
       <r>   13.4242    0.0000 </r>
      </set>
      <set comment="kpoint 8">
       <r>   -4.0450    1.0000 </r>
       <r>   -1.0373    1.0000 </r>
       <r>    4.3278    1.0000 </r>
       <r>    4.4738    1.0000 </r>
       <r>    7.2132    0.0000 </r>
       <r>    9.0076    0.0000 </r>
       <r>    9.0089    0.0000 </r>
       <r>   13.4011    0.0000 </r>
      </set>
      <set comment="kpoint 9">
       <r>   -3.9110    1.0000 </r>
       <r>   -1.2346    1.0000 </r>
       <r>    4.3449    1.0000 </r>
       <r>    4.4180    1.0000 </r>
       <r>    7.1926    0.0000 </r>
       <r>    8.9516    0.0000 </r>
       <r>    9.0256    0.0000 </r>
       <r>   13.3767    0.0000 </r>
      </set>
      <set comment="kpoint 10">
       <r>   -4.1622    1.0000 </r>
       <r>   -0.8570    1.0000 </r>
       <r>    4.4186    1.0000 </r>
       <r>    4.4189    1.0000 </r>
       <r>    7.2356    0.0000 </r>
       <r>    8.9544    0.0000 </r>
       <r>    9.1013    0.0000 </r>
       <r>   13.4005    0.0000 </r>
      </set>
      <set comment="kpoint 11">
       <r>   -4.6026    1.0000 </r>
       <r>   -0.1025    1.0000 </r>
       <r>    4.4785    1.0000 </r>
       <r>    4.5459    1.0000 </r>
       <r>    7.3411    0.0000 </r>
       <r>    8.9980    0.0000 </r>
       <r>    9.2129    0.0000 </r>
       <r>   13.2125    0.0000 </r>
      </set>
      <set comment="kpoint 12">
       <r>   -5.0590    1.0000 </r>
       <r>    0.8502    1.0000 </r>
       <r>    4.5970    1.0000 </r>
       <r>    4.7223    1.0000 </r>
       <r>    7.5048    0.0000 </r>
       <r>    9.0237    0.0000 </r>
       <r>    9.3015    0.0000 </r>
       <r>   12.5616    0.0000 </r>
      </set>
      <set comment="kpoint 13">
       <r>   -5.4623    1.0000 </r>
       <r>    1.9210    1.0000 </r>
       <r>    4.7718    1.0000 </r>
       <r>    4.9393    1.0000 </r>
       <r>    7.7169    0.0000 </r>
       <r>    8.9378    0.0000 </r>
       <r>    9.2719    0.0000 </r>
       <r>   11.9283    0.0000 </r>
      </set>
      <set comment="kpoint 14">
       <r>   -5.7855    1.0000 </r>
       <r>    3.0609    1.0000 </r>
       <r>    4.9938    1.0000 </r>
       <r>    5.1785    1.0000 </r>
       <r>    7.9548    0.0000 </r>
       <r>    8.6950    0.0000 </r>
       <r>    9.0573    0.0000 </r>
       <r>   11.0625    0.0000 </r>
      </set>
      <set comment="kpoint 15">
       <r>   -6.0167    1.0000 </r>
       <r>    4.2081    1.0000 </r>
       <r>    5.2416    1.0000 </r>
       <r>    5.4006    1.0000 </r>
       <r>    8.1562    0.0000 </r>
       <r>    8.4099    0.0000 </r>
       <r>    8.7149    0.0000 </r>
       <r>   10.0104    0.0000 </r>
      </set>
      <set comment="kpoint 16">
       <r>   -6.1504    1.0000 </r>
       <r>    5.2079    1.0000 </r>
       <r>    5.4697    1.0000 </r>
       <r>    5.5330    1.0000 </r>
       <r>    8.1340    0.0000 </r>
       <r>    8.3400    0.0000 </r>
       <r>    8.3862    0.0000 </r>
       <r>    9.1015    0.0000 </r>
      </set>
      <set comment="kpoint 17">
       <r>   -6.0833    1.0000 </r>
       <r>    4.8363    1.0000 </r>
       <r>    5.2472    1.0000 </r>
       <r>    5.3238    1.0000 </r>
       <r>    7.9880    0.0000 </r>
       <r>    8.6042    0.0000 </r>
       <r>    8.6903    0.0000 </r>
       <r>    9.4680    0.0000 </r>
      </set>
      <set comment="kpoint 18">
       <r>   -5.9498    1.0000 </r>
       <r>    4.0880    1.0000 </r>
       <r>    4.8613    1.0000 </r>
       <r>    5.2341    1.0000 </r>
       <r>    7.9699    0.0000 </r>
       <r>    8.7444    0.0000 </r>
       <r>    9.0297    0.0000 </r>
       <r>   10.1482    0.0000 </r>
      </set>
      <set comment="kpoint 19">
       <r>   -5.7188    1.0000 </r>
       <r>    3.0205    1.0000 </r>
       <r>    4.5642    1.0000 </r>
       <r>    5.0538    1.0000 </r>
       <r>    8.0938    0.0000 </r>
       <r>    8.7000    0.0000 </r>
       <r>    9.4096    0.0000 </r>
       <r>   10.8189    0.0000 </r>
      </set>
      <set comment="kpoint 20">
       <r>   -5.3959    1.0000 </r>
       <r>    1.9163    1.0000 </r>
       <r>    4.3263    1.0000 </r>
       <r>    4.8161    1.0000 </r>
       <r>    8.0487    0.0000 </r>
       <r>    8.8132    0.0000 </r>
       <r>    9.6333    0.0000 </r>
       <r>   11.1644    0.0000 </r>
      </set>
      <set comment="kpoint 21">
       <r>   -4.9930    1.0000 </r>
       <r>    0.8648    1.0000 </r>
       <r>    4.1440    1.0000 </r>
       <r>    4.5862    1.0000 </r>
       <r>    7.8951    0.0000 </r>
       <r>    8.9075    0.0000 </r>
       <r>    9.6467    0.0000 </r>
       <r>   11.6378    0.0000 </r>
      </set>
      <set comment="kpoint 22">
       <r>   -4.5366    1.0000 </r>
       <r>   -0.0772    1.0000 </r>
       <r>    4.0111    1.0000 </r>
       <r>    4.4052    1.0000 </r>
       <r>    7.7522    0.0000 </r>
       <r>    8.9011    0.0000 </r>
       <r>    9.5338    0.0000 </r>
       <r>   12.3751    0.0000 </r>
      </set>
      <set comment="kpoint 23">
       <r>   -4.0957    1.0000 </r>
       <r>   -0.8265    1.0000 </r>
       <r>    3.9136    1.0000 </r>
       <r>    4.3032    1.0000 </r>
       <r>    7.6561    0.0000 </r>
       <r>    8.8723    0.0000 </r>
       <r>    9.3989    0.0000 </r>
       <r>   13.1819    0.0000 </r>
      </set>
      <set comment="kpoint 24">
       <r>   -3.8437    1.0000 </r>
       <r>   -1.2026    1.0000 </r>
       <r>    3.8443    1.0000 </r>
       <r>    4.2945    1.0000 </r>
       <r>    7.6178    0.0000 </r>
       <r>    8.8754    0.0000 </r>
       <r>    9.3077    0.0000 </r>
       <r>   13.5806    0.0000 </r>
      </set>
      <set comment="kpoint 25">
       <r>   -3.9787    1.0000 </r>
       <r>   -1.0051    1.0000 </r>
       <r>    3.8135    1.0000 </r>
       <r>    4.3707    1.0000 </r>
       <r>    7.6403    0.0000 </r>
       <r>    8.9186    0.0000 </r>
       <r>    9.2930    0.0000 </r>
       <r>   13.5359    0.0000 </r>
      </set>
      <set comment="kpoint 26">
       <r>   -4.3830    1.0000 </r>
       <r>   -0.3529    1.0000 </r>
       <r>    3.8362    1.0000 </r>
       <r>    4.5159    1.0000 </r>
       <r>    7.7229    0.0000 </r>
       <r>    8.9790    0.0000 </r>
       <r>    9.3579    0.0000 </r>
       <r>   12.9721    0.0000 </r>
      </set>
      <set comment="kpoint 27">
       <r>   -4.8454    1.0000 </r>
       <r>    0.5372    1.0000 </r>
       <r>    3.9225    1.0000 </r>
       <r>    4.7141    1.0000 </r>
       <r>    7.8609    0.0000 </r>
       <r>    9.0093    0.0000 </r>
       <r>    9.4570    0.0000 </r>
       <r>   12.1928    0.0000 </r>
      </set>
      <set comment="kpoint 28">
       <r>   -5.2702    1.0000 </r>
       <r>    1.5572    1.0000 </r>
       <r>    4.0788    1.0000 </r>
       <r>    4.9477    1.0000 </r>
       <r>    8.0426    0.0000 </r>
       <r>    8.9319    0.0000 </r>
       <r>    9.4804    0.0000 </r>
       <r>   11.5920    0.0000 </r>
      </set>
      <set comment="kpoint 29">
       <r>   -5.6214    1.0000 </r>
       <r>    2.6436    1.0000 </r>
       <r>    4.3102    1.0000 </r>
       <r>    5.1885    1.0000 </r>
       <r>    8.2336    0.0000 </r>
       <r>    8.7123    0.0000 </r>
       <r>    9.2964    0.0000 </r>
       <r>   11.1562    0.0000 </r>
      </set>
      <set comment="kpoint 30">
       <r>   -5.8837    1.0000 </r>
       <r>    3.7069    1.0000 </r>
       <r>    4.6355    1.0000 </r>
       <r>    5.3863    1.0000 </r>
       <r>    8.2671    0.0000 </r>
       <r>    8.5699    0.0000 </r>
       <r>    8.9211    0.0000 </r>
       <r>   10.5381    0.0000 </r>
      </set>
      <set comment="kpoint 31">
       <r>   -6.0500    1.0000 </r>
       <r>    4.5103    1.0000 </r>
       <r>    5.1320    1.0000 </r>
       <r>    5.4683    1.0000 </r>
       <r>    8.1524    0.0000 </r>
       <r>    8.4595    0.0000 </r>
       <r>    8.6500    0.0000 </r>
       <r>    9.7761    0.0000 </r>
      </set>
      <set comment="kpoint 32">
       <r>   -5.8492    1.0000 </r>
       <r>    3.9169    1.0000 </r>
       <r>    4.6959    1.0000 </r>
       <r>    4.7347    1.0000 </r>
       <r>    7.5772    0.0000 </r>
       <r>    9.3895    0.0000 </r>
       <r>    9.5220    0.0000 </r>
       <r>   10.0442    0.0000 </r>
      </set>
      <set comment="kpoint 33">
       <r>   -5.6505    1.0000 </r>
       <r>    3.1765    1.0000 </r>
       <r>    4.2869    1.0000 </r>
       <r>    4.6080    1.0000 </r>
       <r>    7.5364    0.0000 </r>
       <r>    9.4746    0.0000 </r>
       <r>    9.9498    0.0000 </r>
       <r>   10.2175    0.0000 </r>
      </set>
      <set comment="kpoint 34">
       <r>   -5.3579    1.0000 </r>
       <r>    2.2001    1.0000 </r>
       <r>    3.9779    1.0000 </r>
       <r>    4.4043    1.0000 </r>
       <r>    7.7186    0.0000 </r>
       <r>    9.4024    0.0000 </r>
       <r>   10.1972    0.0000 </r>
       <r>   10.2791    0.0000 </r>
      </set>
      <set comment="kpoint 35">
       <r>   -4.9803    1.0000 </r>
       <r>    1.1937    1.0000 </r>
       <r>    3.7219    1.0000 </r>
       <r>    4.1858    1.0000 </r>
       <r>    7.8462    0.0000 </r>
       <r>    9.4267    0.0000 </r>
       <r>   10.2804    0.0000 </r>
       <r>   10.4019    0.0000 </r>
      </set>
      <set comment="kpoint 36">
       <r>   -4.5374    1.0000 </r>
       <r>    0.2481    1.0000 </r>
       <r>    3.4901    1.0000 </r>
       <r>    4.0340    1.0000 </r>
       <r>    7.8494    0.0000 </r>
       <r>    9.3635    0.0000 </r>
       <r>   10.2626    0.0000 </r>
       <r>   10.9135    0.0000 </r>
[...]
       <r>   -1.0840    1.0000 </r>
       <r>    2.1085    1.0000 </r>
       <r>    3.5844    1.0000 </r>
       <r>    7.7714    0.0000 </r>
       <r>    9.8871    0.0000 </r>
       <r>   11.3987    0.0000 </r>
       <r>   11.9882    0.0000 </r>
      </set>
      <set comment="kpoint 398">
       <r>   -3.2286    1.0000 </r>
       <r>   -1.0888    1.0000 </r>
       <r>    1.7739    1.0000 </r>
       <r>    3.6690    1.0000 </r>
       <r>    7.3721    0.0000 </r>
       <r>   11.0388    0.0000 </r>
       <r>   11.1776    0.0000 </r>
       <r>   11.9044    0.0000 </r>
      </set>
      <set comment="kpoint 399">
       <r>   -4.3105    1.0000 </r>
       <r>   -0.6410    1.0000 </r>
       <r>    4.5064    1.0000 </r>
       <r>    4.5064    1.0000 </r>
       <r>    7.1654    0.0000 </r>
       <r>    9.0385    0.0000 </r>
       <r>    9.0385    0.0000 </r>
       <r>   13.4211    0.0000 </r>
      </set>
      <set comment="kpoint 400">
       <r>   -4.1294    1.0000 </r>
       <r>   -0.8405    1.0000 </r>
       <r>    4.0275    1.0000 </r>
       <r>    4.4862    1.0000 </r>
       <r>    7.4717    0.0000 </r>
       <r>    9.0404    0.0000 </r>
       <r>    9.0987    0.0000 </r>
       <r>   13.4984    0.0000 </r>
      </set>
      <set comment="kpoint 401">
       <r>   -3.8809    1.0000 </r>
       <r>   -0.9608    1.0000 </r>
       <r>    3.2169    1.0000 </r>
       <r>    4.2853    1.0000 </r>
       <r>    7.8796    0.0000 </r>
       <r>    9.1795    0.0000 </r>
       <r>    9.5313    0.0000 </r>
       <r>   13.7546    0.0000 </r>
      </set>
      <set comment="kpoint 402">
       <r>   -3.5766    1.0000 </r>
       <r>   -1.0217    1.0000 </r>
       <r>    2.4085    1.0000 </r>
       <r>    3.9865    1.0000 </r>
       <r>    7.7315    0.0000 </r>
       <r>    9.9694    0.0000 </r>
       <r>   10.2530    0.0000 </r>
       <r>   13.2802    0.0000 </r>
      </set>
      <set comment="kpoint 403">
       <r>   -4.0115    1.0000 </r>
       <r>   -1.0214    1.0000 </r>
       <r>    4.1392    1.0000 </r>
       <r>    4.3253    1.0000 </r>
       <r>    7.4539    0.0000 </r>
       <r>    8.8898    0.0000 </r>
       <r>    9.2260    0.0000 </r>
       <r>   13.4163    0.0000 </r>
      </set>
      <set comment="kpoint 404">
       <r>   -3.8354    1.0000 </r>
       <r>   -1.1102    1.0000 </r>
       <r>    3.5269    1.0000 </r>
       <r>    4.2082    1.0000 </r>
       <r>    7.8666    0.0000 </r>
       <r>    8.8187    0.0000 </r>
       <r>    9.5853    0.0000 </r>
       <r>   13.5274    0.0000 </r>
      </set>
      <set comment="kpoint 405">
       <r>   -3.6114    1.0000 </r>
       <r>   -1.1149    1.0000 </r>
       <r>    2.7754    1.0000 </r>
       <r>    3.9279    1.0000 </r>
       <r>    8.0805    0.0000 </r>
       <r>    9.0301    0.0000 </r>
       <r>   10.3722    0.0000 </r>
       <r>   13.4051    0.0000 </r>
      </set>
      <set comment="kpoint 406">
       <r>   -3.7431    1.0000 </r>
       <r>   -1.1609    1.0000 </r>
       <r>    3.3055    1.0000 </r>
       <r>    4.1396    1.0000 </r>
       <r>    7.8042    0.0000 </r>
       <r>    9.1194    0.0000 </r>
       <r>    9.6452    0.0000 </r>
       <r>   13.4144    0.0000 </r>
      </set>
      <set comment="kpoint 407">
       <r>   -3.9691    1.0000 </r>
       <r>   -1.1722    1.0000 </r>
       <r>    4.4510    1.0000 </r>
       <r>    4.4510    1.0000 </r>
       <r>    7.1013    0.0000 </r>
       <r>    8.9827    0.0000 </r>
       <r>    8.9827    0.0000 </r>
       <r>   13.3396    0.0000 </r>
      </set>
      <set comment="kpoint 408">
       <r>   -3.8774    1.0000 </r>
       <r>   -1.2181    1.0000 </r>
       <r>    4.0526    1.0000 </r>
       <r>    4.3770    1.0000 </r>
       <r>    7.4316    0.0000 </r>
       <r>    8.9345    0.0000 </r>
       <r>    9.1346    0.0000 </r>
       <r>   13.5084    0.0000 </r>
      </set>
     </set>
    </set>
   </array>
  </eigenvalues>
  <separator name="orbital magnetization" >
   <v name="MAGDIPOLOUT">      0.00000000      0.00000000      0.00000000</v>
  </separator>
  <dos>
   <i name="efermi">      5.80867476 </i>
   <total>
    <array>
     <dimension dim="1">gridpoints</dimension>
     <dimension dim="2">spin</dimension>
     <field>energy</field>
     <field>total</field>
     <field>integrated</field>
     <set>
      <set comment="spin 1">
       <r>    -7.2642     0.0000     0.0000 </r>
       <r>    -7.1850     0.0000     0.0000 </r>
       <r>    -7.1058     0.0000     0.0000 </r>
       <r>    -7.0266     0.0000     0.0000 </r>
       <r>    -6.9474     0.0000     0.0000 </r>
       <r>    -6.8682     0.0000     0.0000 </r>
       <r>    -6.7889     0.0000     0.0000 </r>
       <r>    -6.7097     0.0000     0.0000 </r>
       <r>    -6.6305     0.0000     0.0000 </r>
       <r>    -6.5513     0.0000     0.0000 </r>
       <r>    -6.4721     0.0000     0.0000 </r>
       <r>    -6.3929     0.0000     0.0000 </r>
       <r>    -6.3137     0.0000     0.0000 </r>
       <r>    -6.2344     0.0013     0.0001 </r>
       <r>    -6.1552     0.0313     0.0026 </r>
       <r>    -6.0760     0.0963     0.0102 </r>
       <r>    -5.9968     0.1384     0.0212 </r>
       <r>    -5.9176     0.1779     0.0353 </r>
       <r>    -5.8384     0.1984     0.0510 </r>
       <r>    -5.7592     0.2335     0.0695 </r>
       <r>    -5.6799     0.2330     0.0879 </r>
       <r>    -5.6007     0.2950     0.1113 </r>
       <r>    -5.5215     0.2664     0.1324 </r>
       <r>    -5.4423     0.3307     0.1586 </r>
       <r>    -5.3631     0.3278     0.1846 </r>
       <r>    -5.2839     0.3397     0.2115 </r>
       <r>    -5.2046     0.3537     0.2395 </r>
       <r>    -5.1254     0.4311     0.2736 </r>
       <r>    -5.0462     0.3532     0.3016 </r>
       <r>    -4.9670     0.4284     0.3356 </r>
       <r>    -4.8878     0.4689     0.3727 </r>
       <r>    -4.8086     0.4327     0.4070 </r>
       <r>    -4.7294     0.4699     0.4442 </r>
       <r>    -4.6501     0.4794     0.4822 </r>
       <r>    -4.5709     0.5506     0.5258 </r>
       <r>    -4.4917     0.5516     0.5695 </r>
       <r>    -4.4125     0.4668     0.6065 </r>
       <r>    -4.3333     0.6336     0.6567 </r>
       <r>    -4.2541     0.6330     0.7068 </r>
       <r>    -4.1749     0.6133     0.7554 </r>
       <r>    -4.0956     0.6737     0.8087 </r>
       <r>    -4.0164     0.6608     0.8611 </r>
       <r>    -3.9372     0.8241     0.9264 </r>
       <r>    -3.8580     0.9633     1.0027 </r>
       <r>    -3.7788     0.8061     1.0665 </r>
       <r>    -3.6996     0.8576     1.1345 </r>
       <r>    -3.6204     0.8370     1.2008 </r>
       <r>    -3.5411     0.8004     1.2642 </r>
       <r>    -3.4619     0.8745     1.3335 </r>
       <r>    -3.3827     0.6577     1.3856 </r>
       <r>    -3.3035     0.7484     1.4448 </r>
       <r>    -3.2243     0.6485     1.4962 </r>
       <r>    -3.1451     0.6375     1.5467 </r>
       <r>    -3.0659     0.7521     1.6063 </r>
       <r>    -2.9866     0.6663     1.6591 </r>
       <r>    -2.9074     0.4716     1.6964 </r>
       <r>    -2.8282     0.3900     1.7273 </r>
       <r>    -2.7490     0.5965     1.7746 </r>
       <r>    -2.6698     0.7048     1.8304 </r>
       <r>    -2.5906     0.4045     1.8624 </r>
       <r>    -2.5113     0.3161     1.8875 </r>
       <r>    -2.4321     0.2279     1.9055 </r>
       <r>    -2.3529     0.3798     1.9356 </r>
       <r>    -2.2737     0.4886     1.9743 </r>
       <r>    -2.1945     0.2085     1.9908 </r>
       <r>    -2.1153     0.1109     1.9996 </r>
       <r>    -2.0361     0.0049     2.0000 </r>
       <r>    -1.9568     0.0019     2.0002 </r>
       <r>    -1.8776     0.1147     2.0092 </r>
       <r>    -1.7984     0.4224     2.0427 </r>
       <r>    -1.7192     0.3522     2.0706 </r>
       <r>    -1.6400     0.1916     2.0858 </r>
       <r>    -1.5608     0.1845     2.1004 </r>
       <r>    -1.4816     0.2341     2.1189 </r>
       <r>    -1.4023     0.6649     2.1716 </r>
       <r>    -1.3231     0.8829     2.2415 </r>
       <r>    -1.2439     0.4154     2.2744 </r>
       <r>    -1.1647     0.7447     2.3334 </r>
       <r>    -1.0855     1.5031     2.4525 </r>
       <r>    -1.0063     1.6202     2.5808 </r>
       <r>    -0.9271     1.2252     2.6779 </r>
       <r>    -0.8478     1.0764     2.7632 </r>
       <r>    -0.7686     0.6943     2.8182 </r>
       <r>    -0.6894     0.8068     2.8821 </r>
       <r>    -0.6102     0.5148     2.9229 </r>
       <r>    -0.5310     0.8067     2.9868 </r>
       <r>    -0.4518     0.6392     3.0374 </r>
       <r>    -0.3725     0.5221     3.0787 </r>
       <r>    -0.2933     0.6966     3.1339 </r>
       <r>    -0.2141     0.4845     3.1723 </r>
       <r>    -0.1349     0.2503     3.1921 </r>
       <r>    -0.0557     0.5750     3.2377 </r>
       <r>     0.0235     0.6125     3.2862 </r>
       <r>     0.1027     0.2688     3.3075 </r>
       <r>     0.1820     0.3690     3.3367 </r>
       <r>     0.2612     0.5878     3.3833 </r>
       <r>     0.3404     0.3162     3.4083 </r>
       <r>     0.4196     0.1767     3.4223 </r>
       <r>     0.4988     0.3199     3.4477 </r>
       <r>     0.5780     0.5610     3.4921 </r>
       <r>     0.6572     0.2522     3.5121 </r>
       <r>     0.7365     0.2213     3.5296 </r>
       <r>     0.8157     0.2124     3.5464 </r>
       <r>     0.8949     0.4737     3.5840 </r>
       <r>     0.9741     0.1811     3.5983 </r>
       <r>     1.0533     0.1596     3.6110 </r>
       <r>     1.1325     0.2221     3.6286 </r>
       <r>     1.2117     0.3808     3.6587 </r>
       <r>     1.2910     0.2621     3.6795 </r>
       <r>     1.3702     0.3257     3.7053 </r>
       <r>     1.4494     0.5627     3.7499 </r>
       <r>     1.5286     0.9948     3.8287 </r>
       <r>     1.6078     1.2199     3.9253 </r>
       <r>     1.6870     1.0825     4.0110 </r>
       <r>     1.7662     1.2994     4.1140 </r>
       <r>     1.8455     1.0706     4.1988 </r>
       <r>     1.9247     1.0381     4.2810 </r>
       <r>     2.0039     1.0972     4.3679 </r>
       <r>     2.0831     1.0900     4.4543 </r>
       <r>     2.1623     0.8666     4.5229 </r>
       <r>     2.2415     1.0826     4.6087 </r>
       <r>     2.3208     1.2752     4.7097 </r>
       <r>     2.4000     0.9097     4.7818 </r>
       <r>     2.4792     1.1895     4.8760 </r>
       <r>     2.5584     1.1638     4.9682 </r>
       <r>     2.6376     1.0526     5.0516 </r>
       <r>     2.7168     1.5090     5.1711 </r>
       <r>     2.7960     1.2016     5.2663 </r>
       <r>     2.8753     1.5110     5.3860 </r>
       <r>     2.9545     1.6418     5.5160 </r>
       <r>     3.0337     1.4560     5.6314 </r>
       <r>     3.1129     1.4513     5.7463 </r>
       <r>     3.1921     1.5862     5.8720 </r>
       <r>     3.2713     1.4233     5.9847 </r>
       <r>     3.3505     1.3831     6.0943 </r>
       <r>     3.4298     1.3572     6.2018 </r>
       <r>     3.5090     1.5446     6.3242 </r>
       <r>     3.5882     1.3495     6.4310 </r>
       <r>     3.6674     1.1381     6.5212 </r>
       <r>     3.7466     1.4979     6.6399 </r>
       <r>     3.8258     1.3152     6.7440 </r>
       <r>     3.9050     1.1892     6.8382 </r>
       <r>     3.9843     1.2372     6.9362 </r>
       <r>     4.0635     1.3590     7.0439 </r>
       <r>     4.1427     1.1455     7.1346 </r>
       <r>     4.2219     1.1286     7.2240 </r>
       <r>     4.3011     1.2821     7.3256 </r>
       <r>     4.3803     1.2064     7.4212 </r>
       <r>     4.4595     0.9000     7.4925 </r>
       <r>     4.5388     1.0239     7.5736 </r>
       <r>     4.6180     0.9143     7.6460 </r>
       <r>     4.6972     0.5510     7.6896 </r>
       <r>     4.7764     0.5932     7.7366 </r>
       <r>     4.8556     0.6301     7.7865 </r>
       <r>     4.9348     0.4466     7.8219 </r>
       <r>     5.0141     0.4520     7.8577 </r>
       <r>     5.0933     0.3821     7.8880 </r>
       <r>     5.1725     0.2897     7.9109 </r>
       <r>     5.2517     0.3561     7.9392 </r>
       <r>     5.3309     0.2354     7.9578 </r>
       <r>     5.4101     0.1926     7.9731 </r>
       <r>     5.4893     0.1807     7.9874 </r>
       <r>     5.5686     0.1112     7.9962 </r>
       <r>     5.6478     0.0452     7.9998 </r>
       <r>     5.7270     0.0030     8.0000 </r>
       <r>     5.8062     0.0000     8.0000 </r>
       <r>     5.8854     0.0000     8.0000 </r>
       <r>     5.9646     0.0000     8.0000 </r>
       <r>     6.0438     0.0000     8.0000 </r>
       <r>     6.1231     0.0000     8.0000 </r>
       <r>     6.2023     0.0007     8.0001 </r>
       <r>     6.2815     0.0411     8.0033 </r>
       <r>     6.3607     0.1057     8.0117 </r>
       <r>     6.4399     0.1511     8.0236 </r>
       <r>     6.5191     0.3532     8.0516 </r>
       <r>     6.5983     0.2817     8.0739 </r>
       <r>     6.6776     0.3111     8.0986 </r>
       <r>     6.7568     0.4463     8.1339 </r>
       <r>     6.8360     0.5492     8.1774 </r>
       <r>     6.9152     0.4693     8.2146 </r>
       <r>     6.9944     0.5307     8.2567 </r>
       <r>     7.0736     0.5290     8.2986 </r>
       <r>     7.1528     0.7138     8.3551 </r>
       <r>     7.2321     0.7566     8.4150 </r>
       <r>     7.3113     0.8874     8.4853 </r>
       <r>     7.3905     0.8671     8.5540 </r>
       <r>     7.4697     0.8146     8.6186 </r>
       <r>     7.5489     1.1087     8.7064 </r>
       <r>     7.6281     1.1690     8.7990 </r>
       <r>     7.7074     1.3584     8.9066 </r>
       <r>     7.7866     1.3194     9.0111 </r>
       <r>     7.8658     1.6334     9.1405 </r>
       <r>     7.9450     1.7755     9.2811 </r>
       <r>     8.0242     1.3467     9.3878 </r>
       <r>     8.1034     1.6210     9.5162 </r>
       <r>     8.1826     1.5360     9.6379 </r>
       <r>     8.2619     1.3802     9.7472 </r>
       <r>     8.3411     1.1986     9.8422 </r>
       <r>     8.4203     1.1622     9.9342 </r>
       <r>     8.4995     1.0912    10.0207 </r>
       <r>     8.5787     1.1101    10.1086 </r>
       <r>     8.6579     1.0228    10.1896 </r>
       <r>     8.7371     1.2244    10.2866 </r>
       <r>     8.8164     1.1142    10.3749 </r>
       <r>     8.8956     1.8489    10.5214 </r>
       <r>     8.9748     2.3263    10.7056 </r>
       <r>     9.0540     2.2096    10.8807 </r>
       <r>     9.1332     1.9010    11.0313 </r>
       <r>     9.2124     1.6551    11.1624 </r>
       <r>     9.2916     1.6472    11.2928 </r>
       <r>     9.3709     1.6216    11.4213 </r>
       <r>     9.4501     1.6064    11.5486 </r>
       <r>     9.5293     1.8996    11.6990 </r>
       <r>     9.6085     1.2784    11.8003 </r>
       <r>     9.6877     1.2034    11.8956 </r>
       <r>     9.7669     0.9450    11.9705 </r>
       <r>     9.8462     1.3338    12.0761 </r>
       <r>     9.9254     1.3737    12.1849 </r>
       <r>    10.0046     1.5007    12.3038 </r>
       <r>    10.0838     1.1104    12.3918 </r>
       <r>    10.1630     1.1645    12.4840 </r>
       <r>    10.2422     1.1254    12.5732 </r>
       <r>    10.3214     1.3573    12.6807 </r>
       <r>    10.4007     1.5432    12.8029 </r>
       <r>    10.4799     1.5857    12.9286 </r>
       <r>    10.5591     1.1832    13.0223 </r>
       <r>    10.6383     0.9731    13.0994 </r>
       <r>    10.7175     1.0895    13.1857 </r>
       <r>    10.7967     1.2999    13.2886 </r>
       <r>    10.8759     1.1312    13.3783 </r>
       <r>    10.9552     1.3827    13.4878 </r>
       <r>    11.0344     1.2279    13.5851 </r>
       <r>    11.1136     1.0154    13.6655 </r>
       <r>    11.1928     1.2057    13.7610 </r>
       <r>    11.2720     1.2588    13.8607 </r>
       <r>    11.3512     0.7851    13.9229 </r>
       <r>    11.4304     1.0737    14.0080 </r>
       <r>    11.5097     1.3410    14.1142 </r>
       <r>    11.5889     1.1374    14.2043 </r>
       <r>    11.6681     1.0520    14.2876 </r>
       <r>    11.7473     0.8482    14.3548 </r>
       <r>    11.8265     0.7717    14.4159 </r>
       <r>    11.9057     0.8175    14.4807 </r>
       <r>    11.9849     1.1332    14.5705 </r>
       <r>    12.0642     1.1904    14.6648 </r>
       <r>    12.1434     1.0706    14.7496 </r>
       <r>    12.2226     0.9486    14.8247 </r>
       <r>    12.3018     0.8102    14.8889 </r>
       <r>    12.3810     0.6280    14.9386 </r>
       <r>    12.4602     0.7246    14.9960 </r>
       <r>    12.5395     0.7565    15.0560 </r>
       <r>    12.6187     0.7628    15.1164 </r>
       <r>    12.6979     1.1006    15.2036 </r>
       <r>    12.7771     1.0176    15.2842 </r>
       <r>    12.8563     0.4369    15.3188 </r>
       <r>    12.9355     0.3627    15.3475 </r>
       <r>    13.0147     0.5676    15.3925 </r>
       <r>    13.0940     0.5261    15.4342 </r>
       <r>    13.1732     0.4924    15.4732 </r>
       <r>    13.2524     0.6951    15.5282 </r>
       <r>    13.3316     0.7323    15.5862 </r>
       <r>    13.4108     0.6302    15.6362 </r>
       <r>    13.4900     0.5704    15.6813 </r>
       <r>    13.5692     0.3741    15.7110 </r>
       <r>    13.6485     0.2151    15.7280 </r>
       <r>    13.7277     0.4066    15.7602 </r>
       <r>    13.8069     0.6005    15.8078 </r>
       <r>    13.8861     0.3958    15.8391 </r>
       <r>    13.9653     0.1779    15.8532 </r>
       <r>    14.0445     0.0506    15.8572 </r>
       <r>    14.1237     0.1814    15.8716 </r>
       <r>    14.2030     0.0445    15.8751 </r>
       <r>    14.2822     0.1542    15.8874 </r>
       <r>    14.3614     0.2775    15.9093 </r>
       <r>    14.4406     0.2997    15.9331 </r>
       <r>    14.5198     0.1162    15.9423 </r>
       <r>    14.5990     0.0577    15.9468 </r>
       <r>    14.6782     0.0094    15.9476 </r>
       <r>    14.7575     0.0620    15.9525 </r>
       <r>    14.8367     0.1088    15.9611 </r>
       <r>    14.9159     0.1495    15.9730 </r>
       <r>    14.9951     0.1470    15.9846 </r>
       <r>    15.0743     0.0436    15.9881 </r>
       <r>    15.1535     0.0028    15.9883 </r>
       <r>    15.2328     0.0096    15.9890 </r>
       <r>    15.3120     0.0552    15.9934 </r>
       <r>    15.3912     0.0367    15.9963 </r>
       <r>    15.4704     0.0432    15.9997 </r>
       <r>    15.5496     0.0032    16.0000 </r>
       <r>    15.6288     0.0000    16.0000 </r>
       <r>    15.7080     0.0000    16.0000 </r>
       <r>    15.7873     0.0000    16.0000 </r>
       <r>    15.8665     0.0000    16.0000 </r>
       <r>    15.9457     0.0000    16.0000 </r>
       <r>    16.0249     0.0000    16.0000 </r>
       <r>    16.1041     0.0000    16.0000 </r>
       <r>    16.1833     0.0000    16.0000 </r>
       <r>    16.2625     0.0000    16.0000 </r>
       <r>    16.3418     0.0000    16.0000 </r>
       <r>    16.4210     0.0000    16.0000 </r>
       <r>    16.5002     0.0000    16.0000 </r>
      </set>
     </set>
    </array>
   </total>
  </dos>
 </calculation>
 <structure name="finalpos" >
  <crystal>
   <varray name="basis" >
    <v>       3.34813308       0.00000000       1.93304526 </v>
    <v>       1.11604436       3.15665139       1.93304526 </v>
    <v>      -0.00000000       0.00000000       3.86609052 </v>
   </varray>
   <i name="volume">     40.86028129 </i>
   <varray name="rec_basis" >
    <v>       0.29867391      -0.10559713       0.00000000 </v>
    <v>       0.00000000       0.31679140       0.00000000 </v>
    <v>      -0.14933696      -0.10559713       0.25865923 </v>
   </varray>
  </crystal>
  <varray name="positions" >
   <v>       0.87500000       0.87500000       0.87500000 </v>
   <v>       0.12500000       0.12500000       0.12500000 </v>
  </varray>
 </structure>
</modeling>
