 vasp.6.2.0 18Jan21 (build Aug 12 2022 13:00:08) complex                        
  
 executed on             LinuxIFC date 2024.11.03  21:56:12
 running on    4 total cores
 distrk:  each k-point on    4 cores,    1 groups
 distr:  one band on NCORE=   1 cores,    4 groups


--------------------------------------------------------------------------------------------------------


 INCAR:
   ISTART = 0            (Read existing wavefunction, if there)
   ISPIN = 1            (Non-Spin polarised DFT)
   LREAL = .FALSE.       (Projection operators: automatic)
   LWAVE = .FALSE.        (Write WAVECAR or not)
   LCHARG = .FALSE.        (Write CHGCAR or not)
   ADDGRID = .TRUE.        (Increase grid, helps GGA convergence)
   LASPH = .TRUE.        (Give more accurate total energies and band structure calculations)
   PREC = Accurate      (Accurate strictly avoids any aliasing or wrap around errors)
   ENCUT = 350          (Cut-off energy for plane wave basis set, in eV)
   ISMEAR = 0            (Gaussian smearing, metals:1)
   SIGMA = 0.05         (Smearing value in eV, metals:0.2)
   NELM = 90           (Max electronic SCF steps)
   NELMIN = 6            (Min electronic SCF steps)
   EDIFF = 1E-06        (SCF energy convergence, in eV)
   NSW = 100          (Max ionic steps)
   IBRION = 2            (Algorithm: 0-MD, 1-Quasi-New, 2-CG)
   ISIF = 3            (Stress/relaxation: 2-Ions, 3-Shape/Ions/V, 4-Shape/Ions)
   EDIFFG = -2E-03        (Ionic convergence, eV/AA)
   ISYM = 2              (Symmetry: 0\=none, 2\=GGA, 3\=hybrids)

 POTCAR:    PAW_PBE Si 05Jan2001                  
 POTCAR:    PAW_PBE Si 05Jan2001                  
   VRHFIN =Si: s2p2                                                                                 
   LEXCH  = PE                                                                                      
   EATOM  =   103.0669 eV,    7.5752 Ry                                                             
                                                                                                    
   TITEL  = PAW_PBE Si 05Jan2001                                                                    
   LULTRA =        F    use ultrasoft PP ?                                                          
   IUNSCR =        1    unscreen: 0-lin 1-nonlin 2-no                                               
   RPACOR =    1.500    partial core radius                                                         
   POMASS =   28.085; ZVAL   =    4.000    mass and valenz                                          
   RCORE  =    1.900    outmost cutoff radius                                                       
   RWIGS  =    2.480; RWIGS  =    1.312    wigner-seitz radius (au A)                               
   ENMAX  =  245.345; ENMIN  =  184.009 eV                                                          
   ICORE  =        2    local potential                                                             
   LCOR   =        T    correct aug charges                                                         
   LPAW   =        T    paw PP                                                                      
   EAUG   =  322.069                                                                                
   DEXC   =    0.000                                                                                
   RMAX   =    1.950    core radius for proj-oper                                                   
   RAUG   =    1.300    factor for augmentation sphere                                              
   RDEP   =    1.993    radius for radial grids                                                     
   RDEPT  =    1.837    core radius for aug-charge                                                  
                                                                                                    
   Atomic configuration                                                                             
    6 entries                                                                                       
     n  l   j            E        occ.                                                              
     1  0  0.50     -1785.8828   2.0000                                                             
     2  0  0.50      -139.4969   2.0000                                                             
     2  1  1.50       -95.5546   6.0000                                                             
     3  0  0.50       -10.8127   2.0000                                                             
     3  1  0.50        -4.0811   2.0000                                                             
     3  2  1.50        -4.0817   0.0000                                                             
   Description                                                                                      
     l       E           TYP  RCUT    TYP  RCUT                                                     
     0    -10.8127223     23  1.900                                                                 
     0     -7.6451159     23  1.900                                                                 
     1     -4.0811372     23  1.900                                                                 
     1      2.4879257     23  1.900                                                                 
     2     -4.0817478      7  1.900                                                                 
  local pseudopotential read in
  partial core-charges read in
  partial kinetic energy density read in
  atomic valenz-charges read in
  non local Contribution for L=           0  read in
    real space projection operators read in
  non local Contribution for L=           0  read in
    real space projection operators read in
  non local Contribution for L=           1  read in
    real space projection operators read in
  non local Contribution for L=           1  read in
    real space projection operators read in
    PAW grid and wavefunctions read in
 
   number of l-projection  operators is LMAX  =           4
   number of lm-projection operators is LMMAX =           8
 
  PAW_PBE Si 05Jan2001                  :
 energy of atom  1       EATOM= -103.0669
 kinetic energy error for atom=    0.0013 (will be added to EATOM!!)
 
 
 POSCAR: Si1
  positions in direct lattice
  No initial velocities read in
 exchange correlation table for  LEXCH =        8
   RHO(1)=    0.500       N(1)  =     2000
   RHO(2)=  100.500       N(2)  =     4000
 


--------------------------------------------------------------------------------------------------------


 ion  position               nearest neighbor table
   1  0.000  0.000  0.000-
 
  LATTYP: Found a face centered cubic cell.
 ALAT       =     3.8332789147
  
  Lattice vectors:
  
 A1 = (   2.3473950000,   0.0000000000,   1.3552680000)
 A2 = (   0.7824650000,   2.2131450000,   1.3552680000)
 A3 = (   0.0000000000,   0.0000000000,   2.7105380000)


Analysis of symmetry for initial positions (statically):
=====================================================================
 Subroutine PRICEL returns:
 Original cell was already a primitive cell.
 

 Routine SETGRP: Setting up the symmetry group for a 
 face centered cubic supercell.


 Subroutine GETGRP returns: Found 48 space group operations
 (whereof 48 operations were pure point group operations)
 out of a pool of 48 trial point group operations.


The static configuration has the point symmetry O_h .


Analysis of symmetry for dynamics (positions and initial velocities):
=====================================================================
 Subroutine PRICEL returns:
 Original cell was already a primitive cell.
 

 Routine SETGRP: Setting up the symmetry group for a 
 face centered cubic supercell.


 Subroutine GETGRP returns: Found 48 space group operations
 (whereof 48 operations were pure point group operations)
 out of a pool of 48 trial point group operations.


The dynamic configuration has the point symmetry O_h .


 Subroutine INISYM returns: Found 48 space group operations
 (whereof 48 operations are pure point group operations),
 and found     1 'primitive' translations


----------------------------------------------------------------------------------------

                                     Primitive cell                                     

  volume of cell :      14.0816

  direct lattice vectors                    reciprocal lattice vectors
     2.347395000  0.000000000  1.355268000     0.426004145 -0.150615226  0.000000000
     0.782465000  2.213145000  1.355268000     0.000000000  0.451845677  0.000000000
     0.000000000  0.000000000  2.710538000    -0.213001915 -0.150615114  0.368930448

  length of vectors
     2.710537703  2.710537515  2.710538000     0.451845635  0.451845677  0.451845554

  position of ions in fractional coordinates (direct lattice)
     0.000000000  0.000000000  0.000000000

  ion indices of the primitive-cell ions
   primitive index   ion index
                 1           1

----------------------------------------------------------------------------------------

 
 
 KPOINTS: Automatic                               

Automatic generation of k-mesh.
 Grid dimensions read from file:
 generate k-points for:   15   15   15

 Generating k-lattice:

  Cartesian coordinates                     Fractional coordinates (reciprocal lattice)
     0.028400276 -0.010041015  0.000000000     0.066666667 -0.000000000  0.000000000
     0.000000000  0.030123045  0.000000000     0.000000000  0.066666667  0.000000000
    -0.014200128 -0.010041008  0.024595363     0.000000000  0.000000000  0.066666667

  Length of vectors
     0.030123042  0.030123045  0.030123037

  Shift w.r.t. Gamma in fractional coordinates (k-lattice)
     0.000000000  0.000000000  0.000000000

 
 Subroutine IBZKPT returns following result:
 ===========================================
 
 Found    120 irreducible k-points:
 
 Following reciprocal coordinates:
            Coordinates               Weight
  0.000000  0.000000  0.000000      1.000000
  0.066667 -0.000000  0.000000      8.000000
  0.133333  0.000000  0.000000      8.000000
  0.200000  0.000000  0.000000      8.000000
  0.266667  0.000000  0.000000      8.000000
  0.333333  0.000000  0.000000      8.000000
  0.400000 -0.000000  0.000000      8.000000
  0.466667  0.000000  0.000000      8.000000
  0.066667  0.066667  0.000000      6.000000
  0.133333  0.066667  0.000000     24.000000
  0.200000  0.066667  0.000000     24.000000
  0.266667  0.066667  0.000000     24.000000
  0.333333  0.066667  0.000000     24.000000
  0.400000  0.066667  0.000000     24.000000
  0.466667  0.066667  0.000000     24.000000
 -0.466667  0.066667  0.000000     24.000000
 -0.400000  0.066667  0.000000     24.000000
 -0.333333  0.066667  0.000000     24.000000
 -0.266667  0.066667  0.000000     24.000000
 -0.200000  0.066667  0.000000     24.000000
 -0.133333  0.066667  0.000000     24.000000
 -0.066667  0.066667  0.000000     12.000000
  0.133333  0.133333  0.000000      6.000000
  0.200000  0.133333  0.000000     24.000000
  0.266667  0.133333  0.000000     24.000000
  0.333333  0.133333  0.000000     24.000000
  0.400000  0.133333  0.000000     24.000000
  0.466667  0.133333  0.000000     24.000000
 -0.466667  0.133333  0.000000     24.000000
 -0.400000  0.133333  0.000000     24.000000
 -0.333333  0.133333  0.000000     24.000000
 -0.266667  0.133333  0.000000     24.000000
 -0.200000  0.133333  0.000000     24.000000
 -0.133333  0.133333  0.000000     12.000000
  0.200000  0.200000  0.000000      6.000000
  0.266667  0.200000  0.000000     24.000000
  0.333333  0.200000  0.000000     24.000000
  0.400000  0.200000  0.000000     24.000000
  0.466667  0.200000  0.000000     24.000000
 -0.466667  0.200000  0.000000     24.000000
 -0.400000  0.200000  0.000000     24.000000
 -0.333333  0.200000  0.000000     24.000000
 -0.266667  0.200000  0.000000     24.000000
 -0.200000  0.200000  0.000000     12.000000
  0.266667  0.266667  0.000000      6.000000
  0.333333  0.266667  0.000000     24.000000
  0.400000  0.266667  0.000000     24.000000
  0.466667  0.266667  0.000000     24.000000
 -0.466667  0.266667  0.000000     24.000000
 -0.400000  0.266667  0.000000     24.000000
 -0.333333  0.266667  0.000000     24.000000
 -0.266667  0.266667  0.000000     12.000000
  0.333333  0.333333  0.000000      6.000000
  0.400000  0.333333  0.000000     24.000000
  0.466667  0.333333  0.000000     24.000000
 -0.466667  0.333333  0.000000     24.000000
 -0.400000  0.333333  0.000000     24.000000
 -0.333333  0.333333  0.000000     12.000000
  0.400000  0.400000  0.000000      6.000000
  0.466667  0.400000  0.000000     24.000000
 -0.466667  0.400000  0.000000     24.000000
 -0.400000  0.400000  0.000000     12.000000
  0.466667  0.466667  0.000000      6.000000
 -0.466667  0.466667  0.000000     12.000000
  0.200000  0.133333  0.066667     24.000000
  0.266667  0.133333  0.066667     48.000000
  0.333333  0.133333  0.066667     48.000000
  0.400000  0.133333  0.066667     48.000000
  0.466667  0.133333  0.066667     48.000000
 -0.466667  0.133333  0.066667     48.000000
  0.266667  0.200000  0.066667     24.000000
  0.333333  0.200000  0.066667     48.000000
  0.400000  0.200000  0.066667     48.000000
  0.466667  0.200000  0.066667     48.000000
 -0.466667  0.200000  0.066667     48.000000
 -0.400000  0.200000  0.066667     48.000000
 -0.333333  0.200000  0.066667     48.000000
 -0.266667  0.200000  0.066667     48.000000
 -0.200000  0.200000  0.066667     48.000000
 -0.133333  0.200000  0.066667     24.000000
  0.333333  0.266667  0.066667     24.000000
  0.400000  0.266667  0.066667     48.000000
  0.466667  0.266667  0.066667     48.000000
 -0.466667  0.266667  0.066667     48.000000
 -0.400000  0.266667  0.066667     48.000000
 -0.333333  0.266667  0.066667     48.000000
 -0.266667  0.266667  0.066667     48.000000
 -0.200000  0.266667  0.066667     24.000000
  0.400000  0.333333  0.066667     24.000000
  0.466667  0.333333  0.066667     48.000000
 -0.466667  0.333333  0.066667     48.000000
 -0.400000  0.333333  0.066667     48.000000
 -0.333333  0.333333  0.066667     48.000000
 -0.266667  0.333333  0.066667     24.000000
  0.466667  0.400000  0.066667     24.000000
 -0.466667  0.400000  0.066667     48.000000
 -0.400000  0.400000  0.066667     48.000000
 -0.333333  0.400000  0.066667     24.000000
 -0.466667  0.466667  0.066667     24.000000
 -0.400000  0.466667  0.066667     24.000000
  0.400000  0.266667  0.133333     24.000000
  0.466667  0.266667  0.133333     48.000000
 -0.466667  0.266667  0.133333     48.000000
 -0.400000  0.266667  0.133333     48.000000
  0.466667  0.333333  0.133333     24.000000
 -0.466667  0.333333  0.133333     48.000000
 -0.400000  0.333333  0.133333     48.000000
 -0.333333  0.333333  0.133333     48.000000
 -0.266667  0.333333  0.133333     48.000000
 -0.200000  0.333333  0.133333     24.000000
 -0.466667  0.400000  0.133333     24.000000
 -0.400000  0.400000  0.133333     48.000000
 -0.333333  0.400000  0.133333     48.000000
 -0.266667  0.400000  0.133333     24.000000
 -0.400000  0.466667  0.133333     24.000000
 -0.333333  0.466667  0.133333     24.000000
 -0.400000  0.400000  0.200000     24.000000
 -0.333333  0.400000  0.200000     48.000000
 -0.333333  0.466667  0.200000     24.000000
 -0.266667  0.466667  0.200000     24.000000
 
 Following cartesian coordinates:
            Coordinates               Weight
  0.000000  0.000000  0.000000      1.000000
  0.028400 -0.010041  0.000000      8.000000
  0.056801 -0.020082  0.000000      8.000000
  0.085201 -0.030123  0.000000      8.000000
  0.113601 -0.040164  0.000000      8.000000
  0.142001 -0.050205  0.000000      8.000000
  0.170402 -0.060246  0.000000      8.000000
  0.198802 -0.070287  0.000000      8.000000
  0.028400  0.020082  0.000000      6.000000
  0.056801  0.010041  0.000000     24.000000
  0.085201  0.000000  0.000000     24.000000
  0.113601 -0.010041  0.000000     24.000000
  0.142001 -0.020082  0.000000     24.000000
  0.170402 -0.030123  0.000000     24.000000
  0.198802 -0.040164  0.000000     24.000000
 -0.198802  0.100410  0.000000     24.000000
 -0.170402  0.090369  0.000000     24.000000
 -0.142001  0.080328  0.000000     24.000000
 -0.113601  0.070287  0.000000     24.000000
 -0.085201  0.060246  0.000000     24.000000
 -0.056801  0.050205  0.000000     24.000000
 -0.028400  0.040164  0.000000     12.000000
  0.056801  0.040164  0.000000      6.000000
  0.085201  0.030123  0.000000     24.000000
  0.113601  0.020082  0.000000     24.000000
  0.142001  0.010041  0.000000     24.000000
  0.170402  0.000000  0.000000     24.000000
  0.198802 -0.010041  0.000000     24.000000
 -0.198802  0.130533  0.000000     24.000000
 -0.170402  0.120492  0.000000     24.000000
 -0.142001  0.110451  0.000000     24.000000
 -0.113601  0.100410  0.000000     24.000000
 -0.085201  0.090369  0.000000     24.000000
 -0.056801  0.080328  0.000000     12.000000
  0.085201  0.060246  0.000000      6.000000
  0.113601  0.050205  0.000000     24.000000
  0.142001  0.040164  0.000000     24.000000
  0.170402  0.030123  0.000000     24.000000
  0.198802  0.020082  0.000000     24.000000
 -0.198802  0.160656  0.000000     24.000000
 -0.170402  0.150615  0.000000     24.000000
 -0.142001  0.140574  0.000000     24.000000
 -0.113601  0.130533  0.000000     24.000000
 -0.085201  0.120492  0.000000     12.000000
  0.113601  0.080328  0.000000      6.000000
  0.142001  0.070287  0.000000     24.000000
  0.170402  0.060246  0.000000     24.000000
  0.198802  0.050205  0.000000     24.000000
 -0.198802  0.190779  0.000000     24.000000
 -0.170402  0.180738  0.000000     24.000000
 -0.142001  0.170697  0.000000     24.000000
 -0.113601  0.160656  0.000000     12.000000
  0.142001  0.100410  0.000000      6.000000
  0.170402  0.090369  0.000000     24.000000
  0.198802  0.080328  0.000000     24.000000
 -0.198802  0.220902  0.000000     24.000000
 -0.170402  0.210861  0.000000     24.000000
 -0.142001  0.200820  0.000000     12.000000
  0.170402  0.120492  0.000000      6.000000
  0.198802  0.110451  0.000000     24.000000
 -0.198802  0.251025  0.000000     24.000000
 -0.170402  0.240984  0.000000     12.000000
  0.198802  0.140574  0.000000      6.000000
 -0.198802  0.281148  0.000000     12.000000
  0.071001  0.020082  0.024595     24.000000
  0.099401  0.010041  0.024595     48.000000
  0.127801  0.000000  0.024595     48.000000
  0.156202 -0.010041  0.024595     48.000000
  0.184602 -0.020082  0.024595     48.000000
 -0.213002  0.120492  0.024595     48.000000
  0.099401  0.040164  0.024595     24.000000
  0.127801  0.030123  0.024595     48.000000
  0.156202  0.020082  0.024595     48.000000
  0.184602  0.010041  0.024595     48.000000
 -0.213002  0.150615  0.024595     48.000000
 -0.184602  0.140574  0.024595     48.000000
 -0.156202  0.130533  0.024595     48.000000
 -0.127801  0.120492  0.024595     48.000000
 -0.099401  0.110451  0.024595     48.000000
 -0.071001  0.100410  0.024595     24.000000
  0.127801  0.060246  0.024595     24.000000
  0.156202  0.050205  0.024595     48.000000
  0.184602  0.040164  0.024595     48.000000
 -0.213002  0.180738  0.024595     48.000000
 -0.184602  0.170697  0.024595     48.000000
 -0.156202  0.160656  0.024595     48.000000
 -0.127801  0.150615  0.024595     48.000000
 -0.099401  0.140574  0.024595     24.000000
  0.156202  0.080328  0.024595     24.000000
  0.184602  0.070287  0.024595     48.000000
 -0.213002  0.210861  0.024595     48.000000
 -0.184602  0.200820  0.024595     48.000000
 -0.156202  0.190779  0.024595     48.000000
 -0.127801  0.180738  0.024595     24.000000
  0.184602  0.100410  0.024595     24.000000
 -0.213002  0.240984  0.024595     48.000000
 -0.184602  0.230943  0.024595     48.000000
 -0.156202  0.220902  0.024595     24.000000
 -0.213002  0.271107  0.024595     24.000000
 -0.184602  0.261066  0.024595     24.000000
  0.142001  0.040164  0.049191     24.000000
  0.170402  0.030123  0.049191     48.000000
 -0.227202  0.170697  0.049191     48.000000
 -0.198802  0.160656  0.049191     48.000000
  0.170402  0.060246  0.049191     24.000000
 -0.227202  0.200820  0.049191     48.000000
 -0.198802  0.190779  0.049191     48.000000
 -0.170402  0.180738  0.049191     48.000000
 -0.142001  0.170697  0.049191     48.000000
 -0.113601  0.160656  0.049191     24.000000
 -0.227202  0.230943  0.049191     24.000000
 -0.198802  0.220902  0.049191     48.000000
 -0.170402  0.210861  0.049191     48.000000
 -0.142001  0.200820  0.049191     24.000000
 -0.198802  0.251025  0.049191     24.000000
 -0.170402  0.240984  0.049191     24.000000
 -0.213002  0.210861  0.073786     24.000000
 -0.184602  0.200820  0.073786     48.000000
 -0.184602  0.230943  0.073786     24.000000
 -0.156201  0.220902  0.073786     24.000000
 


--------------------------------------------------------------------------------------------------------




 Dimension of arrays:
   k-points           NKPTS =    120   k-points in BZ     NKDIM =    120   number of bands    NBANDS=      8
   number of dos      NEDOS =    301   number of ions     NIONS =      1
   non local maximal  LDIM  =      4   non local SUM 2l+1 LMDIM =      8
   total plane-waves  NPLWV =   5832
   max r-space proj   IRMAX =      1   max aug-charges    IRDMAX= 110965
   dimension x,y,z NGX =    18 NGY =   18 NGZ =   18
   dimension x,y,z NGXF=    36 NGYF=   36 NGZF=   36
   support grid    NGXF=    72 NGYF=   72 NGZF=   72
   ions per type =               1
   NGX,Y,Z   is equivalent  to a cutoff of  11.04, 11.04, 11.04 a.u.
   NGXF,Y,Z  is equivalent  to a cutoff of  22.08, 22.08, 22.08 a.u.

 SYSTEM =  unknown system                          
 POSCAR =  Si1                                     

 Startparameter for this run:
   NWRITE =      2    write-flag & timer
   PREC   = accura    normal or accurate (medium, high low for compatibility)
   ISTART =      0    job   : 0-new  1-cont  2-samecut
   ICHARG =      2    charge: 1-file 2-atom 10-const
   ISPIN  =      1    spin polarized calculation?
   LNONCOLLINEAR =      F non collinear calculations
   LSORBIT =      F    spin-orbit coupling
   INIWAV =      1    electr: 0-lowe 1-rand  2-diag
   LASPH  =      T    aspherical Exc in radial PAW
   METAGGA=      F    non-selfconsistent MetaGGA calc.

 Electronic Relaxation 1
   ENCUT  =  350.0 eV  25.72 Ry    5.07 a.u.   4.13  4.13  4.13*2*pi/ulx,y,z
   ENINI  =  350.0     initial cutoff
   ENAUG  =  322.1 eV  augmentation charge cutoff
   NELM   =     90;   NELMIN=  6; NELMDL= -5     # of ELM steps 
   EDIFF  = 0.1E-05   stopping-criterion for ELM
   LREAL  =      F    real-space projection
   NLSPLINE    = F    spline interpolate recip. space projectors
   LCOMPAT=      F    compatible to vasp.4.4
   GGA_COMPAT  = T    GGA compatible to vasp.4.4-vasp.4.6
   LMAXPAW     = -100 max onsite density
   LMAXMIX     =    2 max onsite mixed and CHGCAR
   VOSKOWN=      0    Vosko Wilk Nusair interpolation
   ROPT   =    0.00000
 Ionic relaxation
   EDIFFG = -.2E-02   stopping-criterion for IOM
   NSW    =    100    number of steps for IOM
   NBLOCK =      1;   KBLOCK =    100    inner block; outer block 
   IBRION =      2    ionic relax: 0-MD 1-quasi-New 2-CG
   NFREE  =      1    steps in history (QN), initial steepest desc. (CG)
   ISIF   =      3    stress and relaxation
   IWAVPR =     11    prediction:  0-non 1-charg 2-wave 3-comb
   ISYM   =      2    0-nonsym 1-usesym 2-fastsym
   LCORR  =      T    Harris-Foulkes like correction to forces

   POTIM  = 0.5000    time-step for ionic-motion
   TEIN   =    0.0    initial temperature
   TEBEG  =    0.0;   TEEND  =   0.0 temperature during run
   SMASS  =  -3.00    Nose mass-parameter (am)
   estimated Nose-frequenzy (Omega)   =  0.10E-29 period in steps = 0.13E+47 mass=  -0.168E-27a.u.
   SCALEE = 1.0000    scale energy and forces
   NPACO  =    256;   APACO  = 16.0  distance and # of slots for P.C.
   PSTRESS=    0.0 pullay stress

  Mass of Ions in am
   POMASS =  28.09
  Ionic Valenz
   ZVAL   =   4.00
  Atomic Wigner-Seitz radii
   RWIGS  =  -1.00
  virtual crystal weights 
   VCA    =   1.00
   NELECT =       4.0000    total number of electrons
   NUPDOWN=      -1.0000    fix difference up-down

 DOS related values:
   EMIN   =  10.00;   EMAX   =-10.00  energy-range for DOS
   EFERMI =   0.00
   ISMEAR =     0;   SIGMA  =   0.05  broadening in eV -4-tet -1-fermi 0-gaus

 Electronic relaxation 2 (details)
   IALGO  =     38    algorithm
   LDIAG  =      T    sub-space diagonalisation (order eigenvalues)
   LSUBROT=      F    optimize rotation matrix (better conditioning)
   TURBO    =      0    0=normal 1=particle mesh
   IRESTART =      0    0=no restart 2=restart with 2 vectors
   NREBOOT  =      0    no. of reboots
   NMIN     =      0    reboot dimension
   EREF     =   0.00    reference energy to select bands
   IMIX   =      4    mixing-type and parameters
     AMIX     =   0.40;   BMIX     =  1.00
     AMIX_MAG =   1.60;   BMIX_MAG =  1.00
     AMIN     =   0.10
     WC   =   100.;   INIMIX=   1;  MIXPRE=   1;  MAXMIX= -45

 Intra band minimization:
   WEIMIN = 0.0010     energy-eigenvalue tresh-hold
   EBREAK =  0.31E-07  absolut break condition
   DEPER  =   0.30     relativ break condition  

   TIME   =   0.40     timestep for ELM

  volume/ion in A,a.u.               =      14.08        95.03
  Fermi-wavevector in a.u.,A,eV,Ry     =   1.076162  2.033651 15.757242  1.158125
  Thomas-Fermi vector in A             =   2.212039
 
 Write flags
   LWAVE        =      F    write WAVECAR
   LDOWNSAMPLE  =      F    k-point downsampling of WAVECAR
   LCHARG       =      F    write CHGCAR
   LVTOT        =      F    write LOCPOT, total local potential
   LVHAR        =      F    write LOCPOT, Hartree potential only
   LELF         =      F    write electronic localiz. function (ELF)
   LORBIT       =      0    0 simple, 1 ext, 2 COOP (PROOUT), +10 PAW based schemes


 Dipole corrections
   LMONO  =      F    monopole corrections only (constant potential shift)
   LDIPOL =      F    correct potential (dipole corrections)
   IDIPOL =      0    1-x, 2-y, 3-z, 4-all directions 
   EPSILON=  1.0000000 bulk dielectric constant

 Exchange correlation treatment:
   GGA     =    --    GGA type
   LEXCH   =     8    internal setting for exchange type
   VOSKOWN=      0    Vosko Wilk Nusair interpolation
   LHFCALC =     F    Hartree Fock is set to
   LHFONE  =     F    Hartree Fock one center treatment
   AEXX    =    0.0000 exact exchange contribution

 Linear response parameters
   LEPSILON=     F    determine dielectric tensor
   LRPA    =     F    only Hartree local field effects (RPA)
   LNABLA  =     F    use nabla operator in PAW spheres
   LVEL    =     F    velocity operator in full k-point grid
   LINTERFAST=   F  fast interpolation
   KINTER  =     0    interpolate to denser k-point grid
   CSHIFT  =0.1000    complex shift for real part using Kramers Kronig
   OMEGAMAX=  -1.0    maximum frequency
   DEG_THRESHOLD= 0.2000000E-02 threshold for treating states as degnerate
   RTIME   =   -0.100 relaxation time in fs
  (WPLASMAI=    0.000 imaginary part of plasma frequency in eV, 0.658/RTIME)
   DFIELD  = 0.0000000 0.0000000 0.0000000 field for delta impulse in time
 
 Orbital magnetization related:
   ORBITALMAG=     F  switch on orbital magnetization
   LCHIMAG   =     F  perturbation theory with respect to B field
   DQ        =  0.001000  dq finite difference perturbation B field
   LLRAUG    =     F  two centre corrections for induced B field



--------------------------------------------------------------------------------------------------------


 conjugate gradient relaxation of ions
 charge density and potential will be updated during run
 non-spin polarized calculation
 Variant of blocked Davidson
 Davidson routine will perform the subspace rotation
 perform sub-space diagonalisation
    after iterative eigenvector-optimisation
 modified Broyden-mixing scheme, WC =      100.0
 initial mixing is a Kerker type mixing with AMIX =  0.4000 and BMIX =      1.0000
 Hartree-type preconditioning will be used
 using additional bands            6
 reciprocal scheme for non local part
 use partial core corrections
 calculate Harris-corrections to forces 
   (improved forces if not selfconsistent)
 use gradient corrections 
 use of overlap-Matrix (Vanderbilt PP)
 Gauss-broadening in eV      SIGMA  =   0.05


--------------------------------------------------------------------------------------------------------


  energy-cutoff  :      350.00
  volume of cell :       14.08
      direct lattice vectors                 reciprocal lattice vectors
     2.347395000  0.000000000  1.355268000     0.426004145 -0.150615226  0.000000000
     0.782465000  2.213145000  1.355268000     0.000000000  0.451845677  0.000000000
     0.000000000  0.000000000  2.710538000    -0.213001915 -0.150615114  0.368930448

  length of vectors
     2.710537703  2.710537515  2.710538000     0.451845635  0.451845677  0.451845554


 
 k-points in units of 2pi/SCALE and weight: Automatic                               
   0.00000000  0.00000000  0.00000000       0.000
   0.02840028 -0.01004102  0.00000000       0.002
   0.05680055 -0.02008203  0.00000000       0.002
   0.08520083 -0.03012305  0.00000000       0.002
   0.11360111 -0.04016406  0.00000000       0.002
   0.14200138 -0.05020508  0.00000000       0.002
   0.17040166 -0.06024609  0.00000000       0.002
   0.19880193 -0.07028711  0.00000000       0.002
   0.02840028  0.02008203  0.00000000       0.002
   0.05680055  0.01004102  0.00000000       0.007
   0.08520083  0.00000000  0.00000000       0.007
   0.11360111 -0.01004102  0.00000000       0.007
   0.14200138 -0.02008203  0.00000000       0.007
   0.17040166 -0.03012305  0.00000000       0.007
   0.19880193 -0.04016406  0.00000000       0.007
  -0.19880193  0.10041015  0.00000000       0.007
  -0.17040166  0.09036914  0.00000000       0.007
  -0.14200138  0.08032812  0.00000000       0.007
  -0.11360111  0.07028711  0.00000000       0.007
  -0.08520083  0.06024609  0.00000000       0.007
  -0.05680055  0.05020508  0.00000000       0.007
  -0.02840028  0.04016406  0.00000000       0.004
   0.05680055  0.04016406  0.00000000       0.002
   0.08520083  0.03012305  0.00000000       0.007
   0.11360111  0.02008203  0.00000000       0.007
   0.14200138  0.01004102  0.00000000       0.007
   0.17040166  0.00000000  0.00000000       0.007
   0.19880193 -0.01004102  0.00000000       0.007
  -0.19880193  0.13053320  0.00000000       0.007
  -0.17040166  0.12049218  0.00000000       0.007
  -0.14200138  0.11045117  0.00000000       0.007
  -0.11360111  0.10041015  0.00000000       0.007
  -0.08520083  0.09036914  0.00000000       0.007
  -0.05680055  0.08032812  0.00000000       0.004
   0.08520083  0.06024609  0.00000000       0.002
   0.11360111  0.05020508  0.00000000       0.007
   0.14200138  0.04016406  0.00000000       0.007
   0.17040166  0.03012305  0.00000000       0.007
   0.19880193  0.02008203  0.00000000       0.007
  -0.19880193  0.16065624  0.00000000       0.007
  -0.17040166  0.15061523  0.00000000       0.007
  -0.14200138  0.14057421  0.00000000       0.007
  -0.11360111  0.13053320  0.00000000       0.007
  -0.08520083  0.12049218  0.00000000       0.004
   0.11360111  0.08032812  0.00000000       0.002
   0.14200138  0.07028711  0.00000000       0.007
   0.17040166  0.06024609  0.00000000       0.007
   0.19880193  0.05020508  0.00000000       0.007
  -0.19880193  0.19077929  0.00000000       0.007
  -0.17040166  0.18073827  0.00000000       0.007
  -0.14200138  0.17069726  0.00000000       0.007
  -0.11360111  0.16065624  0.00000000       0.004
   0.14200138  0.10041015  0.00000000       0.002
   0.17040166  0.09036914  0.00000000       0.007
   0.19880193  0.08032812  0.00000000       0.007
  -0.19880193  0.22090233  0.00000000       0.007
  -0.17040166  0.21086132  0.00000000       0.007
  -0.14200138  0.20082030  0.00000000       0.004
   0.17040166  0.12049218  0.00000000       0.002
   0.19880193  0.11045117  0.00000000       0.007
  -0.19880193  0.25102538  0.00000000       0.007
  -0.17040166  0.24098436  0.00000000       0.004
   0.19880193  0.14057421  0.00000000       0.002
  -0.19880193  0.28114842  0.00000000       0.004
   0.07100070  0.02008204  0.02459536       0.007
   0.09940098  0.01004102  0.02459536       0.014
   0.12780125  0.00000001  0.02459536       0.014
   0.15620153 -0.01004101  0.02459536       0.014
   0.18460181 -0.02008202  0.02459536       0.014
  -0.21300206  0.12049219  0.02459536       0.014
   0.09940098  0.04016407  0.02459536       0.007
   0.12780125  0.03012305  0.02459536       0.014
   0.15620153  0.02008204  0.02459536       0.014
   0.18460181  0.01004102  0.02459536       0.014
  -0.21300206  0.15061523  0.02459536       0.014
  -0.18460179  0.14057422  0.02459536       0.014
  -0.15620151  0.13053320  0.02459536       0.014
  -0.12780123  0.12049219  0.02459536       0.014
  -0.09940096  0.11045117  0.02459536       0.014
  -0.07100068  0.10041016  0.02459536       0.007
   0.12780125  0.06024610  0.02459536       0.007
   0.15620153  0.05020508  0.02459536       0.014
   0.18460181  0.04016407  0.02459536       0.014
  -0.21300206  0.18073828  0.02459536       0.014
  -0.18460179  0.17069726  0.02459536       0.014
  -0.15620151  0.16065625  0.02459536       0.014
  -0.12780123  0.15061523  0.02459536       0.014
  -0.09940096  0.14057422  0.02459536       0.007
   0.15620153  0.08032813  0.02459536       0.007
   0.18460181  0.07028711  0.02459536       0.014
  -0.21300206  0.21086132  0.02459536       0.014
  -0.18460179  0.20082031  0.02459536       0.014
  -0.15620151  0.19077929  0.02459536       0.014
  -0.12780123  0.18073828  0.02459536       0.007
   0.18460181  0.10041016  0.02459536       0.007
  -0.21300206  0.24098437  0.02459536       0.014
  -0.18460179  0.23094335  0.02459536       0.014
  -0.15620151  0.22090234  0.02459536       0.007
  -0.21300206  0.27110741  0.02459536       0.007
  -0.18460179  0.26106640  0.02459536       0.007
   0.14200140  0.04016407  0.04919073       0.007
   0.17040168  0.03012306  0.04919073       0.014
  -0.22720219  0.17069727  0.04919073       0.014
  -0.19880191  0.16065626  0.04919073       0.014
   0.17040168  0.06024611  0.04919073       0.007
  -0.22720219  0.20082032  0.04919073       0.014
  -0.19880191  0.19077930  0.04919073       0.014
  -0.17040164  0.18073829  0.04919073       0.014
  -0.14200136  0.17069727  0.04919073       0.014
  -0.11360108  0.16065626  0.04919073       0.007
  -0.22720219  0.23094336  0.04919073       0.007
  -0.19880191  0.22090235  0.04919073       0.014
  -0.17040164  0.21086133  0.04919073       0.014
  -0.14200136  0.20082032  0.04919073       0.007
  -0.19880191  0.25102539  0.04919073       0.007
  -0.17040164  0.24098438  0.04919073       0.007
  -0.21300204  0.21086134  0.07378609       0.007
  -0.18460176  0.20082032  0.07378609       0.014
  -0.18460176  0.23094337  0.07378609       0.007
  -0.15620149  0.22090235  0.07378609       0.007
 
 k-points in reciprocal lattice and weights: Automatic                               
   0.00000000  0.00000000  0.00000000       0.000
   0.06666667 -0.00000000  0.00000000       0.002
   0.13333333  0.00000000  0.00000000       0.002
   0.20000000  0.00000000  0.00000000       0.002
   0.26666667  0.00000000  0.00000000       0.002
   0.33333333  0.00000000  0.00000000       0.002
   0.40000000 -0.00000000  0.00000000       0.002
   0.46666667  0.00000000  0.00000000       0.002
   0.06666667  0.06666667  0.00000000       0.002
   0.13333333  0.06666667  0.00000000       0.007
   0.20000000  0.06666667  0.00000000       0.007
   0.26666667  0.06666667  0.00000000       0.007
   0.33333333  0.06666667  0.00000000       0.007
   0.40000000  0.06666667  0.00000000       0.007
   0.46666667  0.06666667  0.00000000       0.007
  -0.46666667  0.06666667  0.00000000       0.007
  -0.40000000  0.06666667  0.00000000       0.007
  -0.33333333  0.06666667  0.00000000       0.007
  -0.26666667  0.06666667  0.00000000       0.007
  -0.20000000  0.06666667  0.00000000       0.007
  -0.13333333  0.06666667  0.00000000       0.007
  -0.06666667  0.06666667  0.00000000       0.004
   0.13333333  0.13333333  0.00000000       0.002
   0.20000000  0.13333333  0.00000000       0.007
   0.26666667  0.13333333  0.00000000       0.007
   0.33333333  0.13333333  0.00000000       0.007
   0.40000000  0.13333333  0.00000000       0.007
   0.46666667  0.13333333  0.00000000       0.007
  -0.46666667  0.13333333  0.00000000       0.007
  -0.40000000  0.13333333  0.00000000       0.007
  -0.33333333  0.13333333  0.00000000       0.007
  -0.26666667  0.13333333  0.00000000       0.007
  -0.20000000  0.13333333  0.00000000       0.007
  -0.13333333  0.13333333  0.00000000       0.004
   0.20000000  0.20000000  0.00000000       0.002
   0.26666667  0.20000000  0.00000000       0.007
   0.33333333  0.20000000  0.00000000       0.007
   0.40000000  0.20000000  0.00000000       0.007
   0.46666667  0.20000000  0.00000000       0.007
  -0.46666667  0.20000000  0.00000000       0.007
  -0.40000000  0.20000000  0.00000000       0.007
  -0.33333333  0.20000000  0.00000000       0.007
  -0.26666667  0.20000000  0.00000000       0.007
  -0.20000000  0.20000000  0.00000000       0.004
   0.26666667  0.26666667  0.00000000       0.002
   0.33333333  0.26666667  0.00000000       0.007
   0.40000000  0.26666667  0.00000000       0.007
   0.46666667  0.26666667  0.00000000       0.007
  -0.46666667  0.26666667  0.00000000       0.007
  -0.40000000  0.26666667  0.00000000       0.007
  -0.33333333  0.26666667  0.00000000       0.007
  -0.26666667  0.26666667  0.00000000       0.004
   0.33333333  0.33333333  0.00000000       0.002
   0.40000000  0.33333333  0.00000000       0.007
   0.46666667  0.33333333  0.00000000       0.007
  -0.46666667  0.33333333  0.00000000       0.007
  -0.40000000  0.33333333  0.00000000       0.007
  -0.33333333  0.33333333  0.00000000       0.004
   0.40000000  0.40000000  0.00000000       0.002
   0.46666667  0.40000000  0.00000000       0.007
  -0.46666667  0.40000000  0.00000000       0.007
  -0.40000000  0.40000000  0.00000000       0.004
   0.46666667  0.46666667  0.00000000       0.002
  -0.46666667  0.46666667  0.00000000       0.004
   0.20000000  0.13333333  0.06666667       0.007
   0.26666667  0.13333333  0.06666667       0.014
   0.33333333  0.13333333  0.06666667       0.014
   0.40000000  0.13333333  0.06666667       0.014
   0.46666667  0.13333333  0.06666667       0.014
  -0.46666667  0.13333333  0.06666667       0.014
   0.26666667  0.20000000  0.06666667       0.007
   0.33333333  0.20000000  0.06666667       0.014
   0.40000000  0.20000000  0.06666667       0.014
   0.46666667  0.20000000  0.06666667       0.014
  -0.46666667  0.20000000  0.06666667       0.014
  -0.40000000  0.20000000  0.06666667       0.014
  -0.33333333  0.20000000  0.06666667       0.014
  -0.26666667  0.20000000  0.06666667       0.014
  -0.20000000  0.20000000  0.06666667       0.014
  -0.13333333  0.20000000  0.06666667       0.007
   0.33333333  0.26666667  0.06666667       0.007
   0.40000000  0.26666667  0.06666667       0.014
   0.46666667  0.26666667  0.06666667       0.014
  -0.46666667  0.26666667  0.06666667       0.014
  -0.40000000  0.26666667  0.06666667       0.014
  -0.33333333  0.26666667  0.06666667       0.014
  -0.26666667  0.26666667  0.06666667       0.014
  -0.20000000  0.26666667  0.06666667       0.007
   0.40000000  0.33333333  0.06666667       0.007
   0.46666667  0.33333333  0.06666667       0.014
  -0.46666667  0.33333333  0.06666667       0.014
  -0.40000000  0.33333333  0.06666667       0.014
  -0.33333333  0.33333333  0.06666667       0.014
  -0.26666667  0.33333333  0.06666667       0.007
   0.46666667  0.40000000  0.06666667       0.007
  -0.46666667  0.40000000  0.06666667       0.014
  -0.40000000  0.40000000  0.06666667       0.014
  -0.33333333  0.40000000  0.06666667       0.007
  -0.46666667  0.46666667  0.06666667       0.007
  -0.40000000  0.46666667  0.06666667       0.007
   0.40000000  0.26666667  0.13333333       0.007
   0.46666667  0.26666667  0.13333333       0.014
  -0.46666667  0.26666667  0.13333333       0.014
  -0.40000000  0.26666667  0.13333333       0.014
   0.46666667  0.33333333  0.13333333       0.007
  -0.46666667  0.33333333  0.13333333       0.014
  -0.40000000  0.33333333  0.13333333       0.014
  -0.33333333  0.33333333  0.13333333       0.014
  -0.26666667  0.33333333  0.13333333       0.014
  -0.20000000  0.33333333  0.13333333       0.007
  -0.46666667  0.40000000  0.13333333       0.007
  -0.40000000  0.40000000  0.13333333       0.014
  -0.33333333  0.40000000  0.13333333       0.014
  -0.26666667  0.40000000  0.13333333       0.007
  -0.40000000  0.46666667  0.13333333       0.007
  -0.33333333  0.46666667  0.13333333       0.007
  -0.40000000  0.40000000  0.20000000       0.007
  -0.33333333  0.40000000  0.20000000       0.014
  -0.33333333  0.46666667  0.20000000       0.007
  -0.26666667  0.46666667  0.20000000       0.007
 
 position of ions in fractional coordinates (direct lattice) 
   0.00000000  0.00000000  0.00000000
 
 position of ions in cartesian coordinates  (Angst):
   0.00000000  0.00000000  0.00000000
 


--------------------------------------------------------------------------------------------------------


 k-point   1 :   0.0000 0.0000 0.0000  plane waves:     181
 k-point   2 :   0.0667-0.0000 0.0000  plane waves:     193
 k-point   3 :   0.1333 0.0000 0.0000  plane waves:     196
 k-point   4 :   0.2000 0.0000 0.0000  plane waves:     205
 k-point   5 :   0.2667 0.0000 0.0000  plane waves:     205
 k-point   6 :   0.3333 0.0000 0.0000  plane waves:     205
 k-point   7 :   0.4000-0.0000 0.0000  plane waves:     210
 k-point   8 :   0.4667 0.0000 0.0000  plane waves:     213
 k-point   9 :   0.0667 0.0667 0.0000  plane waves:     189
 k-point  10 :   0.1333 0.0667 0.0000  plane waves:     201
 k-point  11 :   0.2000 0.0667 0.0000  plane waves:     202
 k-point  12 :   0.2667 0.0667 0.0000  plane waves:     204
 k-point  13 :   0.3333 0.0667 0.0000  plane waves:     207
 k-point  14 :   0.4000 0.0667 0.0000  plane waves:     208
 k-point  15 :   0.4667 0.0667 0.0000  plane waves:     214
 k-point  16 :  -0.4667 0.0667 0.0000  plane waves:     215
 k-point  17 :  -0.4000 0.0667 0.0000  plane waves:     214
 k-point  18 :  -0.3333 0.0667 0.0000  plane waves:     209
 k-point  19 :  -0.2667 0.0667 0.0000  plane waves:     207
 k-point  20 :  -0.2000 0.0667 0.0000  plane waves:     206
 k-point  21 :  -0.1333 0.0667 0.0000  plane waves:     204
 k-point  22 :  -0.0667 0.0667 0.0000  plane waves:     199
 k-point  23 :   0.1333 0.1333 0.0000  plane waves:     202
 k-point  24 :   0.2000 0.1333 0.0000  plane waves:     205
 k-point  25 :   0.2667 0.1333 0.0000  plane waves:     204
 k-point  26 :   0.3333 0.1333 0.0000  plane waves:     208
 k-point  27 :   0.4000 0.1333 0.0000  plane waves:     206
 k-point  28 :   0.4667 0.1333 0.0000  plane waves:     210
 k-point  29 :  -0.4667 0.1333 0.0000  plane waves:     211
 k-point  30 :  -0.4000 0.1333 0.0000  plane waves:     212
 k-point  31 :  -0.3333 0.1333 0.0000  plane waves:     212
 k-point  32 :  -0.2667 0.1333 0.0000  plane waves:     210
 k-point  33 :  -0.2000 0.1333 0.0000  plane waves:     206
 k-point  34 :  -0.1333 0.1333 0.0000  plane waves:     208
 k-point  35 :   0.2000 0.2000 0.0000  plane waves:     202
 k-point  36 :   0.2667 0.2000 0.0000  plane waves:     207
 k-point  37 :   0.3333 0.2000 0.0000  plane waves:     210
 k-point  38 :   0.4000 0.2000 0.0000  plane waves:     213
 k-point  39 :   0.4667 0.2000 0.0000  plane waves:     209
 k-point  40 :  -0.4667 0.2000 0.0000  plane waves:     214
 k-point  41 :  -0.4000 0.2000 0.0000  plane waves:     209
 k-point  42 :  -0.3333 0.2000 0.0000  plane waves:     209
 k-point  43 :  -0.2667 0.2000 0.0000  plane waves:     210
 k-point  44 :  -0.2000 0.2000 0.0000  plane waves:     210
 k-point  45 :   0.2667 0.2667 0.0000  plane waves:     210
 k-point  46 :   0.3333 0.2667 0.0000  plane waves:     213
 k-point  47 :   0.4000 0.2667 0.0000  plane waves:     211
 k-point  48 :   0.4667 0.2667 0.0000  plane waves:     211
 k-point  49 :  -0.4667 0.2667 0.0000  plane waves:     213
 k-point  50 :  -0.4000 0.2667 0.0000  plane waves:     214
 k-point  51 :  -0.3333 0.2667 0.0000  plane waves:     212
 k-point  52 :  -0.2667 0.2667 0.0000  plane waves:     214
 k-point  53 :   0.3333 0.3333 0.0000  plane waves:     218
 k-point  54 :   0.4000 0.3333 0.0000  plane waves:     209
 k-point  55 :   0.4667 0.3333 0.0000  plane waves:     210
 k-point  56 :  -0.4667 0.3333 0.0000  plane waves:     209
 k-point  57 :  -0.4000 0.3333 0.0000  plane waves:     218
 k-point  58 :  -0.3333 0.3333 0.0000  plane waves:     212
 k-point  59 :   0.4000 0.4000 0.0000  plane waves:     214
 k-point  60 :   0.4667 0.4000 0.0000  plane waves:     210
 k-point  61 :  -0.4667 0.4000 0.0000  plane waves:     211
 k-point  62 :  -0.4000 0.4000 0.0000  plane waves:     212
 k-point  63 :   0.4667 0.4667 0.0000  plane waves:     218
 k-point  64 :  -0.4667 0.4667 0.0000  plane waves:     216
 k-point  65 :   0.2000 0.1333 0.0667  plane waves:     203
 k-point  66 :   0.2667 0.1333 0.0667  plane waves:     205
 k-point  67 :   0.3333 0.1333 0.0667  plane waves:     206
 k-point  68 :   0.4000 0.1333 0.0667  plane waves:     209
 k-point  69 :   0.4667 0.1333 0.0667  plane waves:     212
 k-point  70 :  -0.4667 0.1333 0.0667  plane waves:     211
 k-point  71 :   0.2667 0.2000 0.0667  plane waves:     208
 k-point  72 :   0.3333 0.2000 0.0667  plane waves:     207
 k-point  73 :   0.4000 0.2000 0.0667  plane waves:     208
 k-point  74 :   0.4667 0.2000 0.0667  plane waves:     207
 k-point  75 :  -0.4667 0.2000 0.0667  plane waves:     211
 k-point  76 :  -0.4000 0.2000 0.0667  plane waves:     213
 k-point  77 :  -0.3333 0.2000 0.0667  plane waves:     210
 k-point  78 :  -0.2667 0.2000 0.0667  plane waves:     208
 k-point  79 :  -0.2000 0.2000 0.0667  plane waves:     207
 k-point  80 :  -0.1333 0.2000 0.0667  plane waves:     206
 k-point  81 :   0.3333 0.2667 0.0667  plane waves:     211
 k-point  82 :   0.4000 0.2667 0.0667  plane waves:     212
 k-point  83 :   0.4667 0.2667 0.0667  plane waves:     211
 k-point  84 :  -0.4667 0.2667 0.0667  plane waves:     209
 k-point  85 :  -0.4000 0.2667 0.0667  plane waves:     210
 k-point  86 :  -0.3333 0.2667 0.0667  plane waves:     212
 k-point  87 :  -0.2667 0.2667 0.0667  plane waves:     208
 k-point  88 :  -0.2000 0.2667 0.0667  plane waves:     212
 k-point  89 :   0.4000 0.3333 0.0667  plane waves:     210
 k-point  90 :   0.4667 0.3333 0.0667  plane waves:     208
 k-point  91 :  -0.4667 0.3333 0.0667  plane waves:     210
 k-point  92 :  -0.4000 0.3333 0.0667  plane waves:     214
 k-point  93 :  -0.3333 0.3333 0.0667  plane waves:     214
 k-point  94 :  -0.2667 0.3333 0.0667  plane waves:     208
 k-point  95 :   0.4667 0.4000 0.0667  plane waves:     208
 k-point  96 :  -0.4667 0.4000 0.0667  plane waves:     209
 k-point  97 :  -0.4000 0.4000 0.0667  plane waves:     211
 k-point  98 :  -0.3333 0.4000 0.0667  plane waves:     215
 k-point  99 :  -0.4667 0.4667 0.0667  plane waves:     210
 k-point 100 :  -0.4000 0.4667 0.0667  plane waves:     212
 k-point 101 :   0.4000 0.2667 0.1333  plane waves:     208
 k-point 102 :   0.4667 0.2667 0.1333  plane waves:     210
 k-point 103 :  -0.4667 0.2667 0.1333  plane waves:     209
 k-point 104 :  -0.4000 0.2667 0.1333  plane waves:     208
 k-point 105 :   0.4667 0.3333 0.1333  plane waves:     211
 k-point 106 :  -0.4667 0.3333 0.1333  plane waves:     209
 k-point 107 :  -0.4000 0.3333 0.1333  plane waves:     209
 k-point 108 :  -0.3333 0.3333 0.1333  plane waves:     209
 k-point 109 :  -0.2667 0.3333 0.1333  plane waves:     209
 k-point 110 :  -0.2000 0.3333 0.1333  plane waves:     207
 k-point 111 :  -0.4667 0.4000 0.1333  plane waves:     211
 k-point 112 :  -0.4000 0.4000 0.1333  plane waves:     211
 k-point 113 :  -0.3333 0.4000 0.1333  plane waves:     211
 k-point 114 :  -0.2667 0.4000 0.1333  plane waves:     208
 k-point 115 :  -0.4000 0.4667 0.1333  plane waves:     210
 k-point 116 :  -0.3333 0.4667 0.1333  plane waves:     210
 k-point 117 :  -0.4000 0.4000 0.2000  plane waves:     210
 k-point 118 :  -0.3333 0.4000 0.2000  plane waves:     209
 k-point 119 :  -0.3333 0.4667 0.2000  plane waves:     210
 k-point 120 :  -0.2667 0.4667 0.2000  plane waves:     208

 maximum and minimum number of plane-waves per node :       218      181

 maximum number of plane-waves:       218
 maximum index in each direction: 
   IXMAX=    4   IYMAX=    4   IZMAX=    4
   IXMIN=   -4   IYMIN=   -4   IZMIN=   -4


 serial   3D FFT for wavefunctions
 parallel 3D FFT for charge:
    minimum data exchange during FFTs selected (reduces bandwidth)


 total amount of memory used by VASP MPI-rank0    35165. kBytes
=======================================================================

   base      :      30000. kBytes
   nonl-proj :       1693. kBytes
   fftplans  :       1775. kBytes
   grid      :        819. kBytes
   one-center:          3. kBytes
   wavefun   :        875. kBytes
 
     INWAV:  cpu time    0.0000: real time    0.0006
 Broyden mixing: mesh for mixing (old mesh)
   NGX =  9   NGY =  9   NGZ =  9
  (NGX  = 36   NGY  = 36   NGZ  = 36)
  gives a total of    729 points

 initial charge density was supplied:
 charge density of overlapping atoms calculated
 number of electron       4.0000000 magnetization 
 keeping initial charge density in first step


--------------------------------------------------------------------------------------------------------


 Maximum index for augmentation-charges        26783 (set IRDMAX)


--------------------------------------------------------------------------------------------------------


 First call to EWALD:  gamma=   0.734
 Maximum number of real-space cells 3x 3x 3
 Maximum number of reciprocal cells 3x 3x 3

    FEWALD:  cpu time    0.0030: real time    0.0034


--------------------------------------- Iteration      1(   1)  ---------------------------------------


    POTLOK:  cpu time    0.0140: real time    0.0173
    SETDIJ:  cpu time    0.1670: real time    0.1671
     EDDAV:  cpu time    0.5929: real time    0.5938
       DOS:  cpu time    0.0020: real time    0.0022
    --------------------------------------------
      LOOP:  cpu time    0.7769: real time    0.7808

 eigenvalue-minimisations  :  2128
 total energy-change (2. order) :-0.3387689E+01  (-0.1426824E+03)
 number of electron       4.0000000 magnetization 
 augmentation part        4.0000000 magnetization 

 Free energy of the ion-electron system (eV)
  ---------------------------------------------------
  alpha Z        PSCENC =         2.39057823
  Ewald energy   TEWEN  =      -137.78496289
  -Hartree energ DENC   =        -0.54229904
  -exchange      EXHF   =         0.00000000
  -V(xc)+E(xc)   XCENC  =        -8.73348015
  PAW double counting   =        88.12379961      -70.53051779
  entropy T*S    EENTRO =        -0.00063915
  eigenvalues    EBANDS =        20.62420522
  atomic energy  EATOM  =       103.06562707
  Solvation  Ediel_sol  =         0.00000000
  ---------------------------------------------------
  free energy    TOTEN  =        -3.38768889 eV

  energy without entropy =       -3.38704974  energy(sigma->0) =       -3.38736932


--------------------------------------------------------------------------------------------------------




--------------------------------------- Iteration      1(   2)  ---------------------------------------


     EDDAV:  cpu time    0.7879: real time    0.8022
       DOS:  cpu time    0.0020: real time    0.0018
    --------------------------------------------
      LOOP:  cpu time    0.7889: real time    0.8041

 eigenvalue-minimisations  :  2864
 total energy-change (2. order) :-0.1505681E+01  (-0.1468724E+01)
 number of electron       4.0000000 magnetization 
 augmentation part        4.0000000 magnetization 

 Free energy of the ion-electron system (eV)
  ---------------------------------------------------
  alpha Z        PSCENC =         2.39057823
  Ewald energy   TEWEN  =      -137.78496289
  -Hartree energ DENC   =        -0.54229904
  -exchange      EXHF   =         0.00000000
  -V(xc)+E(xc)   XCENC  =        -8.73348015
  PAW double counting   =        88.12379961      -70.53051779
  entropy T*S    EENTRO =        -0.00074620
  eigenvalues    EBANDS =        19.11863139
  atomic energy  EATOM  =       103.06562707
  Solvation  Ediel_sol  =         0.00000000
  ---------------------------------------------------
  free energy    TOTEN  =        -4.89336976 eV

  energy without entropy =       -4.89262356  energy(sigma->0) =       -4.89299666


--------------------------------------------------------------------------------------------------------




--------------------------------------- Iteration      1(   3)  ---------------------------------------


     EDDAV:  cpu time    0.6019: real time    0.6130
       DOS:  cpu time    0.0020: real time    0.0021
    --------------------------------------------
      LOOP:  cpu time    0.6039: real time    0.6151

 eigenvalue-minimisations  :  2136
 total energy-change (2. order) :-0.7684756E-02  (-0.7682615E-02)
 number of electron       4.0000000 magnetization 
 augmentation part        4.0000000 magnetization 

 Free energy of the ion-electron system (eV)
  ---------------------------------------------------
  alpha Z        PSCENC =         2.39057823
  Ewald energy   TEWEN  =      -137.78496289
  -Hartree energ DENC   =        -0.54229904
  -exchange      EXHF   =         0.00000000
  -V(xc)+E(xc)   XCENC  =        -8.73348015
  PAW double counting   =        88.12379961      -70.53051779
  entropy T*S    EENTRO =        -0.00074070
  eigenvalues    EBANDS =        19.11094114
  atomic energy  EATOM  =       103.06562707
  Solvation  Ediel_sol  =         0.00000000
  ---------------------------------------------------
  free energy    TOTEN  =        -4.90105452 eV

  energy without entropy =       -4.90031381  energy(sigma->0) =       -4.90068416


--------------------------------------------------------------------------------------------------------




--------------------------------------- Iteration      1(   4)  ---------------------------------------


     EDDAV:  cpu time    0.9099: real time    0.9248
       DOS:  cpu time    0.0010: real time    0.0022
    --------------------------------------------
      LOOP:  cpu time    0.9119: real time    0.9270

 eigenvalue-minimisations  :  3304
 total energy-change (2. order) :-0.5795608E-05  (-0.5795194E-05)
 number of electron       4.0000000 magnetization 
 augmentation part        4.0000000 magnetization 

 Free energy of the ion-electron system (eV)
  ---------------------------------------------------
  alpha Z        PSCENC =         2.39057823
  Ewald energy   TEWEN  =      -137.78496289
  -Hartree energ DENC   =        -0.54229904
  -exchange      EXHF   =         0.00000000
  -V(xc)+E(xc)   XCENC  =        -8.73348015
  PAW double counting   =        88.12379961      -70.53051779
  entropy T*S    EENTRO =        -0.00074086
  eigenvalues    EBANDS =        19.11093551
  atomic energy  EATOM  =       103.06562707
  Solvation  Ediel_sol  =         0.00000000
  ---------------------------------------------------
  free energy    TOTEN  =        -4.90106031 eV

  energy without entropy =       -4.90031945  energy(sigma->0) =       -4.90068988


--------------------------------------------------------------------------------------------------------




--------------------------------------- Iteration      1(   5)  ---------------------------------------


     EDDAV:  cpu time    0.6069: real time    0.6156
       DOS:  cpu time    0.0010: real time    0.0020
    CHARGE:  cpu time    0.0390: real time    0.0394
    MIXING:  cpu time    0.0010: real time    0.0009
    --------------------------------------------
      LOOP:  cpu time    0.6469: real time    0.6578

 eigenvalue-minimisations  :  2176
 total energy-change (2. order) :-0.5873204E-09  (-0.8532071E-09)
 number of electron       4.0000000 magnetization 
 augmentation part       -0.2399855 magnetization 

 Broyden mixing:
  rms(total) = 0.28003E+00    rms(broyden)= 0.28003E+00
  rms(prec ) = 0.41799E+00
  weight for this iteration     100.00

 Free energy of the ion-electron system (eV)
  ---------------------------------------------------
  alpha Z        PSCENC =         2.39057823
  Ewald energy   TEWEN  =      -137.78496289
  -Hartree energ DENC   =        -0.54229904
  -exchange      EXHF   =         0.00000000
  -V(xc)+E(xc)   XCENC  =        -8.73348015
  PAW double counting   =        88.12379961      -70.53051779
  entropy T*S    EENTRO =        -0.00074086
  eigenvalues    EBANDS =        19.11093551
  atomic energy  EATOM  =       103.06562707
  Solvation  Ediel_sol  =         0.00000000
  ---------------------------------------------------
  free energy    TOTEN  =        -4.90106031 eV

  energy without entropy =       -4.90031945  energy(sigma->0) =       -4.90068988


--------------------------------------------------------------------------------------------------------




--------------------------------------- Iteration      1(   6)  ---------------------------------------


    POTLOK:  cpu time    0.0150: real time    0.0291
    SETDIJ:  cpu time    0.1650: real time    0.1654
     EDDAV:  cpu time    0.6319: real time    0.6327
       DOS:  cpu time    0.0020: real time    0.0020
    CHARGE:  cpu time    0.0370: real time    0.0377
    MIXING:  cpu time    0.0010: real time    0.0010
    --------------------------------------------
      LOOP:  cpu time    0.8529: real time    0.8678

 eigenvalue-minimisations  :  2272
 total energy-change (2. order) : 0.1365548E-01  (-0.3937604E-03)
 number of electron       4.0000000 magnetization 
 augmentation part       -0.2422255 magnetization 

 Broyden mixing:
  rms(total) = 0.15468E+00    rms(broyden)= 0.15468E+00
  rms(prec ) = 0.24152E+00
  weight for this iteration     100.00

 eigenvalues of (default mixing * dielectric matrix)
  average eigenvalue GAMMA=   2.2233
  2.2233

 Free energy of the ion-electron system (eV)
  ---------------------------------------------------
  alpha Z        PSCENC =         2.39057823
  Ewald energy   TEWEN  =      -137.78496289
  -Hartree energ DENC   =        -0.47325823
  -exchange      EXHF   =         0.00000000
  -V(xc)+E(xc)   XCENC  =        -8.71172909
  PAW double counting   =       172.20819509     -154.61507256
  entropy T*S    EENTRO =        -0.00076266
  eigenvalues    EBANDS =        19.03398021
  atomic energy  EATOM  =       103.06562707
  Solvation  Ediel_sol  =         0.00000000
  ---------------------------------------------------
  free energy    TOTEN  =        -4.88740483 eV

  energy without entropy =       -4.88664218  energy(sigma->0) =       -4.88702350


--------------------------------------------------------------------------------------------------------




--------------------------------------- Iteration      1(   7)  ---------------------------------------


    POTLOK:  cpu time    0.0150: real time    0.0232
    SETDIJ:  cpu time    0.1660: real time    0.1657
     EDDAV:  cpu time    0.6349: real time    0.6359
       DOS:  cpu time    0.0020: real time    0.0020
    CHARGE:  cpu time    0.0370: real time    0.0377
    MIXING:  cpu time    0.0000: real time    0.0009
    --------------------------------------------
      LOOP:  cpu time    0.8549: real time    0.8655

 eigenvalue-minimisations  :  2304
 total energy-change (2. order) : 0.7841245E-02  (-0.7953557E-03)
 number of electron       4.0000000 magnetization 
 augmentation part       -0.2454567 magnetization 

 Broyden mixing:
  rms(total) = 0.13485E-01    rms(broyden)= 0.13485E-01
  rms(prec ) = 0.18177E-01
  weight for this iteration     100.00

 eigenvalues of (default mixing * dielectric matrix)
  average eigenvalue GAMMA=   2.3899
  2.3899  2.3899

 Free energy of the ion-electron system (eV)
  ---------------------------------------------------
  alpha Z        PSCENC =         2.39057823
  Ewald energy   TEWEN  =      -137.78496289
  -Hartree energ DENC   =        -0.40498293
  -exchange      EXHF   =         0.00000000
  -V(xc)+E(xc)   XCENC  =        -8.67566272
  PAW double counting   =       333.49463691     -315.90597897
  entropy T*S    EENTRO =        -0.00078960
  eigenvalues    EBANDS =        18.94197132
  atomic energy  EATOM  =       103.06562707
  Solvation  Ediel_sol  =         0.00000000
  ---------------------------------------------------
  free energy    TOTEN  =        -4.87956359 eV

  energy without entropy =       -4.87877399  energy(sigma->0) =       -4.87916879


--------------------------------------------------------------------------------------------------------




--------------------------------------- Iteration      1(   8)  ---------------------------------------


    POTLOK:  cpu time    0.0150: real time    0.0292
    SETDIJ:  cpu time    0.1650: real time    0.1650
     EDDAV:  cpu time    0.8069: real time    0.8074
       DOS:  cpu time    0.0020: real time    0.0020
    CHARGE:  cpu time    0.0380: real time    0.0378
    MIXING:  cpu time    0.0010: real time    0.0010
    --------------------------------------------
      LOOP:  cpu time    1.0268: real time    1.0424

 eigenvalue-minimisations  :  2880
 total energy-change (2. order) : 0.3936684E-04  (-0.2501172E-05)
 number of electron       4.0000000 magnetization 
 augmentation part       -0.2455433 magnetization 

 Broyden mixing:
  rms(total) = 0.13862E-02    rms(broyden)= 0.13861E-02
  rms(prec ) = 0.21684E-02
  weight for this iteration     100.00

 eigenvalues of (default mixing * dielectric matrix)
  average eigenvalue GAMMA=   2.0136
  1.0101  2.4080  2.6228

 Free energy of the ion-electron system (eV)
  ---------------------------------------------------
  alpha Z        PSCENC =         2.39057823
  Ewald energy   TEWEN  =      -137.78496289
  -Hartree energ DENC   =        -0.40746040
  -exchange      EXHF   =         0.00000000
  -V(xc)+E(xc)   XCENC  =        -8.67157531
  PAW double counting   =       318.65973623     -301.07775212
  entropy T*S    EENTRO =        -0.00078947
  eigenvalues    EBANDS =        18.94707444
  atomic energy  EATOM  =       103.06562707
  Solvation  Ediel_sol  =         0.00000000
  ---------------------------------------------------
  free energy    TOTEN  =        -4.87952422 eV

  energy without entropy =       -4.87873475  energy(sigma->0) =       -4.87912949


--------------------------------------------------------------------------------------------------------




--------------------------------------- Iteration      1(   9)  ---------------------------------------


    POTLOK:  cpu time    0.0240: real time    0.0383
    SETDIJ:  cpu time    0.1720: real time    0.1717
     EDDAV:  cpu time    0.6699: real time    0.6710
       DOS:  cpu time    0.0010: real time    0.0019
    --------------------------------------------
      LOOP:  cpu time    0.8679: real time    0.8829

 eigenvalue-minimisations  :  2344
 total energy-change (2. order) :-0.3275608E-06  (-0.3079461E-07)
 number of electron       4.0000000 magnetization 
 augmentation part       -0.2455433 magnetization 

 Free energy of the ion-electron system (eV)
  ---------------------------------------------------
  alpha Z        PSCENC =         2.39057823
  Ewald energy   TEWEN  =      -137.78496289
  -Hartree energ DENC   =        -0.40765925
  -exchange      EXHF   =         0.00000000
  -V(xc)+E(xc)   XCENC  =        -8.67102901
  PAW double counting   =       316.97382998     -299.39249704
  entropy T*S    EENTRO =        -0.00078953
  eigenvalues    EBANDS =        18.94737789
  atomic energy  EATOM  =       103.06562707
  Solvation  Ediel_sol  =         0.00000000
  ---------------------------------------------------
  free energy    TOTEN  =        -4.87952455 eV

  energy without entropy =       -4.87873502  energy(sigma->0) =       -4.87912978


--------------------------------------------------------------------------------------------------------




 average (electrostatic) potential at core
  the test charge radii are     0.9892
  (the norm of the test charge is              1.0000)
       1 -79.5482
 
 
 
 E-fermi :  10.4964     XC(G=0): -11.3059     alpha+bet :-17.0325

 Fermi energy:        10.4964318732

 k-point     1 :       0.0000    0.0000    0.0000
  band No.  band energies     occupation 
      1      -4.1750      2.00000
      2      22.0071      0.00000
      3      22.0071      0.00000
      4      22.0071      0.00000
      5      22.5975      0.00000
      6      22.5975      0.00000
      7      22.5975      0.00000
      8      27.9733      0.00000

 k-point     2 :       0.0667   -0.0000    0.0000
  band No.  band energies     occupation 
      1      -4.0431      2.00000
      2      19.7153      0.00000
      3      21.2541      0.00000
      4      21.2541      0.00000
      5      23.5109      0.00000
      6      23.5109      0.00000
      7      23.7550      0.00000
      8      28.9519      0.00000

 k-point     3 :       0.1333    0.0000    0.0000
  band No.  band energies     occupation 
      1      -3.6480      2.00000
      2      16.8210      0.00000
      3      20.4684      0.00000
      4      20.4684      0.00000
      5      24.0475      0.00000
      6      24.6416      0.00000
      7      24.6416      0.00000
      8      27.8873      0.00000

 k-point     4 :       0.2000    0.0000    0.0000
  band No.  band energies     occupation 
      1      -2.9912      2.00000
      2      13.9392      0.00000
      3      19.8804      0.00000
      4      19.8804      0.00000
      5      23.9782      0.00000
      6      24.8484      0.00000
      7      24.8484      0.00000
      8      27.8703      0.00000

 k-point     5 :       0.2667    0.0000    0.0000
  band No.  band energies     occupation 
      1      -2.0755      2.00000
      2      11.1900      0.00000
      3      19.5004      0.00000
      4      19.5004      0.00000
      5      23.8862      0.00000
      6      23.9126      0.00000
      7      23.9126      0.00000
      8      29.2714      0.00000

 k-point     6 :       0.3333    0.0000    0.0000
  band No.  band energies     occupation 
      1      -0.9049      2.00000
      2       8.6229      2.00000
      3      19.3147      0.00000
      4      19.3148      0.00000
      5      22.8716      0.00000
      6      22.8716      0.00000
      7      23.8842      0.00000
      8      28.0792      0.00000

 k-point     7 :       0.4000   -0.0000    0.0000
  band No.  band energies     occupation 
      1       0.5141      2.00000
      2       6.2650      2.00000
      3      19.2877      0.00000
      4      19.2877      0.00000
      5      22.0332      0.00000
      6      22.0332      0.00000
      7      23.9899      0.00000
      8      27.1283      0.00000

 k-point     8 :       0.4667    0.0000    0.0000
  band No.  band energies     occupation 
      1       2.1582      2.00000
      2       4.1490      2.00000
      3      19.3350      0.00000
      4      19.3350      0.00000
      5      21.5460      0.00000
      6      21.5461      0.00000
      7      24.1200      0.00000
      8      26.5594      0.00000

 k-point     9 :       0.0667    0.0667    0.0000
  band No.  band energies     occupation 
      1      -3.9991      2.00000
      2      20.2139      0.00000
      3      20.2139      0.00000
      4      21.6038      0.00000
      5      21.6547      0.00000
      6      24.6089      0.00000
      7      24.6089      0.00000
      8      27.8033      0.00000

 k-point    10 :       0.1333    0.0667    0.0000
  band No.  band energies     occupation 
      1      -3.6918      2.00000
      2      17.8481      0.00000
      3      19.3523      0.00000
      4      20.9519      0.00000
      5      22.3112      0.00000
      6      25.3349      0.00000
      7      25.7845      0.00000
      8      26.2913      0.00000

 k-point    11 :       0.2000    0.0667    0.0000
  band No.  band energies     occupation 
      1      -3.1223      2.00000
      2      14.9794      0.00000
      3      18.7053      0.00000
      4      20.3159      0.00000
      5      23.0001      0.00000
      6      25.1041      0.00000
      7      25.8400      0.00000
      8      26.4070      0.00000

 k-point    12 :       0.2667    0.0667    0.0000
  band No.  band energies     occupation 
      1      -2.2930      2.00000
      2      12.1895      0.00000
      3      18.2785      0.00000
      4      19.8103      0.00000
      5      22.3662      0.00000
      6      24.9814      0.00000
      7      25.7124      0.00000
      8      26.8963      0.00000

 k-point    13 :       0.3333    0.0667    0.0000
  band No.  band energies     occupation 
      1      -1.2074      2.00000
      2       9.5630      2.00000
      3      18.0718      0.00000
      4      19.3849      0.00000
      5      21.4481      0.00000
      6      24.6429      0.00000
      7      24.9710      0.00000
      8      28.5120      0.00000

 k-point    14 :       0.4000    0.0667    0.0000
  band No.  band energies     occupation 
      1       0.1291      2.00000
      2       7.1358      2.00000
      3      18.0832      0.00000
      4      18.9065      0.00000
      5      20.9122      0.00000
      6      23.6601      0.00000
      7      25.0054      0.00000
      8      28.3694      0.00000

 k-point    15 :       0.4667    0.0667    0.0000
  band No.  band energies     occupation 
      1       1.7044      2.00000
      2       4.9332      2.00000
      3      18.3026      0.00000
      4      18.3406      0.00000
      5      20.8886      0.00000
      6      22.8692      0.00000
      7      25.0402      0.00000
      8      27.8070      0.00000

 k-point    16 :      -0.4667    0.0667    0.0000
  band No.  band energies     occupation 
      1       2.8181      2.00000
      2       3.6622      2.00000
      3      17.8263      0.00000
      4      18.7104      0.00000
      5      21.2609      0.00000
      6      22.3250      0.00000
      7      24.9776      0.00000
      8      27.7171      0.00000

 k-point    17 :      -0.4000    0.0667    0.0000
  band No.  band energies     occupation 
      1       1.1545      2.00000
      2       5.6399      2.00000
      3      17.4676      0.00000
      4      19.2623      0.00000
      5      21.9301      0.00000
      6      22.0784      0.00000
      7      24.8117      0.00000
      8      28.1338      0.00000

 k-point    18 :      -0.3333    0.0667    0.0000
  band No.  band energies     occupation 
      1      -0.3439      2.00000
      2       7.9208      2.00000
      3      17.3077      0.00000
      4      19.8703      0.00000
      5      22.2131      0.00000
      6      22.8421      0.00000
      7      24.6630      0.00000
      8      28.8933      0.00000

 k-point    19 :      -0.2667    0.0667    0.0000
  band No.  band energies     occupation 
      1      -1.5975      2.00000
      2      10.4166      1.97601
      3      17.3636      0.00000
      4      20.4360      0.00000
      5      22.7897      0.00000
      6      23.9469      0.00000
      7      24.6006      0.00000
      8      28.5851      0.00000

 k-point    20 :      -0.2000    0.0667    0.0000
  band No.  band energies     occupation 
      1      -2.5981      2.00000
      2      13.1012      0.00000
      3      17.6421      0.00000
      4      20.9779      0.00000
      5      23.6324      0.00000
      6      24.6084      0.00000
      7      25.1297      0.00000
      8      26.8658      0.00000

 k-point    21 :      -0.1333    0.0667    0.0000
  band No.  band energies     occupation 
      1      -3.3412      2.00000
      2      15.9274      0.00000
      3      18.1463      0.00000
      4      21.5851      0.00000
      5      23.7703      0.00000
      6      24.5623      0.00000
      7      25.7909      0.00000
      8      26.3972      0.00000

 k-point    22 :      -0.0667    0.0667    0.0000
  band No.  band energies     occupation 
      1      -3.8235      2.00000
      2      18.6685      0.00000
      3      18.9839      0.00000
      4      22.0957      0.00000
      5      22.9332      0.00000
      6      24.1964      0.00000
      7      25.0770      0.00000
      8      27.5485      0.00000

 k-point    23 :       0.1333    0.1333    0.0000
  band No.  band energies     occupation 
      1      -3.4725      2.00000
      2      18.4177      0.00000
      3      18.4177      0.00000
      4      19.9648      0.00000
      5      20.5312      0.00000
      6      24.4480      0.00000
      7      27.0333      0.00000
      8      27.0333      0.00000

 k-point    24 :       0.2000    0.1333    0.0000
  band No.  band energies     occupation 
      1      -2.9909      2.00000
      2      16.1659      0.00000
      3      17.6978      0.00000
      4      19.5578      0.00000
      5      20.6653      0.00000
      6      23.1179      0.00000
      7      27.7607      0.00000
      8      28.0098      0.00000

 k-point    25 :       0.2667    0.1333    0.0000
  band No.  band energies     occupation 
      1      -2.2491      2.00000
      2      13.3973      0.00000
      3      17.2008      0.00000
      4      18.8732      0.00000
      5      20.4582      0.00000
      6      23.5416      0.00000
      7      27.7155      0.00000
      8      27.9369      0.00000

 k-point    26 :       0.3333    0.1333    0.0000
  band No.  band energies     occupation 
      1      -1.2501      2.00000
      2      10.7324      0.00000
      3      16.9288      0.00000
      4      18.0374      0.00000
      5      19.8294      0.00000
      6      25.0755      0.00000
      7      26.7220      0.00000
      8      28.0942      0.00000

 k-point    27 :       0.4000    0.1333    0.0000
  band No.  band energies     occupation 
      1       0.0014      2.00000
      2       8.2466      2.00000
      3      16.8826      0.00000
      4      17.0911      0.00000
      5      19.5991      0.00000
      6      25.7147      0.00000
      7      26.3943      0.00000
      8      28.7785      0.00000

 k-point    28 :       0.4667    0.1333    0.0000
  band No.  band energies     occupation 
      1       1.4975      2.00000
      2       5.9718      2.00000
      3      16.2175      0.00000
      4      17.0585      0.00000
      5      19.7209      0.00000
      6      24.8504      0.00000
      7      26.7980      0.00000
      8      30.2542      0.00000

 k-point    29 :      -0.4667    0.1333    0.0000
  band No.  band energies     occupation 
      1       3.1618      2.00000
      2       3.9942      2.00000
      3      15.5168      0.00000
      4      17.4531      0.00000
      5      20.1312      0.00000
      6      24.1888      0.00000
      7      26.6995      0.00000
      8      30.3533      0.00000

 k-point    30 :      -0.4000    0.1333    0.0000
  band No.  band energies     occupation 
      1       2.0467      2.00000
      2       5.2649      2.00000
      3      15.0261      0.00000
      4      18.0571      0.00000
      5      20.7964      0.00000
      6      23.7538      0.00000
      7      26.4520      0.00000
      8      30.6753      0.00000

 k-point    31 :      -0.3333    0.1333    0.0000
  band No.  band energies     occupation 
      1       0.4736      2.00000
      2       7.4601      2.00000
      3      14.7632      0.00000
      4      18.8526      0.00000
      5      21.6975      0.00000
      6      23.5674      0.00000
      7      26.2071      0.00000
      8      30.2480      0.00000

 k-point    32 :      -0.2667    0.1333    0.0000
  band No.  band energies     occupation 
      1      -0.8609      2.00000
      2       9.8728      2.00000
      3      14.7362      0.00000
      4      19.8040      0.00000
      5      22.8099      0.00000
      6      23.6487      0.00000
      7      26.0073      0.00000
      8      28.0541      0.00000

 k-point    33 :      -0.2000    0.1333    0.0000
  band No.  band energies     occupation 
      1      -1.9447      2.00000
      2      12.4618      0.00000
      3      14.9602      0.00000
      4      20.8317      0.00000
      5      23.9870      0.00000
      6      24.0792      0.00000
      7      25.7887      0.00000
      8      26.1430      0.00000

 k-point    34 :      -0.1333    0.1333    0.0000
  band No.  band energies     occupation 
      1      -2.7726      2.00000
      2      14.9414      0.00000
      3      15.6751      0.00000
      4      21.7188      0.00000
      5      23.9483      0.00000
      6      25.3299      0.00000
      7      25.3419      0.00000
      8      25.3799      0.00000

 k-point    35 :       0.2000    0.2000    0.0000
  band No.  band energies     occupation 
      1      -2.5977      2.00000
      2      16.9031      0.00000
      3      16.9031      0.00000
      4      18.3558      0.00000
      5      18.7477      0.00000
      6      21.4016      0.00000
      7      29.4994      0.00000
      8      29.4994      0.00000

 k-point    36 :       0.2667    0.2000    0.0000
  band No.  band energies     occupation 
      1      -1.9441      2.00000
      2      14.7523      0.00000
      3      16.3309      0.00000
      4      17.5208      0.00000
      5      18.6430      0.00000
      6      21.0150      0.00000
      7      29.8042      0.00000
      8      30.2497      0.00000

 k-point    37 :       0.3333    0.2000    0.0000
  band No.  band energies     occupation 
      1      -1.0330      2.00000
      2      12.1100      0.00000
      3      15.9850      0.00000
      4      16.2467      0.00000
      5      18.5485      0.00000
      6      22.3279      0.00000
      7      28.9734      0.00000
      8      30.4158      0.00000

 k-point    38 :       0.4000    0.2000    0.0000
  band No.  band energies     occupation 
      1       0.1317      2.00000
      2       9.5864      2.00000
      3      15.0392      0.00000
      4      15.8669      0.00000
      5      18.4484      0.00000
      6      24.2623      0.00000
      7      27.9846      0.00000
      8      30.3398      0.00000

 k-point    39 :       0.4667    0.2000    0.0000
  band No.  band energies     occupation 
      1       1.5436      2.00000
      2       7.2522      2.00000
      3      14.0054      0.00000
      4      15.9757      0.00000
      5      18.5740      0.00000
      6      26.3156      0.00000
      7      27.0902      0.00000
      8      30.2085      0.00000

 k-point    40 :      -0.4667    0.2000    0.0000
  band No.  band energies     occupation 
      1       3.1813      2.00000
      2       5.1483      2.00000
      3      13.1843      0.00000
      4      16.3092      0.00000
      5      18.9453      0.00000
      6      26.3654      0.00000
      7      27.8886      0.00000
      8      30.4904      0.00000

 k-point    41 :      -0.4000    0.2000    0.0000
  band No.  band energies     occupation 
      1       3.1828      2.00000
      2       5.1438      2.00000
      3      12.5950      0.00000
      4      16.8647      0.00000
      5      19.5631      0.00000
      6      25.8505      0.00000
      7      28.2096      0.00000
      8      31.6953      0.00000

[...]
      1       3.9264      2.00000
      2       4.7743      2.00000
      3      11.4262      0.00000
      4      14.3144      0.00000
      5      19.6720      0.00000
      6      25.5123      0.00000
      7      28.0673      0.00000
      8      30.2437      0.00000

 k-point    86 :      -0.3333    0.2667    0.0667
  band No.  band energies     occupation 
      1       2.8490      2.00000
      2       5.9962      2.00000
      3      10.9291      0.00000
      4      14.9557      0.00000
      5      20.3241      0.00000
      6      25.1159      0.00000
      7      28.8130      0.00000
      8      29.6958      0.00000

 k-point    87 :      -0.2667    0.2667    0.0667
  band No.  band energies     occupation 
      1       1.3116      2.00000
      2       8.1072      2.00000
      3      10.6918      0.00000
      4      15.8226      0.00000
      5      21.1804      0.00000
      6      24.8703      0.00000
      7      26.9414      0.00000
      8      29.6515      0.00000

 k-point    88 :      -0.2000    0.2667    0.0667
  band No.  band energies     occupation 
      1       0.0059      2.00000
      2      10.1085      1.96930
      3      11.0143      0.00000
      4      16.8958      0.00000
      5      22.1853      0.00000
      6      24.5029      0.00000
      7      25.2430      0.00000
      8      28.9006      0.00000

 k-point    89 :       0.4000    0.3333    0.0667
  band No.  band energies     occupation 
      1       0.1772      2.00000
      2      12.3763      0.00000
      3      12.6583      0.00000
      4      13.4628      0.00000
      5      17.6844      0.00000
      6      19.2976      0.00000
      7      30.4592      0.00000
      8      33.1255      0.00000

 k-point    90 :       0.4667    0.3333    0.0667
  band No.  band energies     occupation 
      1       1.3144      2.00000
      2      10.4391      0.00000
      3      11.2640      0.00000
      4      13.0119      0.00000
      5      18.1630      0.00000
      6      20.7200      0.00000
      7      29.6408      0.00000
      8      33.3607      0.00000

 k-point    91 :      -0.4667    0.3333    0.0667
  band No.  band energies     occupation 
      1       2.6911      2.00000
      2       8.2360      2.00000
      3      10.1814      1.07864
      4      13.0836      0.00000
      5      18.3926      0.00000
      6      22.9003      0.00000
      7      28.8260      0.00000
      8      32.7740      0.00000

 k-point    92 :      -0.4000    0.3333    0.0667
  band No.  band energies     occupation 
      1       4.2815      2.00000
      2       6.2041      2.00000
      3       9.3469      2.00000
      4      13.4191      0.00000
      5      18.7792      0.00000
      6      25.2704      0.00000
      7      28.1765      0.00000
      8      31.4693      0.00000

 k-point    93 :      -0.3333    0.3333    0.0667
  band No.  band energies     occupation 
      1       4.2867      2.00000
      2       6.1691      2.00000
      3       8.7808      2.00000
      4      13.9946      0.00000
      5      19.3790      0.00000
      6      27.1141      0.00000
      7      28.1910      0.00000
      8      29.5190      0.00000

 k-point    94 :      -0.2667    0.3333    0.0667
  band No.  band energies     occupation 
      1       2.6901      2.00000
      2       7.8433      2.00000
      3       8.7979      2.00000
      4      14.7997      0.00000
      5      20.1912      0.00000
      6      26.9867      0.00000
      7      27.1749      0.00000
      8      30.2300      0.00000

 k-point    95 :       0.4667    0.4000    0.0667
  band No.  band energies     occupation 
      1       2.0264      2.00000
      2       9.4784      2.00000
      3      12.0218      0.00000
      4      12.7382      0.00000
      5      17.0404      0.00000
      6      18.6782      0.00000
      7      32.0189      0.00000
      8      35.0509      0.00000

 k-point    96 :      -0.4667    0.4000    0.0667
  band No.  band energies     occupation 
      1       3.3111      2.00000
      2       8.3038      2.00000
      3      10.0750      1.99813
      4      12.5109      0.00000
      5      17.6832      0.00000
      6      20.2797      0.00000
      7      31.3130      0.00000
      8      34.2480      0.00000

 k-point    97 :      -0.4000    0.4000    0.0667
  band No.  band energies     occupation 
      1       4.8054      2.00000
      2       7.3047      2.00000
      3       8.0986      2.00000
      4      12.7595      0.00000
      5      18.0775      0.00000
      6      22.6309      0.00000
      7      30.6086      0.00000
      8      32.3524      0.00000

 k-point    98 :      -0.3333    0.4000    0.0667
  band No.  band energies     occupation 
      1       5.9025      2.00000
      2       6.2196      2.00000
      3       7.2586      2.00000
      4      13.2592      0.00000
      5      18.6267      0.00000
      6      25.1809      0.00000
      7      29.9730      0.00000
      8      30.0468      0.00000

 k-point    99 :      -0.4667    0.4667    0.0667
  band No.  band energies     occupation 
      1       4.1543      2.00000
      2       6.7743      2.00000
      3      11.7027      0.00000
      4      12.4141      0.00000
      5      16.7170      0.00000
      6      18.3688      0.00000
      7      33.5407      0.00000
      8      35.0585      0.00000

 k-point   100 :      -0.4000    0.4667    0.0667
  band No.  band energies     occupation 
      1       5.2444      2.00000
      2       6.0935      2.00000
      3       9.8994      2.00000
      4      12.3495      0.00000
      5      17.5216      0.00000
      6      20.1317      0.00000
      7      32.8225      0.00000
      8      33.2520      0.00000

 k-point   101 :       0.4000    0.2667    0.1333
  band No.  band energies     occupation 
      1      -0.8416      2.00000
      2      11.7159      0.00000
      3      12.5143      0.00000
      4      16.2667      0.00000
      5      21.4381      0.00000
      6      22.3726      0.00000
      7      26.0022      0.00000
      8      29.9559      0.00000

 k-point   102 :       0.4667    0.2667    0.1333
  band No.  band energies     occupation 
      1       0.3022      2.00000
      2       9.5565      2.00000
      3      12.0707      0.00000
      4      15.0407      0.00000
      5      21.7100      0.00000
      6      23.6710      0.00000
      7      25.2699      0.00000
      8      30.5126      0.00000

 k-point   103 :      -0.4667    0.2667    0.1333
  band No.  band energies     occupation 
      1       1.6881      2.00000
      2       7.2937      2.00000
      3      12.1362      0.00000
      4      14.0253      0.00000
      5      21.7959      0.00000
      6      23.7237      0.00000
      7      26.4707      0.00000
      8      30.5912      0.00000

 k-point   104 :      -0.4000    0.2667    0.1333
  band No.  band energies     occupation 
      1       3.2903      2.00000
      2       5.2418      2.00000
      3      12.3892      0.00000
      4      13.3003      0.00000
      5      21.9557      0.00000
      6      23.2321      0.00000
      7      28.4959      0.00000
      8      30.0760      0.00000

 k-point   105 :       0.4667    0.3333    0.1333
  band No.  band energies     occupation 
      1       0.6829      2.00000
      2      10.7523      0.00000
      3      11.5102      0.00000
      4      13.1565      0.00000
      5      20.5145      0.00000
      6      21.6028      0.00000
      7      27.2739      0.00000
      8      32.6518      0.00000

 k-point   106 :      -0.4667    0.3333    0.1333
  band No.  band energies     occupation 
      1       1.9834      2.00000
      2       8.7420      2.00000
      3      11.1540      0.00000
      4      12.0908      0.00000
      5      21.0004      0.00000
      6      23.2887      0.00000
      7      26.4344      0.00000
      8      32.6809      0.00000

 k-point   107 :      -0.4000    0.3333    0.1333
  band No.  band energies     occupation 
      1       3.5138      2.00000
      2       6.6411      2.00000
      3      10.8327      0.00000
      4      11.7450      0.00000
      5      21.3056      0.00000
      6      24.8777      0.00000
      7      26.3758      0.00000
      8      31.1722      0.00000

 k-point   108 :      -0.3333    0.3333    0.1333
  band No.  band energies     occupation 
      1       4.5955      2.00000
      2       5.4088      2.00000
      3      10.2599      0.03399
      4      12.1533      0.00000
      5      21.7735      0.00000
      6      24.7013      0.00000
      7      28.0628      0.00000
      8      29.3078      0.00000

 k-point   109 :      -0.2667    0.3333    0.1333
  band No.  band energies     occupation 
      1       2.9801      2.00000
      2       7.2942      2.00000
      3       9.8785      2.00000
      4      12.8769      0.00000
      5      22.3947      0.00000
      6      24.3434      0.00000
      7      26.5403      0.00000
      8      30.7518      0.00000

 k-point   110 :      -0.2000    0.3333    0.1333
  band No.  band energies     occupation 
      1       1.5225      2.00000
      2       9.1395      2.00000
      3      10.0503      1.99986
      4      13.8479      0.00000
      5      23.0278      0.00000
      6      23.6419      0.00000
      7      25.0525      0.00000
      8      31.9472      0.00000

 k-point   111 :      -0.4667    0.4000    0.1333
  band No.  band energies     occupation 
      1       2.5262      2.00000
      2       9.8536      2.00000
      3      10.1082      1.96992
      4      11.1806      0.00000
      5      19.8892      0.00000
      6      21.0645      0.00000
      7      28.8538      0.00000
      8      33.8586      0.00000

 k-point   112 :      -0.4000    0.4000    0.1333
  band No.  band energies     occupation 
      1       3.9695      2.00000
      2       8.1943      2.00000
      3       9.0338      2.00000
      4      10.9363      0.00000
      5      20.5560      0.00000
      6      22.9470      0.00000
      7      28.0808      0.00000
      8      31.8786      0.00000

 k-point   113 :      -0.3333    0.4000    0.1333
  band No.  band energies     occupation 
      1       5.5704      2.00000
      2       6.3306      2.00000
      3       8.2959      2.00000
      4      11.3108      0.00000
      5      21.0310      0.00000
      6      25.2706      0.00000
      7      27.4759      0.00000
      8      29.5651      0.00000

 k-point   114 :      -0.2667    0.4000    0.1333
  band No.  band energies     occupation 
      1       4.5012      2.00000
      2       7.1944      2.00000
      3       8.1433      2.00000
      4      11.9692      0.00000
      5      21.6627      0.00000
      6      26.4362      0.00000
      7      26.6295      0.00000
      8      28.8800      0.00000

 k-point   115 :      -0.4000    0.4667    0.1333
  band No.  band energies     occupation 
      1       4.6456      2.00000
      2       7.2443      2.00000
      3       9.7859      2.00000
      4      10.7629      0.00000
      5      19.5742      0.00000
      6      20.7882      0.00000
      7      30.6402      0.00000
      8      32.4691      0.00000

 k-point   116 :      -0.3333    0.4667    0.1333
  band No.  band energies     occupation 
      1       5.8948      2.00000
      2       6.6910      2.00000
      3       8.1832      2.00000
      4      10.7484      0.00000
      5      20.4061      0.00000
      6      22.8242      0.00000
      7      29.7255      0.00000
      8      30.2586      0.00000

 k-point   117 :      -0.4000    0.4000    0.2000
  band No.  band energies     occupation 
      1       3.3547      2.00000
      2       8.4922      2.00000
      3       9.3331      2.00000
      4      10.9586      0.00000
      5      23.0411      0.00000
      6      23.4346      0.00000
      7      25.7556      0.00000
      8      31.3801      0.00000

 k-point   118 :      -0.3333    0.4000    0.2000
  band No.  band energies     occupation 
      1       4.9409      2.00000
      2       6.8081      2.00000
      3       9.2566      2.00000
      4      10.2061      0.55000
      5      23.3928      0.00000
      6      24.4917      0.00000
      7      26.2240      0.00000
      8      29.1301      0.00000

 k-point   119 :      -0.3333    0.4667    0.2000
  band No.  band energies     occupation 
      1       5.4570      2.00000
      2       7.9358      2.00000
      3       8.1683      2.00000
      4       9.3486      2.00000
      5      22.7368      0.00000
      6      23.3966      0.00000
      7      27.3135      0.00000
      8      29.5347      0.00000

 k-point   120 :      -0.2667    0.4667    0.2000
  band No.  band energies     occupation 
      1       6.5413      2.00000
      2       6.8699      2.00000
      3       7.7646      2.00000
      4       9.4226      2.00000
      5      23.4569      0.00000
      6      25.3036      0.00000
      7      26.1492      0.00000
      8      27.9521      0.00000


--------------------------------------------------------------------------------------------------------


 soft charge-density along one line, spin component           1
         0         1         2         3         4         5         6         7         8         9
 total charge-density along one line
 
 pseudopotential strength for first ion, spin component:           1
 17.963  25.060   0.000  -0.000   0.000   0.000  -0.000   0.000
 25.060  34.965   0.000  -0.000   0.000   0.000  -0.000   0.000
  0.000   0.000   4.095  -0.000  -0.000   7.629  -0.000  -0.000
 -0.000  -0.000  -0.000   4.095  -0.000  -0.000   7.629  -0.000
  0.000   0.000  -0.000  -0.000   4.095  -0.000  -0.000   7.629
  0.000   0.000   7.629  -0.000  -0.000  14.222  -0.000  -0.000
 -0.000  -0.000  -0.000   7.629  -0.000  -0.000  14.222  -0.000
  0.000   0.000  -0.000  -0.000   7.629  -0.000  -0.000  14.222
 total augmentation occupancy for first ion, spin component:           1
  4.857  -2.037   0.000   0.000   0.000   0.000   0.000   0.000
 -2.037   1.322   0.000   0.000   0.000   0.000   0.000   0.000
  0.000   0.000   2.321  -0.000   0.000  -0.552   0.000  -0.000
  0.000   0.000  -0.000   2.321  -0.000   0.000  -0.552   0.000
  0.000   0.000   0.000  -0.000   2.321  -0.000   0.000  -0.552
  0.000   0.000  -0.552   0.000  -0.000   0.145  -0.000   0.000
  0.000   0.000   0.000  -0.552   0.000  -0.000   0.145  -0.000
  0.000   0.000  -0.000   0.000  -0.552   0.000  -0.000   0.145


------------------------ aborting loop because EDIFF is reached ----------------------------------------


    CHARGE:  cpu time    0.0370: real time    0.0373
    FORLOC:  cpu time    0.0000: real time    0.0006
    FORNL :  cpu time    0.0570: real time    0.0568
    STRESS:  cpu time    0.3769: real time    0.3769
    FORCOR:  cpu time    0.0140: real time    0.0138
    FORHAR:  cpu time    0.0020: real time    0.0027
    MIXING:  cpu time    0.0000: real time    0.0007
    OFIELD:  cpu time    0.0010: real time    0.0002

  FORCE on cell =-STRESS in cart. coord.  units (eV):
  Direction    XX          YY          ZZ          XY          YZ          ZX
  --------------------------------------------------------------------------------------
  Alpha Z     2.33310     2.33310     2.33310
  Ewald     -45.55726   -45.55726   -45.55726     0.00000     0.00001     0.00001
  Hartree     0.14773     0.14773     0.14773     0.00000     0.00000     0.00000
  E(xc)     -12.70390   -12.70390   -12.70390    -0.00000    -0.00000    -0.00000
  Local      -4.94894    -4.94895    -4.94894     0.00000     0.00000     0.00001
  n-local    36.29636    38.56370    40.26521    -0.20026     0.11064    -0.12881
  augment    -6.28446    -6.28446    -6.28446    -0.00000    -0.00000    -0.00000
  Kinetic    52.39140    27.13252     6.39253    -4.30812     2.13825    -0.23183
  Fock        0.00000     0.00000     0.00000     0.00000     0.00000     0.00000
  -------------------------------------------------------------------------------------
  Total       0.00018     0.00018     0.00018    -0.00000    -0.00000    -0.00000
  in kB       0.01977     0.01977     0.01977    -0.00000    -0.00000    -0.00000
  external pressure =        0.02 kB  Pullay stress =        0.00 kB


 VOLUME and BASIS-vectors are now :
 -----------------------------------------------------------------------------
  energy-cutoff  :      350.00
  volume of cell :       14.43
      direct lattice vectors                 reciprocal lattice vectors
     2.366514367 -0.000000003  1.366306555     0.422562403 -0.149398386  0.000000001
     0.788838119  2.231170907  1.366306555     0.000000000  0.448195159  0.000000001
    -0.000000009 -0.000000007  2.732615142    -0.211281044 -0.149398275  0.365949812

  length of vectors
     2.732614837  2.732614645  2.732615142     0.448195116  0.448195159  0.448195035


 FORCES acting on ions
    electron-ion (+dipol)            ewald-force                    non-local-force                 convergence-correction
 -----------------------------------------------------------------------------------------------
   -.983E-15 0.775E-15 0.553E-15   0.642E-15 -.648E-16 -.117E-16   0.223E-25 -.428E-25 0.258E-25   0.207E-15 -.105E-15 0.825E-18
 -----------------------------------------------------------------------------------------------
   -.983E-15 0.775E-15 0.553E-15   0.642E-15 -.648E-16 -.117E-16   0.223E-25 -.428E-25 0.258E-25   0.207E-15 -.105E-15 0.825E-18
 
 
 POSITION                                       TOTAL-FORCE (eV/Angst)
 -----------------------------------------------------------------------------------
     -0.00000      0.00000     -0.00000         0.000000     -0.000000      0.000000
 -----------------------------------------------------------------------------------
    total drift:                               -0.000000      0.000000      0.000000


--------------------------------------------------------------------------------------------------------



  FREE ENERGIE OF THE ION-ELECTRON SYSTEM (eV)
  ---------------------------------------------------
  free  energy   TOTEN  =        -4.88175789 eV

  energy  without entropy=       -4.88092935  energy(sigma->0) =       -4.88134362
 
 d Force = 0.0000000E+00[ 0.000E+00, 0.000E+00]  d Energy = 0.2053768E-04-0.205E-04
 d Force = 0.0000000E+00[ 0.000E+00, 0.000E+00]  d Ewald  = 0.1071572E+00-0.107E+00


--------------------------------------------------------------------------------------------------------


    POTLOK:  cpu time    0.1800: real time    0.1872


--------------------------------------------------------------------------------------------------------




--------------------------------------------------------------------------------------------------------


  
 reached required accuracy - stopping structural energy minimisation
     LOOP+:  cpu time    5.1002: real time    5.2948
    4ORBIT:  cpu time    0.0000: real time    0.0000

 total amount of memory used by VASP MPI-rank0    35165. kBytes
=======================================================================

   base      :      30000. kBytes
   nonl-proj :       1693. kBytes
   fftplans  :       1775. kBytes
   grid      :        819. kBytes
   one-center:          3. kBytes
   wavefun   :        875. kBytes
 
  
  
 General timing and accounting informations for this job:
 ========================================================
  
                  Total CPU time used (sec):       19.804
                            User time (sec):       19.355
                          System time (sec):        0.449
                         Elapsed time (sec):       21.051
  
                   Maximum memory used (kb):       58140.
                   Average memory used (kb):          N/A
  
                          Minor page faults:        10180
                          Major page faults:            1
                 Voluntary context switches:        22127
