unknown system                          
           1
     2.347395    0.000000    1.355268
     0.782465    2.213145    1.355268
     0.000000    0.000000    2.710538
   Si
     1
Direct configuration=     1
   0.00000000  0.00000000  0.00000000
unknown system                          
           1
     2.368371   -0.000000    1.367379
     0.789457    2.232922    1.367379
    -0.000000   -0.000000    2.734759
   Si
     1
Direct configuration=     2
  -0.00000000  0.00000000 -0.00000000
unknown system                          
           1
     2.366514   -0.000000    1.366307
     0.788838    2.231171    1.366307
    -0.000000   -0.000000    2.732615
   Si
     1
Direct configuration=     3
  -0.00000000  0.00000000 -0.00000000
