   2   2   0   0
  0.2016476E+02  0.3849278E-09  0.3849279E-09  0.3849278E-09  0.5000000E-15
  1.000000000000000E-004
  CAR 
 unknown system                          
     16.08759652     -7.25707963  301      5.89436254      1.00000000
     -7.257  0.0000E+00  0.0000E+00
     -7.179  0.0000E+00  0.0000E+00
     -7.101  0.0000E+00  0.0000E+00
     -7.024  0.0000E+00  0.0000E+00
     -6.946  0.0000E+00  0.0000E+00
     -6.868  0.0000E+00  0.0000E+00
     -6.790  0.0000E+00  0.0000E+00
     -6.712  0.0000E+00  0.0000E+00
     -6.635  0.0000E+00  0.0000E+00
     -6.557  0.0000E+00  0.0000E+00
     -6.479  0.2153E-18  0.1675E-19
     -6.401  0.1152E-11  0.8961E-13
     -6.323  0.5576E-07  0.4339E-08
     -6.245  0.2838E-04  0.2213E-05
     -6.168  0.2498E-03  0.2165E-04
     -6.090  0.2699E-03  0.4265E-04
     -6.012  0.2405E-02  0.2298E-03
     -5.934  0.2161E-02  0.3980E-03
     -5.856  0.2197E-03  0.4151E-03
     -5.779  0.1911E-02  0.5638E-03
     -5.701  0.2283E-02  0.7414E-03
     -5.623  0.3977E-02  0.1051E-02
     -5.545  0.6482E-02  0.1555E-02
     -5.467  0.8102E-03  0.1618E-02
     -5.390  0.3328E-03  0.1644E-02
     -5.312  0.1567E-02  0.1766E-02
     -5.234  0.2936E-02  0.1995E-02
     -5.156  0.9675E-02  0.2748E-02
     -5.078  0.4429E-02  0.3092E-02
     -5.000  0.1734E-02  0.3227E-02
     -4.923  0.6099E-02  0.3702E-02
     -4.845  0.2802E-02  0.3920E-02
     -4.767  0.7328E-02  0.4490E-02
     -4.689  0.1875E-02  0.4636E-02
     -4.611  0.8163E-03  0.4699E-02
     -4.534  0.3099E-02  0.4941E-02
     -4.456  0.7387E-02  0.5515E-02
     -4.378  0.1711E-01  0.6846E-02
     -4.300  0.2820E-02  0.7066E-02
     -4.222  0.1106E-02  0.7152E-02
     -4.144  0.1046E-01  0.7966E-02
     -4.067  0.7898E-02  0.8580E-02
     -3.989  0.7010E-02  0.9126E-02
     -3.911  0.2227E-02  0.9299E-02
     -3.833  0.1560E-02  0.9421E-02
     -3.755  0.1192E-01  0.1035E-01
     -3.678  0.1242E-01  0.1131E-01
     -3.600  0.1967E-01  0.1285E-01
     -3.522  0.5100E-02  0.1324E-01
     -3.444  0.3535E-03  0.1327E-01
     -3.366  0.9302E-02  0.1399E-01
     -3.288  0.1485E-01  0.1515E-01
     -3.211  0.9960E-03  0.1523E-01
     -3.133  0.1949E-05  0.1523E-01
     -3.055  0.7712E-03  0.1529E-01
     -2.977  0.1335E-01  0.1633E-01
     -2.899  0.8992E-02  0.1703E-01
     -2.822  0.8957E-02  0.1772E-01
     -2.744  0.7915E-02  0.1834E-01
     -2.666  0.2134E-03  0.1835E-01
     -2.588  0.1494E-02  0.1847E-01
     -2.510  0.6105E-02  0.1895E-01
     -2.433  0.8564E-03  0.1901E-01
     -2.355  0.1091E-02  0.1910E-01
     -2.277  0.6178E-02  0.1958E-01
     -2.199  0.2407E-02  0.1977E-01
     -2.121  0.2806E-02  0.1998E-01
     -2.043  0.9224E-03  0.2006E-01
     -1.966  0.3064E-02  0.2029E-01
     -1.888  0.4523E-03  0.2033E-01
     -1.810  0.4730E-04  0.2033E-01
     -1.732  0.3042E-02  0.2057E-01
     -1.654  0.5105E-02  0.2097E-01
     -1.577  0.2684E-03  0.2099E-01
     -1.499  0.6682E-04  0.2099E-01
     -1.421  0.3448E-02  0.2126E-01
     -1.343  0.5248E-02  0.2167E-01
     -1.265  0.1068E-01  0.2250E-01
     -1.187  0.1106E-01  0.2336E-01
     -1.110  0.2101E-01  0.2500E-01
     -1.032  0.1368E-01  0.2606E-01
     -0.954  0.3252E-02  0.2631E-01
     -0.876  0.7665E-02  0.2691E-01
     -0.798  0.9278E-02  0.2763E-01
     -0.721  0.9741E-02  0.2839E-01
     -0.643  0.7782E-02  0.2900E-01
     -0.565  0.6687E-02  0.2952E-01
     -0.487  0.7304E-02  0.3009E-01
     -0.409  0.6261E-02  0.3057E-01
     -0.331  0.1070E-01  0.3140E-01
     -0.254  0.2228E-02  0.3158E-01
     -0.176  0.3047E-02  0.3182E-01
     -0.098  0.1182E-01  0.3274E-01
     -0.020  0.2037E-02  0.3289E-01
      0.058  0.8789E-05  0.3289E-01
      0.135  0.5462E-09  0.3289E-01
      0.213  0.2232E-05  0.3289E-01
      0.291  0.1017E-02  0.3297E-01
      0.369  0.1291E-01  0.3398E-01
      0.447  0.1346E-01  0.3503E-01
      0.524  0.8164E-03  0.3509E-01
      0.602  0.4099E-03  0.3512E-01
      0.680  0.2208E-02  0.3529E-01
      0.758  0.3260E-02  0.3555E-01
      0.836  0.4665E-03  0.3558E-01
      0.914  0.6657E-03  0.3563E-01
      0.991  0.5971E-02  0.3610E-01
      1.069  0.1813E-02  0.3624E-01
      1.147  0.1217E-04  0.3624E-01
      1.225  0.3445E-03  0.3627E-01
      1.303  0.7007E-02  0.3681E-01
      1.380  0.5205E-02  0.3722E-01
      1.458  0.1490E-03  0.3723E-01
      1.536  0.3583E-02  0.3751E-01
      1.614  0.2317E-01  0.3931E-01
      1.692  0.2185E-01  0.4101E-01
      1.770  0.9843E-02  0.4178E-01
      1.847  0.4768E-02  0.4215E-01
      1.925  0.9293E-02  0.4287E-01
      2.003  0.1828E-01  0.4430E-01
      2.081  0.3013E-02  0.4453E-01
      2.159  0.6096E-02  0.4500E-01
      2.236  0.4217E-02  0.4533E-01
      2.314  0.1431E-01  0.4645E-01
      2.392  0.1075E-01  0.4728E-01
      2.470  0.3286E-02  0.4754E-01
      2.548  0.2249E-01  0.4929E-01
      2.625  0.2395E-01  0.5115E-01
      2.703  0.2013E-01  0.5272E-01
      2.781  0.9156E-02  0.5343E-01
      2.859  0.7445E-02  0.5401E-01
      2.937  0.9404E-02  0.5474E-01
      3.015  0.1343E-01  0.5579E-01
      3.092  0.1463E-01  0.5693E-01
      3.170  0.1504E-01  0.5810E-01
      3.248  0.1028E-01  0.5890E-01
      3.326  0.1878E-01  0.6036E-01
      3.404  0.1549E-01  0.6156E-01
      3.481  0.1372E-01  0.6263E-01
      3.559  0.1465E-01  0.6377E-01
      3.637  0.1369E-01  0.6484E-01
      3.715  0.2523E-01  0.6680E-01
      3.793  0.1740E-01  0.6815E-01
      3.871  0.1010E-02  0.6823E-01
      3.948  0.6264E-03  0.6828E-01
      4.026  0.7823E-02  0.6889E-01
      4.104  0.2387E-01  0.7075E-01
      4.182  0.1663E-01  0.7204E-01
      4.260  0.1236E-01  0.7300E-01
      4.337  0.8568E-02  0.7367E-01
      4.415  0.1479E-02  0.7378E-01
      4.493  0.1402E-01  0.7487E-01
      4.571  0.1559E-01  0.7609E-01
      4.649  0.1635E-01  0.7736E-01
      4.727  0.4627E-02  0.7772E-01
      4.804  0.5913E-04  0.7772E-01
      4.882  0.7217E-04  0.7773E-01
      4.960  0.4306E-02  0.7806E-01
      5.038  0.1147E-01  0.7896E-01
      5.116  0.2463E-02  0.7915E-01
      5.193  0.1901E-04  0.7915E-01
      5.271  0.2252E-05  0.7915E-01
      5.349  0.9133E-03  0.7922E-01
      5.427  0.7018E-02  0.7977E-01
      5.505  0.1926E-02  0.7992E-01
      5.582  0.1366E-03  0.7993E-01
      5.660  0.7692E-03  0.7999E-01
      5.738  0.1628E-03  0.8000E-01
      5.816  0.6828E-06  0.8000E-01
      5.894  0.3172E-10  0.8000E-01
      5.972  0.2008E-16  0.8000E-01
      6.049  0.2329E-10  0.8000E-01
      6.127  0.7275E-06  0.8000E-01
      6.205  0.2454E-03  0.8002E-01
      6.283  0.1543E-02  0.8014E-01
      6.361  0.8977E-03  0.8021E-01
      6.438  0.2116E-02  0.8037E-01
      6.516  0.3197E-02  0.8062E-01
      6.594  0.2195E-02  0.8079E-01
      6.672  0.7529E-02  0.8138E-01
      6.750  0.1485E-02  0.8149E-01
      6.828  0.4613E-02  0.8185E-01
      6.905  0.3816E-02  0.8215E-01
      6.983  0.1606E-02  0.8228E-01
      7.061  0.1479E-02  0.8239E-01
      7.139  0.8086E-02  0.8302E-01
      7.217  0.4799E-02  0.8339E-01
      7.294  0.1387E-01  0.8447E-01
      7.372  0.1161E-01  0.8538E-01
      7.450  0.9052E-02  0.8608E-01
      7.528  0.7774E-02  0.8669E-01
      7.606  0.5486E-02  0.8711E-01
      7.684  0.1649E-01  0.8840E-01
      7.761  0.1412E-01  0.8949E-01
      7.839  0.2882E-01  0.9174E-01
      7.917  0.2145E-01  0.9341E-01
      7.995  0.1523E-01  0.9459E-01
      8.073  0.7498E-02  0.9517E-01
      8.150  0.1112E-01  0.9604E-01
      8.228  0.9357E-02  0.9677E-01
      8.306  0.7430E-02  0.9735E-01
      8.384  0.1451E-01  0.9847E-01
      8.462  0.1960E-01  0.1000E+00
      8.539  0.1768E-01  0.1014E+00
      8.617  0.8954E-02  0.1021E+00
      8.695  0.8551E-02  0.1027E+00
      8.773  0.4623E-02  0.1031E+00
      8.851  0.2094E-01  0.1047E+00
      8.929  0.5396E-02  0.1051E+00
      9.006  0.9633E-02  0.1059E+00
      9.084  0.2775E-01  0.1081E+00
      9.162  0.2667E-01  0.1101E+00
      9.240  0.2158E-01  0.1118E+00
      9.318  0.2299E-01  0.1136E+00
      9.395  0.1811E-01  0.1150E+00
      9.473  0.1705E-01  0.1163E+00
      9.551  0.1793E-01  0.1177E+00
      9.629  0.1758E-01  0.1191E+00
      9.707  0.8021E-02  0.1197E+00
      9.785  0.1115E-01  0.1206E+00
      9.862  0.1223E-01  0.1215E+00
      9.940  0.6521E-02  0.1221E+00
     10.018  0.1132E-01  0.1229E+00
     10.096  0.1099E-01  0.1238E+00
     10.174  0.1377E-01  0.1249E+00
     10.251  0.9398E-02  0.1256E+00
     10.329  0.3107E-02  0.1258E+00
     10.407  0.1168E-01  0.1267E+00
     10.485  0.1440E-01  0.1279E+00
     10.563  0.2867E-01  0.1301E+00
     10.641  0.2637E-01  0.1321E+00
     10.718  0.2612E-02  0.1323E+00
     10.796  0.2511E-02  0.1325E+00
     10.874  0.1575E-01  0.1338E+00
     10.952  0.1479E-01  0.1349E+00
     11.030  0.2766E-01  0.1371E+00
     11.107  0.2170E-01  0.1388E+00
     11.185  0.2742E-02  0.1390E+00
     11.263  0.5834E-02  0.1394E+00
     11.341  0.2461E-02  0.1396E+00
     11.419  0.9387E-02  0.1403E+00
     11.496  0.7016E-02  0.1409E+00
     11.574  0.8963E-03  0.1410E+00
     11.652  0.1491E-01  0.1421E+00
     11.730  0.1166E-01  0.1430E+00
     11.808  0.5996E-02  0.1435E+00
     11.886  0.1946E-02  0.1436E+00
     11.963  0.7709E-02  0.1442E+00
     12.041  0.4995E-02  0.1446E+00
     12.119  0.1285E-01  0.1456E+00
     12.197  0.1943E-01  0.1471E+00
     12.275  0.1060E-01  0.1480E+00
     12.352  0.4107E-02  0.1483E+00
     12.430  0.6051E-02  0.1488E+00
     12.508  0.1191E-01  0.1497E+00
     12.586  0.5546E-02  0.1501E+00
     12.664  0.3393E-02  0.1504E+00
     12.742  0.1281E-01  0.1514E+00
     12.819  0.2123E-01  0.1530E+00
     12.897  0.9564E-02  0.1538E+00
     12.975  0.8887E-02  0.1545E+00
     13.053  0.3868E-02  0.1548E+00
     13.131  0.1927E-01  0.1563E+00
     13.208  0.1197E-01  0.1572E+00
     13.286  0.7187E-03  0.1573E+00
     13.364  0.1614E-02  0.1574E+00
     13.442  0.3403E-02  0.1576E+00
     13.520  0.5835E-03  0.1577E+00
     13.597  0.3284E-05  0.1577E+00
     13.675  0.2640E-03  0.1577E+00
     13.753  0.5086E-02  0.1581E+00
     13.831  0.3064E-02  0.1584E+00
     13.909  0.4705E-04  0.1584E+00
     13.987  0.9051E-08  0.1584E+00
     14.064  0.1650E-13  0.1584E+00
     14.142  0.0000E+00  0.1584E+00
     14.220  0.0000E+00  0.1584E+00
     14.298  0.0000E+00  0.1584E+00
     14.376  0.2971E-12  0.1584E+00
     14.453  0.6625E-07  0.1584E+00
     14.531  0.1444E-03  0.1584E+00
     14.609  0.4368E-02  0.1587E+00
     14.687  0.4472E-02  0.1591E+00
     14.765  0.3213E-02  0.1593E+00
     14.843  0.2304E-02  0.1595E+00
     14.920  0.2335E-02  0.1597E+00
     14.998  0.9820E-03  0.1597E+00
     15.076  0.2994E-02  0.1600E+00
     15.154  0.3406E-03  0.1600E+00
     15.232  0.6691E-06  0.1600E+00
     15.309  0.1382E-10  0.1600E+00
     15.387  0.2818E-17  0.1600E+00
     15.465  0.0000E+00  0.1600E+00
     15.543  0.0000E+00  0.1600E+00
     15.621  0.0000E+00  0.1600E+00
     15.699  0.0000E+00  0.1600E+00
     15.776  0.0000E+00  0.1600E+00
     15.854  0.0000E+00  0.1600E+00
     15.932  0.0000E+00  0.1600E+00
     16.010  0.0000E+00  0.1600E+00
     16.088  0.0000E+00  0.1600E+00
