    2    2  100    1
  0.2016476E+02  0.3849278E-09  0.3849279E-09  0.3849278E-09  0.5000000E-15
  1.000000000000000E-004
  CAR 
 unknown system                          
      8     35      8
 
  0.0000000E+00  0.0000000E+00  0.0000000E+00  0.1371742E-02
    1       -6.195958   1.000000
    2        5.624352   1.000000
    3        5.624352   1.000000
    4        5.624355   1.000000
    5        8.181729   0.000000
    6        8.181736   0.000000
    7        8.181737   0.000000
    8        8.764917   0.000000
 
  0.1111111E+00  0.0000000E+00  0.0000000E+00  0.1097394E-01
    1       -6.037265   1.000000
    2        4.285056   1.000000
    3        5.391966   1.000000
    4        5.391968   1.000000
    5        8.116212   0.000000
    6        8.524885   0.000000
    7        8.524892   0.000000
    8        9.921539   0.000000
 
  0.2222222E+00  0.1387779E-16  0.0000000E+00  0.1097394E-01
    1       -5.571199   1.000000
    2        2.234173   1.000000
    3        4.974716   1.000000
    4        4.974719   1.000000
    5        7.691903   0.000000
    6        9.049592   0.000000
    7        9.049600   0.000000
    8       11.902873   0.000000
 
  0.3333333E+00 -0.1387779E-16  0.0000000E+00  0.1097394E-01
    1       -4.845011   1.000000
    2        0.352125   1.000000
    3        4.640816   1.000000
    4        4.640819   1.000000
    5        7.319512   0.000000
    6        9.129588   0.000000
    7        9.129596   0.000000
    8       13.411300   0.000000
 
  0.4444444E+00  0.2775558E-16  0.0000000E+00  0.1097394E-01
    1       -4.073161   1.000000
    2       -1.015448   1.000000
    3        4.466667   1.000000
    4        4.466670   1.000000
    5        7.119374   0.000000
    6        8.999203   0.000000
    7        8.999212   0.000000
    8       13.364507   0.000000
 
  0.1111111E+00  0.1111111E+00  0.0000000E+00  0.8230453E-02
    1       -5.983906   1.000000
    2        4.496144   1.000000
    3        4.963136   1.000000
    4        4.963136   1.000000
    5        7.736685   0.000000
    6        9.103964   0.000000
    7        9.103968   0.000000
    8        9.735275   0.000000
 
  0.2222222E+00  0.1111111E+00  0.0000000E+00  0.3292181E-01
    1       -5.618263   1.000000
    2        2.839426   1.000000
    3        4.497893   1.000000
    4        4.623842   1.000000
    5        7.822411   0.000000
    6        9.091253   0.000000
    7        9.808485   0.000000
    8       10.498199   0.000000
 
  0.3333333E+00  0.1111111E+00  0.0000000E+00  0.3292181E-01
    1       -4.969764   1.000000
    2        0.963553   1.000000
    3        4.124424   1.000000
    4        4.196599   1.000000
    5        7.925353   0.000000
    6        9.081505   0.000000
    7        9.985735   0.000000
    8       10.947107   0.000000
 
  0.4444444E+00  0.1111111E+00  0.0000000E+00  0.3292181E-01
    1       -4.161564   1.000000
    2       -0.596662   1.000000
    3        3.695525   1.000000
    4        4.114000   1.000000
    5        7.794274   0.000000
    6        9.007500   0.000000
    7        9.718827   0.000000
    8       12.362497   0.000000
 
 -0.4444444E+00  0.1111111E+00  0.0000000E+00  0.3292181E-01
    1       -3.793708   1.000000
    2       -1.154964   1.000000
    3        3.442401   1.000000
    4        4.249916   1.000000
    5        7.791158   0.000000
    6        9.037614   0.000000
    7        9.461586   0.000000
    8       13.741183   0.000000
 
 -0.3333333E+00  0.1111111E+00  0.0000000E+00  0.3292181E-01
    1       -4.433442   1.000000
    2       -0.129944   1.000000
    3        3.411961   1.000000
    4        4.573495   1.000000
    5        7.969979   0.000000
    6        9.261899   0.000000
    7        9.336912   0.000000
    8       12.948320   0.000000
 
 -0.2222222E+00  0.1111111E+00  0.0000000E+00  0.3292181E-01
    1       -5.215981   1.000000
    2        1.568397   1.000000
    3        3.645394   1.000000
    4        5.015013   1.000000
    5        8.290262   0.000000
    6        9.118003   0.000000
    7        9.393927   0.000000
    8       11.635113   0.000000
 
 -0.1111111E+00  0.1111111E+00  0.0000000E+00  0.1646091E-01
    1       -5.775250   1.000000
    2        3.307054   1.000000
    3        4.290523   1.000000
    4        5.402146   1.000000
    5        8.567009   0.000000
    6        8.619244   0.000000
    7        8.819250   0.000000
    8       10.883555   0.000000
 
  0.2222222E+00  0.2222222E+00  0.0000000E+00  0.8230453E-02
    1       -5.353720   1.000000
    2        2.597963   1.000000
    3        3.986437   1.000000
    4        3.986438   1.000000
    5        6.950356   0.000000
    6        9.169032   0.000000
    7       10.841904   0.000000
    8       10.841905   0.000000
 
  0.3333333E+00  0.2222222E+00  0.0000000E+00  0.3292181E-01
    1       -4.794529   1.000000
    2        1.288115   1.000000
    3        3.369434   1.000000
    4        3.649367   1.000000
    5        7.103474   0.000000
    6        8.798645   0.000000
    7       11.073245   0.000000
    8       11.414782   0.000000
 
  0.4444444E+00  0.2222222E+00  0.0000000E+00  0.3292181E-01
    1       -4.011342   1.000000
    2       -0.153533   1.000000
    3        2.639338   1.000000
    4        3.551963   1.000000
    5        7.288776   0.000000
    6        9.804778   0.000000
    7       10.823692   0.000000
    8       11.238809   0.000000
 
 -0.4444444E+00  0.2222222E+00  0.0000000E+00  0.3292181E-01
    1       -3.373392   1.000000
    2       -1.072231   1.000000
    3        2.128524   1.000000
    4        3.703383   1.000000
    5        7.435005   0.000000
    6       10.592138   0.000000
    7       10.864038   0.000000
    8       11.753971   0.000000
 
 -0.3333333E+00  0.2222222E+00  0.0000000E+00  0.3292181E-01
    1       -3.775215   1.000000
    2       -0.508451   1.000000
    3        1.954411   1.000000
    4        4.076635   1.000000
    5        7.809714   0.000000
    6       10.524977   0.000000
    7       10.536625   0.000000
    8       12.743112   0.000000
 
 -0.2222222E+00  0.2222222E+00  0.0000000E+00  0.1646091E-01
    1       -4.580455   1.000000
    2        0.714591   1.000000
    3        2.338024   1.000000
    4        4.588142   1.000000
    5        8.319357   0.000000
    6        9.919831   0.000000
    7       10.240536   0.000000
    8       11.412112   0.000000
 
  0.3333333E+00  0.3333333E+00  0.0000000E+00  0.8230453E-02
    1       -4.324981   1.000000
    2        0.632951   1.000000
    3        3.255040   1.000000
    4        3.255042   1.000000
    5        6.382403   0.000000
    6        7.646333   0.000000
    7       12.802032   0.000000
    8       12.802032   0.000000
 
  0.4444444E+00  0.3333333E+00  0.0000000E+00  0.3292181E-01
    1       -3.599756   1.000000
    2       -0.401036   1.000000
    3        2.547375   1.000000
    4        3.100104   1.000000
    5        6.625287   0.000000
    6        7.686310   0.000000
    7       13.093226   0.000000
    8       13.157331   0.000000
 
 -0.4444444E+00  0.3333333E+00  0.0000000E+00  0.3292181E-01
    1       -2.823610   1.000000
    2       -1.281453   1.000000
    3        1.664551   1.000000
    4        3.204932   1.000000
    5        6.821730   0.000000
    6        9.261608   0.000000
    7       12.788763   0.000000
    8       12.883634   0.000000
 
 -0.3333333E+00  0.3333333E+00  0.0000000E+00  0.1646091E-01
    1       -2.996965   1.000000
    2       -1.091575   1.000000
    3        1.309864   1.000000
    4        3.553416   1.000000
    5        7.212589   0.000000
    6       11.405369   0.000000
    7       12.035933   0.000000
    8       12.600472   0.000000
 
  0.4444444E+00  0.4444444E+00  0.0000000E+00  0.8230453E-02
    1       -2.935757   1.000000
    2       -1.250753   1.000000
    3        2.875507   1.000000
    4        2.875509   1.000000
    5        6.247211   0.000000
    6        6.647719   0.000000
    7       14.848961   0.000000
    8       14.848963   0.000000
 
 -0.4444444E+00  0.4444444E+00  0.0000000E+00  0.1646091E-01
    1       -2.179340   1.000000
    2       -2.009516   1.000000
    3        2.277838   1.000000
    4        2.912253   1.000000
    5        6.473155   0.000000
    6        7.288209   0.000000
    7       14.724178   0.000000
    8       15.026475   0.000000
 
  0.3333333E+00  0.2222222E+00  0.1111111E+00  0.3292181E-01
    1       -5.156907   1.000000
    2        1.850054   1.000000
    3        3.306521   1.000000
    4        4.477986   1.000000
    5        8.001358   0.000000
    6        9.374135   0.000000
    7       10.028804   0.000000
    8       10.602438   0.000000
 
  0.4444444E+00  0.2222222E+00  0.1111111E+00  0.6584362E-01
    1       -4.435665   1.000000
    2        0.387487   1.000000
    3        2.703832   1.000000
    4        4.051268   1.000000
    5        8.379998   0.000000
    6        9.200903   0.000000
    7       10.385972   0.000000
    8       11.047260   0.000000
 
 -0.4444444E+00  0.2222222E+00  0.1111111E+00  0.6584362E-01
    1       -3.657911   1.000000
    2       -0.872317   1.000000
    3        2.508615   1.000000
    4        3.736313   1.000000
    5        8.463289   0.000000
    6        8.823936   0.000000
    7       10.986546   0.000000
    8       12.108336   0.000000
 
  0.4444444E+00  0.3333333E+00  0.1111111E+00  0.3292181E-01
    1       -4.154649   1.000000
    2        0.336327   1.000000
    3        2.607793   1.000000
    4        3.284585   1.000000
    5        7.458748   0.000000
    6        8.466180   0.000000
    7       11.012724   0.000000
    8       12.715460   0.000000
 
 -0.4444444E+00  0.3333333E+00  0.1111111E+00  0.6584362E-01
    1       -3.345039   1.000000
    2       -0.727710   1.000000
    3        1.955960   1.000000
    4        2.986455   1.000000
    5        7.861454   0.000000
    6        9.545453   0.000000
    7       10.578454   0.000000
    8       13.110774   0.000000
 
 -0.3333333E+00  0.3333333E+00  0.1111111E+00  0.6584362E-01
    1       -2.990042   1.000000
    2       -1.142003   1.000000
    3        1.577857   1.000000
    4        3.095986   1.000000
    5        8.147818   0.000000
    6       10.118077   0.000000
    7       11.644797   0.000000
    8       12.173939   0.000000
 
 -0.2222222E+00  0.3333333E+00  0.1111111E+00  0.3292181E-01
    1       -3.674862   1.000000
    2       -0.356697   1.000000
    3        1.724192   1.000000
    4        3.522907   1.000000
    5        8.647016   0.000000
    6        9.625494   0.000000
    7       10.473186   0.000000
    8       12.482215   0.000000
 
 -0.4444444E+00  0.4444444E+00  0.1111111E+00  0.3292181E-01
    1       -2.823158   1.000000
    2       -1.268435   1.000000
    3        2.326619   1.000000
    4        2.533411   1.000000
    5        7.291204   0.000000
    6        7.603709   0.000000
    7       12.769226   0.000000
    8       14.606176   0.000000
 
 -0.3333333E+00  0.4444444E+00  0.1111111E+00  0.3292181E-01
    1       -2.314728   1.000000
    2       -1.719970   1.000000
    3        1.623068   1.000000
    4        2.619336   1.000000
    5        7.658564   0.000000
    6        9.278769   0.000000
    7       12.229203   0.000000
    8       12.485244   0.000000
 
 -0.3333333E+00  0.4444444E+00  0.2222222E+00  0.3292181E-01
    1       -2.555430   1.000000
    2       -1.413353   1.000000
    3        1.659967   1.000000
    4        2.289677   1.000000
    5        9.463441   0.000000
    6        9.574422   0.000000
    7       10.199824   0.000000
    8       11.939607   0.000000
