 vasp.6.2.0 18Jan21 (build Aug 12 2022 13:00:08) complex                        
  
 executed on             LinuxIFC date 2024.11.03  21:54:03
 running on    4 total cores
 distrk:  each k-point on    4 cores,    1 groups
 distr:  one band on NCORE=   1 cores,    4 groups


--------------------------------------------------------------------------------------------------------


 INCAR:
   ISTART = 0            (Read existing wavefunction, if there)
   ISPIN = 1            (Non-Spin polarised DFT)
   LREAL = .FALSE.       (Projection operators: automatic)
   LWAVE = .FALSE.        (Write WAVECAR or not)
   LCHARG = .FALSE.        (Write CHGCAR or not)
   ADDGRID = .TRUE.        (Increase grid, helps GGA convergence)
   LASPH = .TRUE.        (Give more accurate total energies and band structure calculations)
   PREC = Accurate      (Accurate strictly avoids any aliasing or wrap around errors)
   ENCUT = 350          (Cut-off energy for plane wave basis set, in eV)
   ISMEAR = 0            (Gaussian smearing, metals:1)
   SIGMA = 0.05         (Smearing value in eV, metals:0.2)
   NELM = 90           (Max electronic SCF steps)
   NELMIN = 6            (Min electronic SCF steps)
   EDIFF = 1E-06        (SCF energy convergence, in eV)
   NSW = 100          (Max ionic steps)
   IBRION = 2            (Algorithm: 0-MD, 1-Quasi-New, 2-CG)
   ISIF = 3            (Stress/relaxation: 2-Ions, 3-Shape/Ions/V, 4-Shape/Ions)
   EDIFFG = -2E-03        (Ionic convergence, eV/AA)
   ISYM = 2              (Symmetry: 0\=none, 2\=GGA, 3\=hybrids)

 POTCAR:    PAW_PBE Si 05Jan2001                  
 POTCAR:    PAW_PBE Si 05Jan2001                  
   VRHFIN =Si: s2p2                                                                                 
   LEXCH  = PE                                                                                      
   EATOM  =   103.0669 eV,    7.5752 Ry                                                             
                                                                                                    
   TITEL  = PAW_PBE Si 05Jan2001                                                                    
   LULTRA =        F    use ultrasoft PP ?                                                          
   IUNSCR =        1    unscreen: 0-lin 1-nonlin 2-no                                               
   RPACOR =    1.500    partial core radius                                                         
   POMASS =   28.085; ZVAL   =    4.000    mass and valenz                                          
   RCORE  =    1.900    outmost cutoff radius                                                       
   RWIGS  =    2.480; RWIGS  =    1.312    wigner-seitz radius (au A)                               
   ENMAX  =  245.345; ENMIN  =  184.009 eV                                                          
   ICORE  =        2    local potential                                                             
   LCOR   =        T    correct aug charges                                                         
   LPAW   =        T    paw PP                                                                      
   EAUG   =  322.069                                                                                
   DEXC   =    0.000                                                                                
   RMAX   =    1.950    core radius for proj-oper                                                   
   RAUG   =    1.300    factor for augmentation sphere                                              
   RDEP   =    1.993    radius for radial grids                                                     
   RDEPT  =    1.837    core radius for aug-charge                                                  
                                                                                                    
   Atomic configuration                                                                             
    6 entries                                                                                       
     n  l   j            E        occ.                                                              
     1  0  0.50     -1785.8828   2.0000                                                             
     2  0  0.50      -139.4969   2.0000                                                             
     2  1  1.50       -95.5546   6.0000                                                             
     3  0  0.50       -10.8127   2.0000                                                             
     3  1  0.50        -4.0811   2.0000                                                             
     3  2  1.50        -4.0817   0.0000                                                             
   Description                                                                                      
     l       E           TYP  RCUT    TYP  RCUT                                                     
     0    -10.8127223     23  1.900                                                                 
     0     -7.6451159     23  1.900                                                                 
     1     -4.0811372     23  1.900                                                                 
     1      2.4879257     23  1.900                                                                 
     2     -4.0817478      7  1.900                                                                 
  local pseudopotential read in
  partial core-charges read in
  partial kinetic energy density read in
  atomic valenz-charges read in
  non local Contribution for L=           0  read in
    real space projection operators read in
  non local Contribution for L=           0  read in
    real space projection operators read in
  non local Contribution for L=           1  read in
    real space projection operators read in
  non local Contribution for L=           1  read in
    real space projection operators read in
    PAW grid and wavefunctions read in
 
   number of l-projection  operators is LMAX  =           4
   number of lm-projection operators is LMMAX =           8
 
  PAW_PBE Si 05Jan2001                  :
 energy of atom  1       EATOM= -103.0669
 kinetic energy error for atom=    0.0013 (will be added to EATOM!!)
 
 
 POSCAR: Si2
  positions in direct lattice
  No initial velocities read in
 exchange correlation table for  LEXCH =        8
   RHO(1)=    0.500       N(1)  =     2000
   RHO(2)=  100.500       N(2)  =     4000
 


--------------------------------------------------------------------------------------------------------


 ion  position               nearest neighbor table
   1  0.875  0.875  0.875-   2 2.36   2 2.36   2 2.36   2 2.36
   2  0.125  0.125  0.125-   1 2.36   1 2.36   1 2.36   1 2.36
 
  LATTYP: Found a face centered cubic cell.
 ALAT       =     5.4437031493
  
  Lattice vectors:
  
 A1 = (   3.3335730000,   0.0000000000,   1.9246390000)
 A2 = (   1.1111910000,   3.1429240000,   1.9246390000)
 A3 = (   0.0000000000,   0.0000000000,   3.8492780000)


Analysis of symmetry for initial positions (statically):
=====================================================================
 Subroutine PRICEL returns:
 Original cell was already a primitive cell.
 

 Routine SETGRP: Setting up the symmetry group for a 
 face centered cubic supercell.


 Subroutine GETGRP returns: Found 48 space group operations
 (whereof 12 operations were pure point group operations)
 out of a pool of 48 trial point group operations.


The static configuration has the point symmetry D_3d.
 The point group associated with its full space group is O_h .


Analysis of symmetry for dynamics (positions and initial velocities):
=====================================================================
 Subroutine PRICEL returns:
 Original cell was already a primitive cell.
 

 Routine SETGRP: Setting up the symmetry group for a 
 face centered cubic supercell.


 Subroutine GETGRP returns: Found 48 space group operations
 (whereof 12 operations were pure point group operations)
 out of a pool of 48 trial point group operations.


The dynamic configuration has the point symmetry D_3d.
 The point group associated with its full space group is O_h .


 Subroutine INISYM returns: Found 48 space group operations
 (whereof 12 operations are pure point group operations),
 and found     1 'primitive' translations


----------------------------------------------------------------------------------------

                                     Primitive cell                                     

  volume of cell :      40.3295

  direct lattice vectors                    reciprocal lattice vectors
     3.333573000  0.000000000  1.924639000     0.299978432 -0.106058350  0.000000000
     1.111191000  3.142924000  1.924639000     0.000000000  0.318175050  0.000000000
     0.000000000  0.000000000  3.849278000    -0.149989216 -0.106058350  0.259788979

  length of vectors
     3.849278403  3.849279412  3.849278000     0.318175161  0.318175050  0.318175190

  position of ions in fractional coordinates (direct lattice)
     0.875000000  0.875000000  0.875000000
     0.125000000  0.125000000  0.125000000

  ion indices of the primitive-cell ions
   primitive index   ion index
                 1           1
                 2           2

----------------------------------------------------------------------------------------

 
 
 KPOINTS: Automatic                               

Automatic generation of k-mesh.
 Grid dimensions read from file:
 generate k-points for:    9    9    9

 Generating k-lattice:

  Cartesian coordinates                     Fractional coordinates (reciprocal lattice)
     0.033330937 -0.011784261  0.000000000     0.111111111  0.000000000  0.000000000
     0.000000000  0.035352783  0.000000000     0.000000000  0.111111111  0.000000000
    -0.016665468 -0.011784261  0.028865442    -0.000000000  0.000000000  0.111111111

  Length of vectors
     0.035352796  0.035352783  0.035352799

  Shift w.r.t. Gamma in fractional coordinates (k-lattice)
     0.000000000  0.000000000  0.000000000

 
 Subroutine IBZKPT returns following result:
 ===========================================
 
 Found     35 irreducible k-points:
 
 Following reciprocal coordinates:
            Coordinates               Weight
  0.000000  0.000000  0.000000      1.000000
  0.111111  0.000000  0.000000      8.000000
  0.222222  0.000000  0.000000      8.000000
  0.333333 -0.000000  0.000000      8.000000
  0.444444  0.000000  0.000000      8.000000
  0.111111  0.111111  0.000000      6.000000
  0.222222  0.111111  0.000000     24.000000
  0.333333  0.111111  0.000000     24.000000
  0.444444  0.111111  0.000000     24.000000
 -0.444444  0.111111  0.000000     24.000000
 -0.333333  0.111111  0.000000     24.000000
 -0.222222  0.111111  0.000000     24.000000
 -0.111111  0.111111  0.000000     12.000000
  0.222222  0.222222  0.000000      6.000000
  0.333333  0.222222  0.000000     24.000000
  0.444444  0.222222  0.000000     24.000000
 -0.444444  0.222222  0.000000     24.000000
 -0.333333  0.222222  0.000000     24.000000
 -0.222222  0.222222  0.000000     12.000000
  0.333333  0.333333  0.000000      6.000000
  0.444444  0.333333  0.000000     24.000000
 -0.444444  0.333333  0.000000     24.000000
 -0.333333  0.333333  0.000000     12.000000
  0.444444  0.444444  0.000000      6.000000
 -0.444444  0.444444  0.000000     12.000000
  0.333333  0.222222  0.111111     24.000000
  0.444444  0.222222  0.111111     48.000000
 -0.444444  0.222222  0.111111     48.000000
  0.444444  0.333333  0.111111     24.000000
 -0.444444  0.333333  0.111111     48.000000
 -0.333333  0.333333  0.111111     48.000000
 -0.222222  0.333333  0.111111     24.000000
 -0.444444  0.444444  0.111111     24.000000
 -0.333333  0.444444  0.111111     24.000000
 -0.333333  0.444444  0.222222     24.000000
 
 Following cartesian coordinates:
            Coordinates               Weight
  0.000000  0.000000  0.000000      1.000000
  0.033331 -0.011784  0.000000      8.000000
  0.066662 -0.023569  0.000000      8.000000
  0.099993 -0.035353  0.000000      8.000000
  0.133324 -0.047137  0.000000      8.000000
  0.033331  0.023569  0.000000      6.000000
  0.066662  0.011784  0.000000     24.000000
  0.099993  0.000000  0.000000     24.000000
  0.133324 -0.011784  0.000000     24.000000
 -0.133324  0.082490  0.000000     24.000000
 -0.099993  0.070706  0.000000     24.000000
 -0.066662  0.058921  0.000000     24.000000
 -0.033331  0.047137  0.000000     12.000000
  0.066662  0.047137  0.000000      6.000000
  0.099993  0.035353  0.000000     24.000000
  0.133324  0.023569  0.000000     24.000000
 -0.133324  0.117843  0.000000     24.000000
 -0.099993  0.106058  0.000000     24.000000
 -0.066662  0.094274  0.000000     12.000000
  0.099993  0.070706  0.000000      6.000000
  0.133324  0.058921  0.000000     24.000000
 -0.133324  0.153195  0.000000     24.000000
 -0.099993  0.141411  0.000000     12.000000
  0.133324  0.094274  0.000000      6.000000
 -0.133324  0.188548  0.000000     12.000000
  0.083327  0.023569  0.028865     24.000000
  0.116658  0.011784  0.028865     48.000000
 -0.149989  0.106058  0.028865     48.000000
  0.116658  0.047137  0.028865     24.000000
 -0.149989  0.141411  0.028865     48.000000
 -0.116658  0.129627  0.028865     48.000000
 -0.083327  0.117843  0.028865     24.000000
 -0.149989  0.176764  0.028865     24.000000
 -0.116658  0.164980  0.028865     24.000000
 -0.133324  0.153195  0.057731     24.000000
 


--------------------------------------------------------------------------------------------------------




 Dimension of arrays:
   k-points           NKPTS =     35   k-points in BZ     NKDIM =     35   number of bands    NBANDS=      8
   number of dos      NEDOS =    301   number of ions     NIONS =      2
   non local maximal  LDIM  =      4   non local SUM 2l+1 LMDIM =      8
   total plane-waves  NPLWV =  13824
   max r-space proj   IRMAX =      1   max aug-charges    IRDMAX=  91874
   dimension x,y,z NGX =    24 NGY =   24 NGZ =   24
   dimension x,y,z NGXF=    48 NGYF=   48 NGZF=   48
   support grid    NGXF=    96 NGYF=   96 NGZF=   96
   ions per type =               2
   NGX,Y,Z   is equivalent  to a cutoff of  10.37, 10.37, 10.37 a.u.
   NGXF,Y,Z  is equivalent  to a cutoff of  20.73, 20.73, 20.73 a.u.

 SYSTEM =  unknown system                          
 POSCAR =  Si2                                     

 Startparameter for this run:
   NWRITE =      2    write-flag & timer
   PREC   = accura    normal or accurate (medium, high low for compatibility)
   ISTART =      0    job   : 0-new  1-cont  2-samecut
   ICHARG =      2    charge: 1-file 2-atom 10-const
   ISPIN  =      1    spin polarized calculation?
   LNONCOLLINEAR =      F non collinear calculations
   LSORBIT =      F    spin-orbit coupling
   INIWAV =      1    electr: 0-lowe 1-rand  2-diag
   LASPH  =      T    aspherical Exc in radial PAW
   METAGGA=      F    non-selfconsistent MetaGGA calc.

 Electronic Relaxation 1
   ENCUT  =  350.0 eV  25.72 Ry    5.07 a.u.   5.87  5.87  5.87*2*pi/ulx,y,z
   ENINI  =  350.0     initial cutoff
   ENAUG  =  322.1 eV  augmentation charge cutoff
   NELM   =     90;   NELMIN=  6; NELMDL= -5     # of ELM steps 
   EDIFF  = 0.1E-05   stopping-criterion for ELM
   LREAL  =      F    real-space projection
   NLSPLINE    = F    spline interpolate recip. space projectors
   LCOMPAT=      F    compatible to vasp.4.4
   GGA_COMPAT  = T    GGA compatible to vasp.4.4-vasp.4.6
   LMAXPAW     = -100 max onsite density
   LMAXMIX     =    2 max onsite mixed and CHGCAR
   VOSKOWN=      0    Vosko Wilk Nusair interpolation
   ROPT   =    0.00000
 Ionic relaxation
   EDIFFG = -.2E-02   stopping-criterion for IOM
   NSW    =    100    number of steps for IOM
   NBLOCK =      1;   KBLOCK =    100    inner block; outer block 
   IBRION =      2    ionic relax: 0-MD 1-quasi-New 2-CG
   NFREE  =      1    steps in history (QN), initial steepest desc. (CG)
   ISIF   =      3    stress and relaxation
   IWAVPR =     11    prediction:  0-non 1-charg 2-wave 3-comb
   ISYM   =      2    0-nonsym 1-usesym 2-fastsym
   LCORR  =      T    Harris-Foulkes like correction to forces

   POTIM  = 0.5000    time-step for ionic-motion
   TEIN   =    0.0    initial temperature
   TEBEG  =    0.0;   TEEND  =   0.0 temperature during run
   SMASS  =  -3.00    Nose mass-parameter (am)
   estimated Nose-frequenzy (Omega)   =  0.10E-29 period in steps = 0.13E+47 mass=  -0.339E-27a.u.
   SCALEE = 1.0000    scale energy and forces
   NPACO  =    256;   APACO  = 16.0  distance and # of slots for P.C.
   PSTRESS=    0.0 pullay stress

  Mass of Ions in am
   POMASS =  28.09
  Ionic Valenz
   ZVAL   =   4.00
  Atomic Wigner-Seitz radii
   RWIGS  =  -1.00
  virtual crystal weights 
   VCA    =   1.00
   NELECT =       8.0000    total number of electrons
   NUPDOWN=      -1.0000    fix difference up-down

 DOS related values:
   EMIN   =  10.00;   EMAX   =-10.00  energy-range for DOS
   EFERMI =   0.00
   ISMEAR =     0;   SIGMA  =   0.05  broadening in eV -4-tet -1-fermi 0-gaus

 Electronic relaxation 2 (details)
   IALGO  =     38    algorithm
   LDIAG  =      T    sub-space diagonalisation (order eigenvalues)
   LSUBROT=      F    optimize rotation matrix (better conditioning)
   TURBO    =      0    0=normal 1=particle mesh
   IRESTART =      0    0=no restart 2=restart with 2 vectors
   NREBOOT  =      0    no. of reboots
   NMIN     =      0    reboot dimension
   EREF     =   0.00    reference energy to select bands
   IMIX   =      4    mixing-type and parameters
     AMIX     =   0.40;   BMIX     =  1.00
     AMIX_MAG =   1.60;   BMIX_MAG =  1.00
     AMIN     =   0.10
     WC   =   100.;   INIMIX=   1;  MIXPRE=   1;  MAXMIX= -45

 Intra band minimization:
   WEIMIN = 0.0010     energy-eigenvalue tresh-hold
   EBREAK =  0.31E-07  absolut break condition
   DEPER  =   0.30     relativ break condition  

   TIME   =   0.40     timestep for ELM

  volume/ion in A,a.u.               =      20.16       136.08
  Fermi-wavevector in a.u.,A,eV,Ry     =   0.954766  1.804247 12.402783  0.911579
  Thomas-Fermi vector in A             =   2.083543
 
 Write flags
   LWAVE        =      F    write WAVECAR
   LDOWNSAMPLE  =      F    k-point downsampling of WAVECAR
   LCHARG       =      F    write CHGCAR
   LVTOT        =      F    write LOCPOT, total local potential
   LVHAR        =      F    write LOCPOT, Hartree potential only
   LELF         =      F    write electronic localiz. function (ELF)
   LORBIT       =      0    0 simple, 1 ext, 2 COOP (PROOUT), +10 PAW based schemes


 Dipole corrections
   LMONO  =      F    monopole corrections only (constant potential shift)
   LDIPOL =      F    correct potential (dipole corrections)
   IDIPOL =      0    1-x, 2-y, 3-z, 4-all directions 
   EPSILON=  1.0000000 bulk dielectric constant

 Exchange correlation treatment:
   GGA     =    --    GGA type
   LEXCH   =     8    internal setting for exchange type
   VOSKOWN=      0    Vosko Wilk Nusair interpolation
   LHFCALC =     F    Hartree Fock is set to
   LHFONE  =     F    Hartree Fock one center treatment
   AEXX    =    0.0000 exact exchange contribution

 Linear response parameters
   LEPSILON=     F    determine dielectric tensor
   LRPA    =     F    only Hartree local field effects (RPA)
   LNABLA  =     F    use nabla operator in PAW spheres
   LVEL    =     F    velocity operator in full k-point grid
   LINTERFAST=   F  fast interpolation
   KINTER  =     0    interpolate to denser k-point grid
   CSHIFT  =0.1000    complex shift for real part using Kramers Kronig
   OMEGAMAX=  -1.0    maximum frequency
   DEG_THRESHOLD= 0.2000000E-02 threshold for treating states as degnerate
   RTIME   =   -0.100 relaxation time in fs
  (WPLASMAI=    0.000 imaginary part of plasma frequency in eV, 0.658/RTIME)
   DFIELD  = 0.0000000 0.0000000 0.0000000 field for delta impulse in time
 
 Orbital magnetization related:
   ORBITALMAG=     F  switch on orbital magnetization
   LCHIMAG   =     F  perturbation theory with respect to B field
   DQ        =  0.001000  dq finite difference perturbation B field
   LLRAUG    =     F  two centre corrections for induced B field



--------------------------------------------------------------------------------------------------------


 conjugate gradient relaxation of ions
 charge density and potential will be updated during run
 non-spin polarized calculation
 Variant of blocked Davidson
 Davidson routine will perform the subspace rotation
 perform sub-space diagonalisation
    after iterative eigenvector-optimisation
 modified Broyden-mixing scheme, WC =      100.0
 initial mixing is a Kerker type mixing with AMIX =  0.4000 and BMIX =      1.0000
 Hartree-type preconditioning will be used
 using additional bands            4
 reciprocal scheme for non local part
 use partial core corrections
 calculate Harris-corrections to forces 
   (improved forces if not selfconsistent)
 use gradient corrections 
 use of overlap-Matrix (Vanderbilt PP)
 Gauss-broadening in eV      SIGMA  =   0.05


--------------------------------------------------------------------------------------------------------


  energy-cutoff  :      350.00
  volume of cell :       40.33
      direct lattice vectors                 reciprocal lattice vectors
     3.333573000  0.000000000  1.924639000     0.299978432 -0.106058350  0.000000000
     1.111191000  3.142924000  1.924639000     0.000000000  0.318175050  0.000000000
     0.000000000  0.000000000  3.849278000    -0.149989216 -0.106058350  0.259788979

  length of vectors
     3.849278403  3.849279412  3.849278000     0.318175161  0.318175050  0.318175190


 
 k-points in units of 2pi/SCALE and weight: Automatic                               
   0.00000000  0.00000000  0.00000000       0.001
   0.03333094 -0.01178426  0.00000000       0.011
   0.06666187 -0.02356852  0.00000000       0.011
   0.09999281 -0.03535278  0.00000000       0.011
   0.13332375 -0.04713704  0.00000000       0.011
   0.03333094  0.02356852  0.00000000       0.008
   0.06666187  0.01178426  0.00000000       0.033
   0.09999281  0.00000000  0.00000000       0.033
   0.13332375 -0.01178426  0.00000000       0.033
  -0.13332375  0.08248983  0.00000000       0.033
  -0.09999281  0.07070557  0.00000000       0.033
  -0.06666187  0.05892131  0.00000000       0.033
  -0.03333094  0.04713704  0.00000000       0.016
   0.06666187  0.04713704  0.00000000       0.008
   0.09999281  0.03535278  0.00000000       0.033
   0.13332375  0.02356852  0.00000000       0.033
  -0.13332375  0.11784261  0.00000000       0.033
  -0.09999281  0.10605835  0.00000000       0.033
  -0.06666187  0.09427409  0.00000000       0.016
   0.09999281  0.07070557  0.00000000       0.008
   0.13332375  0.05892131  0.00000000       0.033
  -0.13332375  0.15319539  0.00000000       0.033
  -0.09999281  0.14141113  0.00000000       0.016
   0.13332375  0.09427409  0.00000000       0.008
  -0.13332375  0.18854818  0.00000000       0.016
   0.08332734  0.02356852  0.02886544       0.033
   0.11665828  0.01178426  0.02886544       0.066
  -0.14998922  0.10605835  0.02886544       0.066
   0.11665828  0.04713704  0.02886544       0.033
  -0.14998922  0.14141113  0.02886544       0.066
  -0.11665828  0.12962687  0.02886544       0.066
  -0.08332734  0.11784261  0.02886544       0.033
  -0.14998922  0.17676392  0.02886544       0.033
  -0.11665828  0.16497966  0.02886544       0.033
  -0.13332375  0.15319539  0.05773088       0.033
 
 k-points in reciprocal lattice and weights: Automatic                               
   0.00000000  0.00000000  0.00000000       0.001
   0.11111111  0.00000000  0.00000000       0.011
   0.22222222  0.00000000  0.00000000       0.011
   0.33333333 -0.00000000  0.00000000       0.011
   0.44444444  0.00000000  0.00000000       0.011
   0.11111111  0.11111111  0.00000000       0.008
   0.22222222  0.11111111  0.00000000       0.033
   0.33333333  0.11111111  0.00000000       0.033
   0.44444444  0.11111111  0.00000000       0.033
  -0.44444444  0.11111111  0.00000000       0.033
  -0.33333333  0.11111111  0.00000000       0.033
  -0.22222222  0.11111111  0.00000000       0.033
  -0.11111111  0.11111111  0.00000000       0.016
   0.22222222  0.22222222  0.00000000       0.008
   0.33333333  0.22222222  0.00000000       0.033
   0.44444444  0.22222222  0.00000000       0.033
  -0.44444444  0.22222222  0.00000000       0.033
  -0.33333333  0.22222222  0.00000000       0.033
  -0.22222222  0.22222222  0.00000000       0.016
   0.33333333  0.33333333  0.00000000       0.008
   0.44444444  0.33333333  0.00000000       0.033
  -0.44444444  0.33333333  0.00000000       0.033
  -0.33333333  0.33333333  0.00000000       0.016
   0.44444444  0.44444444  0.00000000       0.008
  -0.44444444  0.44444444  0.00000000       0.016
   0.33333333  0.22222222  0.11111111       0.033
   0.44444444  0.22222222  0.11111111       0.066
  -0.44444444  0.22222222  0.11111111       0.066
   0.44444444  0.33333333  0.11111111       0.033
  -0.44444444  0.33333333  0.11111111       0.066
  -0.33333333  0.33333333  0.11111111       0.066
  -0.22222222  0.33333333  0.11111111       0.033
  -0.44444444  0.44444444  0.11111111       0.033
  -0.33333333  0.44444444  0.11111111       0.033
  -0.33333333  0.44444444  0.22222222       0.033
 
 position of ions in fractional coordinates (direct lattice) 
   0.87500000  0.87500000  0.87500000
   0.12500000  0.12500000  0.12500000
 
 position of ions in cartesian coordinates  (Angst):
   3.88916850  2.75005850  6.73623650
   0.55559550  0.39286550  0.96231950
 


--------------------------------------------------------------------------------------------------------


 k-point   1 :   0.0000 0.0000 0.0000  plane waves:     609
 k-point   2 :   0.1111 0.0000 0.0000  plane waves:     585
 k-point   3 :   0.2222 0.0000 0.0000  plane waves:     589
 k-point   4 :   0.3333-0.0000 0.0000  plane waves:     601
 k-point   5 :   0.4444 0.0000 0.0000  plane waves:     595
 k-point   6 :   0.1111 0.1111 0.0000  plane waves:     593
 k-point   7 :   0.2222 0.1111 0.0000  plane waves:     588
 k-point   8 :   0.3333 0.1111 0.0000  plane waves:     596
 k-point   9 :   0.4444 0.1111 0.0000  plane waves:     598
 k-point  10 :  -0.4444 0.1111 0.0000  plane waves:     597
 k-point  11 :  -0.3333 0.1111 0.0000  plane waves:     604
 k-point  12 :  -0.2222 0.1111 0.0000  plane waves:     598
 k-point  13 :  -0.1111 0.1111 0.0000  plane waves:     586
 k-point  14 :   0.2222 0.2222 0.0000  plane waves:     584
 k-point  15 :   0.3333 0.2222 0.0000  plane waves:     605
 k-point  16 :   0.4444 0.2222 0.0000  plane waves:     605
 k-point  17 :  -0.4444 0.2222 0.0000  plane waves:     599
 k-point  18 :  -0.3333 0.2222 0.0000  plane waves:     595
 k-point  19 :  -0.2222 0.2222 0.0000  plane waves:     602
 k-point  20 :   0.3333 0.3333 0.0000  plane waves:     612
 k-point  21 :   0.4444 0.3333 0.0000  plane waves:     597
 k-point  22 :  -0.4444 0.3333 0.0000  plane waves:     610
 k-point  23 :  -0.3333 0.3333 0.0000  plane waves:     606
 k-point  24 :   0.4444 0.4444 0.0000  plane waves:     612
 k-point  25 :  -0.4444 0.4444 0.0000  plane waves:     608
 k-point  26 :   0.3333 0.2222 0.1111  plane waves:     595
 k-point  27 :   0.4444 0.2222 0.1111  plane waves:     602
 k-point  28 :  -0.4444 0.2222 0.1111  plane waves:     597
 k-point  29 :   0.4444 0.3333 0.1111  plane waves:     601
 k-point  30 :  -0.4444 0.3333 0.1111  plane waves:     601
 k-point  31 :  -0.3333 0.3333 0.1111  plane waves:     600
 k-point  32 :  -0.2222 0.3333 0.1111  plane waves:     600
 k-point  33 :  -0.4444 0.4444 0.1111  plane waves:     605
 k-point  34 :  -0.3333 0.4444 0.1111  plane waves:     607
 k-point  35 :  -0.3333 0.4444 0.2222  plane waves:     607

 maximum and minimum number of plane-waves per node :       612      584

 maximum number of plane-waves:       612
 maximum index in each direction: 
   IXMAX=    6   IYMAX=    5   IZMAX=    5
   IXMIN=   -6   IYMIN=   -6   IZMIN=   -6


 serial   3D FFT for wavefunctions
 parallel 3D FFT for charge:
    minimum data exchange during FFTs selected (reduces bandwidth)


 total amount of memory used by VASP MPI-rank0    38202. kBytes
=======================================================================

   base      :      30000. kBytes
   nonl-proj :       1390. kBytes
   fftplans  :       4177. kBytes
   grid      :       1926. kBytes
   one-center:          6. kBytes
   wavefun   :        703. kBytes
 
     INWAV:  cpu time    0.0000: real time    0.0006
 Broyden mixing: mesh for mixing (old mesh)
   NGX = 11   NGY = 11   NGZ = 11
  (NGX  = 48   NGY  = 48   NGZ  = 48)
  gives a total of   1331 points

 initial charge density was supplied:
 charge density of overlapping atoms calculated
 number of electron       8.0000000 magnetization 
 keeping initial charge density in first step


--------------------------------------------------------------------------------------------------------


 Maximum index for augmentation-charges        22271 (set IRDMAX)


--------------------------------------------------------------------------------------------------------


 First call to EWALD:  gamma=   0.517
 Maximum number of real-space cells 3x 3x 3
 Maximum number of reciprocal cells 3x 3x 3

    FEWALD:  cpu time    0.0030: real time    0.0035


--------------------------------------- Iteration      1(   1)  ---------------------------------------


    POTLOK:  cpu time    0.0310: real time    0.0343
    SETDIJ:  cpu time    0.1770: real time    0.1776
     EDDAV:  cpu time    0.2870: real time    0.2860
       DOS:  cpu time    0.0000: real time    0.0011
    --------------------------------------------
      LOOP:  cpu time    0.4949: real time    0.4994

 eigenvalue-minimisations  :   568
 total energy-change (2. order) : 0.2662213E+01  (-0.2623164E+03)
 number of electron       8.0000000 magnetization 
 augmentation part        8.0000000 magnetization 

 Free energy of the ion-electron system (eV)
  ---------------------------------------------------
  alpha Z        PSCENC =         3.33880741
  Ewald energy   TEWEN  =      -227.98820643
  -Hartree energ DENC   =       -11.11484531
  -exchange      EXHF   =         0.00000000
  -V(xc)+E(xc)   XCENC  =       -18.63153637
  PAW double counting   =       176.24759923     -141.06103558
  entropy T*S    EENTRO =        -0.00203282
  eigenvalues    EBANDS =        15.74220887
  atomic energy  EATOM  =       206.13125414
  Solvation  Ediel_sol  =         0.00000000
  ---------------------------------------------------
  free energy    TOTEN  =         2.66221314 eV

  energy without entropy =        2.66424596  energy(sigma->0) =        2.66322955


--------------------------------------------------------------------------------------------------------




--------------------------------------- Iteration      1(   2)  ---------------------------------------


     EDDAV:  cpu time    0.4239: real time    0.4407
       DOS:  cpu time    0.0000: real time    0.0010
    --------------------------------------------
      LOOP:  cpu time    0.4249: real time    0.4416

 eigenvalue-minimisations  :   896
 total energy-change (2. order) :-0.1354237E+02  (-0.1300048E+02)
 number of electron       8.0000000 magnetization 
 augmentation part        8.0000000 magnetization 

 Free energy of the ion-electron system (eV)
  ---------------------------------------------------
  alpha Z        PSCENC =         3.33880741
  Ewald energy   TEWEN  =      -227.98820643
  -Hartree energ DENC   =       -11.11484531
  -exchange      EXHF   =         0.00000000
  -V(xc)+E(xc)   XCENC  =       -18.63153637
  PAW double counting   =       176.24759923     -141.06103558
  entropy T*S    EENTRO =        -0.00000000
  eigenvalues    EBANDS =         2.19780851
  atomic energy  EATOM  =       206.13125414
  Solvation  Ediel_sol  =         0.00000000
  ---------------------------------------------------
  free energy    TOTEN  =       -10.88015441 eV

  energy without entropy =      -10.88015441  energy(sigma->0) =      -10.88015441


--------------------------------------------------------------------------------------------------------




--------------------------------------- Iteration      1(   3)  ---------------------------------------


     EDDAV:  cpu time    0.3329: real time    0.3421
       DOS:  cpu time    0.0010: real time    0.0008
    --------------------------------------------
      LOOP:  cpu time    0.3329: real time    0.3430

 eigenvalue-minimisations  :   672
 total energy-change (2. order) :-0.1393551E+00  (-0.1393551E+00)
 number of electron       8.0000000 magnetization 
 augmentation part        8.0000000 magnetization 

 Free energy of the ion-electron system (eV)
  ---------------------------------------------------
  alpha Z        PSCENC =         3.33880741
  Ewald energy   TEWEN  =      -227.98820643
  -Hartree energ DENC   =       -11.11484531
  -exchange      EXHF   =         0.00000000
  -V(xc)+E(xc)   XCENC  =       -18.63153637
  PAW double counting   =       176.24759923     -141.06103558
  entropy T*S    EENTRO =        -0.00000000
  eigenvalues    EBANDS =         2.05845336
  atomic energy  EATOM  =       206.13125414
  Solvation  Ediel_sol  =         0.00000000
  ---------------------------------------------------
  free energy    TOTEN  =       -11.01950955 eV

  energy without entropy =      -11.01950955  energy(sigma->0) =      -11.01950955


--------------------------------------------------------------------------------------------------------




--------------------------------------- Iteration      1(   4)  ---------------------------------------


     EDDAV:  cpu time    0.4279: real time    0.4355
       DOS:  cpu time    0.0010: real time    0.0009
    --------------------------------------------
      LOOP:  cpu time    0.4289: real time    0.4363

 eigenvalue-minimisations  :   896
 total energy-change (2. order) :-0.6960945E-03  (-0.6960945E-03)
 number of electron       8.0000000 magnetization 
 augmentation part        8.0000000 magnetization 

 Free energy of the ion-electron system (eV)
  ---------------------------------------------------
  alpha Z        PSCENC =         3.33880741
  Ewald energy   TEWEN  =      -227.98820643
  -Hartree energ DENC   =       -11.11484531
  -exchange      EXHF   =         0.00000000
  -V(xc)+E(xc)   XCENC  =       -18.63153637
  PAW double counting   =       176.24759923     -141.06103558
  entropy T*S    EENTRO =        -0.00000000
  eigenvalues    EBANDS =         2.05775727
  atomic energy  EATOM  =       206.13125414
  Solvation  Ediel_sol  =         0.00000000
  ---------------------------------------------------
  free energy    TOTEN  =       -11.02020565 eV

  energy without entropy =      -11.02020565  energy(sigma->0) =      -11.02020565


--------------------------------------------------------------------------------------------------------




--------------------------------------- Iteration      1(   5)  ---------------------------------------


     EDDAV:  cpu time    0.3519: real time    0.3697
       DOS:  cpu time    0.0010: real time    0.0010
    CHARGE:  cpu time    0.0440: real time    0.0444
    MIXING:  cpu time    0.0010: real time    0.0015
    --------------------------------------------
      LOOP:  cpu time    0.3989: real time    0.4166

 eigenvalue-minimisations  :   712
 total energy-change (2. order) :-0.2797694E-06  (-0.2797925E-06)
 number of electron       8.0000000 magnetization 
 augmentation part       -0.4702930 magnetization 

 Broyden mixing:
  rms(total) = 0.48604E+00    rms(broyden)= 0.48603E+00
  rms(prec ) = 0.94731E+00
  weight for this iteration     100.00

 Free energy of the ion-electron system (eV)
  ---------------------------------------------------
  alpha Z        PSCENC =         3.33880741
  Ewald energy   TEWEN  =      -227.98820643
  -Hartree energ DENC   =       -11.11484531
  -exchange      EXHF   =         0.00000000
  -V(xc)+E(xc)   XCENC  =       -18.63153637
  PAW double counting   =       176.24759923     -141.06103558
  entropy T*S    EENTRO =        -0.00000000
  eigenvalues    EBANDS =         2.05775699
  atomic energy  EATOM  =       206.13125414
  Solvation  Ediel_sol  =         0.00000000
  ---------------------------------------------------
  free energy    TOTEN  =       -11.02020593 eV

  energy without entropy =      -11.02020593  energy(sigma->0) =      -11.02020593


--------------------------------------------------------------------------------------------------------




--------------------------------------- Iteration      1(   6)  ---------------------------------------


    POTLOK:  cpu time    0.0330: real time    0.0389
    SETDIJ:  cpu time    0.1740: real time    0.1752
     EDDAV:  cpu time    0.3399: real time    0.3404
       DOS:  cpu time    0.0010: real time    0.0009
    CHARGE:  cpu time    0.0370: real time    0.0374
    MIXING:  cpu time    0.0010: real time    0.0015
    --------------------------------------------
      LOOP:  cpu time    0.5859: real time    0.5943

 eigenvalue-minimisations  :   688
 total energy-change (2. order) : 0.1217604E+00  (-0.8011914E-02)
 number of electron       8.0000000 magnetization 
 augmentation part       -0.4645158 magnetization 

 Broyden mixing:
  rms(total) = 0.29738E+00    rms(broyden)= 0.29738E+00
  rms(prec ) = 0.56350E+00
  weight for this iteration     100.00

 eigenvalues of (default mixing * dielectric matrix)
  average eigenvalue GAMMA=   2.5668
  2.5668

 Free energy of the ion-electron system (eV)
  ---------------------------------------------------
  alpha Z        PSCENC =         3.33880741
  Ewald energy   TEWEN  =      -227.98820643
  -Hartree energ DENC   =       -12.60171242
  -exchange      EXHF   =         0.00000000
  -V(xc)+E(xc)   XCENC  =       -18.39609713
  PAW double counting   =       378.76119061     -343.68273924
  entropy T*S    EENTRO =        -0.00000000
  eigenvalues    EBANDS =         3.53905756
  atomic energy  EATOM  =       206.13125414
  Solvation  Ediel_sol  =         0.00000000
  ---------------------------------------------------
  free energy    TOTEN  =       -10.89844550 eV

  energy without entropy =      -10.89844550  energy(sigma->0) =      -10.89844550


--------------------------------------------------------------------------------------------------------




--------------------------------------- Iteration      1(   7)  ---------------------------------------


    POTLOK:  cpu time    0.0320: real time    0.0477
    SETDIJ:  cpu time    0.1730: real time    0.1732
     EDDAV:  cpu time    0.3359: real time    0.3362
       DOS:  cpu time    0.0010: real time    0.0008
    CHARGE:  cpu time    0.0360: real time    0.0373
    MIXING:  cpu time    0.0020: real time    0.0015
    --------------------------------------------
      LOOP:  cpu time    0.5789: real time    0.5966

 eigenvalue-minimisations  :   688
 total energy-change (2. order) : 0.5570778E-01  (-0.1520657E-01)
 number of electron       8.0000000 magnetization 
 augmentation part       -0.4574723 magnetization 

 Broyden mixing:
  rms(total) = 0.18692E-01    rms(broyden)= 0.18692E-01
  rms(prec ) = 0.41339E-01
  weight for this iteration     100.00

 eigenvalues of (default mixing * dielectric matrix)
  average eigenvalue GAMMA=   2.0697
  1.7510  2.3884

 Free energy of the ion-electron system (eV)
  ---------------------------------------------------
  alpha Z        PSCENC =         3.33880741
  Ewald energy   TEWEN  =      -227.98820643
  -Hartree energ DENC   =       -15.03296197
  -exchange      EXHF   =         0.00000000
  -V(xc)+E(xc)   XCENC  =       -18.00355839
  PAW double counting   =       863.17031219     -828.23174677
  entropy T*S    EENTRO =        -0.00000000
  eigenvalues    EBANDS =         5.77336209
  atomic energy  EATOM  =       206.13125414
  Solvation  Ediel_sol  =         0.00000000
  ---------------------------------------------------
  free energy    TOTEN  =       -10.84273772 eV

  energy without entropy =      -10.84273772  energy(sigma->0) =      -10.84273772


--------------------------------------------------------------------------------------------------------




--------------------------------------- Iteration      1(   8)  ---------------------------------------


    POTLOK:  cpu time    0.0310: real time    0.0386
    SETDIJ:  cpu time    0.1730: real time    0.1731
     EDDAV:  cpu time    0.3130: real time    0.3139
       DOS:  cpu time    0.0010: real time    0.0007
    CHARGE:  cpu time    0.0430: real time    0.0434
    MIXING:  cpu time    0.0010: real time    0.0016
    --------------------------------------------
      LOOP:  cpu time    0.5629: real time    0.5713

 eigenvalue-minimisations  :   616
 total energy-change (2. order) :-0.1081321E-02  (-0.3934550E-03)
 number of electron       8.0000000 magnetization 
 augmentation part       -0.4584600 magnetization 

 Broyden mixing:
  rms(total) = 0.75169E-02    rms(broyden)= 0.75166E-02
  rms(prec ) = 0.13057E-01
  weight for this iteration     100.00

 eigenvalues of (default mixing * dielectric matrix)
  average eigenvalue GAMMA=   2.2565
  2.8111  1.9792  1.9792

 Free energy of the ion-electron system (eV)
  ---------------------------------------------------
  alpha Z        PSCENC =         3.33880741
  Ewald energy   TEWEN  =      -227.98820643
  -Hartree energ DENC   =       -14.96273843
  -exchange      EXHF   =         0.00000000
  -V(xc)+E(xc)   XCENC  =       -18.00329617
  PAW double counting   =       873.47795656     -838.51254914
  entropy T*S    EENTRO =        -0.00000000
  eigenvalues    EBANDS =         5.67495300
  atomic energy  EATOM  =       206.13125414
  Solvation  Ediel_sol  =         0.00000000
  ---------------------------------------------------
  free energy    TOTEN  =       -10.84381905 eV

  energy without entropy =      -10.84381905  energy(sigma->0) =      -10.84381905


--------------------------------------------------------------------------------------------------------




--------------------------------------- Iteration      1(   9)  ---------------------------------------


    POTLOK:  cpu time    0.0370: real time    0.0478
    SETDIJ:  cpu time    0.1740: real time    0.1745
     EDDAV:  cpu time    0.4039: real time    0.4050
       DOS:  cpu time    0.0010: real time    0.0009
    CHARGE:  cpu time    0.0380: real time    0.0377
    MIXING:  cpu time    0.0000: real time    0.0015
    --------------------------------------------
      LOOP:  cpu time    0.6539: real time    0.6673

 eigenvalue-minimisations  :   840
 total energy-change (2. order) :-0.1900561E-03  (-0.1874089E-04)
 number of electron       8.0000000 magnetization 
 augmentation part       -0.4585721 magnetization 

 Broyden mixing:
  rms(total) = 0.55430E-02    rms(broyden)= 0.55429E-02
  rms(prec ) = 0.64595E-02
  weight for this iteration     100.00

 eigenvalues of (default mixing * dielectric matrix)
  average eigenvalue GAMMA=   2.1196
  0.9507  2.6116  2.6116  2.3047

 Free energy of the ion-electron system (eV)
  ---------------------------------------------------
  alpha Z        PSCENC =         3.33880741
  Ewald energy   TEWEN  =      -227.98820643
  -Hartree energ DENC   =       -15.00354772
  -exchange      EXHF   =         0.00000000
  -V(xc)+E(xc)   XCENC  =       -17.99535991
  PAW double counting   =       874.83256903     -839.86491483
  entropy T*S    EENTRO =        -0.00000000
  eigenvalues    EBANDS =         5.70538920
  atomic energy  EATOM  =       206.13125414
  Solvation  Ediel_sol  =         0.00000000
  ---------------------------------------------------
  free energy    TOTEN  =       -10.84400910 eV

  energy without entropy =      -10.84400910  energy(sigma->0) =      -10.84400910


--------------------------------------------------------------------------------------------------------




--------------------------------------- Iteration      1(  10)  ---------------------------------------


    POTLOK:  cpu time    0.0330: real time    0.0398
    SETDIJ:  cpu time    0.1730: real time    0.1731
     EDDAV:  cpu time    0.3170: real time    0.3180
       DOS:  cpu time    0.0010: real time    0.0007
    CHARGE:  cpu time    0.0370: real time    0.0375
    MIXING:  cpu time    0.0020: real time    0.0016
    --------------------------------------------
      LOOP:  cpu time    0.5619: real time    0.5707

 eigenvalue-minimisations  :   624
 total energy-change (2. order) :-0.2764250E-04  (-0.3352724E-05)
 number of electron       8.0000000 magnetization 
 augmentation part       -0.4585540 magnetization 

 Broyden mixing:
  rms(total) = 0.96225E-03    rms(broyden)= 0.96224E-03
  rms(prec ) = 0.10349E-02
  weight for this iteration     100.00

 eigenvalues of (default mixing * dielectric matrix)
  average eigenvalue GAMMA=   1.9105
  2.8914  2.4412  2.0557  1.0822  1.0822

 Free energy of the ion-electron system (eV)
  ---------------------------------------------------
  alpha Z        PSCENC =         3.33880741
  Ewald energy   TEWEN  =      -227.98820643
  -Hartree energ DENC   =       -15.01174775
  -exchange      EXHF   =         0.00000000
  -V(xc)+E(xc)   XCENC  =       -17.99488393
  PAW double counting   =       863.58922590     -828.62132032
  entropy T*S    EENTRO =        -0.00000000
  eigenvalues    EBANDS =         5.71283424
  atomic energy  EATOM  =       206.13125414
  Solvation  Ediel_sol  =         0.00000000
  ---------------------------------------------------
  free energy    TOTEN  =       -10.84403674 eV

  energy without entropy =      -10.84403674  energy(sigma->0) =      -10.84403674


--------------------------------------------------------------------------------------------------------




--------------------------------------- Iteration      1(  11)  ---------------------------------------


    POTLOK:  cpu time    0.0320: real time    0.0420
    SETDIJ:  cpu time    0.1720: real time    0.1728
     EDDAV:  cpu time    0.3749: real time    0.3762
       DOS:  cpu time    0.0010: real time    0.0008
    --------------------------------------------
      LOOP:  cpu time    0.5799: real time    0.5917

 eigenvalue-minimisations  :   768
 total energy-change (2. order) : 0.2983645E-06  (-0.4557592E-07)
 number of electron       8.0000000 magnetization 
 augmentation part       -0.4585540 magnetization 

 Free energy of the ion-electron system (eV)
  ---------------------------------------------------
  alpha Z        PSCENC =         3.33880741
  Ewald energy   TEWEN  =      -227.98820643
  -Hartree energ DENC   =       -15.01068674
  -exchange      EXHF   =         0.00000000
  -V(xc)+E(xc)   XCENC  =       -17.99491097
  PAW double counting   =       865.04721997     -830.07892010
  entropy T*S    EENTRO =        -0.00000000
  eigenvalues    EBANDS =         5.71140627
  atomic energy  EATOM  =       206.13125414
  Solvation  Ediel_sol  =         0.00000000
  ---------------------------------------------------
  free energy    TOTEN  =       -10.84403645 eV

  energy without entropy =      -10.84403645  energy(sigma->0) =      -10.84403645


--------------------------------------------------------------------------------------------------------




 average (electrostatic) potential at core
  the test charge radii are     0.9892
  (the norm of the test charge is              1.0000)
       1 -83.3285       2 -83.3285
 
 
 
 E-fermi :   5.9710     XC(G=0):  -9.3811     alpha+bet :-11.8943

 Fermi energy:         5.9710113608

 k-point     1 :       0.0000    0.0000    0.0000
  band No.  band energies     occupation 
      1      -6.1544      2.00000
      2       5.7547      2.00000
      3       5.7547      2.00000
      4       5.7547      2.00000
      5       8.3178      0.00000
      6       8.3178      0.00000
      7       8.3178      0.00000
      8       9.0448      0.00000

 k-point     2 :       0.1111    0.0000    0.0000
  band No.  band energies     occupation 
      1      -5.9939      2.00000
      2       4.4135      2.00000
      3       5.5192      2.00000
      4       5.5192      2.00000
      5       8.2836      0.00000
      6       8.6655      0.00000
      7       8.6655      0.00000
      8      10.1679      0.00000

 k-point     3 :       0.2222    0.0000    0.0000
  band No.  band energies     occupation 
      1      -5.5223      2.00000
      2       2.3461      2.00000
      3       5.0976      2.00000
      4       5.0976      2.00000
      5       7.8673      0.00000
      6       9.1925      0.00000
      7       9.1925      0.00000
      8      12.1433      0.00000

 k-point     4 :       0.3333   -0.0000    0.0000
  band No.  band energies     occupation 
      1      -4.7868      2.00000
      2       0.4445      2.00000
      3       4.7611      2.00000
      4       4.7611      2.00000
      5       7.4957      0.00000
      6       9.2630      0.00000
      7       9.2630      0.00000
      8      13.5969      0.00000

 k-point     5 :       0.4444    0.0000    0.0000
  band No.  band energies     occupation 
      1      -4.0023      2.00000
      2      -0.9412      2.00000
      3       4.5858      2.00000
      4       4.5858      2.00000
      5       7.2957      0.00000
      6       9.1252      0.00000
      7       9.1252      0.00000
      8      13.5131      0.00000

 k-point     6 :       0.1111    0.1111    0.0000
  band No.  band energies     occupation 
      1      -5.9399      2.00000
      2       4.6391      2.00000
      3       5.0834      2.00000
      4       5.0834      2.00000
      5       7.8673      0.00000
      6       9.2529      0.00000
      7       9.2529      0.00000
      8       9.9913      0.00000

 k-point     7 :       0.2222    0.1111    0.0000
  band No.  band energies     occupation 
      1      -5.5701      2.00000
      2       2.9633      2.00000
      3       4.6128      2.00000
      4       4.7470      2.00000
      5       7.9564      0.00000
      6       9.2724      0.00000
      7       9.9635      0.00000
      8      10.6547      0.00000

 k-point     8 :       0.3333    0.1111    0.0000
  band No.  band energies     occupation 
      1      -4.9135      2.00000
      2       1.0665      2.00000
      3       4.2437      2.00000
      4       4.3091      2.00000
      5       8.0733      0.00000
      6       9.2438      0.00000
      7      10.1331      0.00000
      8      11.0911      0.00000

 k-point     9 :       0.4444    0.1111    0.0000
  band No.  band energies     occupation 
      1      -4.0934      2.00000
      2      -0.5135      2.00000
      3       3.8102      2.00000
      4       4.2269      2.00000
      5       7.9501      0.00000
      6       9.1513      0.00000
      7       9.8554      0.00000
      8      12.5268      0.00000

 k-point    10 :      -0.4444    0.1111    0.0000
  band No.  band energies     occupation 
      1      -3.7184      2.00000
      2      -1.0810      2.00000
      3       3.5532      2.00000
      4       4.3655      2.00000
      5       7.9542      0.00000
      6       9.1738      0.00000
      7       9.5933      0.00000
      8      13.9135      0.00000

 k-point    11 :      -0.3333    0.1111    0.0000
  band No.  band energies     occupation 
      1      -4.3696      2.00000
      2      -0.0404      2.00000
      3       3.5201      2.00000
      4       4.6935      2.00000
      5       8.1404      0.00000
      6       9.3977      0.00000
      7       9.4712      0.00000
      8      13.1358      0.00000

 k-point    12 :      -0.2222    0.1111    0.0000
  band No.  band energies     occupation 
      1      -5.1628      2.00000
      2       1.6785      2.00000
      3       3.7525      2.00000
      4       5.1403      2.00000
      5       8.4652      0.00000
      6       9.2599      0.00000
      7       9.5392      0.00000
      8      11.8228      0.00000

 k-point    13 :      -0.1111    0.1111    0.0000
  band No.  band energies     occupation 
      1      -5.7289      2.00000
      2       3.4354      2.00000
      3       4.4010      2.00000
      4       5.5317      2.00000
      5       8.7464      0.00000
      6       8.7594      0.00000
      7       8.9662      0.00000
      8      11.1030      0.00000

 k-point    14 :       0.2222    0.2222    0.0000
  band No.  band energies     occupation 
      1      -5.3026      2.00000
      2       2.7348      2.00000
      3       4.0950      2.00000
      4       4.0950      2.00000
      5       7.0708      0.00000
      6       9.3101      0.00000
      7      11.0100      0.00000
      8      11.0100      0.00000

 k-point    15 :       0.3333    0.2222    0.0000
  band No.  band energies     occupation 
      1      -4.7367      2.00000
      2       1.4091      2.00000
      3       3.4726      2.00000
      4       3.7546      2.00000
      5       7.2249      0.00000
      6       8.9286      0.00000
      7      11.2527      0.00000
      8      11.5826      0.00000

 k-point    16 :       0.4444    0.2222    0.0000
  band No.  band energies     occupation 
      1      -3.9430      2.00000
      2      -0.0529      2.00000
      3       2.7356      2.00000
      4       3.6568      2.00000
      5       7.4091      0.00000
      6       9.9443      0.00000
      7      11.0100      0.00000
      8      11.3947      0.00000

 k-point    17 :      -0.4444    0.2222    0.0000
  band No.  band energies     occupation 
      1      -3.2937      2.00000
      2      -0.9874      2.00000
      3       2.2187      2.00000
      4       3.8108      2.00000
      5       7.5585      0.00000
      6      10.7617      0.00000
      7      11.0131      0.00000
      8      11.9264      0.00000

 k-point    18 :      -0.3333    0.2222    0.0000
  band No.  band energies     occupation 
      1      -3.7026      2.00000
      2      -0.4139      2.00000
      3       2.0396      2.00000
      4       4.1892      2.00000
      5       7.9425      0.00000
      6      10.6756      0.00000
      7      10.7045      0.00000
      8      12.9393      0.00000

 k-point    19 :      -0.2222    0.2222    0.0000
  band No.  band energies     occupation 
      1      -4.5194      2.00000
      2       0.8258      2.00000
      3       2.4238      2.00000
      4       4.7077      2.00000
      5       8.4691      0.00000
      6      10.0726      0.00000
      7      10.3989      0.00000
      8      11.6028      0.00000

 k-point    20 :       0.3333    0.3333    0.0000
  band No.  band energies     occupation 
      1      -4.2619      2.00000
      2       0.7527      2.00000
      3       3.3558      2.00000
      4       3.3558      2.00000
      5       6.4941      0.00000
      6       7.7587      0.00000
      7      12.9897      0.00000
      8      12.9897      0.00000

 k-point    21 :       0.4444    0.3333    0.0000
  band No.  band energies     occupation 
      1      -3.5277      2.00000
      2      -0.2924      2.00000
      3       2.6363      2.00000
      4       3.1994      2.00000
      5       6.7366      0.00000
      6       7.8041      0.00000
      7      13.2940      0.00000
      8      13.3388      0.00000

 k-point    22 :      -0.4444    0.3333    0.0000
  band No.  band energies     occupation 
      1      -2.7395      2.00000
      2      -1.1844      2.00000
      3       1.7391      2.00000
      4       3.3059      2.00000
      5       6.9333      0.00000
      6       9.3982      0.00000
      7      12.9627      0.00000
      8      13.0867      0.00000

 k-point    23 :      -0.3333    0.3333    0.0000
  band No.  band energies     occupation 
      1      -2.9134      2.00000
      2      -0.9943      2.00000
      3       1.3789      2.00000
      4       3.6589      2.00000
      5       7.3308      0.00000
      6      11.5493      0.00000
      7      12.2111      0.00000
      8      12.7985      0.00000

 k-point    24 :       0.4444    0.4444    0.0000
  band No.  band energies     occupation 
      1      -2.8564      2.00000
      2      -1.1517      2.00000
      3       2.9724      2.00000
      4       2.9724      2.00000
      5       6.3532      0.00000
      6       6.7529      0.00000
      7      15.0622      0.00000
      8      15.0622      0.00000

 k-point    25 :      -0.4444    0.4444    0.0000
  band No.  band energies     occupation 
      1      -2.0893      2.00000
      2      -1.9197      2.00000
      3       2.3628      2.00000
      4       3.0096      2.00000
      5       6.5794      0.00000
      6       7.4055      0.00000
      7      14.9396      0.00000
      8      15.2664      0.00000

 k-point    26 :       0.3333    0.2222    0.1111
  band No.  band energies     occupation 
      1      -5.1032      2.00000
      2       1.9725      2.00000
      3       3.4050      2.00000
      4       4.5967      2.00000
      5       8.1350      0.00000
      6       9.5595      0.00000
      7      10.1537      0.00000
      8      10.7667      0.00000

 k-point    27 :       0.4444    0.2222    0.1111
  band No.  band energies     occupation 
      1      -4.3727      2.00000
      2       0.4917      2.00000
      3       2.7998      2.00000
      4       4.1628      2.00000
      5       8.5206      0.00000
      6       9.3544      0.00000
      7      10.5370      0.00000
      8      11.2075      0.00000

 k-point    28 :      -0.4444    0.2222    0.1111
  band No.  band energies     occupation 
      1      -3.5826      2.00000
      2      -0.7874      2.00000
      3       2.6065      2.00000
      4       3.8423      2.00000
      5       8.6154      0.00000
      6       8.9544      0.00000
      7      11.1517      0.00000
      8      12.2726      0.00000

 k-point    29 :       0.4444    0.3333    0.1111
  band No.  band energies     occupation 
      1      -4.0890      2.00000
      2       0.4515      2.00000
      3       2.6979      2.00000
      4       3.3837      2.00000
      5       7.5840      0.00000
      6       8.5903      0.00000
      7      11.1857      0.00000
      8      12.9010      0.00000

 k-point    30 :      -0.4444    0.3333    0.1111
  band No.  band energies     occupation 
      1      -3.2680      2.00000
      2      -0.6258      2.00000
      3       2.0379      2.00000
      4       3.0804      2.00000
      5       7.9872      0.00000
      6       9.6807      0.00000
      7      10.7482      0.00000
      8      13.3008      0.00000

 k-point    31 :      -0.3333    0.3333    0.1111
  band No.  band energies     occupation 
      1      -2.9061      2.00000
      2      -1.0478      2.00000
      3       1.6542      2.00000
      4       3.1919      2.00000
      5       8.2773      0.00000
      6      10.2682      0.00000
      7      11.8058      0.00000
      8      12.3557      0.00000

 k-point    32 :      -0.2222    0.3333    0.1111
  band No.  band energies     occupation 
      1      -3.6017      2.00000
      2      -0.2516      2.00000
      3       1.8011      2.00000
      4       3.6255      2.00000
      5       8.7856      0.00000
      6       9.7727      0.00000
      7      10.6292      0.00000
      8      12.6590      0.00000

 k-point    33 :      -0.4444    0.4444    0.1111
  band No.  band energies     occupation 
      1      -2.7413      2.00000
      2      -1.1682      2.00000
      3       2.4127      2.00000
      4       2.6213      2.00000
      5       7.4110      0.00000
      6       7.7221      0.00000
      7      12.9544      0.00000
      8      14.8294      0.00000

 k-point    34 :      -0.3333    0.4444    0.1111
  band No.  band energies     occupation 
      1      -2.2234      2.00000
      2      -1.6261      2.00000
      3       1.6956      2.00000
      4       2.7088      2.00000
      5       7.7807      0.00000
      6       9.4154      0.00000
      7      12.4085      0.00000
      8      12.6651      0.00000

 k-point    35 :      -0.3333    0.4444    0.2222
  band No.  band energies     occupation 
      1      -2.4677      2.00000
      2      -1.3140      2.00000
      3       1.7338      2.00000
      4       2.3717      2.00000
      5       9.6037      0.00000
      6       9.6998      0.00000
      7      10.3734      0.00000
      8      12.1141      0.00000


--------------------------------------------------------------------------------------------------------


 soft charge-density along one line, spin component           1
         0         1         2         3         4         5         6         7         8         9
 total charge-density along one line
 
 pseudopotential strength for first ion, spin component:           1
 18.422  25.702   0.000   0.000   0.000   0.000   0.000   0.000
 25.702  35.863   0.000   0.000   0.000   0.000   0.000   0.000
  0.000   0.000   4.179  -0.000  -0.000   7.788  -0.000  -0.000
  0.000   0.000  -0.000   4.179  -0.000  -0.000   7.788  -0.000
  0.000   0.000  -0.000  -0.000   4.179  -0.000  -0.000   7.788
  0.000   0.000   7.788  -0.000  -0.000  14.523  -0.000  -0.000
  0.000   0.000  -0.000   7.788  -0.000  -0.000  14.523  -0.000
  0.000   0.000  -0.000  -0.000   7.788  -0.000  -0.000  14.523
 total augmentation occupancy for first ion, spin component:           1
  5.643  -2.126   0.000  -0.000   0.000  -0.000   0.000   0.000
 -2.126   0.916  -0.000   0.000  -0.000  -0.000  -0.000  -0.000
  0.000  -0.000   2.988   0.000   0.000  -0.677  -0.000  -0.000
  0.000   0.000   0.000   2.988   0.000  -0.000  -0.677  -0.000
  0.000   0.000   0.000   0.000   2.988  -0.000  -0.000  -0.677
  0.000   0.000  -0.677  -0.000  -0.000   0.162   0.000   0.000
  0.000  -0.000  -0.000  -0.677  -0.000   0.000   0.162   0.000
  0.000   0.000  -0.000  -0.000  -0.677   0.000   0.000   0.162


------------------------ aborting loop because EDIFF is reached ----------------------------------------


    CHARGE:  cpu time    0.0380: real time    0.0375
    FORLOC:  cpu time    0.0010: real time    0.0018
    FORNL :  cpu time    0.1080: real time    0.1076
    STRESS:  cpu time    0.5009: real time    0.5014
    FORCOR:  cpu time    0.0300: real time    0.0313
    FORHAR:  cpu time    0.0060: real time    0.0060
    MIXING:  cpu time    0.0010: real time    0.0012
    OFIELD:  cpu time    0.0010: real time    0.0001

  FORCE on cell =-STRESS in cart. coord.  units (eV):
  Direction    XX          YY          ZZ          XY          YZ          ZX
  --------------------------------------------------------------------------------------
  Alpha Z     3.33881     3.33881     3.33881
  Ewald     -75.99608   -75.99616   -75.99607     0.00001     0.00000    -0.00000
  Hartree     5.00415     5.00414     5.00415     0.00000     0.00000     0.00000
  E(xc)     -25.32800   -25.32800   -25.32800    -0.00000    -0.00000    -0.00000
  Local     -29.34400   -29.34398   -29.34398    -0.00000     0.00001     0.00001
  n-local    74.05443    77.46353    81.63683    -0.92269    -0.78538    -0.02898
  augment   -11.64899   -11.64899   -11.64900    -0.00000    -0.00001    -0.00001
  Kinetic    53.41817    55.33002    60.93709     0.91212     1.17010    -0.54900
  Fock        0.00000     0.00000     0.00000     0.00000     0.00000     0.00000
  -------------------------------------------------------------------------------------
  Total       0.30589     0.30589     0.30589    -0.00000     0.00000     0.00000
  in kB      12.15222    12.15223    12.15222    -0.00000     0.00000     0.00000
  external pressure =       12.15 kB  Pullay stress =        0.00 kB


 VOLUME and BASIS-vectors are now :
 -----------------------------------------------------------------------------
  energy-cutoff  :      350.00
  volume of cell :       40.33
      direct lattice vectors                 reciprocal lattice vectors
     3.333573000  0.000000000  1.924639000     0.299978432 -0.106058350  0.000000000
     1.111191000  3.142924000  1.924639000     0.000000000  0.318175050  0.000000000
     0.000000000  0.000000000  3.849278000    -0.149989216 -0.106058350  0.259788979

  length of vectors
     3.849278403  3.849279412  3.849278000     0.318175161  0.318175050  0.318175190


 FORCES acting on ions
    electron-ion (+dipol)            ewald-force                    non-local-force                 convergence-correction
 -----------------------------------------------------------------------------------------------
   0.522E-05 0.243E-04 0.433E-07   -.892E-05 -.418E-04 0.782E-16   0.109E-15 0.694E-17 0.222E-15   0.606E-07 0.448E-07 0.104E-06
   -.522E-05 -.243E-04 -.433E-07   0.892E-05 0.418E-04 -.194E-15   -.127E-15 0.486E-16 -.201E-15   -.606E-07 -.448E-07 -.104E-06
 -----------------------------------------------------------------------------------------------
   0.598E-13 -.533E-13 0.131E-12   -.365E-15 -.270E-16 -.116E-15   -.173E-16 0.555E-16 0.208E-16   0.112E-14 -.127E-15 0.298E-15
 
 
 POSITION                                       TOTAL-FORCE (eV/Angst)
 -----------------------------------------------------------------------------------
      3.88917      2.75006      6.73624        -0.000000     -0.000000     -0.000000
      0.55560      0.39287      0.96232         0.000000      0.000000      0.000000
 -----------------------------------------------------------------------------------
    total drift:                                0.000000     -0.000000      0.000000


--------------------------------------------------------------------------------------------------------



  FREE ENERGIE OF THE ION-ELECTRON SYSTEM (eV)
  ---------------------------------------------------
  free  energy   TOTEN  =       -10.84403645 eV

  energy  without entropy=      -10.84403645  energy(sigma->0) =      -10.84403645
 


--------------------------------------------------------------------------------------------------------


    POTLOK:  cpu time    0.2050: real time    0.2122


--------------------------------------------------------------------------------------------------------




--------------------------------------------------------------------------------------------------------


    WAVPRE:  cpu time    0.0080: real time    0.0184
    FEWALD:  cpu time    0.0000: real time    0.0003
    GENKIN:  cpu time    0.0180: real time    0.0186
    ORTHCH:  cpu time    0.0100: real time    0.0092
     LOOP+:  cpu time    6.7290: real time    6.9103


--------------------------------------- Iteration      2(   1)  ---------------------------------------


    POTLOK:  cpu time    0.0300: real time    0.0342
    SETDIJ:  cpu time    0.1740: real time    0.1736
     EDDAV:  cpu time    0.3270: real time    0.3270
       DOS:  cpu time    0.0000: real time    0.0009
    CHARGE:  cpu time    0.0370: real time    0.0373
    MIXING:  cpu time    0.0010: real time    0.0014
    --------------------------------------------
      LOOP:  cpu time    0.5699: real time    0.5746

 eigenvalue-minimisations  :   664
 total energy-change (2. order) :-0.3780416E-02  (-0.1043810E-01)
 number of electron       8.0000000 magnetization 
 augmentation part       -0.4600167 magnetization 

 Broyden mixing:
  rms(total) = 0.30193E-01    rms(broyden)= 0.30191E-01
  rms(prec ) = 0.77633E-01
  weight for this iteration     100.00

 Free energy of the ion-electron system (eV)
  ---------------------------------------------------
  alpha Z        PSCENC =         3.26597838
  Ewald energy   TEWEN  =      -226.31831131
  -Hartree energ DENC   =       -14.90242870
  -exchange      EXHF   =         0.00000000
  -V(xc)+E(xc)   XCENC  =       -18.10266868
  PAW double counting   =       864.98759082     -830.01930710
  entropy T*S    EENTRO =        -0.00000000
  eigenvalues    EBANDS =         4.11007529
  atomic energy  EATOM  =       206.13125414
  Solvation  Ediel_sol  =         0.00000000
  ---------------------------------------------------
  free energy    TOTEN  =       -10.84781716 eV

  energy without entropy =      -10.84781716  energy(sigma->0) =      -10.84781716


--------------------------------------------------------------------------------------------------------




--------------------------------------- Iteration      2(   2)  ---------------------------------------


    POTLOK:  cpu time    0.0320: real time    0.0445
    SETDIJ:  cpu time    0.1730: real time    0.1735
     EDDAV:  cpu time    0.3489: real time    0.3487
       DOS:  cpu time    0.0000: real time    0.0010
    CHARGE:  cpu time    0.0380: real time    0.0375
    MIXING:  cpu time    0.0010: real time    0.0014
    --------------------------------------------
      LOOP:  cpu time    0.5919: real time    0.6068

 eigenvalue-minimisations  :   712
 total energy-change (2. order) : 0.1766062E-02  (-0.1488892E-03)
 number of electron       8.0000000 magnetization 
 augmentation part       -0.4593815 magnetization 

 Broyden mixing:
  rms(total) = 0.18339E-01    rms(broyden)= 0.18339E-01
  rms(prec ) = 0.44890E-01
  weight for this iteration     100.00

 eigenvalues of (default mixing * dielectric matrix)
  average eigenvalue GAMMA=   2.5103
  2.5103

 Free energy of the ion-electron system (eV)
  ---------------------------------------------------
  alpha Z        PSCENC =         3.26597838
  Ewald energy   TEWEN  =      -226.31831131
  -Hartree energ DENC   =       -15.06439875
  -exchange      EXHF   =         0.00000000
  -V(xc)+E(xc)   XCENC  =       -18.09746294
  PAW double counting   =       844.38703969     -809.41405009
  entropy T*S    EENTRO =        -0.00000000
  eigenvalues    EBANDS =         4.26389979
  atomic energy  EATOM  =       206.13125414
  Solvation  Ediel_sol  =         0.00000000
  ---------------------------------------------------
  free energy    TOTEN  =       -10.84605110 eV

  energy without entropy =      -10.84605110  energy(sigma->0) =      -10.84605110


--------------------------------------------------------------------------------------------------------




--------------------------------------- Iteration      2(   3)  ---------------------------------------


    POTLOK:  cpu time    0.0330: real time    0.0430
    SETDIJ:  cpu time    0.1730: real time    0.1728
     EDDAV:  cpu time    0.3240: real time    0.3257
       DOS:  cpu time    0.0010: real time    0.0009
    CHARGE:  cpu time    0.0370: real time    0.0370
    MIXING:  cpu time    0.0010: real time    0.0015
    --------------------------------------------
      LOOP:  cpu time    0.5699: real time    0.5808

 eigenvalue-minimisations  :   648
 total energy-change (2. order) : 0.9326799E-03  (-0.1928025E-03)
 number of electron       8.0000000 magnetization 
 augmentation part       -0.4580817 magnetization 

 Broyden mixing:
  rms(total) = 0.60711E-02    rms(broyden)= 0.60711E-02
  rms(prec ) = 0.67697E-02
  weight for this iteration     100.00

 eigenvalues of (default mixing * dielectric matrix)
  average eigenvalue GAMMA=   1.3590
  2.2693  0.4487

 Free energy of the ion-electron system (eV)
  ---------------------------------------------------
  alpha Z        PSCENC =         3.26597838
  Ewald energy   TEWEN  =      -226.31831131
  -Hartree energ DENC   =       -15.27944638
  -exchange      EXHF   =         0.00000000
  -V(xc)+E(xc)   XCENC  =       -18.09295781
  PAW double counting   =       813.77571806     -778.79314889
  entropy T*S    EENTRO =        -0.00000000
  eigenvalues    EBANDS =         4.46579540
  atomic energy  EATOM  =       206.13125414
  Solvation  Ediel_sol  =         0.00000000
  ---------------------------------------------------
  free energy    TOTEN  =       -10.84511842 eV

  energy without entropy =      -10.84511842  energy(sigma->0) =      -10.84511842


--------------------------------------------------------------------------------------------------------




--------------------------------------- Iteration      2(   4)  ---------------------------------------


    POTLOK:  cpu time    0.0320: real time    0.0395
    SETDIJ:  cpu time    0.1750: real time    0.1746
     EDDAV:  cpu time    0.3739: real time    0.3747
       DOS:  cpu time    0.0000: real time    0.0008
    CHARGE:  cpu time    0.0380: real time    0.0372
    MIXING:  cpu time    0.0010: real time    0.0015
    --------------------------------------------
      LOOP:  cpu time    0.6189: real time    0.6283

 eigenvalue-minimisations  :   776
 total energy-change (2. order) : 0.8053496E-07  (-0.1938336E-05)
 number of electron       8.0000000 magnetization 
 augmentation part       -0.4580843 magnetization 

 Broyden mixing:
  rms(total) = 0.54372E-02    rms(broyden)= 0.54372E-02
  rms(prec ) = 0.59780E-02
  weight for this iteration     100.00

 eigenvalues of (default mixing * dielectric matrix)
  average eigenvalue GAMMA=   1.9081
  2.5612  1.5815  1.5815

 Free energy of the ion-electron system (eV)
  ---------------------------------------------------
  alpha Z        PSCENC =         3.26597838
  Ewald energy   TEWEN  =      -226.31831131
  -Hartree energ DENC   =       -15.27558244
  -exchange      EXHF   =         0.00000000
  -V(xc)+E(xc)   XCENC  =       -18.09356079
  PAW double counting   =       816.19932009     -781.21588705
  entropy T*S    EENTRO =        -0.00000000
  eigenvalues    EBANDS =         4.46167064
  atomic energy  EATOM  =       206.13125414
  Solvation  Ediel_sol  =         0.00000000
  ---------------------------------------------------
  free energy    TOTEN  =       -10.84511834 eV

  energy without entropy =      -10.84511834  energy(sigma->0) =      -10.84511834


--------------------------------------------------------------------------------------------------------




--------------------------------------- Iteration      2(   5)  ---------------------------------------


    POTLOK:  cpu time    0.0310: real time    0.0483
    SETDIJ:  cpu time    0.1750: real time    0.1742
     EDDAV:  cpu time    0.3309: real time    0.3312
       DOS:  cpu time    0.0010: real time    0.0007
    CHARGE:  cpu time    0.0360: real time    0.0371
    MIXING:  cpu time    0.0010: real time    0.0014
    --------------------------------------------
      LOOP:  cpu time    0.5759: real time    0.5929

 eigenvalue-minimisations  :   648
 total energy-change (2. order) : 0.6052460E-05  (-0.4936102E-06)
 number of electron       8.0000000 magnetization 
 augmentation part       -0.4580676 magnetization 

 Broyden mixing:
  rms(total) = 0.12590E-02    rms(broyden)= 0.12590E-02
  rms(prec ) = 0.12867E-02
  weight for this iteration     100.00

 eigenvalues of (default mixing * dielectric matrix)
  average eigenvalue GAMMA=   1.7371
  2.6864  2.2442  1.0088  1.0088

 Free energy of the ion-electron system (eV)
  ---------------------------------------------------
  alpha Z        PSCENC =         3.26597838
  Ewald energy   TEWEN  =      -226.31831131
  -Hartree energ DENC   =       -15.27575920
  -exchange      EXHF   =         0.00000000
  -V(xc)+E(xc)   XCENC  =       -18.09542406
  PAW double counting   =       827.86572623     -792.87830688
  entropy T*S    EENTRO =        -0.00000000
  eigenvalues    EBANDS =         4.45973042
  atomic energy  EATOM  =       206.13125414
  Solvation  Ediel_sol  =         0.00000000
  ---------------------------------------------------
  free energy    TOTEN  =       -10.84511229 eV

  energy without entropy =      -10.84511229  energy(sigma->0) =      -10.84511229


--------------------------------------------------------------------------------------------------------




--------------------------------------- Iteration      2(   6)  ---------------------------------------


    POTLOK:  cpu time    0.0320: real time    0.0409
    SETDIJ:  cpu time    0.1730: real time    0.1730
     EDDAV:  cpu time    0.2120: real time    0.2119
       DOS:  cpu time    0.0000: real time    0.0009
    --------------------------------------------
      LOOP:  cpu time    0.4169: real time    0.4266

 eigenvalue-minimisations  :   352
 total energy-change (2. order) :-0.8393408E-07  (-0.5857225E-08)
 number of electron       8.0000000 magnetization 
 augmentation part       -0.4580676 magnetization 

 Free energy of the ion-electron system (eV)
  ---------------------------------------------------
  alpha Z        PSCENC =         3.26597838
  Ewald energy   TEWEN  =      -226.31831131
  -Hartree energ DENC   =       -15.27535643
  -exchange      EXHF   =         0.00000000
  -V(xc)+E(xc)   XCENC  =       -18.09541092
  PAW double counting   =       826.93102000     -791.94372794
  entropy T*S    EENTRO =        -0.00000000
  eigenvalues    EBANDS =         4.45944171
  atomic energy  EATOM  =       206.13125414
  Solvation  Ediel_sol  =         0.00000000
  ---------------------------------------------------
  free energy    TOTEN  =       -10.84511237 eV

  energy without entropy =      -10.84511237  energy(sigma->0) =      -10.84511237


--------------------------------------------------------------------------------------------------------




 average (electrostatic) potential at core
  the test charge radii are     0.9892
  (the norm of the test charge is              1.0000)
       1 -83.5729       2 -83.5729
 
 
 
 E-fermi :   5.7890     XC(G=0):  -9.2949     alpha+bet :-11.6348

 Fermi energy:         5.7889564537

 k-point     1 :       0.0000    0.0000    0.0000
  band No.  band energies     occupation 
      1      -6.2244      2.00000
      2       5.5355      2.00000
      3       5.5355      2.00000
      4       5.5355      2.00000
      5       8.0891      0.00000
      6       8.0891      0.00000
      7       8.0891      0.00000
      8       8.5742      0.00000

 k-point     2 :       0.1111    0.0000    0.0000
  band No.  band energies     occupation 
      1      -6.0670      2.00000
      2       4.1972      2.00000
      3       5.3053      2.00000
      4       5.3053      2.00000
      5       8.0006      0.00000
      6       8.4291      0.00000
      7       8.4291      0.00000
      8       9.7555      0.00000

 k-point     3 :       0.2222    0.0000    0.0000
  band No.  band energies     occupation 
      1      -5.6046      2.00000
      2       2.1576      2.00000
      3       4.8910      2.00000
      4       4.8910      2.00000
      5       7.5718      0.00000
      6       8.9522      0.00000
      7       8.9522      0.00000
      8      11.7393      0.00000

 k-point     4 :       0.3333   -0.0000    0.0000
  band No.  band energies     occupation 
      1      -4.8848      2.00000
      2       0.2889      2.00000
      3       4.5590      2.00000
      4       4.5590      2.00000
      5       7.1991      0.00000
      6       9.0386      0.00000
      7       9.0386      0.00000
      8      13.2819      0.00000

 k-point     5 :       0.4444    0.0000    0.0000
  band No.  band energies     occupation 
      1      -4.1216      2.00000
      2      -1.0664      2.00000
      3       4.3856      2.00000
      4       4.3856      2.00000
      5       6.9989      0.00000
      6       8.9132      0.00000
      7       8.9132      0.00000
      8      13.2621      0.00000

 k-point     6 :       0.1111    0.1111    0.0000
  band No.  band energies     occupation 
      1      -6.0140      2.00000
      2       4.3984      2.00000
      3       4.8812      2.00000
      4       4.8812      2.00000
      5       7.6477      0.00000
      6       9.0025      0.00000
      7       9.0025      0.00000
      8       9.5605      0.00000

 k-point     7 :       0.2222    0.1111    0.0000
  band No.  band energies     occupation 
      1      -5.6513      2.00000
      2       2.7546      2.00000
      3       4.4196      2.00000
[...]

 Fermi energy:         5.8943625366

 k-point     1 :       0.0000    0.0000    0.0000
  band No.  band energies     occupation 
      1      -6.1960      2.00000
      2       5.6244      2.00000
      3       5.6244      2.00000
      4       5.6244      2.00000
      5       8.1817      0.00000
      6       8.1817      0.00000
      7       8.1817      0.00000
      8       8.7649      0.00000

 k-point     2 :       0.1111    0.0000    0.0000
  band No.  band energies     occupation 
      1      -6.0373      2.00000
      2       4.2851      2.00000
      3       5.3920      2.00000
      4       5.3920      2.00000
      5       8.1162      0.00000
      6       8.5249      0.00000
      7       8.5249      0.00000
      8       9.9215      0.00000

 k-point     3 :       0.2222    0.0000    0.0000
  band No.  band energies     occupation 
      1      -5.5712      2.00000
      2       2.2342      2.00000
      3       4.9747      2.00000
      4       4.9747      2.00000
      5       7.6919      0.00000
      6       9.0496      0.00000
      7       9.0496      0.00000
      8      11.9029      0.00000

 k-point     4 :       0.3333   -0.0000    0.0000
  band No.  band energies     occupation 
      1      -4.8450      2.00000
      2       0.3521      2.00000
      3       4.6408      2.00000
      4       4.6408      2.00000
      5       7.3195      0.00000
      6       9.1296      0.00000
      7       9.1296      0.00000
      8      13.4113      0.00000

 k-point     5 :       0.4444    0.0000    0.0000
  band No.  band energies     occupation 
      1      -4.0732      2.00000
      2      -1.0154      2.00000
      3       4.4667      2.00000
      4       4.4667      2.00000
      5       7.1194      0.00000
      6       8.9992      0.00000
      7       8.9992      0.00000
      8      13.3645      0.00000

 k-point     6 :       0.1111    0.1111    0.0000
  band No.  band energies     occupation 
      1      -5.9839      2.00000
      2       4.4961      2.00000
      3       4.9631      2.00000
      4       4.9631      2.00000
      5       7.7367      0.00000
      6       9.1040      0.00000
      7       9.1040      0.00000
      8       9.7353      0.00000

 k-point     7 :       0.2222    0.1111    0.0000
  band No.  band energies     occupation 
      1      -5.6183      2.00000
      2       2.8394      2.00000
      3       4.4979      2.00000
      4       4.6238      2.00000
      5       7.8224      0.00000
      6       9.0913      0.00000
      7       9.8085      0.00000
      8      10.4982      0.00000

 k-point     8 :       0.3333    0.1111    0.0000
  band No.  band energies     occupation 
      1      -4.9698      2.00000
      2       0.9636      2.00000
      3       4.1244      2.00000
      4       4.1966      2.00000
      5       7.9254      0.00000
      6       9.0815      0.00000
      7       9.9857      0.00000
      8      10.9471      0.00000

 k-point     9 :       0.4444    0.1111    0.0000
  band No.  band energies     occupation 
      1      -4.1616      2.00000
      2      -0.5967      2.00000
      3       3.6955      2.00000
      4       4.1140      2.00000
      5       7.7943      0.00000
      6       9.0075      0.00000
      7       9.7188      0.00000
      8      12.3625      0.00000

 k-point    10 :      -0.4444    0.1111    0.0000
  band No.  band energies     occupation 
      1      -3.7937      2.00000
      2      -1.1550      2.00000
      3       3.4424      2.00000
      4       4.2499      2.00000
      5       7.7912      0.00000
      6       9.0376      0.00000
      7       9.4616      0.00000
      8      13.7412      0.00000

 k-point    11 :      -0.3333    0.1111    0.0000
  band No.  band energies     occupation 
      1      -4.4334      2.00000
      2      -0.1299      2.00000
      3       3.4120      2.00000
      4       4.5735      2.00000
      5       7.9700      0.00000
      6       9.2619      0.00000
      7       9.3369      0.00000
      8      12.9483      0.00000

 k-point    12 :      -0.2222    0.1111    0.0000
  band No.  band energies     occupation 
      1      -5.2160      2.00000
      2       1.5684      2.00000
      3       3.6454      2.00000
      4       5.0150      2.00000
      5       8.2903      0.00000
      6       9.1180      0.00000
      7       9.3939      0.00000
      8      11.6351      0.00000

 k-point    13 :      -0.1111    0.1111    0.0000
  band No.  band energies     occupation 
      1      -5.7752      2.00000
      2       3.3071      2.00000
      3       4.2905      2.00000
      4       5.4021      2.00000
      5       8.5670      0.00000
      6       8.6192      0.00000
      7       8.8193      0.00000
      8      10.8836      0.00000

 k-point    14 :       0.2222    0.2222    0.0000
  band No.  band energies     occupation 
      1      -5.3537      2.00000
      2       2.5980      2.00000
      3       3.9864      2.00000
      4       3.9864      2.00000
      5       6.9504      0.00000
      6       9.1690      0.00000
      7      10.8419      0.00000
      8      10.8419      0.00000

 k-point    15 :       0.3333    0.2222    0.0000
  band No.  band energies     occupation 
      1      -4.7945      2.00000
      2       1.2881      2.00000
      3       3.3694      2.00000
      4       3.6494      2.00000
      5       7.1035      0.00000
      6       8.7986      0.00000
      7      11.0732      0.00000
      8      11.4148      0.00000

 k-point    16 :       0.4444    0.2222    0.0000
  band No.  band energies     occupation 
      1      -4.0113      2.00000
      2      -0.1535      2.00000
      3       2.6393      2.00000
      4       3.5520      2.00000
      5       7.2888      0.00000
      6       9.8048      0.00000
      7      10.8237      0.00000
      8      11.2388      0.00000

 k-point    17 :      -0.4444    0.2222    0.0000
  band No.  band energies     occupation 
      1      -3.3734      2.00000
      2      -1.0722      2.00000
      3       2.1285      2.00000
      4       3.7034      2.00000
      5       7.4350      0.00000
      6      10.5921      0.00000
      7      10.8640      0.00000
      8      11.7540      0.00000

 k-point    18 :      -0.3333    0.2222    0.0000
  band No.  band energies     occupation 
      1      -3.7752      2.00000
      2      -0.5085      2.00000
      3       1.9544      2.00000
      4       4.0766      2.00000
      5       7.8097      0.00000
      6      10.5250      0.00000
      7      10.5366      0.00000
      8      12.7431      0.00000

 k-point    19 :      -0.2222    0.2222    0.0000
  band No.  band energies     occupation 
      1      -4.5805      2.00000
      2       0.7146      2.00000
      3       2.3380      2.00000
      4       4.5881      2.00000
      5       8.3194      0.00000
      6       9.9198      0.00000
      7      10.2405      0.00000
      8      11.4121      0.00000

 k-point    20 :       0.3333    0.3333    0.0000
  band No.  band energies     occupation 
      1      -4.3250      2.00000
      2       0.6330      2.00000
      3       3.2550      2.00000
      4       3.2550      2.00000
      5       6.3824      0.00000
      6       7.6463      0.00000
      7      12.8020      0.00000
      8      12.8020      0.00000

 k-point    21 :       0.4444    0.3333    0.0000
  band No.  band energies     occupation 
      1      -3.5998      2.00000
      2      -0.4010      2.00000
      3       2.5474      2.00000
      4       3.1001      2.00000
      5       6.6253      0.00000
      6       7.6863      0.00000
      7      13.0932      0.00000
      8      13.1573      0.00000

 k-point    22 :      -0.4444    0.3333    0.0000
  band No.  band energies     occupation 
      1      -2.8236      2.00000
      2      -1.2815      2.00000
      3       1.6646      2.00000
      4       3.2049      2.00000
      5       6.8217      0.00000
      6       9.2616      0.00000
      7      12.7888      0.00000
      8      12.8836      0.00000

 k-point    23 :      -0.3333    0.3333    0.0000
  band No.  band energies     occupation 
      1      -2.9970      2.00000
      2      -1.0916      2.00000
      3       1.3099      2.00000
      4       3.5534      2.00000
      5       7.2126      0.00000
      6      11.4054      0.00000
      7      12.0359      0.00000
      8      12.6005      0.00000

 k-point    24 :       0.4444    0.4444    0.0000
  band No.  band energies     occupation 
      1      -2.9358      2.00000
      2      -1.2508      2.00000
      3       2.8755      2.00000
      4       2.8755      2.00000
      5       6.2472      0.00000
      6       6.6477      0.00000
      7      14.8490      0.00000
      8      14.8490      0.00000

 k-point    25 :      -0.4444    0.4444    0.0000
  band No.  band energies     occupation 
      1      -2.1793      2.00000
      2      -2.0095      2.00000
      3       2.2778      2.00000
      4       2.9123      2.00000
      5       6.4732      0.00000
      6       7.2882      0.00000
      7      14.7242      0.00000
      8      15.0265      0.00000

 k-point    26 :       0.3333    0.2222    0.1111
  band No.  band energies     occupation 
      1      -5.1569      2.00000
      2       1.8501      2.00000
      3       3.3065      2.00000
      4       4.4780      2.00000
      5       8.0014      0.00000
      6       9.3741      0.00000
      7      10.0288      0.00000
      8      10.6024      0.00000

 k-point    27 :       0.4444    0.2222    0.1111
  band No.  band energies     occupation 
      1      -4.4357      2.00000
      2       0.3875      2.00000
      3       2.7038      2.00000
      4       4.0513      2.00000
      5       8.3800      0.00000
      6       9.2009      0.00000
      7      10.3860      0.00000
      8      11.0473      0.00000

 k-point    28 :      -0.4444    0.2222    0.1111
  band No.  band energies     occupation 
      1      -3.6579      2.00000
      2      -0.8723      2.00000
      3       2.5086      2.00000
      4       3.7363      2.00000
      5       8.4633      0.00000
      6       8.8239      0.00000
      7      10.9865      0.00000
      8      12.1083      0.00000

 k-point    29 :       0.4444    0.3333    0.1111
  band No.  band energies     occupation 
      1      -4.1546      2.00000
      2       0.3363      2.00000
      3       2.6078      2.00000
      4       3.2846      2.00000
      5       7.4587      0.00000
      6       8.4662      0.00000
      7      11.0127      0.00000
      8      12.7155      0.00000

 k-point    30 :      -0.4444    0.3333    0.1111
  band No.  band energies     occupation 
      1      -3.3450      2.00000
      2      -0.7277      2.00000
      3       1.9560      2.00000
      4       2.9865      2.00000
      5       7.8615      0.00000
      6       9.5455      0.00000
      7      10.5785      0.00000
      8      13.1108      0.00000

 k-point    31 :      -0.3333    0.3333    0.1111
  band No.  band energies     occupation 
      1      -2.9900      2.00000
      2      -1.1420      2.00000
      3       1.5779      2.00000
      4       3.0960      2.00000
      5       8.1478      0.00000
      6      10.1181      0.00000
      7      11.6448      0.00000
      8      12.1739      0.00000

 k-point    32 :      -0.2222    0.3333    0.1111
  band No.  band energies     occupation 
      1      -3.6749      2.00000
      2      -0.3567      2.00000
      3       1.7242      2.00000
      4       3.5229      2.00000
      5       8.6470      0.00000
      6       9.6255      0.00000
      7      10.4732      0.00000
      8      12.4822      0.00000

 k-point    33 :      -0.4444    0.4444    0.1111
  band No.  band energies     occupation 
      1      -2.8232      2.00000
      2      -1.2684      2.00000
      3       2.3266      2.00000
      4       2.5334      2.00000
      5       7.2912      0.00000
      6       7.6037      0.00000
      7      12.7692      0.00000
      8      14.6062      0.00000

 k-point    34 :      -0.3333    0.4444    0.1111
  band No.  band energies     occupation 
      1      -2.3147      2.00000
      2      -1.7200      2.00000
      3       1.6231      2.00000
      4       2.6193      2.00000
      5       7.6586      0.00000
      6       9.2788      0.00000
      7      12.2292      0.00000
      8      12.4852      0.00000

 k-point    35 :      -0.3333    0.4444    0.2222
  band No.  band energies     occupation 
      1      -2.5554      2.00000
      2      -1.4134      2.00000
      3       1.6600      2.00000
      4       2.2897      2.00000
      5       9.4634      0.00000
      6       9.5744      0.00000
      7      10.1998      0.00000
      8      11.9396      0.00000


--------------------------------------------------------------------------------------------------------


 soft charge-density along one line, spin component           1
         0         1         2         3         4         5         6         7         8         9
 total charge-density along one line
 
 pseudopotential strength for first ion, spin component:           1
 18.436  25.722   0.000  -0.000   0.000   0.000  -0.000   0.000
 25.722  35.892   0.000  -0.000   0.000   0.000  -0.000   0.000
  0.000   0.000   4.181  -0.000  -0.000   7.790  -0.000  -0.000
 -0.000  -0.000  -0.000   4.181  -0.000  -0.000   7.790  -0.000
  0.000   0.000  -0.000  -0.000   4.181  -0.000  -0.000   7.790
  0.000   0.000   7.790  -0.000  -0.000  14.528  -0.000  -0.000
 -0.000  -0.000  -0.000   7.790  -0.000  -0.000  14.528  -0.000
  0.000   0.000  -0.000  -0.000   7.790  -0.000  -0.000  14.528
 total augmentation occupancy for first ion, spin component:           1
  5.531  -2.065   0.000   0.000   0.000   0.000  -0.000  -0.000
 -2.065   0.886  -0.000   0.000  -0.000  -0.000  -0.000   0.000
 -0.000   0.000   2.942  -0.000  -0.000  -0.663   0.000   0.000
  0.000  -0.000  -0.000   2.942  -0.000   0.000  -0.663   0.000
 -0.000  -0.000  -0.000  -0.000   2.942   0.000   0.000  -0.663
 -0.000  -0.000  -0.663   0.000   0.000   0.158  -0.000  -0.000
 -0.000   0.000   0.000  -0.663   0.000  -0.000   0.158   0.000
 -0.000   0.000   0.000   0.000  -0.663  -0.000  -0.000   0.158


------------------------ aborting loop because EDIFF is reached ----------------------------------------


    CHARGE:  cpu time    0.0360: real time    0.0370
    FORLOC:  cpu time    0.0010: real time    0.0017
    FORNL :  cpu time    0.1050: real time    0.1047
    STRESS:  cpu time    0.5029: real time    0.5047
    FORCOR:  cpu time    0.0320: real time    0.0313
    FORHAR:  cpu time    0.0060: real time    0.0061
    MIXING:  cpu time    0.0010: real time    0.0012
    OFIELD:  cpu time    0.0010: real time    0.0002

  FORCE on cell =-STRESS in cart. coord.  units (eV):
  Direction    XX          YY          ZZ          XY          YZ          ZX
  --------------------------------------------------------------------------------------
  Alpha Z     3.29542     3.29542     3.29542
  Ewald     -75.66543   -75.66550   -75.66542     0.00001     0.00000     0.00000
  Hartree     5.05611     5.05611     5.05611     0.00000     0.00000     0.00000
  E(xc)     -25.25305   -25.25305   -25.25305    -0.00000    -0.00000    -0.00000
  Local     -29.52709   -29.52707   -29.52707    -0.00000     0.00001     0.00001
  n-local    73.84968    77.22218    81.36579    -0.93635    -0.78091    -0.02522
  augment   -11.64531   -11.64531   -11.64533    -0.00000    -0.00001    -0.00001
  Kinetic    53.05578    55.04453    60.68547     0.84734     1.12080    -0.53286
  Fock        0.00000     0.00000     0.00000     0.00000     0.00000     0.00000
  -------------------------------------------------------------------------------------
  Total       0.00179     0.00179     0.00179     0.00000     0.00000     0.00000
  in kB       0.07001     0.07001     0.07001     0.00000     0.00000     0.00000
  external pressure =        0.07 kB  Pullay stress =        0.00 kB


 VOLUME and BASIS-vectors are now :
 -----------------------------------------------------------------------------
  energy-cutoff  :      350.00
  volume of cell :       40.86
      direct lattice vectors                 reciprocal lattice vectors
     3.348140477  0.000000000  1.933049533     0.298673251 -0.105596899  0.000000000
     1.116046826  3.156658365  1.933049533     0.000000000  0.316790696 -0.000000000
    -0.000000000  0.000000000  3.866099066    -0.149336625 -0.105596899  0.258658659

  length of vectors
     3.866099475  3.866100496  3.866099066     0.316790807  0.316790696  0.316790837


 FORCES acting on ions
    electron-ion (+dipol)            ewald-force                    non-local-force                 convergence-correction
 -----------------------------------------------------------------------------------------------
   0.525E-05 0.245E-04 0.592E-07   -.892E-05 -.418E-04 -.459E-14   0.486E-16 -.625E-16 -.763E-16   -.465E-07 -.327E-07 -.807E-07
   -.525E-05 -.245E-04 -.592E-07   0.892E-05 0.418E-04 0.459E-14   0.346E-16 0.208E-16 -.555E-16   0.465E-07 0.327E-07 0.807E-07
 -----------------------------------------------------------------------------------------------
   0.595E-13 -.506E-13 0.116E-12   -.632E-15 -.378E-16 0.163E-17   0.833E-16 -.416E-16 -.132E-15   0.608E-15 -.711E-15 -.246E-15
 
 
 POSITION                                       TOTAL-FORCE (eV/Angst)
 -----------------------------------------------------------------------------------
      3.90616      2.76208      6.76567         0.000000     -0.000000     -0.000000
      0.55802      0.39458      0.96652        -0.000000      0.000000      0.000000
 -----------------------------------------------------------------------------------
    total drift:                                0.000000     -0.000000      0.000000


--------------------------------------------------------------------------------------------------------



  FREE ENERGIE OF THE ION-ELECTRON SYSTEM (eV)
  ---------------------------------------------------
  free  energy   TOTEN  =       -10.84601662 eV

  energy  without entropy=      -10.84601662  energy(sigma->0) =      -10.84601662
 
 d Force = 0.0000000E+00[ 0.000E+00, 0.000E+00]  d Energy = 0.9042525E-03-0.904E-03
 d Force = 0.0000000E+00[ 0.000E+00, 0.000E+00]  d Ewald  = 0.6779375E+00-0.678E+00


--------------------------------------------------------------------------------------------------------


    POTLOK:  cpu time    0.2040: real time    0.2115


--------------------------------------------------------------------------------------------------------




--------------------------------------------------------------------------------------------------------


  
 reached required accuracy - stopping structural energy minimisation
     LOOP+:  cpu time    4.4023: real time    4.5334
    4ORBIT:  cpu time    0.0000: real time    0.0000

 total amount of memory used by VASP MPI-rank0    38202. kBytes
=======================================================================

   base      :      30000. kBytes
   nonl-proj :       1390. kBytes
   fftplans  :       4177. kBytes
   grid      :       1926. kBytes
   one-center:          6. kBytes
   wavefun   :        703. kBytes
 
  
  
 General timing and accounting informations for this job:
 ========================================================
  
                  Total CPU time used (sec):       16.231
                            User time (sec):       15.918
                          System time (sec):        0.313
                         Elapsed time (sec):       17.452
  
                   Maximum memory used (kb):       60024.
                   Average memory used (kb):          N/A
  
                          Minor page faults:        13382
                          Major page faults:            1
                 Voluntary context switches:        12069
