<?xml version="1.0" encoding="ISO-8859-1"?>
<modeling>
 <generator>
  <i name="program" type="string">vasp </i>
  <i name="version" type="string">6.2.0  </i>
  <i name="subversion" type="string">18Jan21 (build Aug 12 2022 13:00:08) complex                          parallel </i>
  <i name="platform" type="string">LinuxIFC </i>
  <i name="date" type="string">2024 11 03 </i>
  <i name="time" type="string">21:54:03 </i>
 </generator>
 <incar>
  <i type="int" name="ISTART">     0</i>
  <i type="string" name="PREC">Accurate      (Accurate strictly avoids</i>
  <i type="logical" name="ADDGRID"> T  </i>
  <i type="int" name="ISPIN">     1</i>
  <i type="int" name="NELM">    90</i>
  <i type="int" name="NELMIN">     6</i>
  <i type="int" name="IBRION">     2</i>
  <i name="EDIFF">      0.00000100</i>
  <i name="EDIFFG">     -0.00200000</i>
  <i type="int" name="NSW">   100</i>
  <i type="int" name="ISIF">     3</i>
  <i type="int" name="ISYM">     2</i>
  <i name="ENCUT">    350.00000000</i>
  <i type="logical" name="LREAL"> F  </i>
  <i type="int" name="ISMEAR">     0</i>
  <i name="SIGMA">      0.05000000</i>
  <i type="logical" name="LWAVE"> F  </i>
  <i type="logical" name="LCHARG"> F  </i>
  <i type="logical" name="LASPH"> T  </i>
 </incar>
 <primitive_cell>
  <structure name="primitive_cell" >
   <crystal>
    <varray name="basis" >
     <v>       3.33357300       0.00000000       1.92463900 </v>
     <v>       1.11119100       3.14292400       1.92463900 </v>
     <v>       0.00000000       0.00000000       3.84927800 </v>
    </varray>
    <i name="volume">     40.32952685 </i>
    <varray name="rec_basis" >
     <v>       0.29997843      -0.10605835       0.00000000 </v>
     <v>       0.00000000       0.31817505       0.00000000 </v>
     <v>      -0.14998922      -0.10605835       0.25978898 </v>
    </varray>
   </crystal>
   <varray name="positions" >
    <v>       0.87500000       0.87500000       0.87500000 </v>
    <v>       0.12500000       0.12500000       0.12500000 </v>
   </varray>
  </structure>
  <varray name="primitive_index" >
   <v type="int" >        1 </v>
   <v type="int" >        2 </v>
  </varray>
 </primitive_cell>
 <kpoints>
  <generation param="Monkhorst-Pack">
   <v type="int" name="divisions">       9        9        9 </v>
   <v name="usershift">      0.00000000       0.00000000       0.00000000 </v>
   <v name="genvec1">      0.11111111       0.00000000       0.00000000 </v>
   <v name="genvec2">      0.00000000       0.11111111       0.00000000 </v>
   <v name="genvec3">     -0.00000000       0.00000000       0.11111111 </v>
   <v name="shift">      0.00000000       0.00000000       0.00000000 </v>
  </generation>
  <varray name="kpointlist" >
   <v>       0.00000000       0.00000000       0.00000000 </v>
   <v>       0.11111111       0.00000000       0.00000000 </v>
   <v>       0.22222222       0.00000000       0.00000000 </v>
   <v>       0.33333333      -0.00000000       0.00000000 </v>
   <v>       0.44444444       0.00000000       0.00000000 </v>
   <v>       0.11111111       0.11111111       0.00000000 </v>
   <v>       0.22222222       0.11111111       0.00000000 </v>
   <v>       0.33333333       0.11111111       0.00000000 </v>
   <v>       0.44444444       0.11111111       0.00000000 </v>
   <v>      -0.44444444       0.11111111       0.00000000 </v>
   <v>      -0.33333333       0.11111111       0.00000000 </v>
   <v>      -0.22222222       0.11111111       0.00000000 </v>
   <v>      -0.11111111       0.11111111       0.00000000 </v>
   <v>       0.22222222       0.22222222       0.00000000 </v>
   <v>       0.33333333       0.22222222       0.00000000 </v>
   <v>       0.44444444       0.22222222       0.00000000 </v>
   <v>      -0.44444444       0.22222222       0.00000000 </v>
   <v>      -0.33333333       0.22222222       0.00000000 </v>
   <v>      -0.22222222       0.22222222       0.00000000 </v>
   <v>       0.33333333       0.33333333       0.00000000 </v>
   <v>       0.44444444       0.33333333       0.00000000 </v>
   <v>      -0.44444444       0.33333333       0.00000000 </v>
   <v>      -0.33333333       0.33333333       0.00000000 </v>
   <v>       0.44444444       0.44444444       0.00000000 </v>
   <v>      -0.44444444       0.44444444       0.00000000 </v>
   <v>       0.33333333       0.22222222       0.11111111 </v>
   <v>       0.44444444       0.22222222       0.11111111 </v>
   <v>      -0.44444444       0.22222222       0.11111111 </v>
   <v>       0.44444444       0.33333333       0.11111111 </v>
   <v>      -0.44444444       0.33333333       0.11111111 </v>
   <v>      -0.33333333       0.33333333       0.11111111 </v>
   <v>      -0.22222222       0.33333333       0.11111111 </v>
   <v>      -0.44444444       0.44444444       0.11111111 </v>
   <v>      -0.33333333       0.44444444       0.11111111 </v>
   <v>      -0.33333333       0.44444444       0.22222222 </v>
  </varray>
  <varray name="weights" >
   <v>       0.00137174 </v>
   <v>       0.01097394 </v>
   <v>       0.01097394 </v>
   <v>       0.01097394 </v>
   <v>       0.01097394 </v>
   <v>       0.00823045 </v>
   <v>       0.03292181 </v>
   <v>       0.03292181 </v>
   <v>       0.03292181 </v>
   <v>       0.03292181 </v>
   <v>       0.03292181 </v>
   <v>       0.03292181 </v>
   <v>       0.01646091 </v>
   <v>       0.00823045 </v>
   <v>       0.03292181 </v>
   <v>       0.03292181 </v>
   <v>       0.03292181 </v>
   <v>       0.03292181 </v>
   <v>       0.01646091 </v>
   <v>       0.00823045 </v>
   <v>       0.03292181 </v>
   <v>       0.03292181 </v>
   <v>       0.01646091 </v>
   <v>       0.00823045 </v>
   <v>       0.01646091 </v>
   <v>       0.03292181 </v>
   <v>       0.06584362 </v>
   <v>       0.06584362 </v>
   <v>       0.03292181 </v>
   <v>       0.06584362 </v>
   <v>       0.06584362 </v>
   <v>       0.03292181 </v>
   <v>       0.03292181 </v>
   <v>       0.03292181 </v>
   <v>       0.03292181 </v>
  </varray>
 </kpoints>
 <parameters>
  <separator name="general" >
   <i type="string" name="SYSTEM">unknown system</i>
   <i type="logical" name="LCOMPAT"> F  </i>
  </separator>
  <separator name="electronic" >
   <i type="string" name="PREC">accura</i>
   <i name="ENMAX">    350.00000000</i>
   <i name="ENAUG">    322.06900000</i>
   <i name="EDIFF">      0.00000100</i>
   <i type="int" name="IALGO">    38</i>
   <i type="int" name="IWAVPR">    11</i>
   <i type="int" name="NBANDS">     8</i>
   <i type="int" name="NBANDSLOW">    -1</i>
   <i type="int" name="NBANDSHIGH">    -1</i>
   <i name="NELECT">      8.00000000</i>
   <i type="int" name="TURBO">     0</i>
   <i type="int" name="IRESTART">     0</i>
   <i type="int" name="NREBOOT">     0</i>
   <i type="int" name="NMIN">     0</i>
   <i name="EREF">      0.00000000</i>
   <separator name="electronic smearing" >
    <i type="int" name="ISMEAR">     0</i>
    <i name="SIGMA">      0.05000000</i>
    <i name="KSPACING">      0.50000000</i>
    <i type="logical" name="KGAMMA"> T  </i>
    <i type="logical" name="KBLOWUP"> T  </i>
   </separator>
   <separator name="electronic projectors" >
    <i type="logical" name="LREAL"> F  </i>
    <v name="ROPT">      0.00000000</v>
    <i type="int" name="LMAXPAW">  -100</i>
    <i type="int" name="LMAXMIX">     2</i>
    <i type="logical" name="NLSPLINE"> F  </i>
   </separator>
   <separator name="electronic startup" >
    <i type="int" name="ISTART">     0</i>
    <i type="int" name="ICHARG">     2</i>
    <i type="int" name="INIWAV">     1</i>
   </separator>
   <separator name="electronic spin" >
    <i type="int" name="ISPIN">     1</i>
    <i type="logical" name="LNONCOLLINEAR"> F  </i>
    <v name="MAGMOM">      1.00000000      1.00000000</v>
    <i name="NUPDOWN">     -1.00000000</i>
    <i type="logical" name="LSORBIT"> F  </i>
    <v name="SAXIS">      0.00000000      0.00000000      1.00000000</v>
    <i type="logical" name="LSPIRAL"> F  </i>
    <v name="QSPIRAL">      0.00000000      0.00000000      0.00000000</v>
    <i type="logical" name="LZEROZ"> F  </i>
   </separator>
   <separator name="electronic exchange-correlation" >
    <i type="logical" name="LASPH"> T  </i>
    <i type="logical" name="LMETAGGA"> F  </i>
   </separator>
   <separator name="electronic convergence" >
    <i type="int" name="NELM">    90</i>
    <i type="int" name="NELMDL">    -5</i>
    <i type="int" name="NELMIN">     6</i>
    <i name="ENINI">    350.00000000</i>
    <separator name="electronic convergence detail" >
     <i type="logical" name="LDIAG"> T  </i>
     <i type="logical" name="LSUBROT"> F  </i>
     <i name="WEIMIN">      0.00100000</i>
     <i name="EBREAK">      0.00000003</i>
     <i name="DEPER">      0.30000000</i>
     <i type="int" name="NRMM">     4</i>
     <i name="TIME">      0.40000000</i>
    </separator>
   </separator>
   <separator name="electronic mixer" >
    <i name="AMIX">      0.40000000</i>
    <i name="BMIX">      1.00000000</i>
    <i name="AMIN">      0.10000000</i>
    <i name="AMIX_MAG">      1.60000000</i>
    <i name="BMIX_MAG">      1.00000000</i>
    <separator name="electronic mixer details" >
     <i type="int" name="IMIX">     4</i>
     <i type="logical" name="MIXFIRST"> F  </i>
     <i type="int" name="MAXMIX">   -45</i>
     <i name="WC">    100.00000000</i>
     <i type="int" name="INIMIX">     1</i>
     <i type="int" name="MIXPRE">     1</i>
     <i type="int" name="MREMOVE">     5</i>
    </separator>
   </separator>
   <separator name="electronic dipolcorrection" >
    <i type="logical" name="LDIPOL"> F  </i>
    <i type="logical" name="LMONO"> F  </i>
    <i type="int" name="IDIPOL">     0</i>
    <i name="EPSILON">      1.00000000</i>
    <v name="DIPOL">   -100.00000000   -100.00000000   -100.00000000</v>
    <i name="EFIELD">      0.00000000</i>
   </separator>
  </separator>
  <separator name="grids" >
   <i type="int" name="NGX">    24</i>
   <i type="int" name="NGY">    24</i>
   <i type="int" name="NGZ">    24</i>
   <i type="int" name="NGXF">    48</i>
   <i type="int" name="NGYF">    48</i>
   <i type="int" name="NGZF">    48</i>
   <i type="logical" name="ADDGRID"> T  </i>
  </separator>
  <separator name="ionic" >
   <i type="int" name="NSW">   100</i>
   <i type="int" name="IBRION">     2</i>
   <i type="int" name="MDALGO">     0</i>
   <i type="int" name="ISIF">     3</i>
   <i name="PSTRESS">      0.00000000</i>
   <i name="EDIFFG">     -0.00200000</i>
   <i type="int" name="NFREE">     1</i>
   <i name="POTIM">      0.50000000</i>
   <i name="SMASS">     -3.00000000</i>
   <i name="SCALEE">      1.00000000</i>
  </separator>
  <separator name="ionic md" >
   <i name="TEBEG">      0.00010000</i>
   <i name="TEEND">      0.00010000</i>
   <i type="int" name="NBLOCK">     1</i>
   <i type="int" name="KBLOCK">   100</i>
   <i type="int" name="NPACO">   256</i>
   <i name="APACO">     16.00000000</i>
  </separator>
  <separator name="symmetry" >
   <i type="int" name="ISYM">     2</i>
   <i name="SYMPREC">      0.00001000</i>
  </separator>
  <separator name="dos" >
   <i type="int" name="LORBIT">     0</i>
   <v name="RWIGS">     -1.00000000</v>
   <i type="int" name="NEDOS">   301</i>
   <i name="EMIN">     10.00000000</i>
   <i name="EMAX">    -10.00000000</i>
   <i name="EFERMI">      0.00000000</i>
  </separator>
  <separator name="writing" >
   <i type="int" name="NWRITE">     2</i>
   <i type="logical" name="LWAVE"> F  </i>
   <i type="logical" name="LDOWNSAMPLE"> F  </i>
   <i type="logical" name="LCHARG"> F  </i>
   <i type="logical" name="LPARD"> F  </i>
   <i type="logical" name="LVTOT"> F  </i>
   <i type="logical" name="LVHAR"> F  </i>
   <i type="logical" name="LELF"> F  </i>
   <i type="logical" name="LOPTICS"> F  </i>
   <v name="STM">      0.00000000      0.00000000      0.00000000      0.00000000      0.00000000      0.00000000      0.00000000</v>
  </separator>
  <separator name="performance" >
   <i type="int" name="NPAR">     4</i>
   <i type="int" name="NSIM">     4</i>
   <i type="int" name="NBLK">    -1</i>
   <i type="logical" name="LPLANE"> T  </i>
   <i type="logical" name="LSCALAPACK"> T  </i>
   <i type="logical" name="LSCAAWARE"> F  </i>
   <i type="logical" name="LSCALU"> F  </i>
   <i type="logical" name="LASYNC"> F  </i>
   <i type="logical" name="LORBITALREAL"> F  </i>
  </separator>
  <separator name="miscellaneous" >
   <i type="int" name="IDIOT">     3</i>
   <i type="int" name="PHON_NSTRUCT">    -1</i>
   <i type="logical" name="LMUSIC"> F  </i>
   <v name="POMASS">     28.08500000</v>
   <v name="DARWINR">      0.00000000</v>
   <v name="DARWINV">      1.00000000</v>
   <i type="logical" name="LCORR"> T  </i>
  </separator>
  <i type="logical" name="GGA_COMPAT"> T  </i>
  <i type="logical" name="LBERRY"> F  </i>
  <i type="int" name="ICORELEVEL">     0</i>
  <i type="logical" name="LDAU"> F  </i>
  <i type="int" name="I_CONSTRAINED_M">     0</i>
  <separator name="electronic exchange-correlation" >
   <i type="string" name="GGA">--</i>
   <i type="int" name="VOSKOWN">     0</i>
   <i type="logical" name="LHFCALC"> F  </i>
   <i type="string" name="PRECFOCK"></i>
   <i type="logical" name="LSYMGRAD"> F  </i>
   <i type="logical" name="LHFONE"> F  </i>
   <i type="logical" name="LRHFCALC"> F  </i>
   <i type="logical" name="LTHOMAS"> F  </i>
   <i type="logical" name="LMODELHF"> F  </i>
   <i type="logical" name="LFOCKACE"> F  </i>
   <i name="ENCUT4O">     -1.00000000</i>
   <i type="int" name="EXXOEP">     0</i>
   <i type="int" name="FOURORBIT">     0</i>
   <i name="AEXX">      0.00000000</i>
   <i name="HFALPHA">      0.00000000</i>
   <i name="MCALPHA">      0.00000000</i>
   <i name="ALDAX">      1.00000000</i>
   <i name="AGGAX">      1.00000000</i>
   <i name="ALDAC">      1.00000000</i>
   <i name="AGGAC">      1.00000000</i>
   <i type="int" name="NKREDX">     1</i>
   <i type="int" name="NKREDY">     1</i>
   <i type="int" name="NKREDZ">     1</i>
   <i type="logical" name="SHIFTRED"> F  </i>
   <i type="logical" name="ODDONLY"> F  </i>
   <i type="logical" name="EVENONLY"> F  </i>
   <i type="int" name="LMAXFOCK">     0</i>
   <i type="int" name="NMAXFOCKAE">     0</i>
   <i type="logical" name="LFOCKAEDFT"> F  </i>
   <i name="HFSCREEN">      0.00000000</i>
   <i name="HFSCREENC">      0.00000000</i>
   <i type="int" name="NBANDSGWLOW">     0</i>
  </separator>
  <separator name="vdW DFT" >
   <i type="logical" name="LUSE_VDW"> F  </i>
   <i name="Zab_VDW">     -0.84910000</i>
   <i name="PARAM1">      0.12340000</i>
   <i name="PARAM2">      1.00000000</i>
   <i name="PARAM3">      0.00000000</i>
  </separator>
  <separator name="model GW" >
   <i type="int" name="MODEL_GW">     0</i>
   <i name="MODEL_EPS0">     12.09885805</i>
   <i name="MODEL_ALPHA">      1.00000000</i>
  </separator>
  <separator name="linear response parameters" >
   <i type="logical" name="LEPSILON"> F  </i>
   <i type="logical" name="LRPA"> F  </i>
   <i type="logical" name="LNABLA"> F  </i>
   <i type="logical" name="LVEL"> F  </i>
   <i type="int" name="KINTER">     0</i>
   <i name="CSHIFT">      0.10000000</i>
   <i name="OMEGAMAX">     -1.00000000</i>
   <i name="DEG_THRESHOLD">      0.00200000</i>
   <i name="RTIME">     -0.10000000</i>
   <i name="WPLASMAI">      0.00000000</i>
   <v name="DFIELD">      0.00000000      0.00000000      0.00000000</v>
   <v name="WPLASMA">      0.00000000      0.00000000      0.00000000      0.00000000      0.00000000      0.00000000      0.00000000      0.00000000      0.00000000</v>
  </separator>
  <separator name="orbital magnetization" >
   <i type="logical" name="NUCIND"> F  </i>
   <v name="MAGPOS">      0.00000000      0.00000000      0.00000000</v>
   <i type="logical" name="LNICSALL"> T  </i>
   <i type="logical" name="ORBITALMAG"> F  </i>
   <i type="logical" name="LMAGBLOCH"> F  </i>
   <i type="logical" name="LCHIMAG"> F  </i>
   <i type="logical" name="LGAUGE"> T  </i>
   <i type="int" name="MAGATOM">     0</i>
   <v name="MAGDIPOL">      0.00000000      0.00000000      0.00000000</v>
   <v name="AVECCONST">      0.00000000      0.00000000      0.00000000</v>
  </separator>
  <separator name="response functions" >
   <i type="logical" name="LFINITE_TEMPERATURE"> F  </i>
   <i type="logical" name="LADDER"> F  </i>
   <i type="logical" name="LRPAFORCE"> F  </i>
   <i type="logical" name="LFXC"> F  </i>
   <i type="logical" name="LHARTREE"> T  </i>
   <i type="int" name="IBSE">     0</i>
   <v type="int" name="KPOINT">    -1     0     0     0</v>
   <i type="logical" name="LTCTC"> F  </i>
   <i type="logical" name="LTCTE"> F  </i>
   <i type="logical" name="LTETE"> F  </i>
   <i type="logical" name="LTRIPLET"> F  </i>
   <i type="logical" name="LFXCEPS"> F  </i>
   <i type="logical" name="LFXHEG"> F  </i>
   <i type="int" name="NATURALO">     2</i>
   <i type="logical" name="LHOLEGF"> F  </i>
   <i type="logical" name="L2ORDER"> F  </i>
   <i type="logical" name="LDMP1"> F  </i>
   <i type="logical" name="LMP2LT"> F  </i>
   <i type="logical" name="LSMP2LT"> F  </i>
   <i type="logical" name="LGWLF"> F  </i>
   <i name="ENCUTGW">     -2.00000000</i>
   <i name="ENCUTGWSOFT">     -2.00000000</i>
   <i name="ENCUTLF">     -1.00000000</i>
   <i type="logical" name="LESF_SPLINES"> F  </i>
   <i type="int" name="LMAXMP2">    -1</i>
   <i name="SCISSOR">      0.00000000</i>
   <i type="int" name="NOMEGA">     0</i>
   <i type="int" name="NOMEGAR">     0</i>
   <i type="int" name="NBANDSGW">    -1</i>
   <i type="int" name="NBANDSO">    -1</i>
   <i type="int" name="NBANDSV">    -1</i>
   <i type="int" name="NELM">    90</i>
   <i type="int" name="NELMHF">     1</i>
   <i type="int" name="DIM">     3</i>
   <i type="int" name="IESPILON">     4</i>
   <i type="int" name="ANTIRES">     0</i>
   <i name="OMEGAMAX">    -30.00000000</i>
   <i name="OMEGAMIN">    -30.00000000</i>
   <i name="OMEGATL">   -200.00000000</i>
   <i type="int" name="OMEGAGRID">     0</i>
   <i name="CSHIFT">     -0.10000000</i>
   <i type="logical" name="LSELFENERGY"> F  </i>
   <i type="logical" name="LSPECTRAL"> F  </i>
   <i type="logical" name="LSPECTRALGW"> F  </i>
   <i type="logical" name="LSINGLES"> F  </i>
   <i type="logical" name="LFERMIGW"> F  </i>
   <i type="logical" name="ODDONLYGW"> F  </i>
   <i type="logical" name="EVENONLYGW"> F  </i>
   <i type="int" name="NKREDLFX">     1</i>
   <i type="int" name="NKREDLFY">     1</i>
   <i type="int" name="NKREDLFZ">     1</i>
   <i type="int" name="MAXMEM">  2800</i>
   <i type="int" name="TELESCOPE">     0</i>
   <i type="int" name="NTAUPAR">    -1</i>
   <i type="int" name="NOMEGAPAR">    -1</i>
   <i name="DAMP_NEWTON">      0.80000001</i>
   <i name="LAMBDA">      1.00000000</i>
  </separator>
  <separator name="External order field" >
   <i name="OFIELD_KAPPA">      0.00000000</i>
   <v name="OFIELD_K">      0.00000000      0.00000000      0.00000000</v>
   <i name="OFIELD_Q6_NEAR">      0.00000000</i>
   <i name="OFIELD_Q6_FAR">      0.00000000</i>
   <i name="OFIELD_A">      0.00000000</i>
  </separator>
 </parameters>
 <atominfo>
  <atoms>       2 </atoms>
  <types>       1 </types>
  <array name="atoms" >
   <dimension dim="1">ion</dimension>
   <field type="string">element</field>
   <field type="int">atomtype</field>
   <set>
    <rc><c>Si</c><c>   1</c></rc>
    <rc><c>Si</c><c>   1</c></rc>
   </set>
  </array>
  <array name="atomtypes" >
   <dimension dim="1">type</dimension>
   <field type="int">atomspertype</field>
   <field type="string">element</field>
   <field>mass</field>
   <field>valence</field>
   <field type="string">pseudopotential</field>
   <set>
    <rc><c>   2</c><c>Si</c><c>     28.08500000</c><c>      4.00000000</c><c>  PAW_PBE Si 05Jan2001                  </c></rc>
   </set>
  </array>
 </atominfo>
 <structure name="initialpos" >
  <crystal>
   <varray name="basis" >
    <v>       3.33357300       0.00000000       1.92463900 </v>
    <v>       1.11119100       3.14292400       1.92463900 </v>
    <v>       0.00000000       0.00000000       3.84927800 </v>
   </varray>
   <i name="volume">     40.32952685 </i>
   <varray name="rec_basis" >
    <v>       0.29997843      -0.10605835       0.00000000 </v>
    <v>       0.00000000       0.31817505       0.00000000 </v>
    <v>      -0.14998922      -0.10605835       0.25978898 </v>
   </varray>
  </crystal>
  <varray name="positions" >
   <v>       0.87500000       0.87500000       0.87500000 </v>
   <v>       0.12500000       0.12500000       0.12500000 </v>
  </varray>
 </structure>
 <calculation>
  <scstep>
   <time name="dav">    0.29    0.29</time>
   <time name="total">    0.49    0.50</time>
   <energy>
    <i name="alphaZ">      3.33880741 </i>
    <i name="ewald">   -227.98820643 </i>
    <i name="hartreedc">    -11.11484531 </i>
    <i name="XCdc">    -18.63153637 </i>
    <i name="pawpsdc">    176.24759923 </i>
    <i name="pawaedc">   -141.06103558 </i>
    <i name="eentropy">     -0.00203282 </i>
    <i name="bandstr">     15.74220887 </i>
    <i name="atom">    206.13125414 </i>
    <i name="e_fr_energy">      2.66221314 </i>
    <i name="e_wo_entrp">      2.66424596 </i>
    <i name="e_0_energy">      2.66322955 </i>
   </energy>
  </scstep>
  <scstep>
   <time name="dav">    0.42    0.44</time>
   <time name="total">    0.42    0.44</time>
   <energy>
    <i name="e_fr_energy">    -10.88015441 </i>
    <i name="e_wo_entrp">    -10.88015441 </i>
    <i name="e_0_energy">    -10.88015441 </i>
   </energy>
  </scstep>
  <scstep>
   <time name="dav">    0.33    0.34</time>
   <time name="total">    0.33    0.34</time>
   <energy>
    <i name="e_fr_energy">    -11.01950955 </i>
    <i name="e_wo_entrp">    -11.01950955 </i>
    <i name="e_0_energy">    -11.01950955 </i>
   </energy>
  </scstep>
  <scstep>
   <time name="dav">    0.43    0.44</time>
   <time name="total">    0.43    0.44</time>
   <energy>
    <i name="e_fr_energy">    -11.02020565 </i>
    <i name="e_wo_entrp">    -11.02020565 </i>
    <i name="e_0_energy">    -11.02020565 </i>
   </energy>
  </scstep>
  <scstep>
   <time name="dav">    0.35    0.37</time>
   <time name="total">    0.40    0.42</time>
   <energy>
    <i name="e_fr_energy">    -11.02020593 </i>
    <i name="e_wo_entrp">    -11.02020593 </i>
    <i name="e_0_energy">    -11.02020593 </i>
   </energy>
  </scstep>
  <scstep>
   <time name="dav">    0.34    0.34</time>
   <time name="total">    0.59    0.59</time>
   <energy>
    <i name="e_fr_energy">    -10.89844550 </i>
    <i name="e_wo_entrp">    -10.89844550 </i>
    <i name="e_0_energy">    -10.89844550 </i>
   </energy>
  </scstep>
  <scstep>
   <time name="dav">    0.34    0.34</time>
   <time name="total">    0.58    0.60</time>
   <energy>
    <i name="e_fr_energy">    -10.84273772 </i>
    <i name="e_wo_entrp">    -10.84273772 </i>
    <i name="e_0_energy">    -10.84273772 </i>
   </energy>
  </scstep>
  <scstep>
   <time name="dav">    0.31    0.31</time>
   <time name="total">    0.56    0.57</time>
   <energy>
    <i name="e_fr_energy">    -10.84381905 </i>
    <i name="e_wo_entrp">    -10.84381905 </i>
    <i name="e_0_energy">    -10.84381905 </i>
   </energy>
  </scstep>
  <scstep>
   <time name="dav">    0.40    0.40</time>
   <time name="total">    0.65    0.67</time>
   <energy>
    <i name="e_fr_energy">    -10.84400910 </i>
    <i name="e_wo_entrp">    -10.84400910 </i>
    <i name="e_0_energy">    -10.84400910 </i>
   </energy>
  </scstep>
  <scstep>
   <time name="dav">    0.32    0.32</time>
   <time name="total">    0.56    0.57</time>
   <energy>
    <i name="e_fr_energy">    -10.84403674 </i>
    <i name="e_wo_entrp">    -10.84403674 </i>
    <i name="e_0_energy">    -10.84403674 </i>
   </energy>
  </scstep>
  <scstep>
   <time name="dav">    0.37    0.38</time>
   <time name="total">    0.58    0.59</time>
   <energy>
    <i name="alphaZ">      3.33880741 </i>
    <i name="ewald">   -227.98820643 </i>
    <i name="hartreedc">    -15.01068674 </i>
    <i name="XCdc">    -17.99491097 </i>
    <i name="pawpsdc">    865.04721997 </i>
    <i name="pawaedc">   -830.07892010 </i>
    <i name="eentropy">     -0.00000000 </i>
    <i name="bandstr">      5.71140627 </i>
    <i name="atom">    206.13125414 </i>
    <i name="e_fr_energy">    -10.84403645 </i>
    <i name="e_wo_entrp">    -10.84403645 </i>
    <i name="e_0_energy">    -10.84403645 </i>
   </energy>
  </scstep>
  <structure>
   <crystal>
    <varray name="basis" >
     <v>       3.33357300       0.00000000       1.92463900 </v>
     <v>       1.11119100       3.14292400       1.92463900 </v>
     <v>       0.00000000       0.00000000       3.84927800 </v>
    </varray>
    <i name="volume">     40.32952685 </i>
    <varray name="rec_basis" >
     <v>       0.29997843      -0.10605835       0.00000000 </v>
     <v>       0.00000000       0.31817505       0.00000000 </v>
     <v>      -0.14998922      -0.10605835       0.25978898 </v>
    </varray>
   </crystal>
   <varray name="positions" >
    <v>       0.87500000       0.87500000       0.87500000 </v>
    <v>       0.12500000       0.12500000       0.12500000 </v>
   </varray>
  </structure>
  <varray name="forces" >
   <v>      -0.00000000      -0.00000000      -0.00000000 </v>
   <v>       0.00000000       0.00000000       0.00000000 </v>
  </varray>
  <varray name="stress" >
   <v>      12.15222177      -0.00000000       0.00000000 </v>
   <v>      -0.00000000      12.15223132      -0.00000000 </v>
   <v>      -0.00000000       0.00000000      12.15221837 </v>
  </varray>
  <energy>
   <i name="e_fr_energy">    -10.84403645 </i>
   <i name="e_wo_entrp">    -10.84403645 </i>
   <i name="e_0_energy">    -10.84403645 </i>
  </energy>
  <time name="totalsc">    6.73    6.91</time>
 </calculation>
 <calculation>
  <scstep>
   <time name="dav">    0.33    0.33</time>
   <time name="total">    0.57    0.57</time>
   <energy>
    <i name="alphaZ">      3.26597838 </i>
    <i name="ewald">   -226.31831131 </i>
    <i name="hartreedc">    -14.90242870 </i>
    <i name="XCdc">    -18.10266868 </i>
    <i name="pawpsdc">    864.98759082 </i>
    <i name="pawaedc">   -830.01930710 </i>
    <i name="eentropy">     -0.00000000 </i>
    <i name="bandstr">      4.11007529 </i>
    <i name="atom">    206.13125414 </i>
    <i name="e_fr_energy">    -10.84781716 </i>
    <i name="e_wo_entrp">    -10.84781716 </i>
    <i name="e_0_energy">    -10.84781716 </i>
   </energy>
  </scstep>
  <scstep>
   <time name="dav">    0.35    0.35</time>
   <time name="total">    0.59    0.61</time>
   <energy>
    <i name="e_fr_energy">    -10.84605110 </i>
    <i name="e_wo_entrp">    -10.84605110 </i>
    <i name="e_0_energy">    -10.84605110 </i>
   </energy>
  </scstep>
  <scstep>
   <time name="dav">    0.32    0.33</time>
   <time name="total">    0.57    0.58</time>
   <energy>
    <i name="e_fr_energy">    -10.84511842 </i>
    <i name="e_wo_entrp">    -10.84511842 </i>
    <i name="e_0_energy">    -10.84511842 </i>
   </energy>
  </scstep>
  <scstep>
   <time name="dav">    0.37    0.37</time>
   <time name="total">    0.62    0.63</time>
   <energy>
    <i name="e_fr_energy">    -10.84511834 </i>
    <i name="e_wo_entrp">    -10.84511834 </i>
    <i name="e_0_energy">    -10.84511834 </i>
   </energy>
  </scstep>
  <scstep>
   <time name="dav">    0.33    0.33</time>
   <time name="total">    0.58    0.59</time>
   <energy>
    <i name="e_fr_energy">    -10.84511229 </i>
    <i name="e_wo_entrp">    -10.84511229 </i>
    <i name="e_0_energy">    -10.84511229 </i>
   </energy>
  </scstep>
  <scstep>
   <time name="dav">    0.21    0.21</time>
   <time name="total">    0.42    0.43</time>
   <energy>
    <i name="alphaZ">      3.26597838 </i>
    <i name="ewald">   -226.31831131 </i>
    <i name="hartreedc">    -15.27535643 </i>
    <i name="XCdc">    -18.09541092 </i>
    <i name="pawpsdc">    826.93102000 </i>
    <i name="pawaedc">   -791.94372794 </i>
    <i name="eentropy">     -0.00000000 </i>
    <i name="bandstr">      4.45944171 </i>
    <i name="atom">    206.13125414 </i>
    <i name="e_fr_energy">    -10.84511237 </i>
    <i name="e_wo_entrp">    -10.84511237 </i>
    <i name="e_0_energy">    -10.84511237 </i>
   </energy>
  </scstep>
  <structure>
   <crystal>
    <varray name="basis" >
     <v>       3.35816984       0.00000000       1.93883999 </v>
     <v>       1.11938995       3.16611415       1.93883999 </v>
     <v>      -0.00000000       0.00000000       3.87767998 </v>
    </varray>
    <i name="volume">     41.22884714 </i>
    <varray name="rec_basis" >
     <v>       0.29778125      -0.10528153       0.00000000 </v>
     <v>       0.00000000       0.31584458      -0.00000000 </v>
     <v>      -0.14889062      -0.10528153       0.25788616 </v>
    </varray>
   </crystal>
   <varray name="positions" >
    <v>       0.87500000       0.87500000       0.87500000 </v>
    <v>       0.12500000       0.12500000       0.12500000 </v>
   </varray>
  </structure>
  <varray name="forces" >
   <v>       0.00000000      -0.00000000      -0.00000000 </v>
   <v>      -0.00000000       0.00000000       0.00000000 </v>
  </varray>
  <varray name="stress" >
   <v>      -7.77527987      -0.00000000       0.00000000 </v>
   <v>       0.00000000      -7.77528607      -0.00000000 </v>
   <v>      -0.00000000       0.00000000      -7.77527767 </v>
  </varray>
  <energy>
   <i name="e_fr_energy">    -10.84511237 </i>
   <i name="e_wo_entrp">    -10.84511237 </i>
   <i name="e_0_energy">    -10.84511237 </i>
  </energy>
  <time name="totalsc">    4.46    4.60</time>
 </calculation>
 <calculation>
  <scstep>
   <time name="dav">    0.36    0.36</time>
   <time name="total">    0.61    0.62</time>
   <energy>
    <i name="alphaZ">      3.29541614 </i>
    <i name="ewald">   -226.99624882 </i>
    <i name="hartreedc">    -15.32190152 </i>
    <i name="XCdc">    -18.05181907 </i>
    <i name="pawpsdc">    825.03475836 </i>
    <i name="pawaedc">   -790.04757330 </i>
    <i name="eentropy">     -0.00000000 </i>
    <i name="bandstr">      5.10965951 </i>
    <i name="atom">    206.13125414 </i>
    <i name="e_fr_energy">    -10.84645455 </i>
    <i name="e_wo_entrp">    -10.84645455 </i>
    <i name="e_0_energy">    -10.84645455 </i>
   </energy>
  </scstep>
  <scstep>
   <time name="dav">    0.35    0.36</time>
   <time name="total">    0.60    0.61</time>
   <energy>
    <i name="e_fr_energy">    -10.84616255 </i>
    <i name="e_wo_entrp">    -10.84616255 </i>
    <i name="e_0_energy">    -10.84616255 </i>
   </energy>
  </scstep>
  <scstep>
   <time name="dav">    0.32    0.33</time>
   <time name="total">    0.56    0.58</time>
   <energy>
    <i name="e_fr_energy">    -10.84601433 </i>
    <i name="e_wo_entrp">    -10.84601433 </i>
    <i name="e_0_energy">    -10.84601433 </i>
   </energy>
  </scstep>
  <scstep>
   <time name="dav">    0.35    0.35</time>
   <time name="total">    0.62    0.63</time>
   <energy>
    <i name="e_fr_energy">    -10.84601497 </i>
    <i name="e_wo_entrp">    -10.84601497 </i>
    <i name="e_0_energy">    -10.84601497 </i>
   </energy>
  </scstep>
  <scstep>
   <time name="dav">    0.29    0.29</time>
   <time name="total">    0.53    0.55</time>
   <energy>
    <i name="e_fr_energy">    -10.84601663 </i>
    <i name="e_wo_entrp">    -10.84601663 </i>
    <i name="e_0_energy">    -10.84601663 </i>
   </energy>
  </scstep>
  <scstep>
   <time name="dav">    0.19    0.19</time>
   <time name="total">    0.39    0.40</time>
   <energy>
    <i name="alphaZ">      3.29541614 </i>
    <i name="ewald">   -226.99624882 </i>
    <i name="hartreedc">    -15.16858552 </i>
    <i name="XCdc">    -18.05459788 </i>
    <i name="pawpsdc">    840.88497220 </i>
    <i name="pawaedc">   -805.90539644 </i>
    <i name="eentropy">     -0.00000000 </i>
    <i name="bandstr">      4.96716955 </i>
    <i name="atom">    206.13125414 </i>
    <i name="e_fr_energy">    -10.84601662 </i>
    <i name="e_wo_entrp">    -10.84601662 </i>
    <i name="e_0_energy">    -10.84601662 </i>
   </energy>
  </scstep>
  <structure>
   <crystal>
    <varray name="basis" >
     <v>       3.34814048       0.00000000       1.93304953 </v>
     <v>       1.11604683       3.15665836       1.93304953 </v>
     <v>      -0.00000000       0.00000000       3.86609907 </v>
    </varray>
    <i name="volume">     40.86055222 </i>
    <varray name="rec_basis" >
     <v>       0.29867325      -0.10559690       0.00000000 </v>
     <v>       0.00000000       0.31679070      -0.00000000 </v>
     <v>      -0.14933663      -0.10559690       0.25865866 </v>
    </varray>
   </crystal>
   <varray name="positions" >
    <v>       0.87500000       0.87500000       0.87500000 </v>
    <v>       0.12500000       0.12500000       0.12500000 </v>
   </varray>
  </structure>
  <varray name="forces" >
   <v>       0.00000000      -0.00000000      -0.00000000 </v>
   <v>      -0.00000000       0.00000000       0.00000000 </v>
  </varray>
  <varray name="stress" >
   <v>       0.07000788       0.00000000       0.00000000 </v>
   <v>       0.00000000       0.07000793      -0.00000000 </v>
   <v>       0.00000000       0.00000000       0.07000786 </v>
  </varray>
  <energy>
   <i name="e_fr_energy">    -10.84601662 </i>
   <i name="e_wo_entrp">    -10.84601662 </i>
   <i name="e_0_energy">    -10.84601662 </i>
  </energy>
  <time name="totalsc">    4.40    4.53</time>
  <eigenvalues>
   <array>
    <dimension dim="1">band</dimension>
    <dimension dim="2">kpoint</dimension>
    <dimension dim="3">spin</dimension>
    <field>eigene</field>
    <field>occ</field>
    <set>
     <set comment="spin 1">
      <set comment="kpoint 1">
       <r>   -6.1960    1.0000 </r>
       <r>    5.6244    1.0000 </r>
       <r>    5.6244    1.0000 </r>
       <r>    5.6244    1.0000 </r>
       <r>    8.1817    0.0000 </r>
       <r>    8.1817    0.0000 </r>
       <r>    8.1817    0.0000 </r>
       <r>    8.7649    0.0000 </r>
      </set>
      <set comment="kpoint 2">
       <r>   -6.0373    1.0000 </r>
       <r>    4.2851    1.0000 </r>
       <r>    5.3920    1.0000 </r>
       <r>    5.3920    1.0000 </r>
       <r>    8.1162    0.0000 </r>
       <r>    8.5249    0.0000 </r>
       <r>    8.5249    0.0000 </r>
       <r>    9.9215    0.0000 </r>
      </set>
      <set comment="kpoint 3">
       <r>   -5.5712    1.0000 </r>
       <r>    2.2342    1.0000 </r>
       <r>    4.9747    1.0000 </r>
       <r>    4.9747    1.0000 </r>
       <r>    7.6919    0.0000 </r>
       <r>    9.0496    0.0000 </r>
       <r>    9.0496    0.0000 </r>
       <r>   11.9029    0.0000 </r>
      </set>
      <set comment="kpoint 4">
       <r>   -4.8450    1.0000 </r>
       <r>    0.3521    1.0000 </r>
       <r>    4.6408    1.0000 </r>
       <r>    4.6408    1.0000 </r>
       <r>    7.3195    0.0000 </r>
       <r>    9.1296    0.0000 </r>
       <r>    9.1296    0.0000 </r>
       <r>   13.4113    0.0000 </r>
      </set>
      <set comment="kpoint 5">
       <r>   -4.0732    1.0000 </r>
       <r>   -1.0154    1.0000 </r>
       <r>    4.4667    1.0000 </r>
       <r>    4.4667    1.0000 </r>
       <r>    7.1194    0.0000 </r>
       <r>    8.9992    0.0000 </r>
       <r>    8.9992    0.0000 </r>
       <r>   13.3645    0.0000 </r>
      </set>
      <set comment="kpoint 6">
       <r>   -5.9839    1.0000 </r>
       <r>    4.4961    1.0000 </r>
       <r>    4.9631    1.0000 </r>
       <r>    4.9631    1.0000 </r>
       <r>    7.7367    0.0000 </r>
       <r>    9.1040    0.0000 </r>
       <r>    9.1040    0.0000 </r>
       <r>    9.7353    0.0000 </r>
      </set>
      <set comment="kpoint 7">
       <r>   -5.6183    1.0000 </r>
       <r>    2.8394    1.0000 </r>
       <r>    4.4979    1.0000 </r>
       <r>    4.6238    1.0000 </r>
       <r>    7.8224    0.0000 </r>
       <r>    9.0913    0.0000 </r>
       <r>    9.8085    0.0000 </r>
       <r>   10.4982    0.0000 </r>
      </set>
      <set comment="kpoint 8">
       <r>   -4.9698    1.0000 </r>
       <r>    0.9636    1.0000 </r>
       <r>    4.1244    1.0000 </r>
       <r>    4.1966    1.0000 </r>
       <r>    7.9254    0.0000 </r>
       <r>    9.0815    0.0000 </r>
       <r>    9.9857    0.0000 </r>
       <r>   10.9471    0.0000 </r>
      </set>
      <set comment="kpoint 9">
       <r>   -4.1616    1.0000 </r>
       <r>   -0.5967    1.0000 </r>
       <r>    3.6955    1.0000 </r>
       <r>    4.1140    1.0000 </r>
       <r>    7.7943    0.0000 </r>
       <r>    9.0075    0.0000 </r>
       <r>    9.7188    0.0000 </r>
       <r>   12.3625    0.0000 </r>
      </set>
      <set comment="kpoint 10">
       <r>   -3.7937    1.0000 </r>
       <r>   -1.1550    1.0000 </r>
       <r>    3.4424    1.0000 </r>
       <r>    4.2499    1.0000 </r>
       <r>    7.7912    0.0000 </r>
       <r>    9.0376    0.0000 </r>
       <r>    9.4616    0.0000 </r>
       <r>   13.7412    0.0000 </r>
      </set>
      <set comment="kpoint 11">
       <r>   -4.4334    1.0000 </r>
       <r>   -0.1299    1.0000 </r>
       <r>    3.4120    1.0000 </r>
       <r>    4.5735    1.0000 </r>
       <r>    7.9700    0.0000 </r>
       <r>    9.2619    0.0000 </r>
       <r>    9.3369    0.0000 </r>
       <r>   12.9483    0.0000 </r>
      </set>
      <set comment="kpoint 12">
       <r>   -5.2160    1.0000 </r>
       <r>    1.5684    1.0000 </r>
       <r>    3.6454    1.0000 </r>
       <r>    5.0150    1.0000 </r>
       <r>    8.2903    0.0000 </r>
       <r>    9.1180    0.0000 </r>
       <r>    9.3939    0.0000 </r>
       <r>   11.6351    0.0000 </r>
      </set>
      <set comment="kpoint 13">
       <r>   -5.7752    1.0000 </r>
       <r>    3.3071    1.0000 </r>
       <r>    4.2905    1.0000 </r>
       <r>    5.4021    1.0000 </r>
       <r>    8.5670    0.0000 </r>
       <r>    8.6192    0.0000 </r>
       <r>    8.8193    0.0000 </r>
       <r>   10.8836    0.0000 </r>
      </set>
      <set comment="kpoint 14">
       <r>   -5.3537    1.0000 </r>
       <r>    2.5980    1.0000 </r>
       <r>    3.9864    1.0000 </r>
       <r>    3.9864    1.0000 </r>
       <r>    6.9504    0.0000 </r>
       <r>    9.1690    0.0000 </r>
       <r>   10.8419    0.0000 </r>
       <r>   10.8419    0.0000 </r>
      </set>
      <set comment="kpoint 15">
       <r>   -4.7945    1.0000 </r>
       <r>    1.2881    1.0000 </r>
       <r>    3.3694    1.0000 </r>
       <r>    3.6494    1.0000 </r>
       <r>    7.1035    0.0000 </r>
       <r>    8.7986    0.0000 </r>
       <r>   11.0732    0.0000 </r>
       <r>   11.4148    0.0000 </r>
      </set>
      <set comment="kpoint 16">
       <r>   -4.0113    1.0000 </r>
       <r>   -0.1535    1.0000 </r>
       <r>    2.6393    1.0000 </r>
       <r>    3.5520    1.0000 </r>
       <r>    7.2888    0.0000 </r>
       <r>    9.8048    0.0000 </r>
       <r>   10.8237    0.0000 </r>
       <r>   11.2388    0.0000 </r>
      </set>
      <set comment="kpoint 17">
       <r>   -3.3734    1.0000 </r>
       <r>   -1.0722    1.0000 </r>
       <r>    2.1285    1.0000 </r>
       <r>    3.7034    1.0000 </r>
       <r>    7.4350    0.0000 </r>
       <r>   10.5921    0.0000 </r>
       <r>   10.8640    0.0000 </r>
       <r>   11.7540    0.0000 </r>
      </set>
      <set comment="kpoint 18">
       <r>   -3.7752    1.0000 </r>
       <r>   -0.5085    1.0000 </r>
       <r>    1.9544    1.0000 </r>
       <r>    4.0766    1.0000 </r>
       <r>    7.8097    0.0000 </r>
       <r>   10.5250    0.0000 </r>
       <r>   10.5366    0.0000 </r>
       <r>   12.7431    0.0000 </r>
      </set>
      <set comment="kpoint 19">
       <r>   -4.5805    1.0000 </r>
       <r>    0.7146    1.0000 </r>
       <r>    2.3380    1.0000 </r>
       <r>    4.5881    1.0000 </r>
       <r>    8.3194    0.0000 </r>
       <r>    9.9198    0.0000 </r>
       <r>   10.2405    0.0000 </r>
       <r>   11.4121    0.0000 </r>
      </set>
      <set comment="kpoint 20">
       <r>   -4.3250    1.0000 </r>
       <r>    0.6330    1.0000 </r>
       <r>    3.2550    1.0000 </r>
       <r>    3.2550    1.0000 </r>
       <r>    6.3824    0.0000 </r>
       <r>    7.6463    0.0000 </r>
       <r>   12.8020    0.0000 </r>
       <r>   12.8020    0.0000 </r>
      </set>
      <set comment="kpoint 21">
       <r>   -3.5998    1.0000 </r>
       <r>   -0.4010    1.0000 </r>
       <r>    2.5474    1.0000 </r>
       <r>    3.1001    1.0000 </r>
       <r>    6.6253    0.0000 </r>
       <r>    7.6863    0.0000 </r>
       <r>   13.0932    0.0000 </r>
       <r>   13.1573    0.0000 </r>
      </set>
      <set comment="kpoint 22">
       <r>   -2.8236    1.0000 </r>
       <r>   -1.2815    1.0000 </r>
       <r>    1.6646    1.0000 </r>
       <r>    3.2049    1.0000 </r>
       <r>    6.8217    0.0000 </r>
       <r>    9.2616    0.0000 </r>
       <r>   12.7888    0.0000 </r>
       <r>   12.8836    0.0000 </r>
      </set>
      <set comment="kpoint 23">
       <r>   -2.9970    1.0000 </r>
       <r>   -1.0916    1.0000 </r>
       <r>    1.3099    1.0000 </r>
       <r>    3.5534    1.0000 </r>
       <r>    7.2126    0.0000 </r>
       <r>   11.4054    0.0000 </r>
       <r>   12.0359    0.0000 </r>
       <r>   12.6005    0.0000 </r>
      </set>
      <set comment="kpoint 24">
       <r>   -2.9358    1.0000 </r>
       <r>   -1.2508    1.0000 </r>
       <r>    2.8755    1.0000 </r>
       <r>    2.8755    1.0000 </r>
       <r>    6.2472    0.0000 </r>
       <r>    6.6477    0.0000 </r>
       <r>   14.8490    0.0000 </r>
       <r>   14.8490    0.0000 </r>
      </set>
      <set comment="kpoint 25">
       <r>   -2.1793    1.0000 </r>
       <r>   -2.0095    1.0000 </r>
       <r>    2.2778    1.0000 </r>
       <r>    2.9123    1.0000 </r>
       <r>    6.4732    0.0000 </r>
       <r>    7.2882    0.0000 </r>
       <r>   14.7242    0.0000 </r>
       <r>   15.0265    0.0000 </r>
      </set>
      <set comment="kpoint 26">
       <r>   -5.1569    1.0000 </r>
       <r>    1.8501    1.0000 </r>
       <r>    3.3065    1.0000 </r>
       <r>    4.4780    1.0000 </r>
       <r>    8.0014    0.0000 </r>
       <r>    9.3741    0.0000 </r>
       <r>   10.0288    0.0000 </r>
       <r>   10.6024    0.0000 </r>
      </set>
      <set comment="kpoint 27">
       <r>   -4.4357    1.0000 </r>
       <r>    0.3875    1.0000 </r>
       <r>    2.7038    1.0000 </r>
       <r>    4.0513    1.0000 </r>
       <r>    8.3800    0.0000 </r>
       <r>    9.2009    0.0000 </r>
       <r>   10.3860    0.0000 </r>
       <r>   11.0473    0.0000 </r>
      </set>
      <set comment="kpoint 28">
       <r>   -3.6579    1.0000 </r>
       <r>   -0.8723    1.0000 </r>
       <r>    2.5086    1.0000 </r>
       <r>    3.7363    1.0000 </r>
       <r>    8.4633    0.0000 </r>
       <r>    8.8239    0.0000 </r>
       <r>   10.9865    0.0000 </r>
       <r>   12.1083    0.0000 </r>
      </set>
      <set comment="kpoint 29">
       <r>   -4.1546    1.0000 </r>
       <r>    0.3363    1.0000 </r>
       <r>    2.6078    1.0000 </r>
       <r>    3.2846    1.0000 </r>
       <r>    7.4587    0.0000 </r>
       <r>    8.4662    0.0000 </r>
       <r>   11.0127    0.0000 </r>
       <r>   12.7155    0.0000 </r>
      </set>
      <set comment="kpoint 30">
       <r>   -3.3450    1.0000 </r>
       <r>   -0.7277    1.0000 </r>
       <r>    1.9560    1.0000 </r>
       <r>    2.9865    1.0000 </r>
       <r>    7.8615    0.0000 </r>
       <r>    9.5455    0.0000 </r>
       <r>   10.5785    0.0000 </r>
       <r>   13.1108    0.0000 </r>
      </set>
      <set comment="kpoint 31">
       <r>   -2.9900    1.0000 </r>
       <r>   -1.1420    1.0000 </r>
       <r>    1.5779    1.0000 </r>
       <r>    3.0960    1.0000 </r>
       <r>    8.1478    0.0000 </r>
       <r>   10.1181    0.0000 </r>
       <r>   11.6448    0.0000 </r>
       <r>   12.1739    0.0000 </r>
      </set>
      <set comment="kpoint 32">
       <r>   -3.6749    1.0000 </r>
       <r>   -0.3567    1.0000 </r>
       <r>    1.7242    1.0000 </r>
       <r>    3.5229    1.0000 </r>
       <r>    8.6470    0.0000 </r>
       <r>    9.6255    0.0000 </r>
       <r>   10.4732    0.0000 </r>
       <r>   12.4822    0.0000 </r>
      </set>
      <set comment="kpoint 33">
       <r>   -2.8232    1.0000 </r>
       <r>   -1.2684    1.0000 </r>
       <r>    2.3266    1.0000 </r>
       <r>    2.5334    1.0000 </r>
       <r>    7.2912    0.0000 </r>
       <r>    7.6037    0.0000 </r>
       <r>   12.7692    0.0000 </r>
       <r>   14.6062    0.0000 </r>
      </set>
      <set comment="kpoint 34">
       <r>   -2.3147    1.0000 </r>
       <r>   -1.7200    1.0000 </r>
       <r>    1.6231    1.0000 </r>
       <r>    2.6193    1.0000 </r>
       <r>    7.6586    0.0000 </r>
       <r>    9.2788    0.0000 </r>
       <r>   12.2292    0.0000 </r>
       <r>   12.4852    0.0000 </r>
      </set>
      <set comment="kpoint 35">
       <r>   -2.5554    1.0000 </r>
       <r>   -1.4134    1.0000 </r>
       <r>    1.6600    1.0000 </r>
       <r>    2.2897    1.0000 </r>
       <r>    9.4634    0.0000 </r>
       <r>    9.5744    0.0000 </r>
       <r>   10.1998    0.0000 </r>
       <r>   11.9396    0.0000 </r>
      </set>
     </set>
    </set>
   </array>
  </eigenvalues>
  <separator name="orbital magnetization" >
   <v name="MAGDIPOLOUT">      0.00000000      0.00000000      0.00000000</v>
  </separator>
  <dos>
   <i name="efermi">      5.89436254 </i>
   <total>
    <array>
     <dimension dim="1">gridpoints</dimension>
     <dimension dim="2">spin</dimension>
     <field>energy</field>
     <field>total</field>
     <field>integrated</field>
     <set>
      <set comment="spin 1">
       <r>    -7.2571     0.0000     0.0000 </r>
       <r>    -7.1793     0.0000     0.0000 </r>
       <r>    -7.1014     0.0000     0.0000 </r>
       <r>    -7.0236     0.0000     0.0000 </r>
       <r>    -6.9458     0.0000     0.0000 </r>
       <r>    -6.8680     0.0000     0.0000 </r>
       <r>    -6.7902     0.0000     0.0000 </r>
       <r>    -6.7124     0.0000     0.0000 </r>
       <r>    -6.6346     0.0000     0.0000 </r>
       <r>    -6.5567     0.0000     0.0000 </r>
       <r>    -6.4789     0.0000     0.0000 </r>
       <r>    -6.4011     0.0000     0.0000 </r>
       <r>    -6.3233     0.0000     0.0000 </r>
       <r>    -6.2455     0.0028     0.0002 </r>
       <r>    -6.1677     0.0250     0.0022 </r>
       <r>    -6.0898     0.0270     0.0043 </r>
       <r>    -6.0120     0.2405     0.0230 </r>
       <r>    -5.9342     0.2161     0.0398 </r>
       <r>    -5.8564     0.0220     0.0415 </r>
       <r>    -5.7786     0.1911     0.0564 </r>
       <r>    -5.7008     0.2283     0.0741 </r>
       <r>    -5.6230     0.3977     0.1051 </r>
       <r>    -5.5451     0.6482     0.1555 </r>
       <r>    -5.4673     0.0810     0.1618 </r>
       <r>    -5.3895     0.0333     0.1644 </r>
       <r>    -5.3117     0.1567     0.1766 </r>
       <r>    -5.2339     0.2936     0.1995 </r>
       <r>    -5.1561     0.9675     0.2748 </r>
       <r>    -5.0782     0.4429     0.3092 </r>
       <r>    -5.0004     0.1734     0.3227 </r>
       <r>    -4.9226     0.6099     0.3702 </r>
       <r>    -4.8448     0.2802     0.3920 </r>
       <r>    -4.7670     0.7328     0.4490 </r>
       <r>    -4.6892     0.1875     0.4636 </r>
       <r>    -4.6113     0.0816     0.4699 </r>
       <r>    -4.5335     0.3099     0.4941 </r>
       <r>    -4.4557     0.7387     0.5515 </r>
       <r>    -4.3779     1.7105     0.6846 </r>
       <r>    -4.3001     0.2820     0.7066 </r>
       <r>    -4.2223     0.1106     0.7152 </r>
       <r>    -4.1445     1.0460     0.7966 </r>
       <r>    -4.0666     0.7898     0.8580 </r>
       <r>    -3.9888     0.7010     0.9126 </r>
       <r>    -3.9110     0.2227     0.9299 </r>
       <r>    -3.8332     0.1560     0.9421 </r>
       <r>    -3.7554     1.1915     1.0348 </r>
       <r>    -3.6776     1.2419     1.1314 </r>
       <r>    -3.5997     1.9673     1.2845 </r>
       <r>    -3.5219     0.5100     1.3242 </r>
       <r>    -3.4441     0.0353     1.3269 </r>
       <r>    -3.3663     0.9302     1.3993 </r>
       <r>    -3.2885     1.4850     1.5149 </r>
       <r>    -3.2107     0.0996     1.5226 </r>
       <r>    -3.1329     0.0002     1.5226 </r>
       <r>    -3.0550     0.0771     1.5286 </r>
       <r>    -2.9772     1.3351     1.6325 </r>
       <r>    -2.8994     0.8992     1.7025 </r>
       <r>    -2.8216     0.8957     1.7722 </r>
       <r>    -2.7438     0.7915     1.8338 </r>
       <r>    -2.6660     0.0213     1.8354 </r>
       <r>    -2.5881     0.1494     1.8471 </r>
       <r>    -2.5103     0.6105     1.8946 </r>
       <r>    -2.4325     0.0856     1.9012 </r>
       <r>    -2.3547     0.1091     1.9097 </r>
       <r>    -2.2769     0.6178     1.9578 </r>
       <r>    -2.1991     0.2407     1.9765 </r>
       <r>    -2.1213     0.2806     1.9984 </r>
       <r>    -2.0434     0.0922     2.0056 </r>
       <r>    -1.9656     0.3064     2.0294 </r>
       <r>    -1.8878     0.0452     2.0329 </r>
       <r>    -1.8100     0.0047     2.0333 </r>
       <r>    -1.7322     0.3042     2.0570 </r>
       <r>    -1.6544     0.5105     2.0967 </r>
       <r>    -1.5765     0.0268     2.0988 </r>
       <r>    -1.4987     0.0067     2.0993 </r>
       <r>    -1.4209     0.3448     2.1261 </r>
       <r>    -1.3431     0.5248     2.1670 </r>
       <r>    -1.2653     1.0685     2.2501 </r>
       <r>    -1.1875     1.1061     2.3362 </r>
       <r>    -1.1096     2.1008     2.4997 </r>
       <r>    -1.0318     1.3685     2.6061 </r>
       <r>    -0.9540     0.3252     2.6314 </r>
       <r>    -0.8762     0.7665     2.6911 </r>
       <r>    -0.7984     0.9278     2.7633 </r>
       <r>    -0.7206     0.9741     2.8391 </r>
       <r>    -0.6428     0.7782     2.8996 </r>
       <r>    -0.5649     0.6687     2.9517 </r>
       <r>    -0.4871     0.7304     3.0085 </r>
       <r>    -0.4093     0.6261     3.0572 </r>
       <r>    -0.3315     1.0696     3.1405 </r>
       <r>    -0.2537     0.2228     3.1578 </r>
       <r>    -0.1759     0.3047     3.1815 </r>
       <r>    -0.0980     1.1824     3.2735 </r>
       <r>    -0.0202     0.2037     3.2894 </r>
       <r>     0.0576     0.0009     3.2894 </r>
       <r>     0.1354     0.0000     3.2894 </r>
       <r>     0.2132     0.0002     3.2895 </r>
       <r>     0.2910     0.1017     3.2974 </r>
       <r>     0.3688     1.2913     3.3979 </r>
       <r>     0.4467     1.3458     3.5026 </r>
       <r>     0.5245     0.0816     3.5089 </r>
       <r>     0.6023     0.0410     3.5121 </r>
       <r>     0.6801     0.2208     3.5293 </r>
       <r>     0.7579     0.3260     3.5547 </r>
       <r>     0.8357     0.0466     3.5583 </r>
       <r>     0.9136     0.0666     3.5635 </r>
       <r>     0.9914     0.5971     3.6099 </r>
       <r>     1.0692     0.1813     3.6241 </r>
       <r>     1.1470     0.0012     3.6241 </r>
       <r>     1.2248     0.0344     3.6268 </r>
       <r>     1.3026     0.7007     3.6814 </r>
       <r>     1.3805     0.5205     3.7219 </r>
       <r>     1.4583     0.0149     3.7230 </r>
       <r>     1.5361     0.3583     3.7509 </r>
       <r>     1.6139     2.3174     3.9312 </r>
       <r>     1.6917     2.1847     4.1012 </r>
       <r>     1.7695     0.9843     4.1778 </r>
       <r>     1.8473     0.4768     4.2149 </r>
       <r>     1.9252     0.9293     4.2872 </r>
       <r>     2.0030     1.8285     4.4295 </r>
       <r>     2.0808     0.3013     4.4530 </r>
       <r>     2.1586     0.6096     4.5004 </r>
       <r>     2.2364     0.4217     4.5332 </r>
       <r>     2.3142     1.4314     4.6446 </r>
       <r>     2.3921     1.0747     4.7282 </r>
       <r>     2.4699     0.3286     4.7538 </r>
       <r>     2.5477     2.2488     4.9288 </r>
       <r>     2.6255     2.3951     5.1152 </r>
       <r>     2.7033     2.0128     5.2718 </r>
       <r>     2.7811     0.9156     5.3431 </r>
       <r>     2.8589     0.7445     5.4010 </r>
       <r>     2.9368     0.9404     5.4742 </r>
       <r>     3.0146     1.3434     5.5787 </r>
       <r>     3.0924     1.4630     5.6926 </r>
       <r>     3.1702     1.5041     5.8096 </r>
       <r>     3.2480     1.0276     5.8896 </r>
       <r>     3.3258     1.8780     6.0357 </r>
       <r>     3.4037     1.5487     6.1562 </r>
       <r>     3.4815     1.3721     6.2630 </r>
       <r>     3.5593     1.4652     6.3770 </r>
       <r>     3.6371     1.3686     6.4835 </r>
       <r>     3.7149     2.5229     6.6798 </r>
       <r>     3.7927     1.7396     6.8152 </r>
       <r>     3.8705     0.1010     6.8231 </r>
       <r>     3.9484     0.0626     6.8279 </r>
       <r>     4.0262     0.7823     6.8888 </r>
       <r>     4.1040     2.3865     7.0745 </r>
       <r>     4.1818     1.6630     7.2039 </r>
       <r>     4.2596     1.2358     7.3001 </r>
       <r>     4.3374     0.8568     7.3668 </r>
       <r>     4.4153     0.1479     7.3783 </r>
       <r>     4.4931     1.4018     7.4873 </r>
       <r>     4.5709     1.5585     7.6086 </r>
       <r>     4.6487     1.6347     7.7358 </r>
       <r>     4.7265     0.4627     7.7718 </r>
       <r>     4.8043     0.0059     7.7723 </r>
       <r>     4.8822     0.0072     7.7729 </r>
       <r>     4.9600     0.4306     7.8064 </r>
       <r>     5.0378     1.1474     7.8956 </r>
       <r>     5.1156     0.2463     7.9148 </r>
       <r>     5.1934     0.0019     7.9150 </r>
       <r>     5.2712     0.0002     7.9150 </r>
       <r>     5.3490     0.0913     7.9221 </r>
       <r>     5.4269     0.7018     7.9767 </r>
       <r>     5.5047     0.1926     7.9917 </r>
       <r>     5.5825     0.0137     7.9927 </r>
       <r>     5.6603     0.0769     7.9987 </r>
       <r>     5.7381     0.0163     8.0000 </r>
       <r>     5.8159     0.0001     8.0000 </r>
       <r>     5.8938     0.0000     8.0000 </r>
       <r>     5.9716     0.0000     8.0000 </r>
       <r>     6.0494     0.0000     8.0000 </r>
       <r>     6.1272     0.0001     8.0000 </r>
       <r>     6.2050     0.0245     8.0019 </r>
       <r>     6.2828     0.1543     8.0139 </r>
       <r>     6.3606     0.0898     8.0209 </r>
       <r>     6.4385     0.2116     8.0374 </r>
       <r>     6.5163     0.3197     8.0622 </r>
       <r>     6.5941     0.2195     8.0793 </r>
       <r>     6.6719     0.7529     8.1379 </r>
       <r>     6.7497     0.1485     8.1495 </r>
       <r>     6.8275     0.4613     8.1854 </r>
       <r>     6.9054     0.3816     8.2151 </r>
       <r>     6.9832     0.1606     8.2276 </r>
       <r>     7.0610     0.1479     8.2391 </r>
       <r>     7.1388     0.8086     8.3020 </r>
       <r>     7.2166     0.4799     8.3393 </r>
       <r>     7.2944     1.3869     8.4473 </r>
       <r>     7.3723     1.1609     8.5376 </r>
       <r>     7.4501     0.9052     8.6080 </r>
       <r>     7.5279     0.7774     8.6685 </r>
       <r>     7.6057     0.5486     8.7112 </r>
       <r>     7.6835     1.6491     8.8395 </r>
       <r>     7.7613     1.4121     8.9494 </r>
       <r>     7.8391     2.8815     9.1737 </r>
       <r>     7.9170     2.1448     9.3406 </r>
       <r>     7.9948     1.5231     9.4591 </r>
       <r>     8.0726     0.7498     9.5174 </r>
       <r>     8.1504     1.1116     9.6039 </r>
       <r>     8.2282     0.9357     9.6767 </r>
       <r>     8.3060     0.7430     9.7346 </r>
       <r>     8.3839     1.4512     9.8475 </r>
       <r>     8.4617     1.9603    10.0000 </r>
       <r>     8.5395     1.7676    10.1376 </r>
       <r>     8.6173     0.8954    10.2073 </r>
       <r>     8.6951     0.8551    10.2738 </r>
       <r>     8.7729     0.4623    10.3098 </r>
       <r>     8.8507     2.0942    10.4727 </r>
       <r>     8.9286     0.5396    10.5147 </r>
       <r>     9.0064     0.9633    10.5897 </r>
       <r>     9.0842     2.7752    10.8056 </r>
       <r>     9.1620     2.6669    11.0132 </r>
       <r>     9.2398     2.1580    11.1811 </r>
       <r>     9.3176     2.2987    11.3600 </r>
       <r>     9.3955     1.8106    11.5008 </r>
       <r>     9.4733     1.7049    11.6335 </r>
       <r>     9.5511     1.7932    11.7731 </r>
       <r>     9.6289     1.7580    11.9099 </r>
       <r>     9.7067     0.8021    11.9723 </r>
       <r>     9.7845     1.1155    12.0591 </r>
       <r>     9.8623     1.2233    12.1543 </r>
       <r>     9.9402     0.6521    12.2050 </r>
       <r>    10.0180     1.1317    12.2931 </r>
       <r>    10.0958     1.0993    12.3786 </r>
       <r>    10.1736     1.3770    12.4858 </r>
       <r>    10.2514     0.9398    12.5589 </r>
       <r>    10.3292     0.3107    12.5831 </r>
       <r>    10.4071     1.1676    12.6739 </r>
       <r>    10.4849     1.4401    12.7860 </r>
       <r>    10.5627     2.8668    13.0091 </r>
       <r>    10.6405     2.6373    13.2143 </r>
       <r>    10.7183     0.2612    13.2346 </r>
       <r>    10.7961     0.2511    13.2542 </r>
       <r>    10.8740     1.5750    13.3767 </r>
       <r>    10.9518     1.4789    13.4918 </r>
       <r>    11.0296     2.7659    13.7070 </r>
       <r>    11.1074     2.1698    13.8759 </r>
       <r>    11.1852     0.2742    13.8972 </r>
       <r>    11.2630     0.5834    13.9426 </r>
       <r>    11.3408     0.2461    13.9618 </r>
       <r>    11.4187     0.9387    14.0348 </r>
       <r>    11.4965     0.7016    14.0894 </r>
       <r>    11.5743     0.0896    14.0964 </r>
       <r>    11.6521     1.4906    14.2124 </r>
       <r>    11.7299     1.1660    14.3031 </r>
       <r>    11.8077     0.5996    14.3498 </r>
       <r>    11.8856     0.1946    14.3649 </r>
       <r>    11.9634     0.7709    14.4249 </r>
       <r>    12.0412     0.4995    14.4638 </r>
       <r>    12.1190     1.2847    14.5637 </r>
       <r>    12.1968     1.9431    14.7149 </r>
       <r>    12.2746     1.0600    14.7974 </r>
       <r>    12.3524     0.4107    14.8294 </r>
       <r>    12.4303     0.6051    14.8765 </r>
       <r>    12.5081     1.1911    14.9692 </r>
       <r>    12.5859     0.5546    15.0123 </r>
       <r>    12.6637     0.3393    15.0387 </r>
       <r>    12.7415     1.2807    15.1384 </r>
       <r>    12.8193     2.1228    15.3036 </r>
       <r>    12.8972     0.9564    15.3780 </r>
       <r>    12.9750     0.8887    15.4471 </r>
       <r>    13.0528     0.3868    15.4772 </r>
       <r>    13.1306     1.9270    15.6272 </r>
       <r>    13.2084     1.1971    15.7203 </r>
       <r>    13.2862     0.0719    15.7259 </r>
       <r>    13.3641     0.1614    15.7385 </r>
       <r>    13.4419     0.3403    15.7650 </r>
       <r>    13.5197     0.0584    15.7695 </r>
       <r>    13.5975     0.0003    15.7695 </r>
       <r>    13.6753     0.0264    15.7716 </r>
       <r>    13.7531     0.5086    15.8112 </r>
       <r>    13.8309     0.3064    15.8350 </r>
       <r>    13.9088     0.0047    15.8354 </r>
       <r>    13.9866     0.0000    15.8354 </r>
       <r>    14.0644     0.0000    15.8354 </r>
       <r>    14.1422     0.0000    15.8354 </r>
       <r>    14.2200     0.0000    15.8354 </r>
       <r>    14.2978     0.0000    15.8354 </r>
       <r>    14.3757     0.0000    15.8354 </r>
       <r>    14.4535     0.0000    15.8354 </r>
       <r>    14.5313     0.0144    15.8365 </r>
       <r>    14.6091     0.4368    15.8705 </r>
       <r>    14.6869     0.4472    15.9053 </r>
       <r>    14.7647     0.3213    15.9303 </r>
       <r>    14.8425     0.2304    15.9482 </r>
       <r>    14.9204     0.2335    15.9664 </r>
       <r>    14.9982     0.0982    15.9740 </r>
       <r>    15.0760     0.2994    15.9973 </r>
       <r>    15.1538     0.0341    16.0000 </r>
       <r>    15.2316     0.0001    16.0000 </r>
       <r>    15.3094     0.0000    16.0000 </r>
       <r>    15.3873     0.0000    16.0000 </r>
       <r>    15.4651     0.0000    16.0000 </r>
       <r>    15.5429     0.0000    16.0000 </r>
       <r>    15.6207     0.0000    16.0000 </r>
       <r>    15.6985     0.0000    16.0000 </r>
       <r>    15.7763     0.0000    16.0000 </r>
       <r>    15.8541     0.0000    16.0000 </r>
       <r>    15.9320     0.0000    16.0000 </r>
       <r>    16.0098     0.0000    16.0000 </r>
       <r>    16.0876     0.0000    16.0000 </r>
      </set>
     </set>
    </array>
   </total>
  </dos>
 </calculation>
 <structure name="finalpos" >
  <crystal>
   <varray name="basis" >
    <v>       3.34814048       0.00000000       1.93304953 </v>
    <v>       1.11604683       3.15665836       1.93304953 </v>
    <v>      -0.00000000       0.00000000       3.86609907 </v>
   </varray>
   <i name="volume">     40.86055222 </i>
   <varray name="rec_basis" >
    <v>       0.29867325      -0.10559690       0.00000000 </v>
    <v>       0.00000000       0.31679070      -0.00000000 </v>
    <v>      -0.14933663      -0.10559690       0.25865866 </v>
   </varray>
  </crystal>
  <varray name="positions" >
   <v>       0.87500000       0.87500000       0.87500000 </v>
   <v>       0.12500000       0.12500000       0.12500000 </v>
  </varray>
 </structure>
</modeling>
