unknown system                          
   1.01500000000000     
     1.515927    1.515927    1.515927
     1.515927   -1.515927   -1.515927
    -1.515927    1.515927   -1.515927
   Si
     1
Direct
  0.000000  0.000000  0.000000
 
   36   36   36
 -2.4211     -2.1897     -1.5248     -.51000     0.72994      2.0496      3.3061      4.3806      5.1932      5.7092    
  5.9372      5.9218      5.7328      5.4527      5.1613      4.9050      4.7049      4.5782      4.5346      4.5782    
  4.7049      4.9050      5.1613      5.4527      5.7328      5.9218      5.9372      5.7092      5.1932      4.3806    
  3.3061      2.0496     0.72994     -.51000     -1.5248     -2.1897     -2.1897     -2.1140     -1.5978     -.70650    
 0.44880      1.7295      2.9918      4.1092      4.9898      5.5847      5.8892      5.9369      5.7904      5.5281    
  5.2328      4.9625      4.7420      4.5898      4.5180      4.5326      4.6321      4.8089      5.0482      5.3307    
  5.6235      5.8567      5.9468      5.8193      5.4201      4.7276      3.7605      2.5826      1.2988     0.43678E-01
 -1.0383     -1.8152     -1.5248     -1.5978     -1.2476     -.51965     0.49372      1.6673      2.8643      3.9572    
  4.8473      5.4746      5.8229      5.9138      5.8009      5.5564      5.2612      4.9799      4.7423      4.5672    
  4.4688      4.4547      4.5261      4.6773      4.8967      5.1662      5.4628      5.7339      5.9000      5.8851    
  5.6277      5.0946      4.2885      3.2546      2.0795     0.88243     -.20067     -1.0383     -.51000     -.70650    
 -.51965     0.25685E-01 0.85842      1.8718      2.9422      3.9482      4.7900      5.4012      5.7557      5.8646    
  5.7712      5.5401      5.2468      4.9579      4.7066      4.5119      4.3894      4.3479      4.3911      4.5155    
  4.7121      4.9653      5.2562      5.5518      5.7853      5.8813      5.7752      5.4236      4.8151      3.9756    
  2.9706      1.8992     0.88243     0.43678E-01 0.72994     0.44880     0.49372     0.85842      1.4933      2.3134    
  3.2126      4.0816      4.8251      5.3753      5.6992      5.7992      5.7086      5.4834      5.1919      4.8985    
  4.6371      4.4268      4.2832      4.2169      4.2328      4.3299      4.5014      4.7353      5.0143      5.3174    
  5.6000      5.7929      5.8311      5.6647      5.2697      4.6542      3.8624      2.9706      2.0795      1.2988    
  2.0496      1.7295      1.6673      1.8718      2.3134      2.9289      3.6330      4.3323      4.9410      5.3942    
  5.6563      5.7229      5.6189      5.3913      5.1004      4.8051      4.5375      4.3156      4.1552      4.0672    
  4.0579      4.1281      4.2737      4.4850      4.7482      5.0456      5.3528      5.6182      5.7792      5.7833    
  5.5968      5.2126      4.6542      3.9756      3.2546      2.5826      3.3061      2.9918      2.8643      2.9422    
  3.2126      3.6330      4.1390      4.6553      5.1092      5.4427      5.6208      5.6357      5.5052      5.2682    
  4.9768      4.6822      4.4120      4.1831      4.0105      3.9049      3.8736      3.9187      4.0381      4.2249    
  4.4683      4.7532      5.0627      5.3691      5.6210      5.7658      5.7642      5.5968      5.2697      4.8151    
  4.2885      3.7605      4.3806      4.1092      3.9572      3.9482      4.0816      4.3323      4.6553      4.9938    
  5.2902      5.4958      5.5796      5.5327      5.3682      5.1179      4.8262      4.5350      4.2660      4.0347    
  3.8547      3.7365      3.6870      3.7098      3.8041      3.9656      4.1860      4.4537      4.7539      5.0703    
  5.3746      5.6203      5.7658      5.7833      5.6647      5.4236      5.0946      4.7276      5.1932      4.9898    
  4.8473      4.7900      4.8251      4.9410      5.1092      5.2902      5.4412      5.5245      5.5155      5.4060    
  5.2067      4.9436      4.6538      4.3688      4.1048      3.8757      3.6934      3.5675      3.5047      3.5088    
  3.5804      3.7169      3.9127      4.1588      4.4437      4.7532      5.0723      5.3746      5.6210      5.7792    
  5.8311      5.7752      5.6277      5.4201      5.7092      5.5847      5.4746      5.4012      5.3753      5.3942    
  5.4427      5.4958      5.5245      5.5026      5.4122      5.2480      5.0195      4.7487      4.4650      4.1893    
  3.9340      3.7113      3.5316      3.4032      3.3321      3.3221      3.3743      3.4877      3.6586      3.8806    
  4.1448      4.4402      4.7532      5.0703      5.3691      5.6182      5.7929      5.8813      5.8851      5.8193    
  5.9372      5.8892      5.8229      5.7557      5.6992      5.6563      5.6208      5.5796      5.5155      5.4122    
  5.2590      5.0545      4.8077      4.5377      4.2647      4.0014      3.7586      3.5466      3.3741      3.2481    
  3.1739      3.1545      3.1917      3.2850      3.4323      3.6294      3.8699      4.1448      4.4437      4.7539    
  5.0627      5.3528      5.6000      5.7853      5.9000      5.9468      5.9218      5.9369      5.9138      5.8646    
  5.7992      5.7229      5.6357      5.5327      5.4060      5.2480      5.0545      4.8275      4.5765      4.3162    
  4.0578      3.8104      3.5836      3.3860      3.2248      3.1059      3.0333      3.0097      3.0365      3.1138    
  3.2405      3.4139      3.6294      3.8806      4.1588      4.4537      4.7532      5.0456      5.3174      5.5518    
  5.7339      5.8567      5.7328      5.7904      5.8009      5.7712      5.7086      5.6189      5.5052      5.3682    
  5.2067      5.0195      4.8077      4.5765      4.3344      4.0895      3.8490      3.6210      3.4135      3.2337    
  3.0876      2.9797      2.9132      2.8902      2.9117      2.9779      3.0880      3.2405      3.4323      3.6586    
  3.9127      4.1860      4.4683      4.7482      5.0143      5.2562      5.4628      5.6235      5.4527      5.5281    
  5.5564      5.5401      5.4834      5.3913      5.2682      5.1179      4.9436      4.7487      4.5377      4.3162    
  4.0895      3.8632      3.6439      3.4381      3.2527      3.0936      2.9655      2.8721      2.8157      2.7978    
  2.8190      2.8792      2.9779      3.1138      3.2850      3.4877      3.7169      3.9656      4.2249      4.4850    
  4.7353      4.9653      5.1662      5.3307      5.1613      5.2328      5.2612      5.2468      5.1919      5.1004    
  4.9768      4.8262      4.6538      4.4650      4.2647      4.0578      3.8490      3.6439      3.4478      3.2664    
  3.1052      2.9689      2.8614      2.7854      2.7426      2.7339      2.7595      2.8190      2.9117      3.0365    
  3.1917      3.3743      3.5804      3.8041      4.0381      4.2737      4.5014      4.7121      4.8967      5.0482    
  4.9050      4.9625      4.9799      4.9579      4.8985      4.8051      4.6822      4.5350      4.3688      4.1893    
  4.0014      3.8104      3.6210      3.4381      3.2664      3.1106      2.9748      2.8629      2.7777      2.7215    
  2.6953      2.6995      2.7339      2.7978      2.8902      3.0097      3.1545      3.3221      3.5088      3.7098    
  3.9187      4.1281      4.3299      4.5155      4.6773      4.8089      4.7049      4.7420      4.7423      4.7066    
  4.6371      4.5375      4.4120      4.2660      4.1048      3.9340      3.7586      3.5836      3.4135      3.2527    
  3.1052      2.9748      2.8647      2.7779      2.7165      2.6819      2.6748      2.6953      2.7426      2.8157    
  2.9132      3.0333      3.1739      3.3321      3.5047      3.6870      3.8736      4.0579      4.2328      4.3911    
  4.5261      4.6321      4.5782      4.5898      4.5672      4.5119      4.4268      4.3156      4.1831      4.0347    
  3.8757      3.7113      3.5466      3.3860      3.2337      3.0936      2.9689      2.8629      2.7779      2.7162    
  2.6791      2.6676      2.6819      2.7215      2.7854      2.8721      2.9797      3.1059      3.2481      3.4032    
  3.5675      3.7365      3.9049      4.0672      4.2169      4.3479      4.4547      4.5326      4.5346      4.5180    
  4.4688      4.3894      4.2832      4.1552      4.0105      3.8547      3.6934      3.5316      3.3741      3.2248    
  3.0876      2.9655      2.8614      2.7777      2.7165      2.6791      2.6666      2.6791      2.7165      2.7777    
  2.8614      2.9655      3.0876      3.2248      3.3741      3.5316      3.6934      3.8547      4.0105      4.1552    
  4.2832      4.3894      4.4688      4.5180      4.5782      4.5326      4.4547      4.3479      4.2169      4.0672    
  3.9049      3.7365      3.5675      3.4032      3.2481      3.1059      2.9797      2.8721      2.7854      2.7215    
  2.6819      2.6676      2.6791      2.7162      2.7779      2.8629      2.9689      3.0936      3.2337      3.3860    
  3.5466      3.7113      3.8757      4.0347      4.1831      4.3156      4.4268      4.5119      4.5672      4.5898    
  4.7049      4.6321      4.5261      4.3911      4.2328      4.0579      3.8736      3.6870      3.5047      3.3321    
  3.1739      3.0333      2.9132      2.8157      2.7426      2.6953      2.6748      2.6819      2.7165      2.7779    
  2.8647      2.9748      3.1052      3.2527      3.4135      3.5836      3.7586      3.9340      4.1048      4.2660    
  4.4120      4.5375      4.6371      4.7066      4.7423      4.7420      4.9050      4.8089      4.6773      4.5155    
  4.3299      4.1281      3.9187      3.7098      3.5088      3.3221      3.1545      3.0097      2.8902      2.7978    
  2.7339      2.6995      2.6953      2.7215      2.7777      2.8629      2.9748      3.1106      3.2664      3.4381    
  3.6210      3.8104      4.0014      4.1893      4.3688      4.5350      4.6822      4.8051      4.8985      4.9579    
  4.9799      4.9625      5.1613      5.0482      4.8967      4.7121      4.5014      4.2737      4.0381      3.8041    
  3.5804      3.3743      3.1917      3.0365      2.9117      2.8190      2.7595      2.7339      2.7426      2.7854    
  2.8614      2.9689      3.1052      3.2664      3.4478      3.6439      3.8490      4.0578      4.2647      4.4650    
  4.6538      4.8262      4.9768      5.1004      5.1919      5.2468      5.2612      5.2328      5.4527      5.3307    
  5.1662      4.9653      4.7353      4.4850      4.2249      3.9656      3.7169      3.4877      3.2850      3.1138    
  2.9779      2.8792      2.8190      2.7978      2.8157      2.8721      2.9655      3.0936      3.2527      3.4381    
  3.6439      3.8632      4.0895      4.3162      4.5377      4.7487      4.9436      5.1179      5.2682      5.3913    
  5.4834      5.5401      5.5564      5.5281      5.7328      5.6235      5.4628      5.2562      5.0143      4.7482    
  4.4683      4.1860      3.9127      3.6586      3.4323      3.2405      3.0880      2.9779      2.9117      2.8902    
  2.9132      2.9797      3.0876      3.2337      3.4135      3.6210      3.8490      4.0895      4.3344      4.5765    
  4.8077      5.0195      5.2067      5.3682      5.5052      5.6189      5.7086      5.7712      5.8009      5.7904    
  5.9218      5.8567      5.7339      5.5518      5.3174      5.0456      4.7532      4.4537      4.1588      3.8806    
  3.6294      3.4139      3.2405      3.1138      3.0365      3.0097      3.0333      3.1059      3.2248      3.3860    
  3.5836      3.8104      4.0578      4.3162      4.5765      4.8275      5.0545      5.2480      5.4060      5.5327    
  5.6357      5.7229      5.7992      5.8646      5.9138      5.9369      5.9372      5.9468      5.9000      5.7853    
  5.6000      5.3528      5.0627      4.7539      4.4437      4.1448      3.8699      3.6294      3.4323      3.2850    
  3.1917      3.1545      3.1739      3.2481      3.3741      3.5466      3.7586      4.0014      4.2647      4.5377    
  4.8077      5.0545      5.2590      5.4122      5.5155      5.5796      5.6208      5.6563      5.6992      5.7557    
  5.8229      5.8892      5.7092      5.8193      5.8851      5.8813      5.7929      5.6182      5.3691      5.0703    
  4.7532      4.4402      4.1448      3.8806      3.6586      3.4877      3.3743      3.3221      3.3321      3.4032    
  3.5316      3.7113      3.9340      4.1893      4.4650      4.7487      5.0195      5.2480      5.4122      5.5026    
  5.5245      5.4958      5.4427      5.3942      5.3753      5.4012      5.4746      5.5847      5.1932      5.4201    
  5.6277      5.7752      5.8311      5.7792      5.6210      5.3746      5.0723      4.7532      4.4437      4.1588    
  3.9127      3.7169      3.5804      3.5088      3.5047      3.5675      3.6934      3.8757      4.1048      4.3688    
  4.6538      4.9436      5.2067      5.4060      5.5155      5.5245      5.4412      5.2902      5.1092      4.9410    
  4.8251      4.7900      4.8473      4.9898      4.3806      4.7276      5.0946      5.4236      5.6647      5.7833    
  5.7658      5.6203      5.3746      5.0703      4.7539      4.4537      4.1860      3.9656      3.8041      3.7098    
  3.6870      3.7365      3.8547      4.0347      4.2660      4.5350      4.8262      5.1179      5.3682      5.5327    
  5.5796      5.4958      5.2902      4.9938      4.6553      4.3323      4.0816      3.9482      3.9572      4.1092    
  3.3061      3.7605      4.2885      4.8151      5.2697      5.5968      5.7642      5.7658      5.6210      5.3691    
  5.0627      4.7532      4.4683      4.2249      4.0381      3.9187      3.8736      3.9049      4.0105      4.1831    
  4.4120      4.6822      4.9768      5.2682      5.5052      5.6357      5.6208      5.4427      5.1092      4.6553    
  4.1390      3.6330      3.2126      2.9422      2.8643      2.9918      2.0496      2.5826      3.2546      3.9756    
  4.6542      5.2126      5.5968      5.7833      5.7792      5.6182      5.3528      5.0456      4.7482      4.4850    
  4.2737      4.1281      4.0579      4.0672      4.1552      4.3156      4.5375      4.8051      5.1004      5.3913    
  5.6189      5.7229      5.6563      5.3942      4.9410      4.3323      3.6330      2.9289      2.3134      1.8718    
  1.6673      1.7295     0.72994      1.2988      2.0795      2.9706      3.8624      4.6542      5.2697      5.6647    
  5.8311      5.7929      5.6000      5.3174      5.0143      4.7353      4.5014      4.3299      4.2328      4.2169    
  4.2832      4.4268      4.6371      4.8985      5.1919      5.4834      5.7086      5.7992      5.6992      5.3753    
  4.8251      4.0816      3.2126      2.3134      1.4933     0.85842     0.49372     0.44880     -.51000     0.43678E-01
 0.88243      1.8992      2.9706      3.9756      4.8151      5.4236      5.7752      5.8813      5.7853      5.5518    
  5.2562      4.9653      4.7121      4.5155      4.3911      4.3479      4.3894      4.5119      4.7066      4.9579    
  5.2468      5.5401      5.7712      5.8646      5.7557      5.4012      4.7900      3.9482      2.9422      1.8718    
 0.85842     0.25685E-01 -.51965     -.70650     -1.5248     -1.0383     -.20067     0.88243      2.0795      3.2546    
  4.2885      5.0946      5.6277      5.8851      5.9000      5.7339      5.4628      5.1662      4.8967      4.6773    
  4.5261      4.4547      4.4688      4.5672      4.7423      4.9799      5.2612      5.5564      5.8009      5.9138    
  5.8229      5.4746      4.8473      3.9572      2.8643      1.6673     0.49372     -.51965     -1.2476     -1.5978    
 -2.1897     -1.8152     -1.0383     0.43678E-01  1.2988      2.5826      3.7605      4.7276      5.4201      5.8193    
  5.9468      5.8567      5.6235      5.3307      5.0482      4.8089      4.6321      4.5326      4.5180      4.5898    
  4.7420      4.9625      5.2328      5.5281      5.7904      5.9369      5.8892      5.5847      4.9898      4.1092    
  2.9918      1.7295     0.44880     -.70650     -1.5978     -2.1140     -2.1897     -2.1140     -1.5977     -.70645    
 0.44879      1.7295      2.9918      4.1092      4.9898      5.5847      5.8892      5.9369      5.7904      5.5281    
  5.2328      4.9625      4.7420      4.5898      4.5180      4.5326      4.6321      4.8089      5.0482      5.3307    
  5.6235      5.8567      5.9468      5.8193      5.4201      4.7276      3.7605      2.5826      1.2989     0.43717E-01
 -1.0383     -1.8153     -2.1140     -2.1897     -1.8153     -1.0383     0.43722E-01  1.2989      2.5826      3.7605    
  4.7276      5.4201      5.8193      5.9468      5.8567      5.6235      5.3307      5.0482      4.8089      4.6321    
  4.5326      4.5180      4.5898      4.7420      4.9625      5.2328      5.5281      5.7904      5.9369      5.8892    
  5.5847      4.9898      4.1093      2.9918      1.7294     0.44881     -.70646     -1.5977     -1.5977     -1.8153    
 -1.5977     -.97318     -.21073E-01  1.1401      2.3726      3.5411      4.5335      5.2748      5.7334      5.9187    
  5.8750      5.6701      5.3844      5.0932      4.8382      4.6395      4.5139      4.4707      4.5139      4.6395    
  4.8382      5.0932      5.3844      5.6701      5.8750      5.9187      5.7334      5.2748      4.5335      3.5411    
  2.3726      1.1402     -.21063E-01 -.97321     -.70645     -1.0383     -.97318     -.51968     0.26326      1.2754    
  2.3923      3.4849      4.4404      5.1774      5.6538      5.8682      5.8539      5.6709      5.3933      5.0970    
  4.8295      4.6123      4.4630      4.3927      4.4073      4.5054      4.6797      4.9165      5.1974      5.4955    
  5.7513      5.8867      5.8314      5.5328      4.9687      4.1531      3.1416      2.0271     0.92974     -.21080E-01
 0.44879     0.43722E-01 -.21073E-01 0.26326     0.85835      1.6856      2.6381      3.5997      4.4626      5.1444    
  5.5964      5.8082      5.8028      5.6312      5.3597      5.0609      4.7842      4.5521      4.3824      4.2876    
  4.2747      4.3450      4.4932      4.7088      4.9752      5.2730      5.5640      5.7800      5.8507      5.7188    
  5.3509      4.7453      3.9372      2.9979      2.0271      1.1401      1.7295      1.2989      1.1401      1.2754    
  1.6856      2.3134      3.0731      3.8653      4.5929      5.1771      5.5672      5.7463      5.7288      5.5563    
  5.2871      4.9874      4.7050      4.4620      4.2759      4.1597      4.1218      4.1649      4.2865      4.4780    
  4.7268      5.0151      5.3209      5.5965      5.7757      5.8000      5.6276      5.2435      4.6636      3.9372    
  3.1416      2.3726      2.9918      2.5826      2.3726      2.3923      2.6381      3.0731      3.6330      4.2374    
  4.8038      5.2614      5.5614      5.6835      5.6358      5.4513      5.1801      4.8807      4.5959      4.3461    
  4.1481      4.0146      3.9549      3.9728      4.0678      4.2341      4.4615      4.7355      5.0389      5.3462    
  5.6060      5.7609      5.7653      5.5928      5.2435      4.7453      4.1531      3.5411      4.1092      3.7605    
  3.5411      3.4849      3.5997      3.8653      4.2374      4.6553      5.0527      5.3701      5.5640      5.6139    
  5.5235      5.3193      5.0431      4.7456      4.4617      4.2094      4.0041      3.8582      3.7806      3.7764    
  3.8462      3.9867      4.1903      4.4457      4.7381      5.0509      5.3565      5.6064      5.7537      5.7653    
  5.6276      5.3509      4.9687      4.5335      4.9898      4.7276      4.5335      4.4404      4.4626      4.5929    
  4.8038      5.0527      5.2902      5.4692      5.5541      5.5266      5.3889      5.1619      4.8808      4.5873    
  4.3077      4.0570      3.8494      3.6960      3.6055      3.5829      3.6302      3.7456      3.9243      4.1573    
  4.4333      4.7378      5.0554      5.3590      5.6064      5.7609      5.8000      5.7188      5.5329      5.2748    
  5.5847      5.4201      5.2748      5.1774      5.1444      5.1771      5.2614      5.3701      5.4692      5.5245    
  5.5094      5.4098      5.2277      4.9804      4.6977      4.4113      4.1392      3.8944      3.6892      3.5335    
  3.4350      3.3987      3.4271      3.5196      3.6732      3.8819      4.1367      4.4264      4.7375      5.0554    
  5.3565      5.6060      5.7757      5.8507      5.8314      5.7334      5.8892      5.8193      5.7334      5.6538    
  5.5964      5.5672      5.5614      5.5640      5.5541      5.5094      5.4122      5.2535      5.0369      4.7770    
  4.4987      4.2228      3.9616      3.7267      3.5284      3.3754      3.2741      3.2291      3.2429      3.3157    
  3.4460      3.6297      3.8606      4.1298      4.4264      4.7378      5.0509      5.3462      5.5965      5.7800    
  5.8867      5.9187      5.9369      5.9468      5.9187      5.8682      5.8082      5.7463      5.6835      5.6139    
  5.5266      5.4098      5.2535      5.0545      4.8175      4.5564      4.2889      4.0267      3.7801      3.5588    
  3.3717      3.2259      3.1267      3.0781      3.0820      3.1393      3.2492      3.4093      3.6152      3.8606    
  4.1367      4.4333      4.7381      5.0389      5.3209      5.5640      5.7513      5.8750      5.7904      5.8567    
  5.8750      5.8539      5.8028      5.7288      5.6358      5.5235      5.3889      5.2277      5.0369      4.8175    
  4.5765      4.3251      4.0729      3.8280      3.5994      3.3953      3.2231      3.0885      2.9960      2.9485    
  2.9477      2.9942      3.0879      3.2272      3.4093      3.6297      3.8819      4.1573      4.4457      4.7355    
  5.0151      5.2730      5.4955      5.6701      5.5281      5.6235      5.6701      5.6709      5.6312      5.5563    
  5.4513      5.3193      5.1619      4.9804      4.7770      4.5564      4.3251      4.0895      3.8559      3.6317    
  3.4241      3.2403      3.0862      2.9665      2.8846      2.8427      2.8419      2.8828      2.9651      3.0879    
  3.2492      3.4460      3.6732      3.9243      4.1903      4.4615      4.7268      4.9752      5.1974      5.3844    
  5.2328      5.3307      5.3844      5.3933      5.3597      5.2871      5.1801      5.0431      4.8808      4.6977    
  4.4987      4.2889      4.0729      3.8559      3.6439      3.4428      3.2588      3.0977      2.9644      2.8625    
  2.7946      2.7623      2.7662      2.8065      2.8828      2.9942      3.1393      3.3157      3.5196      3.7456    
  3.9867      4.2341      4.4780      4.7088      4.9165      5.0932      4.9625      5.0482      5.0932      5.0970    
  5.0609      4.9874      4.8807      4.7456      4.5873      4.4113      4.2228      4.0267      3.8280      3.6317    
  3.4428      3.2664      3.1077      2.9711      2.8605      2.7788      2.7279      2.7087      2.7216      2.7662    
  2.8419      2.9477      3.0820      3.2429      3.4271      3.6302      3.8462      4.0678      4.2865      4.4932    
  4.6797      4.8382      4.7420      4.8089      4.8382      4.8295      4.7842      4.7050      4.5959      4.4617    
  4.3077      4.1392      3.9616      3.7801      3.5994      3.4241      3.2588      3.1077      2.9748      2.8636    
  2.7771      2.7174      2.6859      2.6830      2.7087      2.7623      2.8427      2.9485      3.0781      3.2291    
  3.3987      3.5829      3.7764      3.9728      4.1649      4.3450      4.5054      4.6395      4.5898      4.6321    
  4.6395      4.6123      4.5521      4.4620      4.3461      4.2094      4.0570      3.8944      3.7267      3.5588    
  3.3953      3.2403      3.0977      2.9711      2.8636      2.7779      2.7162      2.6798      2.6697      2.6859    
  2.7279      2.7946      2.8846      2.9960      3.1267      3.2741      3.4350      3.6055      3.7806      3.9549    
  4.1218      4.2747      4.4073      4.5139      4.5180      4.5326      4.5139      4.4630      4.3824      4.2759    
  4.1481      4.0041      3.8494      3.6892      3.5284      3.3717      3.2231      3.0862      2.9644      2.8605    
  2.7771      2.7162      2.6791      2.6669      2.6798      2.7174      2.7788      2.8625      2.9665      3.0885    
  3.2259      3.3754      3.5335      3.6960      3.8582      4.0146      4.1597      4.2876      4.3928      4.4707    
  4.5326      4.5180      4.4707      4.3927      4.2876      4.1597      4.0146      3.8582      3.6960      3.5335    
  3.3754      3.2259      3.0885      2.9665      2.8625      2.7788      2.7174      2.6798      2.6669      2.6791    
  2.7162      2.7771      2.8605      2.9644      3.0862      3.2231      3.3717      3.5284      3.6892      3.8494    
  4.0041      4.1481      4.2759      4.3824      4.4630      4.5139      4.6321      4.5898      4.5139      4.4073    
  4.2747      4.1218      3.9549      3.7806      3.6055      3.4350      3.2741      3.1267      2.9960      2.8846    
  2.7946      2.7279      2.6859      2.6697      2.6798      2.7162      2.7779      2.8636      2.9711      3.0977    
  3.2403      3.3953      3.5588      3.7267      3.8944      4.0570      4.2094      4.3461      4.4620      4.5521    
  4.6123      4.6395      4.8089      4.7420      4.6395      4.5054      4.3450      4.1649      3.9728      3.7764    
  3.5829      3.3987      3.2291      3.0781      2.9485      2.8427      2.7623      2.7087      2.6830      2.6859    
  2.7174      2.7771      2.8636      2.9748      3.1077      3.2588      3.4241      3.5994      3.7801      3.9616    
  4.1392      4.3077      4.4617      4.5959      4.7050      4.7842      4.8295      4.8382      5.0482      4.9625    
  4.8382      4.6797      4.4932      4.2865      4.0678      3.8462      3.6302      3.4271      3.2429      3.0820    
  2.9477      2.8419      2.7662      2.7216      2.7087      2.7279      2.7788      2.8605      2.9711      3.1077    
  3.2664      3.4428      3.6317      3.8280      4.0267      4.2228      4.4113      4.5873      4.7455      4.8807    
  4.9874      5.0609      5.0971      5.0932      5.3307      5.2328      5.0932      4.9165      4.7088      4.4780    
  4.2341      3.9867      3.7456      3.5196      3.3157      3.1393      2.9942      2.8828      2.8065      2.7662    
  2.7623      2.7946      2.8625      2.9644      3.0977      3.2588      3.4428      3.6439      3.8559      4.0729    
  4.2889      4.4987      4.6977      4.8808      5.0431      5.1801      5.2871      5.3597      5.3933      5.3844    
  5.6235      5.5281      5.3844      5.1974      4.9752      4.7268      4.4615      4.1903      3.9243      3.6732    
  3.4460      3.2492      3.0879      2.9651      2.8828      2.8419      2.8427      2.8846      2.9665      3.0862    
  3.2403      3.4241      3.6317      3.8559      4.0895      4.3251      4.5564      4.7770      4.9804      5.1619    
  5.3193      5.4513      5.5563      5.6312      5.6710      5.6701      5.8567      5.7904      5.6701      5.4955    
  5.2730      5.0151      4.7355      4.4457      4.1573      3.8819      3.6297      3.4093      3.2272      3.0879    
  2.9942      2.9477      2.9485      2.9960      3.0885      3.2231      3.3953      3.5994      3.8280      4.0729    
  4.3251      4.5765      4.8175      5.0369      5.2277      5.3889      5.5235      5.6358      5.7289      5.8028    
  5.8539      5.8750      5.9468      5.9369      5.8750      5.7513      5.5640      5.3209      5.0389      4.7381    
  4.4333      4.1367      3.8606      3.6152      3.4093      3.2492      3.1393      3.0820      3.0781      3.1267    
  3.2259      3.3717      3.5588      3.7801      4.0267      4.2889      4.5564      4.8175      5.0546      5.2535    
  5.4098      5.5267      5.6139      5.6835      5.7463      5.8082      5.8682      5.9187      5.8193      5.8892    
  5.9187      5.8867      5.7800      5.5965      5.3462      5.0509      4.7378      4.4264      4.1298      3.8606    
  3.6297      3.4460      3.3157      3.2429      3.2291      3.2741      3.3754      3.5284      3.7267      3.9616    
  4.2228      4.4987      4.7770      5.0369      5.2535      5.4122      5.5094      5.5540      5.5640      5.5614    
  5.5673      5.5964      5.6538      5.7334      5.4201      5.5847      5.7334      5.8314      5.8507      5.7757    
  5.6060      5.3565      5.0554      4.7375      4.4264      4.1367      3.8819      3.6732      3.5196      3.4271    
  3.3987      3.4350      3.5335      3.6892      3.8944      4.1392      4.4113      4.6977      4.9804      5.2277    
  5.4098      5.5094      5.5245      5.4692      5.3701      5.2614      5.1771      5.1444      5.1774      5.2748    
  4.7276      4.9898      5.2748      5.5328      5.7188      5.8000      5.7609      5.6064      5.3590      5.0554    
  4.7378      4.4333      4.1573      3.9243      3.7456      3.6302      3.5829      3.6055      3.6960      3.8494    
  4.0570      4.3077      4.5873      4.8808      5.1619      5.3889      5.5267      5.5540      5.4692      5.2902    
  5.0527      4.8038      4.5929      4.4626      4.4404      4.5335      3.7605      4.1093      4.5335      4.9687    
  5.3509      5.6276      5.7653      5.7537      5.6064      5.3565      5.0509      4.7381      4.4457      4.1903    
  3.9867      3.8462      3.7764      3.7806      3.8582      4.0041      4.2094      4.4617      4.7455      5.0431    
  5.3193      5.5235      5.6139      5.5640      5.3701      5.0527      4.6553      4.2374      3.8653      3.5997    
  3.4849      3.5411      2.5826      2.9918      3.5411      4.1531      4.7453      5.2435      5.5928      5.7653    
  5.7609      5.6060      5.3462      5.0389      4.7355      4.4615      4.2341      4.0678      3.9728      3.9549    
  4.0146      4.1481      4.3461      4.5959      4.8807      5.1801      5.4513      5.6358      5.6835      5.5614    
  5.2614      4.8038      4.2374      3.6330      3.0731      2.6381      2.3923      2.3726      1.2989      1.7294    