unknown system                          
   1.01500000000000     
     1.515927    1.515927    1.515927
     1.515927   -1.515927   -1.515927
    -1.515927    1.515927   -1.515927
   Si
     1
Direct
  0.000000  0.000000  0.000000
 
   36   36   36
 -.24211431529E+01 -.21896997287E+01 -.15247918485E+01 -.50999861278E+00 0.72993732715E+00
 0.20495890811E+01 0.33060988499E+01 0.43805956768E+01 0.51931896799E+01 0.57091836497E+01
 0.59371673142E+01 0.59217832399E+01 0.57327816039E+01 0.54526538395E+01 0.51612966277E+01
 0.49050430343E+01 0.47049012609E+01 0.45782230443E+01 0.45346101808E+01 0.45782230443E+01
 0.47049012609E+01 0.49050430343E+01 0.51612966277E+01 0.54526538395E+01 0.57327816039E+01
 0.59217832399E+01 0.59371673142E+01 0.57091836497E+01 0.51931896799E+01 0.43805956768E+01
 0.33060988499E+01 0.20495890811E+01 0.72993732715E+00 -.50999861278E+00 -.15247918485E+01
 -.21896997287E+01 -.21896997287E+01 -.21139779244E+01 -.15977644211E+01 -.70649562206E+00
 0.44880445904E+00 0.17294585993E+01 0.29917795168E+01 0.41092436664E+01 0.49898135174E+01
 0.55846636613E+01 0.58892196576E+01 0.59369401359E+01 0.57904065134E+01 0.55280666712E+01
 0.52327949945E+01 0.49624571070E+01 0.47419581575E+01 0.45898039458E+01 0.45179813684E+01
 0.45325741633E+01 0.46321120019E+01 0.48089163581E+01 0.50481879611E+01 0.53307404680E+01
 0.56235440613E+01 0.58567185265E+01 0.59467727819E+01 0.58193179244E+01 0.54201103655E+01
 0.47275621307E+01 0.37604680560E+01 0.25826344932E+01 0.12988488713E+01 0.43677666576E-01
 -.10382991748E+01 -.18152349115E+01 -.15247918485E+01 -.15977644211E+01 -.12476223269E+01
 -.51965360881E+00 0.49371921380E+00 0.16673290557E+01 0.28643462109E+01 0.39572241087E+01
 0.48472605720E+01 0.54746463238E+01 0.58228516006E+01 0.59138084379E+01 0.58009132549E+01
 0.55563954401E+01 0.52611669012E+01 0.49798908239E+01 0.47423227499E+01 0.45672111307E+01
 0.44688354184E+01 0.44546673163E+01 0.45261442609E+01 0.46773446742E+01 0.48967319810E+01
 0.51662036663E+01 0.54627555921E+01 0.57338666534E+01 0.59000387921E+01 0.58850574286E+01
 0.56277150495E+01 0.50945532584E+01 0.42884864062E+01 0.32546293714E+01 0.20795381879E+01
 0.88242534744E+00 -.20066599738E+00 -.10382991748E+01 -.50999861278E+00 -.70649562206E+00
 -.51965360881E+00 0.25685102331E-01 0.85841644579E+00 0.18718478278E+01 0.29422359005E+01
 0.39481899029E+01 0.47899594340E+01 0.54012318296E+01 0.57557043383E+01 0.58645814472E+01
 0.57712399281E+01 0.55400879248E+01 0.52467823433E+01 0.49578932747E+01 0.47066368506E+01
 0.45119402212E+01 0.43893720678E+01 0.43479105186E+01 0.43911269012E+01 0.45154871602E+01
 0.47120507928E+01 0.49652650935E+01 0.52562366786E+01 0.55517567496E+01 0.57853150688E+01
 0.58812557164E+01 0.57751778167E+01 0.54236221904E+01 0.48151216559E+01 0.39755848184E+01
 0.29705757285E+01 0.18992219051E+01 0.88242534744E+00 0.43677666576E-01 0.72993732715E+00
 0.44880445904E+00 0.49371921380E+00 0.85841644579E+00 0.14932947008E+01 0.23133747938E+01
 0.32126209708E+01 0.40816131310E+01 0.48251133164E+01 0.53752844266E+01 0.56991568835E+01
 0.57991699629E+01 0.57086191635E+01 0.54834460226E+01 0.51919184282E+01 0.48985217374E+01
 0.46371436019E+01 0.44267782014E+01 0.42832297559E+01 0.42169189607E+01 0.42327622481E+01
 0.43298929242E+01 0.45014071381E+01 0.47353124104E+01 0.50142842202E+01 0.53174110350E+01
 0.56000411260E+01 0.57929222692E+01 0.58311294529E+01 0.56647092119E+01 0.52697242141E+01
 0.46542227873E+01 0.38623688804E+01 0.29705757285E+01 0.20795381879E+01 0.12988488713E+01
 0.20495890811E+01 0.17294585993E+01 0.16673290557E+01 0.18718478278E+01 0.23133747938E+01
 0.29289430534E+01 0.36330160254E+01 0.43322963411E+01 0.49409714019E+01 0.53942099626E+01
 0.56562513897E+01 0.57228654776E+01 0.56188971200E+01 0.53912871531E+01 0.51003998372E+01
 0.48051038999E+01 0.45374676971E+01 0.43155519186E+01 0.41551921333E+01 0.40671763267E+01
 0.40579117934E+01 0.41281256892E+01 0.42736962934E+01 0.44850214077E+01 0.47482111546E+01
 0.50455525700E+01 0.53527654142E+01 0.56182202687E+01 0.57792251639E+01 0.57833322429E+01
 0.55967512350E+01 0.52125832284E+01 0.46542227873E+01 0.39755848184E+01 0.32546293714E+01
 0.25826344932E+01 0.33060988499E+01 0.29917795168E+01 0.28643462109E+01 0.29422359005E+01
 0.32126209708E+01 0.36330160254E+01 0.41390327381E+01 0.46552906726E+01 0.51092198134E+01
 0.54426687535E+01 0.56208395583E+01 0.56356679109E+01 0.55052481938E+01 0.52681884992E+01
 0.49768123471E+01 0.46821819848E+01 0.44120488374E+01 0.41831065974E+01 0.40104919939E+01
 0.39049473492E+01 0.38736420056E+01 0.39186796543E+01 0.40381224604E+01 0.42249245918E+01
 0.44683480738E+01 0.47532369811E+01 0.50627479116E+01 0.53690823511E+01 0.56209522931E+01
 0.57657572142E+01 0.57641815535E+01 0.55967512350E+01 0.52697242141E+01 0.48151216559E+01
 0.42884864062E+01 0.37604680560E+01 0.43805956768E+01 0.41092436664E+01 0.39572241087E+01
 0.39481899029E+01 0.40816131310E+01 0.43322963411E+01 0.46552906726E+01 0.49938290111E+01
 0.52901828243E+01 0.54957686518E+01 0.55796199972E+01 0.55326540832E+01 0.53682165990E+01
 0.51179150439E+01 0.48261954969E+01 0.45349609815E+01 0.42660069139E+01 0.40347120806E+01
 0.38546972975E+01 0.37364579344E+01 0.36870485940E+01 0.37097851455E+01 0.38040942383E+01
 0.39656107959E+01 0.41860149028E+01 0.44537153345E+01 0.47539009264E+01 0.50703350572E+01
 0.53745920311E+01 0.56202604677E+01 0.57657572142E+01 0.57833322429E+01 0.56647092119E+01
 0.54236221904E+01 0.50945532584E+01 0.47275621307E+01 0.51931896799E+01 0.49898135174E+01
 0.48472605720E+01 0.47899594340E+01 0.48251133164E+01 0.49409714019E+01 0.51092198134E+01
 0.52901828243E+01 0.54412189556E+01 0.55245363635E+01 0.55154615826E+01 0.54059755320E+01
 0.52067003015E+01 0.49435834228E+01 0.46538495995E+01 0.43688405783E+01 0.41048423030E+01
 0.38756915709E+01 0.36933699651E+01 0.35674726034E+01 0.35047221218E+01 0.35088129467E+01
 0.35804124535E+01 0.37169284068E+01 0.39127261335E+01 0.41588251228E+01 0.44437098933E+01
 0.47532452930E+01 0.50723482665E+01 0.53745920311E+01 0.56209522931E+01 0.57792251639E+01
 0.58311294529E+01 0.57751778167E+01 0.56277150495E+01 0.54201103655E+01 0.57091836497E+01
 0.55846636613E+01 0.54746463238E+01 0.54012318296E+01 0.53752844266E+01 0.53942099626E+01
 0.54426687535E+01 0.54957686518E+01 0.55245363635E+01 0.55026179222E+01 0.54121656503E+01
 0.52479950215E+01 0.50195232633E+01 0.47486521400E+01 0.44650039851E+01 0.41892621379E+01
 0.39339551016E+01 0.37113396973E+01 0.35315954223E+01 0.34032405442E+01 0.33321459548E+01
 0.33221256392E+01 0.33743277513E+01 0.34877469334E+01 0.36585690677E+01 0.38806223705E+01
 0.41448415488E+01 0.44401575842E+01 0.47532452930E+01 0.50703350572E+01 0.53690823511E+01
 0.56182202687E+01 0.57929222692E+01 0.58812557164E+01 0.58850574286E+01 0.58193179244E+01
 0.59371673142E+01 0.58892196576E+01 0.58228516006E+01 0.57557043383E+01 0.56991568835E+01
 0.56562513897E+01 0.56208395583E+01 0.55796199972E+01 0.55154615826E+01 0.54121656503E+01
 0.52589550862E+01 0.50545499303E+01 0.48077227415E+01 0.45376617672E+01 0.42647401623E+01
 0.40014056317E+01 0.37586017555E+01 0.35465524291E+01 0.33740671056E+01 0.32481291870E+01
 0.31738703802E+01 0.31545445086E+01 0.31916749492E+01 0.32849714918E+01 0.34323009381E+01
 0.36294094254E+01 0.38698546270E+01 0.41448415488E+01 0.44437098933E+01 0.47539009264E+01
 0.50627479116E+01 0.53527654142E+01 0.56000411260E+01 0.57853150688E+01 0.59000387921E+01
 0.59467727819E+01 0.59217832399E+01 0.59369401359E+01 0.59138084379E+01 0.58645814472E+01
 0.57991699629E+01 0.57228654776E+01 0.56356679109E+01 0.55326540832E+01 0.54059755320E+01
 0.52479950215E+01 0.50545499303E+01 0.48274615251E+01 0.45764584179E+01 0.43161891729E+01
 0.40577562730E+01 0.38103881713E+01 0.35835931679E+01 0.33859600745E+01 0.32248357612E+01
 0.31059087252E+01 0.30333217633E+01 0.30097329141E+01 0.30365279616E+01 0.31138483288E+01
 0.32405288440E+01 0.34138816280E+01 0.36294094254E+01 0.38806223705E+01 0.41588251228E+01
 0.44537153345E+01 0.47532369811E+01 0.50455525700E+01 0.53174110350E+01 0.55517567496E+01
 0.57338666534E+01 0.58567185265E+01 0.57327816039E+01 0.57904065134E+01 0.58009132549E+01
 0.57712399281E+01 0.57086191635E+01 0.56188971200E+01 0.55052481938E+01 0.53682165990E+01
 0.52067003015E+01 0.50195232633E+01 0.48077227415E+01 0.45764584179E+01 0.43344234707E+01
 0.40895194799E+01 0.38490247116E+01 0.36210498340E+01 0.34135274765E+01 0.32337046531E+01
 0.30875585404E+01 0.29796714007E+01 0.29132231036E+01 0.28902211524E+01 0.29116981098E+01
 0.29778518374E+01 0.30880295488E+01 0.32405288440E+01 0.34323009381E+01 0.36585690677E+01
 0.39127261335E+01 0.41860149028E+01 0.44683480738E+01 0.47482111546E+01 0.50142842202E+01
 0.52562366786E+01 0.54627555921E+01 0.56235440613E+01 0.54526538395E+01 0.55280666712E+01
 0.55563954401E+01 0.55400879248E+01 0.54834460226E+01 0.53912871531E+01 0.52681884992E+01
 0.51179150439E+01 0.49435834228E+01 0.47486521400E+01 0.45376617672E+01 0.43161891729E+01
 0.40895194799E+01 0.38632450163E+01 0.36438650309E+01 0.34381464140E+01 0.32527315937E+01
 0.30935529338E+01 0.29654644602E+01 0.28720614412E+01 0.28157252692E+01 0.27978309981E+01
 0.28189696959E+01 0.28791581881E+01 0.29778518374E+01 0.31138483288E+01 0.32849714918E+01
 0.34877469334E+01 0.37169284068E+01 0.39656107959E+01 0.42249245918E+01 0.44850214077E+01
 0.47353124104E+01 0.49652650935E+01 0.51662036663E+01 0.53307404680E+01 0.51612966277E+01
 0.52327949945E+01 0.52611669012E+01 0.52467823433E+01 0.51919184282E+01 0.51003998372E+01
 0.49768123471E+01 0.48261954969E+01 0.46538495995E+01 0.44650039851E+01 0.42647401623E+01
 0.40577562730E+01 0.38490247116E+01 0.36438650309E+01 0.34477885687E+01 0.32664471086E+01
 0.31052359453E+01 0.29689282376E+01 0.28613780753E+01 0.27853560088E+01 0.27425929095E+01
 0.27339115834E+01 0.27594791712E+01 0.28189696959E+01 0.29116981098E+01 0.30365279616E+01
 0.31916749492E+01 0.33743277513E+01 0.35804124535E+01 0.38040942383E+01 0.40381224604E+01
 0.42736962934E+01 0.45014071381E+01 0.47120507928E+01 0.48967319810E+01 0.50481879611E+01
 0.49050430343E+01 0.49624571070E+01 0.49798908239E+01 0.49578932747E+01 0.48985217374E+01
 0.48051038999E+01 0.46821819848E+01 0.45349609815E+01 0.43688405783E+01 0.41892621379E+01
 0.40014056317E+01 0.38103881713E+01 0.36210498340E+01 0.34381464140E+01 0.32664471086E+01
 0.31105639839E+01 0.29747885107E+01 0.28628570188E+01 0.27777253117E+01 0.27214713434E+01
 0.26952641529E+01 0.26994948240E+01 0.27339115834E+01 0.27978309981E+01 0.28902211524E+01
 0.30097329141E+01 0.31545445086E+01 0.33221256392E+01 0.35088129467E+01 0.37097851455E+01
 0.39186796543E+01 0.41281256892E+01 0.43298929242E+01 0.45154871602E+01 0.46773446742E+01
 0.48089163581E+01 0.47049012609E+01 0.47419581575E+01 0.47423227499E+01 0.47066368506E+01
 0.46371436019E+01 0.45374676971E+01 0.44120488374E+01 0.42660069139E+01 0.41048423030E+01
 0.39339551016E+01 0.37586017555E+01 0.35835931679E+01 0.34135274765E+01 0.32527315937E+01
 0.31052359453E+01 0.29747885107E+01 0.28647430230E+01 0.27779180730E+01 0.27164926654E+01
 0.26818989544E+01 0.26748307518E+01 0.26952641529E+01 0.27425929095E+01 0.28157252692E+01
 0.29132231036E+01 0.30333217633E+01 0.31738703802E+01 0.33321459548E+01 0.35047221218E+01
 0.36870485940E+01 0.38736420056E+01 0.40579117934E+01 0.42327622481E+01 0.43911269012E+01
 0.45261442609E+01 0.46321120019E+01 0.45782230443E+01 0.45898039458E+01 0.45672111307E+01
 0.45119402212E+01 0.44267782014E+01 0.43155519186E+01 0.41831065974E+01 0.40347120806E+01
 0.38756915709E+01 0.37113396973E+01 0.35465524291E+01 0.33859600745E+01 0.32337046531E+01
 0.30935529338E+01 0.29689282376E+01 0.28628570188E+01 0.27779180730E+01 0.27161874234E+01
 0.26791445468E+01 0.26676498641E+01 0.26818989544E+01 0.27214713434E+01 0.27853560088E+01
 0.28720614412E+01 0.29796714007E+01 0.31059087252E+01 0.32481291870E+01 0.34032405442E+01
 0.35674726034E+01 0.37364579344E+01 0.39049473492E+01 0.40671763267E+01 0.42169189607E+01
 0.43479105186E+01 0.44546673163E+01 0.45325741633E+01 0.45346101808E+01 0.45179813684E+01
 0.44688354184E+01 0.43893720678E+01 0.42832297559E+01 0.41551921333E+01 0.40104919939E+01
 0.38546972975E+01 0.36933699651E+01 0.35315954223E+01 0.33740671056E+01 0.32248357612E+01
 0.30875585404E+01 0.29654644602E+01 0.28613780753E+01 0.27777253117E+01 0.27164926654E+01
 0.26791445468E+01 0.26665953792E+01 0.26791445468E+01 0.27164926654E+01 0.27777253117E+01
 0.28613780753E+01 0.29654644602E+01 0.30875585404E+01 0.32248357612E+01 0.33740671056E+01
 0.35315954223E+01 0.36933699651E+01 0.38546972975E+01 0.40104919939E+01 0.41551921333E+01
 0.42832297559E+01 0.43893720678E+01 0.44688354184E+01 0.45179813684E+01 0.45782230443E+01
 0.45325741633E+01 0.44546673163E+01 0.43479105186E+01 0.42169189607E+01 0.40671763267E+01
 0.39049473492E+01 0.37364579344E+01 0.35674726034E+01 0.34032405442E+01 0.32481291870E+01
 0.31059087252E+01 0.29796714007E+01 0.28720614412E+01 0.27853560088E+01 0.27214713434E+01
 0.26818989544E+01 0.26676498641E+01 0.26791445468E+01 0.27161874234E+01 0.27779180730E+01
 0.28628570188E+01 0.29689282376E+01 0.30935529338E+01 0.32337046531E+01 0.33859600745E+01
 0.35465524291E+01 0.37113396973E+01 0.38756915709E+01 0.40347120806E+01 0.41831065974E+01
 0.43155519186E+01 0.44267782014E+01 0.45119402212E+01 0.45672111307E+01 0.45898039458E+01
 0.47049012609E+01 0.46321120019E+01 0.45261442609E+01 0.43911269012E+01 0.42327622481E+01
 0.40579117934E+01 0.38736420056E+01 0.36870485940E+01 0.35047221218E+01 0.33321459548E+01
 0.31738703802E+01 0.30333217633E+01 0.29132231036E+01 0.28157252692E+01 0.27425929095E+01
 0.26952641529E+01 0.26748307518E+01 0.26818989544E+01 0.27164926654E+01 0.27779180730E+01
 0.28647430230E+01 0.29747885107E+01 0.31052359453E+01 0.32527315937E+01 0.34135274765E+01
 0.35835931679E+01 0.37586017555E+01 0.39339551016E+01 0.41048423030E+01 0.42660069139E+01
 0.44120488374E+01 0.45374676971E+01 0.46371436019E+01 0.47066368506E+01 0.47423227499E+01
 0.47419581575E+01 0.49050430343E+01 0.48089163581E+01 0.46773446742E+01 0.45154871602E+01
 0.43298929242E+01 0.41281256892E+01 0.39186796543E+01 0.37097851455E+01 0.35088129467E+01
 0.33221256392E+01 0.31545445086E+01 0.30097329141E+01 0.28902211524E+01 0.27978309981E+01
 0.27339115834E+01 0.26994948240E+01 0.26952641529E+01 0.27214713434E+01 0.27777253117E+01
 0.28628570188E+01 0.29747885107E+01 0.31105639839E+01 0.32664471086E+01 0.34381464140E+01
 0.36210498340E+01 0.38103881713E+01 0.40014056317E+01 0.41892621379E+01 0.43688405783E+01
 0.45349609815E+01 0.46821819848E+01 0.48051038999E+01 0.48985217374E+01 0.49578932747E+01
 0.49798908239E+01 0.49624571070E+01 0.51612966277E+01 0.50481879611E+01 0.48967319810E+01
 0.47120507928E+01 0.45014071381E+01 0.42736962934E+01 0.40381224604E+01 0.38040942383E+01
 0.35804124535E+01 0.33743277513E+01 0.31916749492E+01 0.30365279616E+01 0.29116981098E+01
 0.28189696959E+01 0.27594791712E+01 0.27339115834E+01 0.27425929095E+01 0.27853560088E+01
 0.28613780753E+01 0.29689282376E+01 0.31052359453E+01 0.32664471086E+01 0.34477885687E+01
 0.36438650309E+01 0.38490247116E+01 0.40577562730E+01 0.42647401623E+01 0.44650039851E+01
 0.46538495995E+01 0.48261954969E+01 0.49768123471E+01 0.51003998372E+01 0.51919184282E+01
 0.52467823433E+01 0.52611669012E+01 0.52327949945E+01 0.54526538395E+01 0.53307404680E+01
 0.51662036663E+01 0.49652650935E+01 0.47353124104E+01 0.44850214077E+01 0.42249245918E+01
 0.39656107959E+01 0.37169284068E+01 0.34877469334E+01 0.32849714918E+01 0.31138483288E+01
 0.29778518374E+01 0.28791581881E+01 0.28189696959E+01 0.27978309981E+01 0.28157252692E+01
 0.28720614412E+01 0.29654644602E+01 0.30935529338E+01 0.32527315937E+01 0.34381464140E+01
 0.36438650309E+01 0.38632450163E+01 0.40895194799E+01 0.43161891729E+01 0.45376617672E+01
 0.47486521400E+01 0.49435834228E+01 0.51179150439E+01 0.52681884992E+01 0.53912871531E+01
 0.54834460226E+01 0.55400879248E+01 0.55563954401E+01 0.55280666712E+01 0.57327816039E+01
 0.56235440613E+01 0.54627555921E+01 0.52562366786E+01 0.50142842202E+01 0.47482111546E+01
 0.44683480738E+01 0.41860149028E+01 0.39127261335E+01 0.36585690677E+01 0.34323009381E+01
 0.32405288440E+01 0.30880295488E+01 0.29778518374E+01 0.29116981098E+01 0.28902211524E+01
 0.29132231036E+01 0.29796714007E+01 0.30875585404E+01 0.32337046531E+01 0.34135274765E+01
 0.36210498340E+01 0.38490247116E+01 0.40895194799E+01 0.43344234707E+01 0.45764584179E+01
 0.48077227415E+01 0.50195232633E+01 0.52067003015E+01 0.53682165990E+01 0.55052481938E+01
 0.56188971200E+01 0.57086191635E+01 0.57712399281E+01 0.58009132549E+01 0.57904065134E+01
 0.59217832399E+01 0.58567185265E+01 0.57338666534E+01 0.55517567496E+01 0.53174110350E+01
 0.50455525700E+01 0.47532369811E+01 0.44537153345E+01 0.41588251228E+01 0.38806223705E+01
 0.36294094254E+01 0.34138816280E+01 0.32405288440E+01 0.31138483288E+01 0.30365279616E+01
 0.30097329141E+01 0.30333217633E+01 0.31059087252E+01 0.32248357612E+01 0.33859600745E+01
 0.35835931679E+01 0.38103881713E+01 0.40577562730E+01 0.43161891729E+01 0.45764584179E+01
 0.48274615251E+01 0.50545499303E+01 0.52479950215E+01 0.54059755320E+01 0.55326540832E+01
 0.56356679109E+01 0.57228654776E+01 0.57991699629E+01 0.58645814472E+01 0.59138084379E+01
 0.59369401359E+01 0.59371673142E+01 0.59467727819E+01 0.59000387921E+01 0.57853150688E+01
 0.56000411260E+01 0.53527654142E+01 0.50627479116E+01 0.47539009264E+01 0.44437098933E+01
 0.41448415488E+01 0.38698546270E+01 0.36294094254E+01 0.34323009381E+01 0.32849714918E+01
 0.31916749492E+01 0.31545445086E+01 0.31738703802E+01 0.32481291870E+01 0.33740671056E+01
 0.35465524291E+01 0.37586017555E+01 0.40014056317E+01 0.42647401623E+01 0.45376617672E+01
 0.48077227415E+01 0.50545499303E+01 0.52589550862E+01 0.54121656503E+01 0.55154615826E+01
 0.55796199972E+01 0.56208395583E+01 0.56562513897E+01 0.56991568835E+01 0.57557043383E+01
 0.58228516006E+01 0.58892196576E+01 0.57091836497E+01 0.58193179244E+01 0.58850574286E+01
 0.58812557164E+01 0.57929222692E+01 0.56182202687E+01 0.53690823511E+01 0.50703350572E+01
 0.47532452930E+01 0.44401575842E+01 0.41448415488E+01 0.38806223705E+01 0.36585690677E+01
 0.34877469334E+01 0.33743277513E+01 0.33221256392E+01 0.33321459548E+01 0.34032405442E+01
 0.35315954223E+01 0.37113396973E+01 0.39339551016E+01 0.41892621379E+01 0.44650039851E+01
 0.47486521400E+01 0.50195232633E+01 0.52479950215E+01 0.54121656503E+01 0.55026179222E+01
 0.55245363635E+01 0.54957686518E+01 0.54426687535E+01 0.53942099626E+01 0.53752844266E+01
 0.54012318296E+01 0.54746463238E+01 0.55846636613E+01 0.51931896799E+01 0.54201103655E+01
 0.56277150495E+01 0.57751778167E+01 0.58311294529E+01 0.57792251639E+01 0.56209522931E+01
 0.53745920311E+01 0.50723482665E+01 0.47532452930E+01 0.44437098933E+01 0.41588251228E+01
 0.39127261335E+01 0.37169284068E+01 0.35804124535E+01 0.35088129467E+01 0.35047221218E+01
 0.35674726034E+01 0.36933699651E+01 0.38756915709E+01 0.41048423030E+01 0.43688405783E+01
 0.46538495995E+01 0.49435834228E+01 0.52067003015E+01 0.54059755320E+01 0.55154615826E+01
 0.55245363635E+01 0.54412189556E+01 0.52901828243E+01 0.51092198134E+01 0.49409714019E+01
 0.48251133164E+01 0.47899594340E+01 0.48472605720E+01 0.49898135174E+01 0.43805956768E+01
 0.47275621307E+01 0.50945532584E+01 0.54236221904E+01 0.56647092119E+01 0.57833322429E+01
 0.57657572142E+01 0.56202604677E+01 0.53745920311E+01 0.50703350572E+01 0.47539009264E+01
 0.44537153345E+01 0.41860149028E+01 0.39656107959E+01 0.38040942383E+01 0.37097851455E+01
 0.36870485940E+01 0.37364579344E+01 0.38546972975E+01 0.40347120806E+01 0.42660069139E+01
 0.45349609815E+01 0.48261954969E+01 0.51179150439E+01 0.53682165990E+01 0.55326540832E+01
 0.55796199972E+01 0.54957686518E+01 0.52901828243E+01 0.49938290111E+01 0.46552906726E+01
 0.43322963411E+01 0.40816131310E+01 0.39481899029E+01 0.39572241087E+01 0.41092436664E+01
 0.33060988499E+01 0.37604680560E+01 0.42884864062E+01 0.48151216559E+01 0.52697242141E+01
 0.55967512350E+01 0.57641815535E+01 0.57657572142E+01 0.56209522931E+01 0.53690823511E+01
 0.50627479116E+01 0.47532369811E+01 0.44683480738E+01 0.42249245918E+01 0.40381224604E+01
 0.39186796543E+01 0.38736420056E+01 0.39049473492E+01 0.40104919939E+01 0.41831065974E+01
 0.44120488374E+01 0.46821819848E+01 0.49768123471E+01 0.52681884992E+01 0.55052481938E+01
 0.56356679109E+01 0.56208395583E+01 0.54426687535E+01 0.51092198134E+01 0.46552906726E+01
 0.41390327381E+01 0.36330160254E+01 0.32126209708E+01 0.29422359005E+01 0.28643462109E+01
 0.29917795168E+01 0.20495890811E+01 0.25826344932E+01 0.32546293714E+01 0.39755848184E+01
 0.46542227873E+01 0.52125832284E+01 0.55967512350E+01 0.57833322429E+01 0.57792251639E+01
 0.56182202687E+01 0.53527654142E+01 0.50455525700E+01 0.47482111546E+01 0.44850214077E+01
 0.42736962934E+01 0.41281256892E+01 0.40579117934E+01 0.40671763267E+01 0.41551921333E+01
 0.43155519186E+01 0.45374676971E+01 0.48051038999E+01 0.51003998372E+01 0.53912871531E+01
 0.56188971200E+01 0.57228654776E+01 0.56562513897E+01 0.53942099626E+01 0.49409714019E+01
 0.43322963411E+01 0.36330160254E+01 0.29289430534E+01 0.23133747938E+01 0.18718478278E+01
 0.16673290557E+01 0.17294585993E+01 0.72993732715E+00 0.12988488713E+01 0.20795381879E+01
 0.29705757285E+01 0.38623688804E+01 0.46542227873E+01 0.52697242141E+01 0.56647092119E+01
 0.58311294529E+01 0.57929222692E+01 0.56000411260E+01 0.53174110350E+01 0.50142842202E+01
 0.47353124104E+01 0.45014071381E+01 0.43298929242E+01 0.42327622481E+01 0.42169189607E+01
 0.42832297559E+01 0.44267782014E+01 0.46371436019E+01 0.48985217374E+01 0.51919184282E+01
 0.54834460226E+01 0.57086191635E+01 0.57991699629E+01 0.56991568835E+01 0.53752844266E+01
 0.48251133164E+01 0.40816131310E+01 0.32126209708E+01 0.23133747938E+01 0.14932947008E+01
 0.85841644579E+00 0.49371921380E+00 0.44880445904E+00 -.50999861278E+00 0.43677666576E-01
 0.88242534744E+00 0.18992219051E+01 0.29705757285E+01 0.39755848184E+01 0.48151216559E+01
 0.54236221904E+01 0.57751778167E+01 0.58812557164E+01 0.57853150688E+01 0.55517567496E+01
 0.52562366786E+01 0.49652650935E+01 0.47120507928E+01 0.45154871602E+01 0.43911269012E+01
 0.43479105186E+01 0.43893720678E+01 0.45119402212E+01 0.47066368506E+01 0.49578932747E+01
 0.52467823433E+01 0.55400879248E+01 0.57712399281E+01 0.58645814472E+01 0.57557043383E+01
 0.54012318296E+01 0.47899594340E+01 0.39481899029E+01 0.29422359005E+01 0.18718478278E+01
 0.85841644579E+00 0.25685102331E-01 -.51965360881E+00 -.70649562206E+00 -.15247918485E+01
 -.10382991748E+01 -.20066599738E+00 0.88242534744E+00 0.20795381879E+01 0.32546293714E+01
 0.42884864062E+01 0.50945532584E+01 0.56277150495E+01 0.58850574286E+01 0.59000387921E+01
 0.57338666534E+01 0.54627555921E+01 0.51662036663E+01 0.48967319810E+01 0.46773446742E+01
 0.45261442609E+01 0.44546673163E+01 0.44688354184E+01 0.45672111307E+01 0.47423227499E+01
 0.49798908239E+01 0.52611669012E+01 0.55563954401E+01 0.58009132549E+01 0.59138084379E+01
 0.58228516006E+01 0.54746463238E+01 0.48472605720E+01 0.39572241087E+01 0.28643462109E+01
 0.16673290557E+01 0.49371921380E+00 -.51965360881E+00 -.12476223269E+01 -.15977644211E+01
 -.21896997287E+01 -.18152349115E+01 -.10382991748E+01 0.43677666576E-01 0.12988488713E+01
 0.25826344932E+01 0.37604680560E+01 0.47275621307E+01 0.54201103655E+01 0.58193179244E+01
 0.59467727819E+01 0.58567185265E+01 0.56235440613E+01 0.53307404680E+01 0.50481879611E+01
 0.48089163581E+01 0.46321120019E+01 0.45325741633E+01 0.45179813684E+01 0.45898039458E+01
 0.47419581575E+01 0.49624571070E+01 0.52327949945E+01 0.55280666712E+01 0.57904065134E+01
 0.59369401359E+01 0.58892196576E+01 0.55846636613E+01 0.49898135174E+01 0.41092436664E+01
 0.29917795168E+01 0.17294585993E+01 0.44880445904E+00 -.70649562206E+00 -.15977644211E+01
 -.21139779244E+01 -.21897318692E+01 -.21139755027E+01 -.15977247530E+01 -.70645446399E+00
 0.44878676775E+00 0.17294588497E+01 0.29917956517E+01 0.41092459621E+01 0.49898249493E+01
 0.55846690612E+01 0.58892139846E+01 0.59369406413E+01 0.57904041358E+01 0.55280690015E+01
 0.52327928826E+01 0.49624593113E+01 0.47419558692E+01 0.45898062487E+01 0.45179790377E+01
 0.45325765278E+01 0.46321095901E+01 0.48089187781E+01 0.50481854623E+01 0.53307434648E+01
 0.56235400660E+01 0.58567221000E+01 0.59467689037E+01 0.58193173852E+01 0.54201057734E+01
 0.47275652602E+01 0.37604827705E+01 0.25826392789E+01 0.12988519372E+01 0.43717485369E-01
 -.10382913702E+01 -.18152629375E+01 -.21139755027E+01 -.21897088679E+01 -.18152639569E+01
 -.10382972192E+01 0.43721847843E-01 0.12988809774E+01 0.25826211648E+01 0.37604958618E+01
 0.47275686804E+01 0.54201032252E+01 0.58193150192E+01 0.59467692190E+01 0.58567217082E+01
 0.56235418104E+01 0.53307412765E+01 0.50481872194E+01 0.48089171852E+01 0.46321112714E+01
 0.45325747529E+01 0.45179808565E+01 0.45898046205E+01 0.47419575466E+01 0.49624581719E+01
 0.52327931891E+01 0.55280691712E+01 0.57904045496E+01 0.59369433353E+01 0.58892113984E+01
 0.55846775732E+01 0.49898252561E+01 0.41092502265E+01 0.29918009427E+01 0.17294364707E+01
 0.44880539878E+00 -.70646047567E+00 -.15977271705E+01 -.15977247530E+01 -.18152639569E+01
 -.15976982834E+01 -.97318356838E+00 -.21072824516E-01 0.11401283645E+01 0.23726248271E+01
 0.35410549569E+01 0.45334856583E+01 0.52748195265E+01 0.57333766614E+01 0.59186785459E+01
 0.58749724792E+01 0.56701373898E+01 0.53843591720E+01 0.50931956592E+01 0.48382273820E+01
 0.46395126620E+01 0.45138950369E+01 0.44706789080E+01 0.45138950845E+01 0.46395129458E+01
 0.48382272359E+01 0.50931967453E+01 0.53843567572E+01 0.56701385120E+01 0.58749724759E+01
 0.59186876882E+01 0.57333628982E+01 0.52748089890E+01 0.45334903256E+01 0.35410652824E+01
 0.23726420708E+01 0.11401556395E+01 -.21062715275E-01 -.97321235119E+00 -.70645446399E+00
 -.10382972192E+01 -.97318356838E+00 -.51967717316E+00 0.26325522749E+00 0.12754362069E+01
 0.23922604629E+01 0.34849283200E+01 0.44404116996E+01 0.51773508274E+01 0.56537682143E+01
 0.58681663574E+01 0.58539387256E+01 0.56709495663E+01 0.53933224378E+01 0.50970467222E+01
 0.48295195879E+01 0.46122855220E+01 0.44629651937E+01 0.43927489243E+01 0.44073461517E+01
 0.45054393547E+01 0.46797200497E+01 0.49164930263E+01 0.51973806601E+01 0.54954686951E+01
 0.57513051977E+01 0.58866634523E+01 0.58313954775E+01 0.55328441112E+01 0.49686622683E+01
 0.41530991269E+01 0.31416385468E+01 0.20271464600E+01 0.92973763101E+00 -.21080199287E-01
 0.44878676775E+00 0.43721847843E-01 -.21072824516E-01 0.26325522749E+00 0.85834932701E+00
 0.16855574975E+01 0.26380965728E+01 0.35996914116E+01 0.44626097566E+01 0.51443819717E+01
 0.55963686616E+01 0.58081621487E+01 0.58028034662E+01 0.56311555786E+01 0.53596735288E+01
 0.50609018769E+01 0.47841707799E+01 0.45521121686E+01 0.43823600227E+01 0.42875699008E+01
 0.42747409278E+01 0.43450341982E+01 0.44932195465E+01 0.47087783086E+01 0.49751940167E+01
 0.52729712346E+01 0.55640324895E+01 0.57800146389E+01 0.58506659500E+01 0.57188495077E+01
 0.53509184907E+01 0.47453234182E+01 0.39372233985E+01 0.29978552561E+01 0.20271301171E+01
 0.11401434221E+01 0.17294588497E+01 0.12988809774E+01 0.11401283645E+01 0.12754362069E+01
 0.16855574975E+01 0.23134002036E+01 0.30731461856E+01 0.38653379865E+01 0.45929082715E+01
 0.51770962860E+01 0.55672329985E+01 0.57463289229E+01 0.57288440919E+01 0.55563352193E+01
 0.52871326771E+01 0.49874215122E+01 0.47050312586E+01 0.44619779104E+01 0.42758850799E+01
 0.41596797809E+01 0.41218402206E+01 0.41649220883E+01 0.42864612426E+01 0.44780409843E+01
 0.47267871329E+01 0.50150735904E+01 0.53209201133E+01 0.55964964203E+01 0.57756639956E+01
 0.57999530903E+01 0.56276079571E+01 0.52435258508E+01 0.46636102212E+01 0.39372473462E+01
 0.31416382532E+01 0.23726457820E+01 0.29917956517E+01 0.25826211648E+01 0.23726248271E+01
 0.23922604629E+01 0.26380965728E+01 0.30731461856E+01 0.36330359894E+01 0.42374082503E+01
 0.48038168621E+01 0.52613555888E+01 0.55613703996E+01 0.56835090938E+01 0.56357750727E+01
 0.54513142059E+01 0.51800766064E+01 0.48806914769E+01 0.45959475445E+01 0.43461198466E+01
 0.41480526304E+01 0.40146334474E+01 0.39549038907E+01 0.39728249286E+01 0.40677970618E+01
 0.42340697044E+01 0.44615021141E+01 0.47355109551E+01 0.50389253981E+01 0.53461654921E+01
 0.56059851366E+01 0.57608988410E+01 0.57652956177E+01 0.55928393808E+01 0.52435162026E+01
 0.47453112285E+01 0.41531068171E+01 0.35410531651E+01 0.41092459621E+01 0.37604958618E+01
 0.35410549569E+01 0.34849283200E+01 0.35996914116E+01 0.38653379865E+01 0.42374082503E+01
 0.46553291242E+01 0.50527276771E+01 0.53700955227E+01 0.55639613272E+01 0.56138716966E+01
 0.55235081814E+01 0.53192608057E+01 0.50431297362E+01 0.47455501822E+01 0.44617303024E+01
 0.42093838393E+01 0.40040826740E+01 0.38581673765E+01 0.37806395172E+01 0.37763903428E+01
 0.38462088249E+01 0.39867297378E+01 0.41903216128E+01 0.44457393377E+01 0.47380767203E+01
 0.50508851982E+01 0.53565221725E+01 0.56063889749E+01 0.57537183279E+01 0.57653019132E+01
 0.56276081517E+01 0.53509270675E+01 0.49686529027E+01 0.45334815102E+01 0.49898249493E+01
 0.47275686804E+01 0.45334856583E+01 0.44404116996E+01 0.44626097566E+01 0.45929082715E+01
 0.48038168621E+01 0.50527276771E+01 0.52901839324E+01 0.54692176047E+01 0.55540733662E+01
 0.55266400455E+01 0.53889408670E+01 0.51618688429E+01 0.48808474190E+01 0.45872675932E+01
 0.43076953192E+01 0.40570004958E+01 0.38493974254E+01 0.36959646755E+01 0.36054686684E+01
 0.35828595806E+01 0.36302107949E+01 0.37456408437E+01 0.39242724485E+01 0.41572842367E+01
 0.44333236463E+01 0.47378337923E+01 0.50554177916E+01 0.53590041996E+01 0.56063858717E+01
 0.57608947035E+01 0.57999520969E+01 0.57188382372E+01 0.55328571995E+01 0.52748132658E+01
 0.55846690612E+01 0.54201032252E+01 0.52748195265E+01 0.51773508274E+01 0.51443819717E+01
 0.51770962860E+01 0.52613555888E+01 0.53700955227E+01 0.54692176047E+01 0.55245482011E+01