   1   1   1   0
  0.1457112E+02  0.2665047E-09  0.2665047E-09  0.2665047E-09  0.5000000E-15
  1.000000000000000E-004
  CAR 
 unknown system                          
     36.42269811     -6.23971675  301      9.93426913      1.00000000
     -6.240  0.0000E+00  0.0000E+00
     -6.098  0.0000E+00  0.0000E+00
     -5.955  0.0000E+00  0.0000E+00
     -5.813  0.0000E+00  0.0000E+00
     -5.671  0.0000E+00  0.0000E+00
     -5.529  0.0000E+00  0.0000E+00
     -5.386  0.0000E+00  0.0000E+00
     -5.244  0.0000E+00  0.0000E+00
     -5.102  0.0000E+00  0.0000E+00
     -4.960  0.0000E+00  0.0000E+00
     -4.818  0.0000E+00  0.0000E+00
     -4.675  0.0000E+00  0.0000E+00
     -4.533  0.3528E-13  0.5017E-14
     -4.391  0.8011E-05  0.1139E-05
     -4.249  0.7045E-02  0.1003E-02
     -4.107  0.3368E-01  0.5792E-02
     -3.964  0.5546E-01  0.1368E-01
     -3.822  0.6502E-01  0.2293E-01
     -3.680  0.7733E-01  0.3392E-01
     -3.538  0.8395E-01  0.4586E-01
     -3.396  0.1115E+00  0.6172E-01
     -3.253  0.9481E-01  0.7521E-01
     -3.111  0.9523E-01  0.8875E-01
     -2.969  0.1445E+00  0.1093E+00
     -2.827  0.1261E+00  0.1272E+00
     -2.685  0.1108E+00  0.1430E+00
     -2.542  0.1321E+00  0.1618E+00
     -2.400  0.1883E+00  0.1885E+00
     -2.258  0.1242E+00  0.2062E+00
     -2.116  0.1329E+00  0.2251E+00
     -1.973  0.1731E+00  0.2497E+00
     -1.831  0.1550E+00  0.2718E+00
     -1.689  0.2267E+00  0.3040E+00
     -1.547  0.1208E+00  0.3212E+00
     -1.405  0.1290E+00  0.3395E+00
     -1.262  0.2407E+00  0.3738E+00
     -1.120  0.2039E+00  0.4028E+00
     -0.978  0.1710E+00  0.4271E+00
     -0.836  0.2063E+00  0.4564E+00
     -0.694  0.1702E+00  0.4806E+00
     -0.551  0.1926E+00  0.5080E+00
     -0.409  0.2289E+00  0.5406E+00
     -0.267  0.2364E+00  0.5742E+00
     -0.125  0.2110E+00  0.6042E+00
      0.017  0.2106E+00  0.6342E+00
      0.160  0.2026E+00  0.6630E+00
      0.302  0.2178E+00  0.6939E+00
      0.444  0.2975E+00  0.7362E+00
      0.586  0.1920E+00  0.7635E+00
      0.728  0.2551E+00  0.7998E+00
      0.871  0.2820E+00  0.8399E+00
      1.013  0.2691E+00  0.8782E+00
      1.155  0.1605E+00  0.9010E+00
      1.297  0.2255E+00  0.9331E+00
      1.440  0.3260E+00  0.9794E+00
      1.582  0.2881E+00  0.1020E+01
      1.724  0.2641E+00  0.1058E+01
      1.866  0.2297E+00  0.1091E+01
      2.008  0.3214E+00  0.1136E+01
      2.151  0.2502E+00  0.1172E+01
      2.293  0.1106E+00  0.1188E+01
      2.435  0.4203E+00  0.1247E+01
      2.577  0.3132E+00  0.1292E+01
      2.719  0.2714E+00  0.1331E+01
      2.862  0.3546E+00  0.1381E+01
      3.004  0.2531E+00  0.1417E+01
      3.146  0.3458E+00  0.1466E+01
      3.288  0.2210E+00  0.1498E+01
      3.430  0.2079E+00  0.1527E+01
      3.573  0.4334E+00  0.1589E+01
      3.715  0.3245E+00  0.1635E+01
      3.857  0.3270E+00  0.1681E+01
      3.999  0.2871E+00  0.1722E+01
      4.141  0.2560E+00  0.1759E+01
      4.284  0.3555E+00  0.1809E+01
      4.426  0.3072E+00  0.1853E+01
      4.568  0.2164E+00  0.1884E+01
      4.710  0.3576E+00  0.1934E+01
      4.853  0.5174E+00  0.2008E+01
      4.995  0.1908E+00  0.2035E+01
      5.137  0.4443E+00  0.2098E+01
      5.279  0.3814E+00  0.2153E+01
      5.421  0.1312E+00  0.2171E+01
      5.564  0.3697E+00  0.2224E+01
      5.706  0.4230E+00  0.2284E+01
      5.848  0.4319E+00  0.2345E+01
      5.990  0.2739E+00  0.2384E+01
      6.132  0.3283E+00  0.2431E+01
      6.275  0.3950E+00  0.2487E+01
      6.417  0.4274E+00  0.2548E+01
      6.559  0.3205E+00  0.2594E+01
      6.701  0.3658E+00  0.2646E+01
      6.843  0.4795E+00  0.2714E+01
      6.986  0.2434E+00  0.2748E+01
      7.128  0.3751E+00  0.2802E+01
      7.270  0.4246E+00  0.2862E+01
      7.412  0.3590E+00  0.2913E+01
      7.554  0.4253E+00  0.2974E+01
      7.697  0.3746E+00  0.3027E+01
      7.839  0.4441E+00  0.3090E+01
      7.981  0.5079E+00  0.3162E+01
      8.123  0.2157E+00  0.3193E+01
      8.266  0.3803E+00  0.3247E+01
      8.408  0.6614E+00  0.3341E+01
      8.550  0.2777E+00  0.3381E+01
      8.692  0.2872E+00  0.3421E+01
      8.834  0.4331E+00  0.3483E+01
      8.977  0.4409E+00  0.3546E+01
      9.119  0.5827E+00  0.3629E+01
      9.261  0.4195E+00  0.3688E+01
      9.403  0.5376E+00  0.3765E+01
      9.545  0.4431E+00  0.3828E+01
      9.688  0.3399E+00  0.3876E+01
      9.830  0.4137E+00  0.3935E+01
      9.972  0.5803E+00  0.4017E+01
     10.114  0.4216E+00  0.4077E+01
     10.256  0.3990E+00  0.4134E+01
     10.399  0.4464E+00  0.4198E+01
     10.541  0.5351E+00  0.4274E+01
     10.683  0.5139E+00  0.4347E+01
     10.825  0.2949E+00  0.4389E+01
     10.967  0.4683E+00  0.4455E+01
     11.110  0.5689E+00  0.4536E+01
     11.252  0.2881E+00  0.4577E+01
     11.394  0.5233E+00  0.4652E+01
     11.536  0.4392E+00  0.4714E+01
     11.678  0.2235E+00  0.4746E+01
     11.821  0.4155E+00  0.4805E+01
     11.963  0.4280E+00  0.4866E+01
     12.105  0.5112E+00  0.4939E+01
     12.247  0.6680E+00  0.5034E+01
     12.390  0.2331E+00  0.5067E+01
     12.532  0.5074E+00  0.5139E+01
     12.674  0.3836E+00  0.5193E+01
     12.816  0.3871E+00  0.5248E+01
     12.958  0.5811E+00  0.5331E+01
     13.101  0.5472E+00  0.5409E+01
     13.243  0.4240E+00  0.5469E+01
     13.385  0.3263E+00  0.5516E+01
     13.527  0.4261E+00  0.5576E+01
     13.669  0.4866E+00  0.5645E+01
     13.812  0.5083E+00  0.5718E+01
     13.954  0.6255E+00  0.5807E+01
     14.096  0.5668E+00  0.5887E+01
     14.238  0.4284E+00  0.5948E+01
     14.380  0.5176E+00  0.6022E+01
     14.523  0.4957E+00  0.6092E+01
     14.665  0.3747E+00  0.6146E+01
     14.807  0.5038E+00  0.6217E+01
     14.949  0.6023E+00  0.6303E+01
     15.091  0.5023E+00  0.6374E+01
     15.234  0.4773E+00  0.6442E+01
     15.376  0.5042E+00  0.6514E+01
     15.518  0.5296E+00  0.6589E+01
     15.660  0.4688E+00  0.6656E+01
     15.803  0.6470E+00  0.6748E+01
     15.945  0.6986E+00  0.6847E+01
     16.087  0.5298E+00  0.6923E+01
     16.229  0.4750E+00  0.6990E+01
     16.371  0.3496E+00  0.7040E+01
     16.514  0.3437E+00  0.7089E+01
     16.656  0.6171E+00  0.7176E+01
     16.798  0.6304E+00  0.7266E+01
     16.940  0.5702E+00  0.7347E+01
     17.082  0.6712E+00  0.7443E+01
     17.225  0.6686E+00  0.7538E+01
     17.367  0.9125E+00  0.7667E+01
     17.509  0.4818E+00  0.7736E+01
     17.651  0.4960E+00  0.7806E+01
     17.793  0.5562E+00  0.7886E+01
     17.936  0.7340E+00  0.7990E+01
     18.078  0.5074E+00  0.8062E+01
     18.220  0.4349E+00  0.8124E+01
     18.362  0.4160E+00  0.8183E+01
     18.504  0.2740E+00  0.8222E+01
     18.647  0.4276E+00  0.8283E+01
     18.789  0.6655E+00  0.8378E+01
     18.931  0.1377E+00  0.8397E+01
     19.073  0.4316E+00  0.8458E+01
     19.216  0.5082E+00  0.8531E+01
     19.358  0.4586E+00  0.8596E+01
     19.500  0.2492E+00  0.8631E+01
     19.642  0.3483E+00  0.8681E+01
     19.784  0.4775E+00  0.8749E+01
     19.927  0.8508E+00  0.8870E+01
     20.069  0.7168E+00  0.8972E+01
     20.211  0.4922E+00  0.9042E+01
     20.353  0.6140E+00  0.9129E+01
     20.495  0.6444E+00  0.9221E+01
     20.638  0.5399E+00  0.9297E+01
     20.780  0.4810E+00  0.9366E+01
     20.922  0.6040E+00  0.9452E+01
     21.064  0.6104E+00  0.9539E+01
     21.206  0.3335E+00  0.9586E+01
     21.349  0.4753E+00  0.9654E+01
     21.491  0.8249E+00  0.9771E+01
     21.633  0.8257E+00  0.9888E+01
     21.775  0.9352E+00  0.1002E+02
     21.917  0.5286E+00  0.1010E+02
     22.060  0.1026E+01  0.1024E+02
     22.202  0.7409E+00  0.1035E+02
     22.344  0.8579E+00  0.1047E+02
     22.486  0.8067E+00  0.1058E+02
     22.629  0.3046E+00  0.1063E+02
     22.771  0.5209E+00  0.1070E+02
     22.913  0.3912E+00  0.1076E+02
     23.055  0.8194E+00  0.1087E+02
     23.197  0.6769E+00  0.1097E+02
     23.340  0.5730E+00  0.1105E+02
     23.482  0.5903E+00  0.1114E+02
     23.624  0.6173E+00  0.1122E+02
     23.766  0.7790E+00  0.1133E+02
     23.908  0.3758E+00  0.1139E+02
     24.051  0.3493E+00  0.1144E+02
     24.193  0.3907E+00  0.1149E+02
     24.335  0.4799E+00  0.1156E+02
     24.477  0.5416E+00  0.1164E+02
     24.619  0.6945E+00  0.1174E+02
     24.762  0.8051E+00  0.1185E+02
     24.904  0.6641E+00  0.1195E+02
     25.046  0.4073E+00  0.1200E+02
     25.188  0.5368E+00  0.1208E+02
     25.330  0.5202E+00  0.1215E+02
     25.473  0.1293E+01  0.1234E+02
     25.615  0.7595E+00  0.1245E+02
     25.757  0.4530E+00  0.1251E+02
     25.899  0.5669E+00  0.1259E+02
     26.042  0.4174E+00  0.1265E+02
     26.184  0.6855E+00  0.1275E+02
     26.326  0.6957E+00  0.1285E+02
     26.468  0.7864E+00  0.1296E+02
     26.610  0.4287E+00  0.1302E+02
     26.753  0.4799E+00  0.1309E+02
     26.895  0.5821E+00  0.1317E+02
     27.037  0.5465E+00  0.1325E+02
     27.179  0.5346E+00  0.1332E+02
     27.321  0.5464E+00  0.1340E+02
     27.464  0.7831E+00  0.1351E+02
     27.606  0.6659E+00  0.1361E+02
     27.748  0.5975E+00  0.1369E+02
     27.890  0.6676E+00  0.1379E+02
     28.032  0.7204E+00  0.1389E+02
     28.175  0.7150E+00  0.1399E+02
     28.317  0.6785E+00  0.1409E+02
     28.459  0.5917E+00  0.1417E+02
     28.601  0.5586E+00  0.1425E+02
     28.743  0.7553E+00  0.1436E+02
     28.886  0.5038E+00  0.1443E+02
     29.028  0.5420E+00  0.1451E+02
     29.170  0.7677E+00  0.1462E+02
     29.312  0.7981E+00  0.1473E+02
     29.455  0.8103E+00  0.1485E+02
     29.597  0.8423E+00  0.1497E+02
     29.739  0.3731E+00  0.1502E+02
     29.881  0.7604E+00  0.1513E+02
     30.023  0.4839E+00  0.1520E+02
     30.166  0.4482E+00  0.1526E+02
     30.308  0.8152E+00  0.1538E+02
     30.450  0.5746E+00  0.1546E+02
     30.592  0.5577E+00  0.1554E+02
     30.734  0.6177E+00  0.1562E+02
     30.877  0.4339E+00  0.1569E+02
     31.019  0.4641E+00  0.1575E+02
     31.161  0.2412E+00  0.1579E+02
     31.303  0.2499E+00  0.1582E+02
     31.445  0.1878E+00  0.1585E+02
     31.588  0.1404E+00  0.1587E+02
     31.730  0.6964E-01  0.1588E+02
     31.872  0.7516E-01  0.1589E+02
     32.014  0.1017E+00  0.1590E+02
     32.156  0.4141E-01  0.1591E+02
     32.299  0.1146E+00  0.1593E+02
     32.441  0.1255E+00  0.1594E+02
     32.583  0.7110E-01  0.1595E+02
     32.725  0.5496E-01  0.1596E+02
     32.867  0.1101E-01  0.1596E+02
     33.010  0.4316E-01  0.1597E+02
     33.152  0.4056E-02  0.1597E+02
     33.294  0.3578E-01  0.1598E+02
     33.436  0.3158E-01  0.1598E+02
     33.579  0.2694E-01  0.1598E+02
     33.721  0.4953E-01  0.1599E+02
     33.863  0.3493E-01  0.1600E+02
     34.005  0.2056E-04  0.1600E+02
     34.147  0.4562E-11  0.1600E+02
     34.290  0.1682E-03  0.1600E+02
     34.432  0.1403E-01  0.1600E+02
     34.574  0.1611E-01  0.1600E+02
     34.716  0.6395E-04  0.1600E+02
     34.858  0.2822E-12  0.1600E+02
     35.001  0.0000E+00  0.1600E+02
     35.143  0.0000E+00  0.1600E+02
     35.285  0.0000E+00  0.1600E+02
     35.427  0.0000E+00  0.1600E+02
     35.569  0.0000E+00  0.1600E+02
     35.712  0.0000E+00  0.1600E+02
     35.854  0.0000E+00  0.1600E+02
     35.996  0.0000E+00  0.1600E+02
     36.138  0.0000E+00  0.1600E+02
     36.280  0.0000E+00  0.1600E+02
     36.423  0.0000E+00  0.1600E+02
     36.42269811     -6.23971675  301      9.93426913      1.00000000
     -6.240  0.0000E+00  0.0000E+00  0.0000E+00  0.0000E+00  0.0000E+00  0.0000E+00  0.0000E+00  0.0000E+00  0.0000E+00
     -6.098  0.0000E+00  0.0000E+00  0.0000E+00  0.0000E+00  0.0000E+00  0.0000E+00  0.0000E+00  0.0000E+00  0.0000E+00
     -5.955  0.0000E+00  0.0000E+00  0.0000E+00  0.0000E+00  0.0000E+00  0.0000E+00  0.0000E+00  0.0000E+00  0.0000E+00
     -5.813  0.0000E+00  0.0000E+00  0.0000E+00  0.0000E+00  0.0000E+00  0.0000E+00  0.0000E+00  0.0000E+00  0.0000E+00
     -5.671  0.0000E+00  0.0000E+00  0.0000E+00  0.0000E+00  0.0000E+00  0.0000E+00  0.0000E+00  0.0000E+00  0.0000E+00
     -5.529  0.0000E+00  0.0000E+00  0.0000E+00  0.0000E+00  0.0000E+00  0.0000E+00  0.0000E+00  0.0000E+00  0.0000E+00
     -5.386  0.0000E+00  0.0000E+00  0.0000E+00  0.0000E+00  0.0000E+00  0.0000E+00  0.0000E+00  0.0000E+00  0.0000E+00
     -5.244  0.0000E+00  0.0000E+00  0.0000E+00  0.0000E+00  0.0000E+00  0.0000E+00  0.0000E+00  0.0000E+00  0.0000E+00
     -5.102  0.0000E+00  0.0000E+00  0.0000E+00  0.0000E+00  0.0000E+00  0.0000E+00  0.0000E+00  0.0000E+00  0.0000E+00
     -4.960  0.0000E+00  0.0000E+00  0.0000E+00  0.0000E+00  0.0000E+00  0.0000E+00  0.0000E+00  0.0000E+00  0.0000E+00
     -4.818  0.0000E+00  0.0000E+00  0.0000E+00  0.0000E+00  0.0000E+00  0.0000E+00  0.0000E+00  0.0000E+00  0.0000E+00
     -4.675  0.0000E+00  0.0000E+00  0.0000E+00  0.0000E+00  0.0000E+00  0.0000E+00  0.0000E+00  0.0000E+00  0.0000E+00
     -4.533  0.1360E-13  0.6792E-34  0.6792E-34  0.6792E-34  0.0000E+00  0.0000E+00  0.0000E+00  0.0000E+00  0.0000E+00
     -4.391  0.3089E-05  0.3214E-10  0.3214E-10  0.3214E-10  0.0000E+00  0.0000E+00  0.0000E+00  0.0000E+00  0.0000E+00
     -4.249  0.2708E-02  0.3387E-05  0.3387E-05  0.3387E-05  0.0000E+00  0.0000E+00  0.0000E+00  0.0000E+00  0.0000E+00
     -4.107  0.1288E-01  0.3971E-04  0.3971E-04  0.3971E-04  0.0000E+00  0.0000E+00  0.0000E+00  0.0000E+00  0.0000E+00
     -3.964  0.2105E-01  0.1240E-03  0.1240E-03  0.1240E-03  0.0000E+00  0.0000E+00  0.0000E+00  0.0000E+00  0.0000E+00
     -3.822  0.2445E-01  0.2316E-03  0.2316E-03  0.2316E-03  0.0000E+00  0.0000E+00  0.0000E+00  0.0000E+00  0.0000E+00
     -3.680  0.2887E-01  0.3502E-03  0.3502E-03  0.3502E-03  0.0000E+00  0.0000E+00  0.0000E+00  0.0000E+00  0.0000E+00
     -3.538  0.3107E-01  0.4808E-03  0.4808E-03  0.4808E-03  0.0000E+00  0.0000E+00  0.0000E+00  0.0000E+00  0.0000E+00
     -3.396  0.4085E-01  0.7933E-03  0.7933E-03  0.7933E-03  0.0000E+00  0.0000E+00  0.0000E+00  0.0000E+00  0.0000E+00
     -3.253  0.3450E-01  0.7572E-03  0.7572E-03  0.7572E-03  0.0000E+00  0.0000E+00  0.0000E+00  0.0000E+00  0.0000E+00
     -3.111  0.3432E-01  0.8800E-03  0.8800E-03  0.8800E-03  0.0000E+00  0.0000E+00  0.0000E+00  0.0000E+00  0.0000E+00
     -2.969  0.5160E-01  0.1505E-02  0.1505E-02  0.1505E-02  0.0000E+00  0.0000E+00  0.0000E+00  0.0000E+00  0.0000E+00
     -2.827  0.4470E-01  0.1438E-02  0.1438E-02  0.1438E-02  0.0000E+00  0.0000E+00  0.0000E+00  0.0000E+00  0.0000E+00
     -2.685  0.3892E-01  0.1392E-02  0.1392E-02  0.1392E-02  0.0000E+00  0.0000E+00  0.0000E+00  0.0000E+00  0.0000E+00
     -2.542  0.4594E-01  0.1822E-02  0.1822E-02  0.1822E-02  0.0000E+00  0.0000E+00  0.0000E+00  0.0000E+00  0.0000E+00
     -2.400  0.6495E-01  0.2789E-02  0.2789E-02  0.2789E-02  0.0000E+00  0.0000E+00  0.0000E+00  0.0000E+00  0.0000E+00
     -2.258  0.4258E-01  0.1933E-02  0.1933E-02  0.1933E-02  0.0000E+00  0.0000E+00  0.0000E+00  0.0000E+00  0.0000E+00
     -2.116  0.4501E-01  0.2265E-02  0.2265E-02  0.2265E-02  0.0000E+00  0.0000E+00  0.0000E+00  0.0000E+00  0.0000E+00
     -1.973  0.5814E-01  0.3124E-02  0.3124E-02  0.3124E-02  0.0000E+00  0.0000E+00  0.0000E+00  0.0000E+00  0.0000E+00
     -1.831  0.5173E-01  0.2924E-02  0.2924E-02  0.2924E-02  0.0000E+00  0.0000E+00  0.0000E+00  0.0000E+00  0.0000E+00
     -1.689  0.7490E-01  0.4542E-02  0.4542E-02  0.4542E-02  0.0000E+00  0.0000E+00  0.0000E+00  0.0000E+00  0.0000E+00
     -1.547  0.3963E-01  0.2521E-02  0.2521E-02  0.2521E-02  0.0000E+00  0.0000E+00  0.0000E+00  0.0000E+00  0.0000E+00
     -1.405  0.4183E-01  0.2865E-02  0.2865E-02  0.2865E-02  0.0000E+00  0.0000E+00  0.0000E+00  0.0000E+00  0.0000E+00
     -1.262  0.7753E-01  0.5535E-02  0.5535E-02  0.5535E-02  0.0000E+00  0.0000E+00  0.0000E+00  0.0000E+00  0.0000E+00
     -1.120  0.6517E-01  0.4868E-02  0.4868E-02  0.4868E-02  0.0000E+00  0.0000E+00  0.0000E+00  0.0000E+00  0.0000E+00
     -0.978  0.5412E-01  0.4272E-02  0.4272E-02  0.4272E-02  0.0000E+00  0.0000E+00  0.0000E+00  0.0000E+00  0.0000E+00
     -0.836  0.6477E-01  0.5334E-02  0.5334E-02  0.5334E-02  0.0000E+00  0.0000E+00  0.0000E+00  0.0000E+00  0.0000E+00
     -0.694  0.5288E-01  0.4603E-02  0.4603E-02  0.4603E-02  0.0000E+00  0.0000E+00  0.0000E+00  0.0000E+00  0.0000E+00
     -0.551  0.5939E-01  0.5367E-02  0.5367E-02  0.5367E-02  0.0000E+00  0.0000E+00  0.0000E+00  0.0000E+00  0.0000E+00
     -0.409  0.7004E-01  0.6555E-02  0.6555E-02  0.6555E-02  0.0000E+00  0.0000E+00  0.0000E+00  0.0000E+00  0.0000E+00
     -0.267  0.7179E-01  0.6965E-02  0.6965E-02  0.6965E-02  0.0000E+00  0.0000E+00  0.0000E+00  0.0000E+00  0.0000E+00
     -0.125  0.6341E-01  0.6460E-02  0.6460E-02  0.6460E-02  0.0000E+00  0.0000E+00  0.0000E+00  0.0000E+00  0.0000E+00
      0.017  0.6278E-01  0.6628E-02  0.6628E-02  0.6628E-02  0.0000E+00  0.0000E+00  0.0000E+00  0.0000E+00  0.0000E+00
      0.160  0.5992E-01  0.6550E-02  0.6550E-02  0.6550E-02  0.0000E+00  0.0000E+00  0.0000E+00  0.0000E+00  0.0000E+00
      0.302  0.6378E-01  0.7255E-02  0.7255E-02  0.7255E-02  0.0000E+00  0.0000E+00  0.0000E+00  0.0000E+00  0.0000E+00
      0.444  0.8661E-01  0.1009E-01  0.1009E-01  0.1009E-01  0.0000E+00  0.0000E+00  0.0000E+00  0.0000E+00  0.0000E+00
      0.586  0.5547E-01  0.6660E-02  0.6660E-02  0.6660E-02  0.0000E+00  0.0000E+00  0.0000E+00  0.0000E+00  0.0000E+00
      0.728  0.7290E-01  0.9141E-02  0.9141E-02  0.9141E-02  0.0000E+00  0.0000E+00  0.0000E+00  0.0000E+00  0.0000E+00
      0.871  0.7999E-01  0.1032E-01  0.1032E-01  0.1032E-01  0.0000E+00  0.0000E+00  0.0000E+00  0.0000E+00  0.0000E+00
      1.013  0.7566E-01  0.1008E-01  0.1008E-01  0.1008E-01  0.0000E+00  0.0000E+00  0.0000E+00  0.0000E+00  0.0000E+00
      1.155  0.4493E-01  0.6091E-02  0.6091E-02  0.6091E-02  0.0000E+00  0.0000E+00  0.0000E+00  0.0000E+00  0.0000E+00
      1.297  0.6237E-01  0.8816E-02  0.8816E-02  0.8816E-02  0.0000E+00  0.0000E+00  0.0000E+00  0.0000E+00  0.0000E+00
      1.440  0.9009E-01  0.1280E-01  0.1280E-01  0.1280E-01  0.0000E+00  0.0000E+00  0.0000E+00  0.0000E+00  0.0000E+00
      1.582  0.7891E-01  0.1159E-01  0.1159E-01  0.1159E-01  0.0000E+00  0.0000E+00  0.0000E+00  0.0000E+00  0.0000E+00
      1.724  0.7140E-01  0.1093E-01  0.1093E-01  0.1093E-01  0.0000E+00  0.0000E+00  0.0000E+00  0.0000E+00  0.0000E+00
      1.866  0.6171E-01  0.9668E-02  0.9668E-02  0.9668E-02  0.0000E+00  0.0000E+00  0.0000E+00  0.0000E+00  0.0000E+00
      2.008  0.8665E-01  0.1349E-01  0.1349E-01  0.1349E-01  0.0000E+00  0.0000E+00  0.0000E+00  0.0000E+00  0.0000E+00
      2.151  0.6718E-01  0.1063E-01  0.1063E-01  0.1063E-01  0.0000E+00  0.0000E+00  0.0000E+00  0.0000E+00  0.0000E+00
      2.293  0.3005E-01  0.4628E-02  0.4628E-02  0.4628E-02  0.0000E+00  0.0000E+00  0.0000E+00  0.0000E+00  0.0000E+00
      2.435  0.1109E+00  0.1857E-01  0.1857E-01  0.1857E-01  0.0000E+00  0.0000E+00  0.0000E+00  0.0000E+00  0.0000E+00
      2.577  0.8205E-01  0.1408E-01  0.1408E-01  0.1408E-01  0.0000E+00  0.0000E+00  0.0000E+00  0.0000E+00  0.0000E+00
      2.719  0.7358E-01  0.1165E-01  0.1165E-01  0.1165E-01  0.0000E+00  0.0000E+00  0.0000E+00  0.0000E+00  0.0000E+00
      2.862  0.9453E-01  0.1570E-01  0.1570E-01  0.1570E-01  0.0000E+00  0.0000E+00  0.0000E+00  0.0000E+00  0.0000E+00
      3.004  0.6706E-01  0.1141E-01  0.1141E-01  0.1141E-01  0.0000E+00  0.0000E+00  0.0000E+00  0.0000E+00  0.0000E+00
      3.146  0.9746E-01  0.1430E-01  0.1430E-01  0.1430E-01  0.0000E+00  0.0000E+00  0.0000E+00  0.0000E+00  0.0000E+00
      3.288  0.6615E-01  0.8293E-02  0.8293E-02  0.8293E-02  0.0000E+00  0.0000E+00  0.0000E+00  0.0000E+00  0.0000E+00
      3.430  0.6114E-01  0.8150E-02  0.8150E-02  0.8150E-02  0.0000E+00  0.0000E+00  0.0000E+00  0.0000E+00  0.0000E+00
      3.573  0.1117E+00  0.2086E-01  0.2086E-01  0.2086E-01  0.0000E+00  0.0000E+00  0.0000E+00  0.0000E+00  0.0000E+00
      3.715  0.7464E-01  0.1774E-01  0.1774E-01  0.1774E-01  0.0000E+00  0.0000E+00  0.0000E+00  0.0000E+00  0.0000E+00
      3.857  0.7876E-01  0.1716E-01  0.1716E-01  0.1716E-01  0.0000E+00  0.0000E+00  0.0000E+00  0.0000E+00  0.0000E+00
      3.999  0.6983E-01  0.1503E-01  0.1503E-01  0.1503E-01  0.0000E+00  0.0000E+00  0.0000E+00  0.0000E+00  0.0000E+00
      4.141  0.6090E-01  0.1371E-01  0.1371E-01  0.1371E-01  0.0000E+00  0.0000E+00  0.0000E+00  0.0000E+00  0.0000E+00
      4.284  0.6929E-01  0.2252E-01  0.2252E-01  0.2252E-01  0.0000E+00  0.0000E+00  0.0000E+00  0.0000E+00  0.0000E+00
      4.426  0.6433E-01  0.1857E-01  0.1857E-01  0.1857E-01  0.0000E+00  0.0000E+00  0.0000E+00  0.0000E+00  0.0000E+00
      4.568  0.3792E-01  0.1476E-01  0.1476E-01  0.1476E-01  0.0000E+00  0.0000E+00  0.0000E+00  0.0000E+00  0.0000E+00
      4.710  0.7595E-01  0.2167E-01  0.2167E-01  0.2167E-01  0.0000E+00  0.0000E+00  0.0000E+00  0.0000E+00  0.0000E+00
      4.853  0.1175E+00  0.2991E-01  0.2991E-01  0.2991E-01  0.0000E+00  0.0000E+00  0.0000E+00  0.0000E+00  0.0000E+00
      4.995  0.4319E-01  0.1114E-01  0.1114E-01  0.1114E-01  0.0000E+00  0.0000E+00  0.0000E+00  0.0000E+00  0.0000E+00
      5.137  0.7476E-01  0.3120E-01  0.3120E-01  0.3120E-01  0.0000E+00  0.0000E+00  0.0000E+00  0.0000E+00  0.0000E+00
      5.279  0.6680E-01  0.2612E-01  0.2612E-01  0.2612E-01  0.0000E+00  0.0000E+00  0.0000E+00  0.0000E+00  0.0000E+00
      5.421  0.3129E-01  0.7535E-02  0.7535E-02  0.7535E-02  0.0000E+00  0.0000E+00  0.0000E+00  0.0000E+00  0.0000E+00
      5.564  0.5353E-01  0.2780E-01  0.2780E-01  0.2780E-01  0.0000E+00  0.0000E+00  0.0000E+00  0.0000E+00  0.0000E+00
      5.706  0.6410E-01  0.3151E-01  0.3151E-01  0.3151E-01  0.0000E+00  0.0000E+00  0.0000E+00  0.0000E+00  0.0000E+00
      5.848  0.8611E-01  0.2852E-01  0.2852E-01  0.2852E-01  0.0000E+00  0.0000E+00  0.0000E+00  0.0000E+00  0.0000E+00
      5.990  0.5373E-01  0.1839E-01  0.1839E-01  0.1839E-01  0.0000E+00  0.0000E+00  0.0000E+00  0.0000E+00  0.0000E+00
      6.132  0.5342E-01  0.2380E-01  0.2380E-01  0.2380E-01  0.0000E+00  0.0000E+00  0.0000E+00  0.0000E+00  0.0000E+00
      6.275  0.5813E-01  0.2991E-01  0.2991E-01  0.2991E-01  0.0000E+00  0.0000E+00  0.0000E+00  0.0000E+00  0.0000E+00
      6.417  0.6187E-01  0.3254E-01  0.3254E-01  0.3254E-01  0.0000E+00  0.0000E+00  0.0000E+00  0.0000E+00  0.0000E+00
      6.559  0.3999E-01  0.2567E-01  0.2567E-01  0.2567E-01  0.0000E+00  0.0000E+00  0.0000E+00  0.0000E+00  0.0000E+00
      6.701  0.6223E-01  0.2678E-01  0.2678E-01  0.2678E-01  0.0000E+00  0.0000E+00  0.0000E+00  0.0000E+00  0.0000E+00
      6.843  0.8436E-01  0.3502E-01  0.3502E-01  0.3502E-01  0.0000E+00  0.0000E+00  0.0000E+00  0.0000E+00  0.0000E+00
      6.986  0.3442E-01  0.1916E-01  0.1916E-01  0.1916E-01  0.0000E+00  0.0000E+00  0.0000E+00  0.0000E+00  0.0000E+00
      7.128  0.4997E-01  0.3024E-01  0.3024E-01  0.3024E-01  0.0000E+00  0.0000E+00  0.0000E+00  0.0000E+00  0.0000E+00
      7.270  0.6625E-01  0.3267E-01  0.3267E-01  0.3267E-01  0.0000E+00  0.0000E+00  0.0000E+00  0.0000E+00  0.0000E+00
      7.412  0.4781E-01  0.2888E-01  0.2888E-01  0.2888E-01  0.0000E+00  0.0000E+00  0.0000E+00  0.0000E+00  0.0000E+00
      7.554  0.5954E-01  0.3396E-01  0.3396E-01  0.3396E-01  0.0000E+00  0.0000E+00  0.0000E+00  0.0000E+00  0.0000E+00
      7.697  0.5202E-01  0.2994E-01  0.2994E-01  0.2994E-01  0.0000E+00  0.0000E+00  0.0000E+00  0.0000E+00  0.0000E+00
      7.839  0.5814E-01  0.3679E-01  0.3679E-01  0.3679E-01  0.0000E+00  0.0000E+00  0.0000E+00  0.0000E+00  0.0000E+00
      7.981  0.7219E-01  0.4107E-01  0.4107E-01  0.4107E-01  0.0000E+00  0.0000E+00  0.0000E+00  0.0000E+00  0.0000E+00
      8.123  0.2042E-01  0.1958E-01  0.1958E-01  0.1958E-01  0.0000E+00  0.0000E+00  0.0000E+00  0.0000E+00  0.0000E+00
      8.266  0.4575E-01  0.3199E-01  0.3199E-01  0.3199E-01  0.0000E+00  0.0000E+00  0.0000E+00  0.0000E+00  0.0000E+00
      8.408  0.8086E-01  0.5686E-01  0.5686E-01  0.5686E-01  0.0000E+00  0.0000E+00  0.0000E+00  0.0000E+00  0.0000E+00
      8.550  0.4221E-01  0.2252E-01  0.2252E-01  0.2252E-01  0.0000E+00  0.0000E+00  0.0000E+00  0.0000E+00  0.0000E+00
      8.692  0.3262E-01  0.2606E-01  0.2606E-01  0.2606E-01  0.0000E+00  0.0000E+00  0.0000E+00  0.0000E+00  0.0000E+00
      8.834  0.4534E-01  0.3786E-01  0.3786E-01  0.3786E-01  0.0000E+00  0.0000E+00  0.0000E+00  0.0000E+00  0.0000E+00
      8.977  0.5225E-01  0.3895E-01  0.3895E-01  0.3895E-01  0.0000E+00  0.0000E+00  0.0000E+00  0.0000E+00  0.0000E+00
      9.119  0.6464E-01  0.5277E-01  0.5277E-01  0.5277E-01  0.0000E+00  0.0000E+00  0.0000E+00  0.0000E+00  0.0000E+00
      9.261  0.3665E-01  0.3986E-01  0.3986E-01  0.3986E-01  0.0000E+00  0.0000E+00  0.0000E+00  0.0000E+00  0.0000E+00
      9.403  0.5524E-01  0.4912E-01  0.4912E-01  0.4912E-01  0.0000E+00  0.0000E+00  0.0000E+00  0.0000E+00  0.0000E+00
      9.545  0.4841E-01  0.4224E-01  0.4224E-01  0.4224E-01  0.0000E+00  0.0000E+00  0.0000E+00  0.0000E+00  0.0000E+00
      9.688  0.2800E-01  0.3387E-01  0.3387E-01  0.3387E-01  0.0000E+00  0.0000E+00  0.0000E+00  0.0000E+00  0.0000E+00
      9.830  0.3181E-01  0.4029E-01  0.4029E-01  0.4029E-01  0.0000E+00  0.0000E+00  0.0000E+00  0.0000E+00  0.0000E+00
      9.972  0.5383E-01  0.5803E-01  0.5803E-01  0.5803E-01  0.0000E+00  0.0000E+00  0.0000E+00  0.0000E+00  0.0000E+00
     10.114  0.4063E-01  0.4103E-01  0.4103E-01  0.4103E-01  0.0000E+00  0.0000E+00  0.0000E+00  0.0000E+00  0.0000E+00
     10.256  0.3051E-01  0.3998E-01  0.3998E-01  0.3998E-01  0.0000E+00  0.0000E+00  0.0000E+00  0.0000E+00  0.0000E+00
     10.399  0.3440E-01  0.4333E-01  0.4333E-01  0.4333E-01  0.0000E+00  0.0000E+00  0.0000E+00  0.0000E+00  0.0000E+00
     10.541  0.4476E-01  0.5316E-01  0.5316E-01  0.5316E-01  0.0000E+00  0.0000E+00  0.0000E+00  0.0000E+00  0.0000E+00
     10.683  0.4799E-01  0.5117E-01  0.5117E-01  0.5117E-01  0.0000E+00  0.0000E+00  0.0000E+00  0.0000E+00  0.0000E+00
     10.825  0.2142E-01  0.3052E-01  0.3052E-01  0.3052E-01  0.0000E+00  0.0000E+00  0.0000E+00  0.0000E+00  0.0000E+00
     10.967  0.3384E-01  0.4633E-01  0.4633E-01  0.4633E-01  0.0000E+00  0.0000E+00  0.0000E+00  0.0000E+00  0.0000E+00
     11.110  0.3855E-01  0.5646E-01  0.5646E-01  0.5646E-01  0.0000E+00  0.0000E+00  0.0000E+00  0.0000E+00  0.0000E+00
     11.252  0.2017E-01  0.3000E-01  0.3000E-01  0.3000E-01  0.0000E+00  0.0000E+00  0.0000E+00  0.0000E+00  0.0000E+00
     11.394  0.5000E-01  0.5204E-01  0.5204E-01  0.5204E-01  0.0000E+00  0.0000E+00  0.0000E+00  0.0000E+00  0.0000E+00
     11.536  0.2948E-01  0.4757E-01  0.4757E-01  0.4757E-01  0.0000E+00  0.0000E+00  0.0000E+00  0.0000E+00  0.0000E+00
     11.678  0.1499E-01  0.2249E-01  0.2249E-01  0.2249E-01  0.0000E+00  0.0000E+00  0.0000E+00  0.0000E+00  0.0000E+00
     11.821  0.3657E-01  0.4102E-01  0.4102E-01  0.4102E-01  0.0000E+00  0.0000E+00  0.0000E+00  0.0000E+00  0.0000E+00
     11.963  0.4002E-01  0.4050E-01  0.4050E-01  0.4050E-01  0.0000E+00  0.0000E+00  0.0000E+00  0.0000E+00  0.0000E+00
     12.105  0.3454E-01  0.5344E-01  0.5344E-01  0.5344E-01  0.0000E+00  0.0000E+00  0.0000E+00  0.0000E+00  0.0000E+00
     12.247  0.5109E-01  0.6760E-01  0.6760E-01  0.6760E-01  0.0000E+00  0.0000E+00  0.0000E+00  0.0000E+00  0.0000E+00
     12.390  0.3367E-01  0.1968E-01  0.1968E-01  0.1968E-01  0.0000E+00  0.0000E+00  0.0000E+00  0.0000E+00  0.0000E+00
     12.532  0.4148E-01  0.5140E-01  0.5140E-01  0.5140E-01  0.0000E+00  0.0000E+00  0.0000E+00  0.0000E+00  0.0000E+00
     12.674  0.3235E-01  0.3702E-01  0.3702E-01  0.3702E-01  0.0000E+00  0.0000E+00  0.0000E+00  0.0000E+00  0.0000E+00
     12.816  0.3327E-01  0.3491E-01  0.3491E-01  0.3491E-01  0.0000E+00  0.0000E+00  0.0000E+00  0.0000E+00  0.0000E+00
     12.958  0.4212E-01  0.5547E-01  0.5547E-01  0.5547E-01  0.0000E+00  0.0000E+00  0.0000E+00  0.0000E+00  0.0000E+00
     13.101  0.6287E-01  0.5123E-01  0.5123E-01  0.5123E-01  0.0000E+00  0.0000E+00  0.0000E+00  0.0000E+00  0.0000E+00
     13.243  0.3643E-01  0.4124E-01  0.4124E-01  0.4124E-01  0.0000E+00  0.0000E+00  0.0000E+00  0.0000E+00  0.0000E+00
     13.385  0.1806E-01  0.2760E-01  0.2760E-01  0.2760E-01  0.0000E+00  0.0000E+00  0.0000E+00  0.0000E+00  0.0000E+00
     13.527  0.1973E-01  0.4432E-01  0.4432E-01  0.4432E-01  0.0000E+00  0.0000E+00  0.0000E+00  0.0000E+00  0.0000E+00
     13.669  0.4803E-01  0.4572E-01  0.4572E-01  0.4572E-01  0.0000E+00  0.0000E+00  0.0000E+00  0.0000E+00  0.0000E+00
     13.812  0.6346E-01  0.4542E-01  0.4542E-01  0.4542E-01  0.0000E+00  0.0000E+00  0.0000E+00  0.0000E+00  0.0000E+00
     13.954  0.4208E-01  0.6199E-01  0.6199E-01  0.6199E-01  0.0000E+00  0.0000E+00  0.0000E+00  0.0000E+00  0.0000E+00
     14.096  0.3568E-01  0.5498E-01  0.5498E-01  0.5498E-01  0.0000E+00  0.0000E+00  0.0000E+00  0.0000E+00  0.0000E+00
     14.238  0.3160E-01  0.4022E-01  0.4022E-01  0.4022E-01  0.0000E+00  0.0000E+00  0.0000E+00  0.0000E+00  0.0000E+00
     14.380  0.3750E-01  0.4974E-01  0.4974E-01  0.4974E-01  0.0000E+00  0.0000E+00  0.0000E+00  0.0000E+00  0.0000E+00
     14.523  0.3525E-01  0.4823E-01  0.4823E-01  0.4823E-01  0.0000E+00  0.0000E+00  0.0000E+00  0.0000E+00  0.0000E+00
     14.665  0.3392E-01  0.3028E-01  0.3028E-01  0.3028E-01  0.0000E+00  0.0000E+00  0.0000E+00  0.0000E+00  0.0000E+00
     14.807  0.3754E-01  0.5035E-01  0.5035E-01  0.5035E-01  0.0000E+00  0.0000E+00  0.0000E+00  0.0000E+00  0.0000E+00
     14.949  0.4515E-01  0.6338E-01  0.6338E-01  0.6338E-01  0.0000E+00  0.0000E+00  0.0000E+00  0.0000E+00  0.0000E+00
     15.091  0.4909E-01  0.4980E-01  0.4980E-01  0.4980E-01  0.0000E+00  0.0000E+00  0.0000E+00  0.0000E+00  0.0000E+00
     15.234  0.2422E-01  0.4755E-01  0.4755E-01  0.4755E-01  0.0000E+00  0.0000E+00  0.0000E+00  0.0000E+00  0.0000E+00
     15.376  0.2663E-01  0.5029E-01  0.5029E-01  0.5029E-01  0.0000E+00  0.0000E+00  0.0000E+00  0.0000E+00  0.0000E+00
     15.518  0.2140E-01  0.5447E-01  0.5447E-01  0.5447E-01  0.0000E+00  0.0000E+00  0.0000E+00  0.0000E+00  0.0000E+00
     15.660  0.2714E-01  0.4868E-01  0.4868E-01  0.4868E-01  0.0000E+00  0.0000E+00  0.0000E+00  0.0000E+00  0.0000E+00
     15.803  0.6158E-01  0.6152E-01  0.6152E-01  0.6152E-01  0.0000E+00  0.0000E+00  0.0000E+00  0.0000E+00  0.0000E+00
     15.945  0.5226E-01  0.7069E-01  0.7069E-01  0.7069E-01  0.0000E+00  0.0000E+00  0.0000E+00  0.0000E+00  0.0000E+00