    1    1    1    1
  0.1457112E+02  0.2665047E-09  0.2665047E-09  0.2665047E-09  0.5000000E-15
  1.000000000000000E-004
  CAR 
 unknown system                          
      4    286      8
 
  0.0000000E+00  0.0000000E+00  0.0000000E+00  0.1079797E-03
    1       -4.300516   1.000000
    2       21.392421   0.000000
    3       21.392421   0.000000
    4       21.392421   0.000000
    5       22.509711   0.000000
    6       22.509711   0.000000
    7       22.509711   0.000000
    8       26.211198   0.000000
 
  0.4761905E-01  0.0000000E+00  0.0000000E+00  0.1295756E-02
    1       -4.230906   1.000000
    2       20.408179   0.000000
    3       20.652279   0.000000
    4       21.292363   0.000000
    5       22.269847   0.000000
    6       23.067651   0.000000
    7       23.366411   0.000000
    8       25.615712   0.000000
 
  0.9523810E-01  0.0000000E+00  0.0000000E+00  0.1295756E-02
    1       -4.022169   1.000000
    2       18.695366   0.000000
    3       19.649563   0.000000
    4       21.006498   0.000000
    5       21.673783   0.000000
    6       23.392850   0.000000
    7       24.717712   0.000000
    8       25.044889   0.000000
 
  0.1428571E+00  0.0000000E+00  0.0000000E+00  0.1295756E-02
    1       -3.674740   1.000000
    2       16.744266   0.000000
    3       18.727637   0.000000
    4       20.581263   0.000000
    5       20.928441   0.000000
    6       22.927809   0.000000
    7       25.325682   0.000000
    8       26.009681   0.000000
 
  0.1904762E+00  0.0000000E+00  0.0000000E+00  0.1295756E-02
    1       -3.189326   1.000000
    2       14.720115   0.000000
    3       17.914200   0.000000
    4       20.084923   0.000000
    5       20.169899   0.000000
    6       22.241596   0.000000
    7       25.955234   0.000000
    8       26.216960   0.000000
 
  0.2380952E+00  0.0000000E+00  0.0000000E+00  0.1295756E-02
    1       -2.566920   1.000000
    2       12.711326   0.000000
    3       17.215115   0.000000
    4       19.467365   0.000000
    5       19.581795   0.000000
    6       21.594044   0.000000
    7       26.602396   0.000000
    8       26.693571   0.000000
 
  0.2857143E+00  0.0000000E+00  0.0000000E+00  0.1295756E-02
    1       -1.808793   1.000000
    2       10.764473   0.000000
    3       16.632115   0.000000
    4       18.855915   0.000000
    5       19.118325   0.000000
    6       21.031149   0.000000
    7       27.142518   0.000000
    8       27.509312   0.000000
 
  0.3333333E+00  0.0000000E+00  0.0000000E+00  0.1295756E-02
    1       -0.916637   1.000000
    2        8.904807   1.000000
    3       16.165635   0.000000
    4       18.353647   0.000000
    5       18.724066   0.000000
    6       20.567751   0.000000
    7       27.814243   0.000000
    8       28.388529   0.000000
 
  0.3809524E+00  0.0000000E+00  0.0000000E+00  0.1295756E-02
    1        0.107468   1.000000
    2        7.147432   1.000000
    3       15.815924   0.000000
    4       17.970920   0.000000
    5       18.416966   0.000000
    6       20.213112   0.000000
    7       28.591022   0.000000
    8       29.302182   0.000000
 
  0.4285714E+00  0.0000000E+00  0.0000000E+00  0.1295756E-02
    1        1.260078   1.000000
    2        5.502821   1.000000
    3       15.582849   0.000000
    4       17.713159   0.000000
    5       18.207488   0.000000
    6       19.973356   0.000000
    7       29.416960   0.000000
    8       30.166733   0.000000
 
  0.4761905E+00  0.0000000E+00  0.0000000E+00  0.1295756E-02
    1        2.526941   1.000000
    2        3.989137   1.000000
    3       15.466338   0.000000
    4       17.583757   0.000000
    5       18.101460   0.000000
    6       19.852477   0.000000
    7       30.102115   0.000000
    8       30.769697   0.000000
 
  0.4761905E-01  0.4761905E-01  0.3469447E-17  0.2591513E-02
    1       -4.091718   1.000000
    2       19.337956   0.000000
    3       19.819010   0.000000
    4       20.707801   0.000000
    5       22.339547   0.000000
    6       23.331766   0.000000
    7       24.305625   0.000000
    8       24.936696   0.000000
 
  0.9523810E-01  0.4761905E-01  0.6938894E-17  0.5183026E-02
    1       -3.813637   1.000000
    2       17.717979   0.000000
    3       18.710856   0.000000
    4       20.098070   0.000000
    5       21.998211   0.000000
    6       23.455648   0.000000
    7       24.655984   0.000000
    8       25.443964   0.000000
 
  0.1428571E+00  0.4761905E-01  0.3469447E-17  0.5183026E-02
    1       -3.397228   1.000000
    2       15.762978   0.000000
    3       17.806494   0.000000
    4       19.441166   0.000000
    5       21.481435   0.000000
    6       22.921157   0.000000
    7       25.020711   0.000000
    8       26.536393   0.000000
 
  0.1904762E+00  0.4761905E-01  0.3469447E-17  0.5183026E-02
    1       -2.843299   1.000000
    2       13.751031   0.000000
    3       17.033918   0.000000
    4       18.785250   0.000000
    5       20.917648   0.000000
    6       22.333024   0.000000
    7       25.476876   0.000000
    8       27.219506   0.000000
 
  0.2380952E+00  0.4761905E-01 -0.3122502E-16  0.5183026E-02
    1       -2.153026   1.000000
    2       11.773504   0.000000
    3       16.380561   0.000000
    4       18.184574   0.000000
    5       20.374453   0.000000
    6       21.798296   0.000000
    7       26.024448   0.000000
    8       27.936273   0.000000
 
  0.2857143E+00  0.4761905E-01 -0.3469447E-17  0.5183026E-02
    1       -1.327865   1.000000
    2        9.869981   0.965493
    3       15.845197   0.000000
    4       17.670338   0.000000
    5       19.896075   0.000000
    6       21.337399   0.000000
    7       26.688745   0.000000
    8       28.724119   0.000000
 
  0.3333333E+00  0.4761905E-01  0.2428613E-16  0.5183026E-02
    1       -0.369630   1.000000
    2        8.061126   1.000000
    3       15.428139   0.000000
    4       17.259440   0.000000
    5       19.507655   0.000000
    6       20.964664   0.000000
    7       27.467099   0.000000
    8       29.544265   0.000000
 
  0.3809524E+00  0.4761905E-01  0.2428613E-16  0.5183026E-02
    1        0.719068   1.000000
    2        6.359608   1.000000
    3       15.129841   0.000000
    4       16.961075   0.000000
    5       19.222951   0.000000
    6       20.690915   0.000000
    7       28.339520   0.000000
    8       30.285578   0.000000
 
  0.4285714E+00  0.4761905E-01 -0.3469447E-17  0.5183026E-02
    1        1.932691   1.000000
    2        4.776479   1.000000
    3       14.950693   0.000000
    4       16.780363   0.000000
    5       19.049674   0.000000
    6       20.523834   0.000000
    7       29.256600   0.000000
    8       30.628508   0.000000
 
  0.4761905E+00  0.4761905E-01 -0.3122502E-16  0.2591513E-02
    1        3.099120   1.000000
    2        3.486584   1.000000
    3       14.890940   0.000000
    4       16.719841   0.000000
    5       18.991487   0.000000
    6       20.467711   0.000000
    7       29.934697   0.000000
    8       30.375977   0.000000
 
  0.9523810E-01  0.9523810E-01  0.6938894E-17  0.2591513E-02
    1       -3.466569   1.000000
    2       16.617766   0.000000
    3       17.147618   0.000000
    4       19.278854   0.000000
    5       22.082404   0.000000
    6       23.437987   0.000000
    7       24.722103   0.000000
    8       25.971102   0.000000
 
  0.1428571E+00  0.9523810E-01  0.0000000E+00  0.5183026E-02
    1       -2.981623   1.000000
    2       14.850828   0.000000
    3       16.105842   0.000000
    4       18.565046   0.000000
    5       21.828624   0.000000
    6       23.145808   0.000000
    7       25.069595   0.000000
    8       26.804503   0.000000
 
  0.1904762E+00  0.9523810E-01  0.1387779E-16  0.5183026E-02
    1       -2.359845   1.000000
    2       12.882773   0.000000
    3       15.356463   0.000000
    4       17.916872   0.000000
    5       21.374668   0.000000
    6       22.938406   0.000000
    7       25.302340   0.000000
    8       27.906510   0.000000
 
  0.2380952E+00  0.9523810E-01 -0.6938894E-17  0.5183026E-02
    1       -1.602478   1.000000
    2       10.949559   0.000000
    3       14.740776   0.000000
    4       17.353645   0.000000
    5       20.887511   0.000000
    6       22.724229   0.000000
    7       25.684893   0.000000
    8       28.942782   0.000000
 
  0.2857143E+00  0.9523810E-01 -0.6938894E-17  0.5183026E-02
    1       -0.711155   1.000000
    2        9.096402   1.000000
    3       14.248056   0.000000
    4       16.891075   0.000000
    5       20.457255   0.000000
    6       22.485655   0.000000
    7       26.276310   0.000000
    8       29.834908   0.000000
 
  0.3333333E+00  0.9523810E-01 -0.6938894E-17  0.5183026E-02
    1        0.311959   1.000000
    2        7.342783   1.000000
    3       13.877742   0.000000
    4       16.538453   0.000000
    5       20.119016   0.000000
    6       22.266056   0.000000
    7       27.042859   0.000000
    8       30.479254   0.000000
 
  0.3809524E+00  0.9523810E-01 -0.3469447E-16  0.5183026E-02
    1        1.463495   1.000000
    2        5.700679   1.000000
    3       13.630387   0.000000
    4       16.301058   0.000000
    5       19.887917   0.000000
    6       22.102509   0.000000
    7       27.938205   0.000000
    8       30.536869   0.000000
 
  0.4285714E+00  0.9523810E-01 -0.6938894E-17  0.5183026E-02
    1        2.729536   1.000000
    2        4.188436   1.000000
    3       13.506555   0.000000
    4       16.181706   0.000000
    5       19.770895   0.000000
    6       22.016263   0.000000
    7       28.895836   0.000000
    8       29.903994   0.000000
 
  0.1428571E+00  0.1428571E+00  0.1387779E-16  0.2591513E-02
    1       -2.428827   1.000000
    2       13.889388   0.000000
    3       14.322519   0.000000
    4       17.862339   0.000000
    5       21.959961   0.000000
    6       23.002262   0.000000
    7       25.785718   0.000000
    8       27.067629   0.000000
 
  0.1904762E+00  0.1428571E+00 -0.1387779E-16  0.5183026E-02
    1       -1.739919   1.000000
    2       12.121064   0.000000
    3       13.454834   0.000000
    4       17.251789   0.000000
    5       21.771631   0.000000
    6       23.060406   0.000000
    7       26.054832   0.000000
    8       28.033590   0.000000
 
  0.2380952E+00  0.1428571E+00  0.1387779E-16  0.5183026E-02
    1       -0.916371   1.000000
    2       10.244744   0.000000
    3       12.877022   0.000000
    4       16.737838   0.000000
    5       21.398429   0.000000
    6       23.326117   0.000000
    7       26.111008   0.000000
    8       29.274521   0.000000
 
  0.2857143E+00  0.1428571E+00  0.0000000E+00  0.5183026E-02
    1        0.039980   1.000000
    2        8.447249   1.000000
    3       12.433257   0.000000
    4       16.330210   0.000000
    5       21.043667   0.000000
    6       23.550516   0.000000
    7       26.363978   0.000000
    8       30.186439   0.000000
 
  0.3333333E+00  0.1428571E+00  0.4163336E-16  0.5183026E-02
    1        1.126609   1.000000
    2        6.752371   1.000000
    3       12.116603   0.000000
    4       16.035392   0.000000
    5       20.771842   0.000000
    6       23.649699   0.000000
    7       26.914540   0.000000
    8       30.300912   0.000000
 
  0.3809524E+00  0.1428571E+00  0.2775558E-16  0.5183026E-02
    1        2.338065   1.000000
    2        5.173549   1.000000
    3       11.926476   0.000000
    4       15.857145   0.000000
    5       20.603511   0.000000
    6       23.668084   0.000000
    7       27.697220   0.000000
    8       29.663158   0.000000
 
  0.4285714E+00  0.1428571E+00  0.0000000E+00  0.2591513E-02
    1        3.506872   1.000000
    2        3.881912   1.000000
    3       11.863064   0.000000
    4       15.797519   0.000000
    5       20.546682   0.000000
    6       23.666764   0.000000
    7       28.397782   0.000000
    8       28.961876   0.000000
 
  0.1904762E+00  0.1904762E+00  0.1387779E-16  0.2591513E-02
    1       -0.984819   1.000000
    2       11.342880   0.000000
    3       11.692342   0.000000
    4       16.690324   0.000000
    5       22.078544   0.000000
    6       22.969256   0.000000
    7       27.126852   0.000000
    8       28.163247   0.000000
 
  0.2380952E+00  0.1904762E+00  0.1387779E-16  0.5183026E-02
    1       -0.096162   1.000000
    2        9.658589   1.000000
    3       11.028248   0.000000
    4       16.230793   0.000000
    5       21.990299   0.000000
    6       23.319378   0.000000
    7       27.345033   0.000000
    8       29.089582   0.000000
 
  0.2857143E+00  0.1904762E+00 -0.4163336E-16  0.5183026E-02
    1        0.923946   1.000000
    2        7.924280   1.000000
    3       10.634659   0.000000
    4       15.880256   0.000000
    5       21.747668   0.000000
    6       23.919948   0.000000
    7       27.272500   0.000000
    8       29.768174   0.000000
 
  0.3333333E+00  0.1904762E+00 -0.1387779E-16  0.5183026E-02
    1        2.072097   1.000000
    2        6.291688   1.000000
    3       10.375561   0.000000
    4       15.644009   0.000000
    5       21.552162   0.000000
    6       24.495760   0.000000
    7       27.303835   0.000000
    8       29.536724   0.000000
 
  0.3809524E+00  0.1904762E+00  0.2775558E-16  0.5183026E-02
    1        3.335195   1.000000
    2        4.784801   1.000000
    3       10.246289   0.000000
    4       15.525205   0.000000
    5       21.448632   0.000000
    6       24.850862   0.000000
    7       27.479662   0.000000
    8       29.013651   0.000000
 
  0.2380952E+00  0.2380952E+00 -0.1387779E-16  0.2591513E-02
    1        0.856308   1.000000
    2        9.073441   1.000000
    3        9.378614   1.000000
    4       15.828235   0.000000
    5       22.484222   0.000000
    6       23.339248   0.000000
    7       28.605049   0.000000
    8       28.731857   0.000000
 
  0.2857143E+00  0.2380952E+00 -0.2775558E-16  0.5183026E-02
    1        1.938415   1.000000
    2        7.525500   1.000000
    3        8.918473   1.000000
    4       15.536234   0.000000
    5       22.527530   0.000000
    6       23.917561   0.000000
    7       27.968961   0.000000
    8       29.591781   0.000000
 
  0.3333333E+00  0.2380952E+00  0.0000000E+00  0.5183026E-02
    1        3.144912   1.000000
    2        5.962269   1.000000
    3        8.716365   1.000000
    4       15.359370   0.000000
    5       22.435922   0.000000
    6       24.722596   0.000000
    7       27.189536   0.000000
    8       29.829094   0.000000
 
  0.3809524E+00  0.2380952E+00 -0.2775558E-16  0.2591513E-02
    1        4.314849   1.000000
    2        4.671897   1.000000
    3        8.650041   1.000000
    4       15.300153   0.000000
    5       22.396677   0.000000
    6       25.225623   0.000000
    7       26.692878   0.000000
    8       29.845662   0.000000
 
  0.2857143E+00  0.2857143E+00  0.2775558E-16  0.2591513E-02
    1        3.079854   1.000000
    2        7.134875   1.000000
    3        7.426470   1.000000
    4       15.303578   0.000000
    5       23.163333   0.000000
    6       24.096971   0.000000
    7       27.200383   0.000000
    8       30.590555   0.000000
 
  0.3333333E+00  0.2857143E+00 -0.5551115E-16  0.5183026E-02
    1        4.334728   1.000000
    2        5.766943   1.000000
    3        7.167057   1.000000
    4       15.186305   0.000000
    5       23.329224   0.000000
    6       24.804938   0.000000
    7       26.188876   0.000000
    8       31.245407   0.000000
 
  0.3333333E+00  0.3333333E+00  0.2775558E-16  0.8638376E-03
    1        5.373578   1.000000
    2        5.854730   1.000000
    3        5.854730   1.000000
    4       15.128266   0.000000
    5       23.806307   0.000000
    6       25.226278   0.000000
    7       25.226278   0.000000
    8       32.641298   0.000000
 
  0.4761905E-01  0.4761905E-01  0.4761905E-01  0.8638376E-03
    1       -3.883128   1.000000
    2       18.245710   0.000000
    3       19.232115   0.000000
    4       19.232115   0.000000
    5       23.094367   0.000000
    6       23.094367   0.000000
    7       25.356675   0.000000
    8       25.466345   0.000000
 
  0.9523810E-01  0.4761905E-01  0.4761905E-01  0.2591513E-02
    1       -3.535950   1.000000
    2       16.744805   0.000000
    3       17.841124   0.000000
    4       18.505356   0.000000
    5       22.791892   0.000000
    6       23.586362   0.000000
    7       25.237753   0.000000
    8       25.906873   0.000000
 
  0.1428571E+00  0.4761905E-01  0.4761905E-01  0.2591513E-02
    1       -3.050842   1.000000
    2       14.818180   0.000000
    3       16.907030   0.000000
    4       17.770606   0.000000
    5       22.411264   0.000000
    6       23.274360   0.000000
    7       25.824873   0.000000
    8       26.280996   0.000000
 
  0.1904762E+00  0.4761905E-01  0.4761905E-01  0.2591513E-02
    1       -2.428865   1.000000
    2       12.830601   0.000000
    3       16.167732   0.000000
    4       17.092946   0.000000
    5       21.984559   0.000000
    6       22.743406   0.000000
    7       26.645202   0.000000
    8       26.715060   0.000000
 
  0.2380952E+00  0.4761905E-01  0.4761905E-01  0.2591513E-02
    1       -1.671240   1.000000
    2       10.890640   0.000000
    3       15.562142   0.000000
    4       16.504377   0.000000
    5       21.563178   0.000000
    6       22.238186   0.000000
    7       27.265203   0.000000
    8       27.517825   0.000000
 
  0.2857143E+00  0.4761905E-01  0.4761905E-01  0.2591513E-02
    1       -0.779626   1.000000
    2        9.034169   1.000000
    3       15.079702   0.000000
    4       16.021592   0.000000
    5       21.189563   0.000000
    6       21.810555   0.000000
    7       27.934878   0.000000
    8       28.430333   0.000000
 
  0.3333333E+00  0.4761905E-01  0.4761905E-01  0.2591513E-02
    1        0.243836   1.000000
    2        7.278629   1.000000
    3       14.718207   0.000000
    4       15.653843   0.000000
    5       20.891574   0.000000
    6       21.479200   0.000000
    7       28.703997   0.000000
    8       29.361118   0.000000
 
  0.3809524E+00  0.4761905E-01  0.4761905E-01  0.2591513E-02
    1        1.395771   1.000000
    2        5.635305   1.000000
    3       14.477147   0.000000
    4       15.406284   0.000000
    5       20.685514   0.000000
    6       21.253937   0.000000
    7       29.516384   0.000000
    8       30.232564   0.000000
 
  0.4285714E+00  0.4761905E-01  0.4761905E-01  0.2591513E-02
    1        2.662129   1.000000
    2        4.122396   1.000000
    3       14.356594   0.000000
    4       15.281890   0.000000
    5       20.580499   0.000000
    6       21.140204   0.000000
    7       30.179395   0.000000
    8       30.835869   0.000000
 
 -0.4761905E-01  0.4761905E-01  0.4761905E-01  0.6478782E-03
    1       -4.161287   1.000000
    2       20.057186   0.000000
    3       20.057186   0.000000
    4       20.817394   0.000000
    5       22.645858   0.000000
    6       23.459622   0.000000
    7       23.459622   0.000000
    8       24.645159   0.000000
 
  0.9523810E-01  0.9523810E-01  0.4761905E-01  0.2591513E-02
    1       -3.120082   1.000000
    2       15.675082   0.000000
    3       16.328403   0.000000
    4       17.423913   0.000000
    5       23.130650   0.000000
    6       23.983949   0.000000
    7       25.320176   0.000000
    8       26.230881   0.000000
 
  0.1428571E+00  0.9523810E-01  0.4761905E-01  0.5183026E-02
    1       -2.566919   1.000000
    2       13.954442   0.000000
    3       15.274815   0.000000
    4       16.658455   0.000000
    5       23.011045   0.000000
    6       23.956148   0.000000
    7       25.775977   0.000000
    8       26.859603   0.000000
 
  0.1904762E+00  0.9523810E-01  0.4761905E-01  0.5183026E-02
    1       -1.877543   1.000000
    2       12.016920   0.000000
    3       14.568348   0.000000
    4       16.006284   0.000000
    5       22.703802   0.000000
    6       23.673840   0.000000
    7       26.361998   0.000000
    8       27.719265   0.000000
 
  0.2380952E+00  0.9523810E-01  0.4761905E-01  0.5183026E-02
    1       -1.053446   1.000000
    2       10.124910   0.000000
    3       14.006337   0.000000
    4       15.463857   0.000000
    5       22.344289   0.000000
    6       23.371425   0.000000
    7       27.004973   0.000000
    8       28.649021   0.000000
 
  0.2857143E+00  0.9523810E-01  0.4761905E-01  0.5183026E-02
    1       -0.096438   1.000000
    2        8.321348   1.000000
    3       13.570882   0.000000
    4       15.036793   0.000000
    5       22.018784   0.000000
    6       23.098867   0.000000
    7       27.752277   0.000000
    8       29.557923   0.000000
 
  0.3333333E+00  0.9523810E-01  0.4761905E-01  0.5183026E-02
    1        0.990946   1.000000
    2        6.623102   1.000000
    3       13.259744   0.000000
    4       14.729283   0.000000
    5       21.768666   0.000000
    6       22.885524   0.000000
    7       28.594213   0.000000
    8       30.348605   0.000000
 
  0.3809524E+00  0.9523810E-01  0.4761905E-01  0.5183026E-02
    1        2.203227   1.000000
    2        5.042221   1.000000
    3       13.072875   0.000000
    4       14.543896   0.000000
    5       21.613081   0.000000
    6       22.750757   0.000000
    7       29.472751   0.000000
    8       30.740784   0.000000
 
  0.4285714E+00  0.9523810E-01  0.4761905E-01  0.2591513E-02
    1        3.371033   1.000000
    2        3.751220   1.000000
    3       13.010539   0.000000
    4       14.481956   0.000000
    5       21.560402   0.000000
    6       22.704747   0.000000
    7       30.085981   0.000000
    8       30.573151   0.000000
 
 -0.9523810E-01  0.9523810E-01  0.4761905E-01  0.2591513E-02
    1       -3.952632   1.000000
    2       18.636736   0.000000
    3       19.107285   0.000000
    4       20.468419   0.000000
    5       22.272846   0.000000
    6       23.496954   0.000000
    7       24.075157   0.000000
    8       24.533275   0.000000
 
  0.1428571E+00  0.1428571E+00  0.4761905E-01  0.2591513E-02
    1       -1.946351   1.000000
    2       13.041767   0.000000
    3       13.498886   0.000000
    4       15.917894   0.000000
    5       23.261304   0.000000
    6       24.282405   0.000000
    7       26.216776   0.000000
    8       27.379929   0.000000
 
  0.1904762E+00  0.1428571E+00  0.4761905E-01  0.5183026E-02
    1       -1.190501   1.000000
    2       11.312737   0.000000
    3       12.675983   0.000000
    4       15.313350   0.000000
    5       23.211570   0.000000
    6       24.376293   0.000000
    7       26.704965   0.000000
    8       28.266560   0.000000
 
  0.2380952E+00  0.1428571E+00  0.4761905E-01  0.5183026E-02
    1       -0.300908   1.000000
    2        9.480326   1.000000
    3       12.155892   0.000000
    4       14.826780   0.000000
    5       22.971901   0.000000
    6       24.485753   0.000000
    7       27.099173   0.000000
    8       29.389932   0.000000
 
  0.2857143E+00  0.1428571E+00  0.4761905E-01  0.5183026E-02
    1        0.720283   1.000000
    2        7.734487   1.000000
    3       11.772180   0.000000
    4       14.459205   0.000000
    5       22.720453   0.000000
    6       24.522500   0.000000
    7       27.668463   0.000000
    8       30.305063   0.000000
 
  0.3333333E+00  0.1428571E+00  0.4761905E-01  0.5183026E-02
    1        1.869708   1.000000
    2        6.096983   1.000000
    3       11.516994   0.000000
    4       14.212897   0.000000
    5       22.532345   0.000000
    6       24.502326   0.000000
    7       28.423894   0.000000
    8       30.629478   0.000000
 
  0.3809524E+00  0.1428571E+00  0.4761905E-01  0.5183026E-02
    1        3.133990   1.000000
    2        4.587507   1.000000
    3       11.389409   0.000000
    4       14.089377   0.000000
    5       22.433831   0.000000
    6       24.477620   0.000000
    7       29.250112   0.000000
    8       30.227547   0.000000
 
 -0.1428571E+00  0.1428571E+00  0.4761905E-01  0.2591513E-02
    1       -3.605320   1.000000
    2       16.759587   0.000000
    3       18.195206   0.000000
    4       20.105643   0.000000
    5       21.561955   0.000000
    6       22.791484   0.000000
    7       24.334050   0.000000
    8       25.992320   0.000000
 
 -0.9523810E-01  0.1428571E+00  0.4761905E-01  0.2591513E-02
    1       -3.674722   1.000000
    2       17.572874   0.000000
    3       17.862167   0.000000
    4       19.972881   0.000000
    5       22.131381   0.000000
    6       22.690484   0.000000
    7       24.491342   0.000000
    8       25.187099   0.000000
 
  0.1904762E+00  0.1904762E+00  0.4761905E-01  0.2591513E-02
    1       -0.369121   1.000000
    2       10.592159   0.000000
    3       10.946955   0.000000
    4       14.764394   0.000000
    5       23.581816   0.000000
    6       24.577062   0.000000
    7       27.628470   0.000000
    8       28.611704   0.000000
 
  0.2380952E+00  0.1904762E+00  0.4761905E-01  0.5183026E-02
    1        0.584745   1.000000
    2        8.955727   1.000000
    3       10.341532   0.000000
    4       14.336586   0.000000
    5       23.621566   0.000000
    6       24.931948   0.000000
    7       28.022882   0.000000
    8       29.496550   0.000000
 
  0.2857143E+00  0.1904762E+00  0.4761905E-01  0.5183026E-02
    1        1.668551   1.000000
    2        7.275023   1.000000
    3       10.010154   0.015922
    4       14.029510   0.000000
    5       23.493255   0.000000
    6       25.411031   0.000000
    7       28.191396   0.000000
    8       30.208482   0.000000
 
  0.3333333E+00  0.1904762E+00  0.4761905E-01  0.5183026E-02
    1        2.877049   1.000000
    2        5.702600   1.000000
    3        9.814360   0.999652
    4       13.844551   0.000000
    5       23.381362   0.000000
    6       25.766876   0.000000
    7       28.501109   0.000000
    8       30.131258   0.000000
 
  0.3809524E+00  0.1904762E+00  0.4761905E-01  0.2591513E-02
    1        4.046726   1.000000
    2        4.411013   1.000000
    3        9.749282   1.000000
    4       13.782793   0.000000
    5       23.340233   0.000000
    6       25.890052   0.000000
    7       28.766804   0.000000
    8       29.854919   0.000000
 
 -0.1904762E+00  0.1904762E+00  0.4761905E-01  0.2591513E-02
    1       -3.120056   1.000000
    2       14.762313   0.000000
    3       17.378171   0.000000
    4       19.624567   0.000000
    5       20.820661   0.000000
    6       22.264005   0.000000
    7       24.547974   0.000000
    8       27.601815   0.000000
 
 -0.1428571E+00  0.1904762E+00  0.4761905E-01  0.5183026E-02
    1       -3.258572   1.000000
    2       15.813850   0.000000
    3       16.881453   0.000000
    4       19.554993   0.000000
    5       21.576649   0.000000
    6       22.195174   0.000000
    7       24.698142   0.000000
    8       26.365168   0.000000
 
  0.2380952E+00  0.2380952E+00  0.4761905E-01  0.2591513E-02
    1        1.601362   1.000000
    2        8.431309   1.000000
    3        8.741654   1.000000
    4       13.969149   0.000000
    5       24.138710   0.000000
    6       25.157895   0.000000
    7       29.183357   0.000000
    8       29.320722   0.000000
 
  0.2857143E+00  0.2380952E+00  0.4761905E-01  0.5183026E-02
    1        2.745591   1.000000
    2        6.940819   1.000000
    3        8.343490   1.000000
    4       13.723306   0.000000
    5       24.287158   0.000000
    6       25.721759   0.000000
    7       28.689304   0.000000
    8       30.213063   0.000000
 
  0.3333333E+00  0.2380952E+00  0.4761905E-01  0.5183026E-02
    1        4.004385   1.000000
    2        5.445572   1.000000
    3        8.206168   1.000000
    4       13.600019   0.000000
    5       24.280541   0.000000
    6       26.356874   0.000000
    7       28.130780   0.000000
    8       30.524768   0.000000
 
 -0.2380952E+00  0.2380952E+00  0.4761905E-01  0.2591513E-02
    1       -2.497858   1.000000
    2       12.765068   0.000000
    3       16.670496   0.000000
    4       19.098680   0.000000
    5       20.132470   0.000000
    6       21.817872   0.000000
    7       24.873714   0.000000
    8       28.468075   0.000000
 
 -0.1904762E+00  0.2380952E+00  0.4761905E-01  0.5183026E-02
    1       -2.705015   1.000000
    2       13.846032   0.000000
    3       16.097370   0.000000
    4       19.058689   0.000000
    5       20.903779   0.000000
    6       22.049559   0.000000
    7       24.653521   0.000000
    8       27.826141   0.000000
 
 -0.1428571E+00  0.2380952E+00  0.4761905E-01  0.2591513E-02
    1       -2.774112   1.000000
    2       14.819803   0.000000
    3       15.191426   0.000000
    4       19.153415   0.000000
    5       21.375007   0.000000
    6       21.703023   0.000000
    7       25.512735   0.000000
    8       26.641588   0.000000
 
  0.2857143E+00  0.2857143E+00  0.4761905E-01  0.2591513E-02
    1        3.945204   1.000000
    2        6.615952   1.000000
    3        6.910297   1.000000
    4       13.539106   0.000000
    5       24.880236   0.000000
    6       26.070211   0.000000
    7       27.984502   0.000000
    8       31.237828   0.000000
 
  0.3333333E+00  0.2857143E+00  0.4761905E-01  0.2591513E-02
    1        5.100244   1.000000
    2        5.464892   1.000000
    3        6.719589   1.000000
    4       13.477600   0.000000
    5       25.046104   0.000000
    6       26.581132   0.000000
    7       27.301656   0.000000
    8       31.812563   0.000000
 
 -0.2857143E+00  0.2857143E+00  0.4761905E-01  0.2591513E-02
    1       -1.739978   1.000000
    2       10.823833   0.000000
    3       16.077495   0.000000
    4       18.602081   0.000000
    5       19.533849   0.000000
    6       21.409911   0.000000
    7       25.375527   0.000000
    8       29.214349   0.000000
 