 vasp.6.2.0 18Jan21 (build Aug 12 2022 13:00:08) complex                        
  
 executed on             LinuxIFC date 2024.11.05  06:12:12
 running on    4 total cores
 distrk:  each k-point on    4 cores,    1 groups
 distr:  one band on NCORE=   1 cores,    4 groups


--------------------------------------------------------------------------------------------------------


 INCAR:
   ISTART = 0            (Read existing wavefunction, if there)
   ISPIN = 1            (Non-Spin polarised DFT)
   LREAL = .FALSE.       (Projection operators: automatic)
   LWAVE = .TRUE.        (Write WAVECAR or not)
   LCHARG = .TRUE.        (Write CHGCAR or not)
   ADDGRID = .TRUE.        (Increase grid, helps GGA convergence)
   LASPH = .TRUE.        (Give more accurate total energies and band structure calculations)
   PREC = Accurate      (Accurate strictly avoids any aliasing or wrap around errors)
   ENCUT = 450          (Cut-off energy for plane wave basis set, in eV)
   LORBIT = 11
   ISMEAR = 0            (Gaussian smearing, metals:1)
   SIGMA = 0.05         (Smearing value in eV, metals:0.2)
   NELM = 90           (Max electronic SCF steps)
   NELMIN = 6            (Min electronic SCF steps)
   EDIFF = 1E-06        (SCF energy convergence, in eV)
   NSW = 00          (Max ionic steps)
   IBRION = -1            (Algorithm: 0-MD, 1-Quasi-New, 2-CG)
   ISIF = 3            (Stress/relaxation: 2-Ions, 3-Shape/Ions/V, 4-Shape/Ions)
   EDIFFG = -2E-03        (Ionic convergence, eV/AA)
   ISYM = 2              (Symmetry: 0\=none, 2\=GGA, 3\=hybrids)

 POTCAR:    PAW_PBE Si 05Jan2001                  
 POTCAR:    PAW_PBE Si 05Jan2001                  
   VRHFIN =Si: s2p2                                                                                 
   LEXCH  = PE                                                                                      
   EATOM  =   103.0669 eV,    7.5752 Ry                                                             
                                                                                                    
   TITEL  = PAW_PBE Si 05Jan2001                                                                    
   LULTRA =        F    use ultrasoft PP ?                                                          
   IUNSCR =        1    unscreen: 0-lin 1-nonlin 2-no                                               
   RPACOR =    1.500    partial core radius                                                         
   POMASS =   28.085; ZVAL   =    4.000    mass and valenz                                          
   RCORE  =    1.900    outmost cutoff radius                                                       
   RWIGS  =    2.480; RWIGS  =    1.312    wigner-seitz radius (au A)                               
   ENMAX  =  245.345; ENMIN  =  184.009 eV                                                          
   ICORE  =        2    local potential                                                             
   LCOR   =        T    correct aug charges                                                         
   LPAW   =        T    paw PP                                                                      
   EAUG   =  322.069                                                                                
   DEXC   =    0.000                                                                                
   RMAX   =    1.950    core radius for proj-oper                                                   
   RAUG   =    1.300    factor for augmentation sphere                                              
   RDEP   =    1.993    radius for radial grids                                                     
   RDEPT  =    1.837    core radius for aug-charge                                                  
                                                                                                    
   Atomic configuration                                                                             
    6 entries                                                                                       
     n  l   j            E        occ.                                                              
     1  0  0.50     -1785.8828   2.0000                                                             
     2  0  0.50      -139.4969   2.0000                                                             
     2  1  1.50       -95.5546   6.0000                                                             
     3  0  0.50       -10.8127   2.0000                                                             
     3  1  0.50        -4.0811   2.0000                                                             
     3  2  1.50        -4.0817   0.0000                                                             
   Description                                                                                      
     l       E           TYP  RCUT    TYP  RCUT                                                     
     0    -10.8127223     23  1.900                                                                 
     0     -7.6451159     23  1.900                                                                 
     1     -4.0811372     23  1.900                                                                 
     1      2.4879257     23  1.900                                                                 
     2     -4.0817478      7  1.900                                                                 
  local pseudopotential read in
  partial core-charges read in
  partial kinetic energy density read in
  atomic valenz-charges read in
  non local Contribution for L=           0  read in
    real space projection operators read in
  non local Contribution for L=           0  read in
    real space projection operators read in
  non local Contribution for L=           1  read in
    real space projection operators read in
  non local Contribution for L=           1  read in
    real space projection operators read in
    PAW grid and wavefunctions read in
 
   number of l-projection  operators is LMAX  =           4
   number of lm-projection operators is LMMAX =           8
 
  PAW_PBE Si 05Jan2001                  :
 energy of atom  1       EATOM= -103.0669
 kinetic energy error for atom=    0.0009 (will be added to EATOM!!)
 
 
 POSCAR: Si1
  positions in direct lattice
  velocities in cartesian coordinates
 exchange correlation table for  LEXCH =        8
   RHO(1)=    0.500       N(1)  =     2000
   RHO(2)=  100.500       N(2)  =     4000
 


--------------------------------------------------------------------------------------------------------


 ion  position               nearest neighbor table
   1  0.000  0.000  0.000-
 
  LATTYP: Found a body centered cubic cell.
 ALAT       =     3.0773315772
  
  Lattice vectors:
  
 A1 = (   1.5386657886,   1.5386657886,   1.5386657886)
 A2 = (   1.5386657886,  -1.5386657886,  -1.5386657886)
 A3 = (  -1.5386657886,   1.5386657886,  -1.5386657886)


Analysis of symmetry for initial positions (statically):
=====================================================================
 Subroutine PRICEL returns:
 Original cell was already a primitive cell.
 

 Routine SETGRP: Setting up the symmetry group for a 
 body centered cubic supercell.


 Subroutine GETGRP returns: Found 48 space group operations
 (whereof 48 operations were pure point group operations)
 out of a pool of 48 trial point group operations.


The static configuration has the point symmetry O_h .


Analysis of symmetry for dynamics (positions and initial velocities):
=====================================================================
 Subroutine PRICEL returns:
 Original cell was already a primitive cell.
 

 Routine SETGRP: Setting up the symmetry group for a 
 body centered cubic supercell.


 Subroutine GETGRP returns: Found 48 space group operations
 (whereof 48 operations were pure point group operations)
 out of a pool of 48 trial point group operations.


The dynamic configuration has the point symmetry O_h .


 Subroutine INISYM returns: Found 48 space group operations
 (whereof 48 operations are pure point group operations),
 and found     1 'primitive' translations


----------------------------------------------------------------------------------------

                                     Primitive cell                                     

  volume of cell :      14.5711

  direct lattice vectors                    reciprocal lattice vectors
     1.538665789  1.538665789  1.538665789     0.324956858  0.324956858  0.000000000
     1.538665789 -1.538665789 -1.538665789     0.324956858  0.000000000 -0.324956858
    -1.538665789  1.538665789 -1.538665789     0.000000000  0.324956858 -0.324956858

  length of vectors
     2.665047322  2.665047322  2.665047322     0.459558396  0.459558396  0.459558396

  position of ions in fractional coordinates (direct lattice)
     0.000000000  0.000000000  0.000000000

  ion indices of the primitive-cell ions
   primitive index   ion index
                 1           1

----------------------------------------------------------------------------------------

 
 
 KPOINTS: Automatic                               

Automatic generation of k-mesh.
 Grid dimensions read from file:
 generate k-points for:   21   21   21

 Generating k-lattice:

  Cartesian coordinates                     Fractional coordinates (reciprocal lattice)
     0.015474136  0.015474136  0.000000000     0.047619048  0.000000000  0.000000000
     0.015474136  0.000000000 -0.015474136     0.000000000  0.047619048  0.000000000
     0.000000000  0.015474136 -0.015474136     0.000000000  0.000000000  0.047619048

  Length of vectors
     0.021883733  0.021883733  0.021883733

  Shift w.r.t. Gamma in fractional coordinates (k-lattice)
     0.000000000  0.000000000  0.000000000

 
 Subroutine IBZKPT returns following result:
 ===========================================
 
 Found    286 irreducible k-points:
 
 Following reciprocal coordinates:
            Coordinates               Weight
  0.000000  0.000000  0.000000      1.000000
  0.047619  0.000000  0.000000     12.000000
  0.095238  0.000000  0.000000     12.000000
  0.142857  0.000000  0.000000     12.000000
  0.190476  0.000000  0.000000     12.000000
  0.238095  0.000000  0.000000     12.000000
  0.285714  0.000000  0.000000     12.000000
  0.333333  0.000000  0.000000     12.000000
  0.380952  0.000000  0.000000     12.000000
  0.428571  0.000000  0.000000     12.000000
  0.476190  0.000000  0.000000     12.000000
  0.047619  0.047619  0.000000     24.000000
  0.095238  0.047619  0.000000     48.000000
  0.142857  0.047619  0.000000     48.000000
  0.190476  0.047619  0.000000     48.000000
  0.238095  0.047619 -0.000000     48.000000
  0.285714  0.047619 -0.000000     48.000000
  0.333333  0.047619  0.000000     48.000000
  0.380952  0.047619  0.000000     48.000000
  0.428571  0.047619 -0.000000     48.000000
  0.476190  0.047619 -0.000000     24.000000
  0.095238  0.095238  0.000000     24.000000
  0.142857  0.095238  0.000000     48.000000
  0.190476  0.095238  0.000000     48.000000
  0.238095  0.095238 -0.000000     48.000000
  0.285714  0.095238 -0.000000     48.000000
  0.333333  0.095238 -0.000000     48.000000
  0.380952  0.095238 -0.000000     48.000000
  0.428571  0.095238 -0.000000     48.000000
  0.142857  0.142857  0.000000     24.000000
  0.190476  0.142857 -0.000000     48.000000
  0.238095  0.142857  0.000000     48.000000
  0.285714  0.142857  0.000000     48.000000
  0.333333  0.142857  0.000000     48.000000
  0.380952  0.142857  0.000000     48.000000
  0.428571  0.142857  0.000000     24.000000
  0.190476  0.190476  0.000000     24.000000
  0.238095  0.190476  0.000000     48.000000
  0.285714  0.190476 -0.000000     48.000000
  0.333333  0.190476 -0.000000     48.000000
  0.380952  0.190476  0.000000     48.000000
  0.238095  0.238095 -0.000000     24.000000
  0.285714  0.238095 -0.000000     48.000000
  0.333333  0.238095  0.000000     48.000000
  0.380952  0.238095 -0.000000     24.000000
  0.285714  0.285714  0.000000     24.000000
  0.333333  0.285714 -0.000000     48.000000
  0.333333  0.333333  0.000000      8.000000
  0.047619  0.047619  0.047619      8.000000
  0.095238  0.047619  0.047619     24.000000
  0.142857  0.047619  0.047619     24.000000
  0.190476  0.047619  0.047619     24.000000
  0.238095  0.047619  0.047619     24.000000
  0.285714  0.047619  0.047619     24.000000
  0.333333  0.047619  0.047619     24.000000
  0.380952  0.047619  0.047619     24.000000
  0.428571  0.047619  0.047619     24.000000
 -0.047619  0.047619  0.047619      6.000000
  0.095238  0.095238  0.047619     24.000000
  0.142857  0.095238  0.047619     48.000000
  0.190476  0.095238  0.047619     48.000000
  0.238095  0.095238  0.047619     48.000000
  0.285714  0.095238  0.047619     48.000000
  0.333333  0.095238  0.047619     48.000000
  0.380952  0.095238  0.047619     48.000000
  0.428571  0.095238  0.047619     24.000000
 -0.095238  0.095238  0.047619     24.000000
  0.142857  0.142857  0.047619     24.000000
  0.190476  0.142857  0.047619     48.000000
  0.238095  0.142857  0.047619     48.000000
  0.285714  0.142857  0.047619     48.000000
  0.333333  0.142857  0.047619     48.000000
  0.380952  0.142857  0.047619     48.000000
 -0.142857  0.142857  0.047619     24.000000
 -0.095238  0.142857  0.047619     24.000000
  0.190476  0.190476  0.047619     24.000000
  0.238095  0.190476  0.047619     48.000000
  0.285714  0.190476  0.047619     48.000000
  0.333333  0.190476  0.047619     48.000000
  0.380952  0.190476  0.047619     24.000000
 -0.190476  0.190476  0.047619     24.000000
 -0.142857  0.190476  0.047619     48.000000
  0.238095  0.238095  0.047619     24.000000
  0.285714  0.238095  0.047619     48.000000
  0.333333  0.238095  0.047619     48.000000
 -0.238095  0.238095  0.047619     24.000000
 -0.190476  0.238095  0.047619     48.000000
 -0.142857  0.238095  0.047619     24.000000
  0.285714  0.285714  0.047619     24.000000
  0.333333  0.285714  0.047619     24.000000
 -0.285714  0.285714  0.047619     24.000000
 -0.238095  0.285714  0.047619     48.000000
 -0.190476  0.285714  0.047619     48.000000
 -0.333333  0.333333  0.047619     24.000000
 -0.285714  0.333333  0.047619     48.000000
 -0.238095  0.333333  0.047619     48.000000
 -0.190476  0.333333  0.047619     24.000000
 -0.380952  0.380952  0.047619     24.000000
 -0.333333  0.380952  0.047619     48.000000
 -0.285714  0.380952  0.047619     48.000000
 -0.238095  0.380952  0.047619     48.000000
 -0.428571  0.428571  0.047619     24.000000
 -0.380952  0.428571  0.047619     48.000000
 -0.333333  0.428571  0.047619     48.000000
 -0.285714  0.428571  0.047619     48.000000
 -0.238095  0.428571  0.047619     24.000000
 -0.476190  0.476190  0.047619     24.000000
 -0.428571  0.476190  0.047619     48.000000
 -0.380952  0.476190  0.047619     48.000000
 -0.333333  0.476190  0.047619     48.000000
 -0.285714  0.476190  0.047619     48.000000
 -0.476190 -0.476190  0.047619     24.000000
 -0.428571 -0.476190  0.047619     48.000000
 -0.380952 -0.476190  0.047619     48.000000
 -0.333333 -0.476190  0.047619     48.000000
 -0.285714 -0.476190  0.047619     24.000000
 -0.428571 -0.428571  0.047619     24.000000
 -0.380952 -0.428571  0.047619     48.000000
 -0.333333 -0.428571  0.047619     48.000000
 -0.380952 -0.380952  0.047619     24.000000
 -0.333333 -0.380952  0.047619     24.000000
  0.095238  0.095238  0.095238      8.000000
  0.142857  0.095238  0.095238     24.000000
  0.190476  0.095238  0.095238     24.000000
  0.238095  0.095238  0.095238     24.000000
  0.285714  0.095238  0.095238     24.000000
  0.333333  0.095238  0.095238     24.000000
  0.380952  0.095238  0.095238     24.000000
 -0.095238  0.095238  0.095238      6.000000
  0.142857  0.142857  0.095238     24.000000
  0.190476  0.142857  0.095238     48.000000
  0.238095  0.142857  0.095238     48.000000
  0.285714  0.142857  0.095238     48.000000
  0.333333  0.142857  0.095238     48.000000
  0.380952  0.142857  0.095238     24.000000
 -0.142857  0.142857  0.095238     24.000000
  0.190476  0.190476  0.095238     24.000000
  0.238095  0.190476  0.095238     48.000000
  0.285714  0.190476  0.095238     48.000000
  0.333333  0.190476  0.095238     48.000000
 -0.190476  0.190476  0.095238     24.000000
 -0.142857  0.190476  0.095238     24.000000
  0.238095  0.238095  0.095238     24.000000
  0.285714  0.238095  0.095238     48.000000
  0.333333  0.238095  0.095238     24.000000
 -0.238095  0.238095  0.095238     24.000000
 -0.190476  0.238095  0.095238     48.000000
  0.285714  0.285714  0.095238     24.000000
 -0.285714  0.285714  0.095238     24.000000
 -0.238095  0.285714  0.095238     48.000000
 -0.190476  0.285714  0.095238     24.000000
 -0.333333  0.333333  0.095238     24.000000
 -0.285714  0.333333  0.095238     48.000000
 -0.238095  0.333333  0.095238     48.000000
 -0.380952  0.380952  0.095238     24.000000
 -0.333333  0.380952  0.095238     48.000000
 -0.285714  0.380952  0.095238     48.000000
 -0.238095  0.380952  0.095238     24.000000
 -0.428571  0.428571  0.095238     24.000000
 -0.380952  0.428571  0.095238     48.000000
 -0.333333  0.428571  0.095238     48.000000
 -0.285714  0.428571  0.095238     48.000000
 -0.476190  0.476190  0.095238     24.000000
 -0.428571  0.476190  0.095238     48.000000
 -0.380952  0.476190  0.095238     48.000000
 -0.333333  0.476190  0.095238     48.000000
 -0.285714  0.476190  0.095238     24.000000
 -0.476190 -0.476190  0.095238     24.000000
 -0.428571 -0.476190  0.095238     48.000000
 -0.380952 -0.476190  0.095238     48.000000
 -0.333333 -0.476190  0.095238     48.000000
 -0.428571 -0.428571  0.095238     24.000000
 -0.380952 -0.428571  0.095238     48.000000
 -0.333333 -0.428571  0.095238     24.000000
 -0.380952 -0.380952  0.095238     24.000000
  0.142857  0.142857  0.142857      8.000000
  0.190476  0.142857  0.142857     24.000000
  0.238095  0.142857  0.142857     24.000000
  0.285714  0.142857  0.142857     24.000000
  0.333333  0.142857  0.142857     24.000000
 -0.142857  0.142857  0.142857      6.000000
  0.190476  0.190476  0.142857     24.000000
  0.238095  0.190476  0.142857     48.000000
  0.285714  0.190476  0.142857     48.000000
  0.333333  0.190476  0.142857     24.000000
 -0.190476  0.190476  0.142857     24.000000
  0.238095  0.238095  0.142857     24.000000
  0.285714  0.238095  0.142857     48.000000
 -0.238095  0.238095  0.142857     24.000000
 -0.190476  0.238095  0.142857     24.000000
  0.285714  0.285714  0.142857      8.000000
 -0.285714  0.285714  0.142857     24.000000
 -0.238095  0.285714  0.142857     48.000000
 -0.333333  0.333333  0.142857     24.000000
 -0.285714  0.333333  0.142857     48.000000
 -0.238095  0.333333  0.142857     24.000000
 -0.380952  0.380952  0.142857     24.000000
 -0.333333  0.380952  0.142857     48.000000
 -0.285714  0.380952  0.142857     48.000000
 -0.428571  0.428571  0.142857     24.000000
 -0.380952  0.428571  0.142857     48.000000
 -0.333333  0.428571  0.142857     48.000000
 -0.285714  0.428571  0.142857     24.000000
 -0.476190  0.476190  0.142857     24.000000
 -0.428571  0.476190  0.142857     48.000000
 -0.380952  0.476190  0.142857     48.000000
 -0.333333  0.476190  0.142857     48.000000
 -0.476190 -0.476190  0.142857     24.000000
 -0.428571 -0.476190  0.142857     48.000000
 -0.380952 -0.476190  0.142857     48.000000
 -0.333333 -0.476190  0.142857     24.000000
 -0.428571 -0.428571  0.142857     24.000000
 -0.380952 -0.428571  0.142857     48.000000
 -0.380952 -0.380952  0.142857      8.000000
  0.190476  0.190476  0.190476      8.000000
  0.238095  0.190476  0.190476     24.000000
  0.285714  0.190476  0.190476     24.000000
 -0.190476  0.190476  0.190476      6.000000
  0.238095  0.238095  0.190476     24.000000
  0.285714  0.238095  0.190476     24.000000
 -0.238095  0.238095  0.190476     24.000000
 -0.285714  0.285714  0.190476     24.000000
 -0.238095  0.285714  0.190476     24.000000
 -0.333333  0.333333  0.190476     24.000000
 -0.285714  0.333333  0.190476     48.000000
 -0.380952  0.380952  0.190476     24.000000
 -0.333333  0.380952  0.190476     48.000000
 -0.285714  0.380952  0.190476     24.000000
 -0.428571  0.428571  0.190476     24.000000
 -0.380952  0.428571  0.190476     48.000000
 -0.333333  0.428571  0.190476     48.000000
 -0.476190  0.476190  0.190476     24.000000
 -0.428571  0.476190  0.190476     48.000000
 -0.380952  0.476190  0.190476     48.000000
 -0.333333  0.476190  0.190476     24.000000
 -0.476190 -0.476190  0.190476     24.000000
 -0.428571 -0.476190  0.190476     48.000000
 -0.380952 -0.476190  0.190476     48.000000
 -0.428571 -0.428571  0.190476     24.000000
 -0.380952 -0.428571  0.190476     24.000000
  0.238095  0.238095  0.238095      8.000000
 -0.238095  0.238095  0.238095      6.000000
 -0.285714  0.285714  0.238095     24.000000
 -0.333333  0.333333  0.238095     24.000000
 -0.285714  0.333333  0.238095     24.000000
 -0.380952  0.380952  0.238095     24.000000
 -0.333333  0.380952  0.238095     48.000000
 -0.428571  0.428571  0.238095     24.000000
 -0.380952  0.428571  0.238095     48.000000
 -0.333333  0.428571  0.238095     24.000000
 -0.476190  0.476190  0.238095     24.000000
 -0.428571  0.476190  0.238095     48.000000
 -0.380952  0.476190  0.238095     48.000000
 -0.476190 -0.476190  0.238095     24.000000
 -0.428571 -0.476190  0.238095     48.000000
 -0.380952 -0.476190  0.238095     24.000000
 -0.428571 -0.428571  0.238095     24.000000
 -0.285714  0.285714  0.285714      6.000000
 -0.333333  0.333333  0.285714     24.000000
 -0.380952  0.380952  0.285714     24.000000
 -0.333333  0.380952  0.285714     24.000000
 -0.428571  0.428571  0.285714     24.000000
 -0.380952  0.428571  0.285714     48.000000
 -0.476190  0.476190  0.285714     24.000000
 -0.428571  0.476190  0.285714     48.000000
 -0.380952  0.476190  0.285714     24.000000
 -0.476190 -0.476190  0.285714     24.000000
 -0.428571 -0.476190  0.285714     48.000000
 -0.428571 -0.428571  0.285714      8.000000
 -0.333333  0.333333  0.333333      6.000000
 -0.380952  0.380952  0.333333     24.000000
 -0.428571  0.428571  0.333333     24.000000
 -0.380952  0.428571  0.333333     24.000000
 -0.476190  0.476190  0.333333     24.000000
 -0.428571  0.476190  0.333333     48.000000
 -0.476190 -0.476190  0.333333     24.000000
 -0.428571 -0.476190  0.333333     24.000000
 -0.380952  0.380952  0.380952      6.000000
 -0.428571  0.428571  0.380952     24.000000
 -0.476190  0.476190  0.380952     24.000000
 -0.428571  0.476190  0.380952     24.000000
 -0.476190 -0.476190  0.380952     24.000000
 -0.428571  0.428571  0.428571      6.000000
 -0.476190  0.476190  0.428571     24.000000
 -0.476190 -0.476190  0.428571      8.000000
 -0.476190  0.476190  0.476190      6.000000
 
 Following cartesian coordinates:
            Coordinates               Weight
  0.000000  0.000000  0.000000      1.000000
  0.015706  0.015706  0.000000     12.000000
  0.031412  0.031412  0.000000     12.000000
  0.047119  0.047119  0.000000     12.000000
  0.062825  0.062825  0.000000     12.000000
  0.078531  0.078531  0.000000     12.000000
  0.094237  0.094237  0.000000     12.000000
  0.109944  0.109944  0.000000     12.000000
  0.125650  0.125650  0.000000     12.000000
  0.141356  0.141356  0.000000     12.000000
  0.157062  0.157062  0.000000     12.000000
  0.031412  0.015706 -0.015706     24.000000
  0.047119  0.031412 -0.015706     48.000000
  0.062825  0.047119 -0.015706     48.000000
  0.078531  0.062825 -0.015706     48.000000
  0.094237  0.078531 -0.015706     48.000000
  0.109944  0.094237 -0.015706     48.000000
  0.125650  0.109944 -0.015706     48.000000
  0.141356  0.125650 -0.015706     48.000000
  0.157062  0.141356 -0.015706     48.000000
  0.172769  0.157062 -0.015706     24.000000
  0.062825  0.031412 -0.031412     24.000000
  0.078531  0.047119 -0.031412     48.000000
  0.094237  0.062825 -0.031412     48.000000
  0.109944  0.078531 -0.031412     48.000000
  0.125650  0.094237 -0.031412     48.000000
  0.141356  0.109944 -0.031412     48.000000
  0.157062  0.125650 -0.031412     48.000000
  0.172769  0.141356 -0.031412     48.000000
  0.094237  0.047119 -0.047119     24.000000
  0.109944  0.062825 -0.047119     48.000000
  0.125650  0.078531 -0.047119     48.000000
  0.141356  0.094237 -0.047119     48.000000
  0.157062  0.109944 -0.047119     48.000000
  0.172769  0.125650 -0.047119     48.000000
  0.188475  0.141356 -0.047119     24.000000
  0.125650  0.062825 -0.062825     24.000000
  0.141356  0.078531 -0.062825     48.000000
  0.157062  0.094237 -0.062825     48.000000
  0.172769  0.109944 -0.062825     48.000000
  0.188475  0.125650 -0.062825     48.000000
  0.157062  0.078531 -0.078531     24.000000
  0.172769  0.094237 -0.078531     48.000000
  0.188475  0.109944 -0.078531     48.000000
  0.204181  0.125650 -0.078531     24.000000
  0.188475  0.094237 -0.094237     24.000000
  0.204181  0.109944 -0.094237     48.000000
  0.219887  0.109944 -0.109944      8.000000
  0.031412  0.031412 -0.031412      8.000000
  0.047119  0.047119 -0.031412     24.000000
  0.062825  0.062825 -0.031412     24.000000
  0.078531  0.078531 -0.031412     24.000000
  0.094237  0.094237 -0.031412     24.000000
  0.109944  0.109944 -0.031412     24.000000
  0.125650  0.125650 -0.031412     24.000000
  0.141356  0.141356 -0.031412     24.000000
  0.157062  0.157062 -0.031412     24.000000
  0.000000  0.000000 -0.031412      6.000000
  0.062825  0.047119 -0.047119     24.000000
  0.078531  0.062825 -0.047119     48.000000
  0.094237  0.078531 -0.047119     48.000000
  0.109944  0.094237 -0.047119     48.000000
  0.125650  0.109944 -0.047119     48.000000
  0.141356  0.125650 -0.047119     48.000000
  0.157062  0.141356 -0.047119     48.000000
  0.172769  0.157062 -0.047119     24.000000
  0.000000 -0.015706 -0.047119     24.000000
  0.094237  0.062825 -0.062825     24.000000
  0.109944  0.078531 -0.062825     48.000000
  0.125650  0.094237 -0.062825     48.000000
  0.141356  0.109944 -0.062825     48.000000
  0.157062  0.125650 -0.062825     48.000000
  0.172769  0.141356 -0.062825     48.000000
  0.000000 -0.031412 -0.062825     24.000000
  0.015706 -0.015706 -0.062825     24.000000
  0.125650  0.078531 -0.078531     24.000000
  0.141356  0.094237 -0.078531     48.000000
  0.157062  0.109944 -0.078531     48.000000
  0.172769  0.125650 -0.078531     48.000000
  0.188475  0.141356 -0.078531     24.000000
  0.000000 -0.047119 -0.078531     24.000000
  0.015706 -0.031412 -0.078531     48.000000
  0.157062  0.094237 -0.094237     24.000000
  0.172769  0.109944 -0.094237     48.000000
  0.188475  0.125650 -0.094237     48.000000
  0.000000 -0.062825 -0.094237     24.000000
  0.015706 -0.047119 -0.094237     48.000000
  0.031412 -0.031412 -0.094237     24.000000
  0.188475  0.109944 -0.109944     24.000000
  0.204181  0.125650 -0.109944     24.000000
  0.000000 -0.078531 -0.109944     24.000000
  0.015706 -0.062825 -0.109944     48.000000
  0.031412 -0.047119 -0.109944     48.000000
  0.000000 -0.094237 -0.125650     24.000000
  0.015706 -0.078531 -0.125650     48.000000
  0.031412 -0.062825 -0.125650     48.000000
  0.047119 -0.047119 -0.125650     24.000000
  0.000000 -0.109944 -0.141356     24.000000
  0.015706 -0.094237 -0.141356     48.000000
  0.031412 -0.078531 -0.141356     48.000000
  0.047119 -0.062825 -0.141356     48.000000
  0.000000 -0.125650 -0.157062     24.000000
  0.015706 -0.109944 -0.157062     48.000000
  0.031412 -0.094237 -0.157062     48.000000
  0.047119 -0.078531 -0.157062     48.000000
  0.062825 -0.062825 -0.157062     24.000000
  0.000000 -0.141356 -0.172769     24.000000
  0.015706 -0.125650 -0.172769     48.000000
  0.031412 -0.109944 -0.172769     48.000000
  0.047119 -0.094237 -0.172769     48.000000
  0.062825 -0.078531 -0.172769     48.000000
 -0.314125 -0.141356  0.141356     24.000000
 -0.298419 -0.125650  0.141356     48.000000
 -0.282712 -0.109944  0.141356     48.000000
 -0.267006 -0.094237  0.141356     48.000000
 -0.251300 -0.078531  0.141356     24.000000
 -0.282712 -0.125650  0.125650     24.000000
 -0.267006 -0.109944  0.125650     48.000000
 -0.251300 -0.094237  0.125650     48.000000
 -0.251300 -0.109944  0.109944     24.000000
 -0.235594 -0.094237  0.109944     24.000000
  0.062825  0.062825 -0.062825      8.000000
  0.078531  0.078531 -0.062825     24.000000
  0.094237  0.094237 -0.062825     24.000000
  0.109944  0.109944 -0.062825     24.000000
  0.125650  0.125650 -0.062825     24.000000
  0.141356  0.141356 -0.062825     24.000000
  0.157062  0.157062 -0.062825     24.000000
  0.000000  0.000000 -0.062825      6.000000
  0.094237  0.078531 -0.078531     24.000000
  0.109944  0.094237 -0.078531     48.000000
  0.125650  0.109944 -0.078531     48.000000
  0.141356  0.125650 -0.078531     48.000000
  0.157062  0.141356 -0.078531     48.000000
  0.172769  0.157062 -0.078531     24.000000
  0.000000 -0.015706 -0.078531     24.000000
  0.125650  0.094237 -0.094237     24.000000
  0.141356  0.109944 -0.094237     48.000000
  0.157062  0.125650 -0.094237     48.000000
  0.172769  0.141356 -0.094237     48.000000
  0.000000 -0.031412 -0.094237     24.000000
  0.015706 -0.015706 -0.094237     24.000000
  0.157062  0.109944 -0.109944     24.000000
  0.172769  0.125650 -0.109944     48.000000
  0.188475  0.141356 -0.109944     24.000000
  0.000000 -0.047119 -0.109944     24.000000
  0.015706 -0.031412 -0.109944     48.000000
  0.188475  0.125650 -0.125650     24.000000
  0.000000 -0.062825 -0.125650     24.000000
  0.015706 -0.047119 -0.125650     48.000000
  0.031412 -0.031412 -0.125650     24.000000
  0.000000 -0.078531 -0.141356     24.000000
  0.015706 -0.062825 -0.141356     48.000000
  0.031412 -0.047119 -0.141356     48.000000
  0.000000 -0.094237 -0.157062     24.000000
  0.015706 -0.078531 -0.157062     48.000000
  0.031412 -0.062825 -0.157062     48.000000
  0.047119 -0.047119 -0.157062     24.000000
  0.000000 -0.109944 -0.172769     24.000000
  0.015706 -0.094237 -0.172769     48.000000
  0.031412 -0.078531 -0.172769     48.000000
  0.047119 -0.062825 -0.172769     48.000000
  0.000000 -0.125650 -0.188475     24.000000
  0.015706 -0.109944 -0.188475     48.000000
  0.031412 -0.094237 -0.188475     48.000000
  0.047119 -0.078531 -0.188475     48.000000
  0.062825 -0.062825 -0.188475     24.000000
 -0.314125 -0.125650  0.125650     24.000000
 -0.298419 -0.109944  0.125650     48.000000
 -0.282712 -0.094237  0.125650     48.000000
 -0.267006 -0.078531  0.125650     48.000000
 -0.282712 -0.109944  0.109944     24.000000
 -0.267006 -0.094237  0.109944     48.000000
 -0.251300 -0.078531  0.109944     24.000000
 -0.251300 -0.094237  0.094237     24.000000
  0.094237  0.094237 -0.094237      8.000000
  0.109944  0.109944 -0.094237     24.000000
  0.125650  0.125650 -0.094237     24.000000
  0.141356  0.141356 -0.094237     24.000000
  0.157062  0.157062 -0.094237     24.000000
  0.000000  0.000000 -0.094237      6.000000
  0.125650  0.109944 -0.109944     24.000000
  0.141356  0.125650 -0.109944     48.000000
  0.157062  0.141356 -0.109944     48.000000
  0.172769  0.157062 -0.109944     24.000000
  0.000000 -0.015706 -0.109944     24.000000
  0.157062  0.125650 -0.125650     24.000000
  0.172769  0.141356 -0.125650     48.000000
  0.000000 -0.031412 -0.125650     24.000000
  0.015706 -0.015706 -0.125650     24.000000
  0.188475  0.141356 -0.141356      8.000000
  0.000000 -0.047119 -0.141356     24.000000
  0.015706 -0.031412 -0.141356     48.000000
  0.000000 -0.062825 -0.157062     24.000000
  0.015706 -0.047119 -0.157062     48.000000
  0.031412 -0.031412 -0.157062     24.000000
  0.000000 -0.078531 -0.172769     24.000000
  0.015706 -0.062825 -0.172769     48.000000
  0.031412 -0.047119 -0.172769     48.000000
  0.000000 -0.094237 -0.188475     24.000000
  0.015706 -0.078531 -0.188475     48.000000
  0.031412 -0.062825 -0.188475     48.000000
  0.047119 -0.047119 -0.188475     24.000000
  0.000000 -0.109944 -0.204181     24.000000
  0.015706 -0.094237 -0.204181     48.000000
  0.031412 -0.078531 -0.204181     48.000000
  0.047119 -0.062825 -0.204181     48.000000
 -0.314125 -0.109944  0.109944     24.000000
 -0.298419 -0.094237  0.109944     48.000000
 -0.282712 -0.078531  0.109944     48.000000
 -0.267006 -0.062825  0.109944     24.000000
 -0.282712 -0.094237  0.094237     24.000000
 -0.267006 -0.078531  0.094237     48.000000
 -0.251300 -0.078531  0.078531      8.000000
  0.125650  0.125650 -0.125650      8.000000
  0.141356  0.141356 -0.125650     24.000000
  0.157062  0.157062 -0.125650     24.000000
  0.000000  0.000000 -0.125650      6.000000
  0.157062  0.141356 -0.141356     24.000000
  0.172769  0.157062 -0.141356     24.000000
  0.000000 -0.015706 -0.141356     24.000000
  0.000000 -0.031412 -0.157062     24.000000
  0.015706 -0.015706 -0.157062     24.000000
  0.000000 -0.047119 -0.172769     24.000000
  0.015706 -0.031412 -0.172769     48.000000
  0.000000 -0.062825 -0.188475     24.000000
  0.015706 -0.047119 -0.188475     48.000000
  0.031412 -0.031412 -0.188475     24.000000
  0.000000 -0.078531 -0.204181     24.000000
  0.015706 -0.062825 -0.204181     48.000000
  0.031412 -0.047119 -0.204181     48.000000
  0.000000 -0.094237 -0.219887     24.000000
  0.015706 -0.078531 -0.219887     48.000000
  0.031412 -0.062825 -0.219887     48.000000
  0.047119 -0.047119 -0.219887     24.000000
 -0.314125 -0.094237  0.094237     24.000000
 -0.298419 -0.078531  0.094237     48.000000
 -0.282712 -0.062825  0.094237     48.000000
 -0.282712 -0.078531  0.078531     24.000000
 -0.267006 -0.062825  0.078531     24.000000
  0.157062  0.157062 -0.157062      8.000000
  0.000000  0.000000 -0.157062      6.000000
  0.000000 -0.015706 -0.172769     24.000000
  0.000000 -0.031412 -0.188475     24.000000
  0.015706 -0.015706 -0.188475     24.000000
  0.000000 -0.047119 -0.204181     24.000000
  0.015706 -0.031412 -0.204181     48.000000
  0.000000 -0.062825 -0.219887     24.000000
  0.015706 -0.047119 -0.219887     48.000000
  0.031412 -0.031412 -0.219887     24.000000
  0.000000 -0.078531 -0.235594     24.000000
  0.015706 -0.062825 -0.235594     48.000000
  0.031412 -0.047119 -0.235594     48.000000
 -0.314125 -0.078531  0.078531     24.000000
 -0.298419 -0.062825  0.078531     48.000000
 -0.282712 -0.047119  0.078531     24.000000
 -0.282712 -0.062825  0.062825     24.000000
  0.000000  0.000000 -0.188475      6.000000
  0.000000 -0.015706 -0.204181     24.000000
  0.000000 -0.031412 -0.219887     24.000000
  0.015706 -0.015706 -0.219887     24.000000
  0.000000 -0.047119 -0.235594     24.000000
  0.015706 -0.031412 -0.235594     48.000000
  0.000000 -0.062825 -0.251300     24.000000
  0.015706 -0.047119 -0.251300     48.000000
  0.031412 -0.031412 -0.251300     24.000000
 -0.314125 -0.062825  0.062825     24.000000
 -0.298419 -0.047119  0.062825     48.000000
 -0.282712 -0.047119  0.047119      8.000000
  0.000000  0.000000 -0.219887      6.000000
  0.000000 -0.015706 -0.235594     24.000000
  0.000000 -0.031412 -0.251300     24.000000
  0.015706 -0.015706 -0.251300     24.000000
  0.000000 -0.047119 -0.267006     24.000000
  0.015706 -0.031412 -0.267006     48.000000
 -0.314125 -0.047119  0.047119     24.000000
 -0.298419 -0.031412  0.047119     24.000000
  0.000000  0.000000 -0.251300      6.000000
  0.000000 -0.015706 -0.267006     24.000000
  0.000000 -0.031412 -0.282712     24.000000
  0.015706 -0.015706 -0.282712     24.000000
 -0.314125 -0.031412  0.031412     24.000000
  0.000000  0.000000 -0.282712      6.000000
  0.000000 -0.015706 -0.298419     24.000000
 -0.314125 -0.015706  0.015706      8.000000
  0.000000  0.000000 -0.314125      6.000000
 


--------------------------------------------------------------------------------------------------------




 Dimension of arrays:
   k-points           NKPTS =    286   k-points in BZ     NKDIM =    286   number of bands    NBANDS=      8
   number of dos      NEDOS =    301   number of ions     NIONS =      1
   non local maximal  LDIM  =      4   non local SUM 2l+1 LMDIM =      8
   total plane-waves  NPLWV =   5832
   max r-space proj   IRMAX =      1   max aug-charges    IRDMAX= 107244
   dimension x,y,z NGX =    18 NGY =   18 NGZ =   18
   dimension x,y,z NGXF=    36 NGYF=   36 NGZF=   36
   support grid    NGXF=    72 NGYF=   72 NGZF=   72
   ions per type =               1
   NGX,Y,Z   is equivalent  to a cutoff of  11.23, 11.23, 11.23 a.u.
   NGXF,Y,Z  is equivalent  to a cutoff of  22.46, 22.46, 22.46 a.u.

 SYSTEM =  unknown system                          
 POSCAR =  Si1                                     

 Startparameter for this run:
   NWRITE =      2    write-flag & timer
   PREC   = accura    normal or accurate (medium, high low for compatibility)
   ISTART =      0    job   : 0-new  1-cont  2-samecut
   ICHARG =      2    charge: 1-file 2-atom 10-const
   ISPIN  =      1    spin polarized calculation?
   LNONCOLLINEAR =      F non collinear calculations
   LSORBIT =      F    spin-orbit coupling
   INIWAV =      1    electr: 0-lowe 1-rand  2-diag
   LASPH  =      T    aspherical Exc in radial PAW
   METAGGA=      F    non-selfconsistent MetaGGA calc.

 Electronic Relaxation 1
   ENCUT  =  450.0 eV  33.07 Ry    5.75 a.u.   4.61  4.61  4.61*2*pi/ulx,y,z
   ENINI  =  450.0     initial cutoff
   ENAUG  =  322.1 eV  augmentation charge cutoff
   NELM   =     90;   NELMIN=  6; NELMDL= -5     # of ELM steps 
   EDIFF  = 0.1E-05   stopping-criterion for ELM
   LREAL  =      F    real-space projection
   NLSPLINE    = F    spline interpolate recip. space projectors
   LCOMPAT=      F    compatible to vasp.4.4
   GGA_COMPAT  = T    GGA compatible to vasp.4.4-vasp.4.6
   LMAXPAW     = -100 max onsite density
   LMAXMIX     =    2 max onsite mixed and CHGCAR
   VOSKOWN=      0    Vosko Wilk Nusair interpolation
   ROPT   =    0.00000
 Ionic relaxation
   EDIFFG = -.2E-02   stopping-criterion for IOM
   NSW    =      0    number of steps for IOM
   NBLOCK =      1;   KBLOCK =      1    inner block; outer block 
   IBRION =     -1    ionic relax: 0-MD 1-quasi-New 2-CG
   NFREE  =      0    steps in history (QN), initial steepest desc. (CG)
   ISIF   =      3    stress and relaxation
   IWAVPR =     10    prediction:  0-non 1-charg 2-wave 3-comb
   ISYM   =      2    0-nonsym 1-usesym 2-fastsym
   LCORR  =      T    Harris-Foulkes like correction to forces

   POTIM  = 0.5000    time-step for ionic-motion
   TEIN   =    0.0    initial temperature
   TEBEG  =    0.0;   TEEND  =   0.0 temperature during run
   SMASS  =  -3.00    Nose mass-parameter (am)
   estimated Nose-frequenzy (Omega)   =  0.10E-29 period in steps = 0.13E+47 mass=  -0.162E-27a.u.
   SCALEE = 1.0000    scale energy and forces
   NPACO  =    256;   APACO  = 16.0  distance and # of slots for P.C.
   PSTRESS=    0.0 pullay stress

  Mass of Ions in am
   POMASS =  28.09
  Ionic Valenz
   ZVAL   =   4.00
  Atomic Wigner-Seitz radii
   RWIGS  =  -1.00
  virtual crystal weights 
   VCA    =   1.00
   NELECT =       4.0000    total number of electrons
   NUPDOWN=      -1.0000    fix difference up-down

 DOS related values:
   EMIN   =  10.00;   EMAX   =-10.00  energy-range for DOS
   EFERMI =   0.00
   ISMEAR =     0;   SIGMA  =   0.05  broadening in eV -4-tet -1-fermi 0-gaus

 Electronic relaxation 2 (details)
   IALGO  =     38    algorithm
   LDIAG  =      T    sub-space diagonalisation (order eigenvalues)
   LSUBROT=      F    optimize rotation matrix (better conditioning)
   TURBO    =      0    0=normal 1=particle mesh
   IRESTART =      0    0=no restart 2=restart with 2 vectors
   NREBOOT  =      0    no. of reboots
   NMIN     =      0    reboot dimension
   EREF     =   0.00    reference energy to select bands
   IMIX   =      4    mixing-type and parameters
     AMIX     =   0.40;   BMIX     =  1.00
     AMIX_MAG =   1.60;   BMIX_MAG =  1.00
     AMIN     =   0.10
     WC   =   100.;   INIMIX=   1;  MIXPRE=   1;  MAXMIX= -45

 Intra band minimization:
   WEIMIN = 0.0000     energy-eigenvalue tresh-hold
   EBREAK =  0.31E-07  absolut break condition
   DEPER  =   0.30     relativ break condition  

   TIME   =   0.40     timestep for ELM

  volume/ion in A,a.u.               =      14.57        98.33
  Fermi-wavevector in a.u.,A,eV,Ry     =   1.063973  2.010617 15.402314  1.132038
  Thomas-Fermi vector in A             =   2.199476
 
 Write flags
   LWAVE        =      T    write WAVECAR
   LDOWNSAMPLE  =      F    k-point downsampling of WAVECAR
   LCHARG       =      T    write CHGCAR
   LVTOT        =      F    write LOCPOT, total local potential
   LVHAR        =      F    write LOCPOT, Hartree potential only
   LELF         =      F    write electronic localiz. function (ELF)
   LORBIT       =     11    0 simple, 1 ext, 2 COOP (PROOUT), +10 PAW based schemes


 Dipole corrections
   LMONO  =      F    monopole corrections only (constant potential shift)
   LDIPOL =      F    correct potential (dipole corrections)
   IDIPOL =      0    1-x, 2-y, 3-z, 4-all directions 
   EPSILON=  1.0000000 bulk dielectric constant

 Exchange correlation treatment:
   GGA     =    --    GGA type
   LEXCH   =     8    internal setting for exchange type
   VOSKOWN=      0    Vosko Wilk Nusair interpolation
   LHFCALC =     F    Hartree Fock is set to
   LHFONE  =     F    Hartree Fock one center treatment
   AEXX    =    0.0000 exact exchange contribution

 Linear response parameters
   LEPSILON=     F    determine dielectric tensor
   LRPA    =     F    only Hartree local field effects (RPA)
   LNABLA  =     F    use nabla operator in PAW spheres
   LVEL    =     F    velocity operator in full k-point grid
   LINTERFAST=   F  fast interpolation
   KINTER  =     0    interpolate to denser k-point grid
   CSHIFT  =0.1000    complex shift for real part using Kramers Kronig
   OMEGAMAX=  -1.0    maximum frequency
   DEG_THRESHOLD= 0.2000000E-02 threshold for treating states as degnerate
   RTIME   =   -0.100 relaxation time in fs
  (WPLASMAI=    0.000 imaginary part of plasma frequency in eV, 0.658/RTIME)
   DFIELD  = 0.0000000 0.0000000 0.0000000 field for delta impulse in time
 
 Orbital magnetization related:
   ORBITALMAG=     F  switch on orbital magnetization
   LCHIMAG   =     F  perturbation theory with respect to B field
   DQ        =  0.001000  dq finite difference perturbation B field
   LLRAUG    =     F  two centre corrections for induced B field



--------------------------------------------------------------------------------------------------------


 Static calculation
 charge density and potential will be updated during run
 non-spin polarized calculation
 Variant of blocked Davidson
 Davidson routine will perform the subspace rotation
 perform sub-space diagonalisation
    after iterative eigenvector-optimisation
 modified Broyden-mixing scheme, WC =      100.0
 initial mixing is a Kerker type mixing with AMIX =  0.4000 and BMIX =      1.0000
 Hartree-type preconditioning will be used
 using additional bands            6
 reciprocal scheme for non local part
 use partial core corrections
 calculate Harris-corrections to forces 
   (improved forces if not selfconsistent)
 use gradient corrections 
 use of overlap-Matrix (Vanderbilt PP)
 Gauss-broadening in eV      SIGMA  =   0.05


--------------------------------------------------------------------------------------------------------


  energy-cutoff  :      450.00
  volume of cell :       14.57
      direct lattice vectors                 reciprocal lattice vectors
     1.538665789  1.538665789  1.538665789     0.324956858  0.324956858  0.000000000
     1.538665789 -1.538665789 -1.538665789     0.324956858  0.000000000 -0.324956858
    -1.538665789  1.538665789 -1.538665789     0.000000000  0.324956858 -0.324956858

  length of vectors
     2.665047322  2.665047322  2.665047322     0.459558396  0.459558396  0.459558396


 
 k-points in units of 2pi/SCALE and weight: Automatic                               
   0.00000000  0.00000000  0.00000000       0.000
   0.01570625  0.01570625  0.00000000       0.001
   0.03141250  0.03141250  0.00000000       0.001
   0.04711874  0.04711874  0.00000000       0.001
   0.06282499  0.06282499  0.00000000       0.001
   0.07853124  0.07853124  0.00000000       0.001
   0.09423749  0.09423749  0.00000000       0.001
   0.10994374  0.10994374  0.00000000       0.001
   0.12564999  0.12564999  0.00000000       0.001
   0.14135623  0.14135623  0.00000000       0.001
   0.15706248  0.15706248  0.00000000       0.001
   0.03141250  0.01570625 -0.01570625       0.003
   0.04711874  0.03141250 -0.01570625       0.005
   0.06282499  0.04711874 -0.01570625       0.005
   0.07853124  0.06282499 -0.01570625       0.005
   0.09423749  0.07853124 -0.01570625       0.005
   0.10994374  0.09423749 -0.01570625       0.005
   0.12564999  0.10994374 -0.01570625       0.005
   0.14135623  0.12564999 -0.01570625       0.005
   0.15706248  0.14135623 -0.01570625       0.005
   0.17276873  0.15706248 -0.01570625       0.003
   0.06282499  0.03141250 -0.03141250       0.003
   0.07853124  0.04711874 -0.03141250       0.005
   0.09423749  0.06282499 -0.03141250       0.005
   0.10994374  0.07853124 -0.03141250       0.005
   0.12564999  0.09423749 -0.03141250       0.005
   0.14135623  0.10994374 -0.03141250       0.005
   0.15706248  0.12564999 -0.03141250       0.005
   0.17276873  0.14135623 -0.03141250       0.005
   0.09423749  0.04711874 -0.04711874       0.003
   0.10994374  0.06282499 -0.04711874       0.005
   0.12564999  0.07853124 -0.04711874       0.005
   0.14135623  0.09423749 -0.04711874       0.005
   0.15706248  0.10994374 -0.04711874       0.005
   0.17276873  0.12564999 -0.04711874       0.005
   0.18847498  0.14135623 -0.04711874       0.003
   0.12564999  0.06282499 -0.06282499       0.003
   0.14135623  0.07853124 -0.06282499       0.005
   0.15706248  0.09423749 -0.06282499       0.005
   0.17276873  0.10994374 -0.06282499       0.005
   0.18847498  0.12564999 -0.06282499       0.005
   0.15706248  0.07853124 -0.07853124       0.003
   0.17276873  0.09423749 -0.07853124       0.005
   0.18847498  0.10994374 -0.07853124       0.005
   0.20418123  0.12564999 -0.07853124       0.003
   0.18847498  0.09423749 -0.09423749       0.003
   0.20418123  0.10994374 -0.09423749       0.005
   0.21988747  0.10994374 -0.10994374       0.001
   0.03141250  0.03141250 -0.03141250       0.001
   0.04711874  0.04711874 -0.03141250       0.003
   0.06282499  0.06282499 -0.03141250       0.003
   0.07853124  0.07853124 -0.03141250       0.003
   0.09423749  0.09423749 -0.03141250       0.003
   0.10994374  0.10994374 -0.03141250       0.003
   0.12564999  0.12564999 -0.03141250       0.003
   0.14135623  0.14135623 -0.03141250       0.003
   0.15706248  0.15706248 -0.03141250       0.003
   0.00000000  0.00000000 -0.03141250       0.001
   0.06282499  0.04711874 -0.04711874       0.003
   0.07853124  0.06282499 -0.04711874       0.005
   0.09423749  0.07853124 -0.04711874       0.005
   0.10994374  0.09423749 -0.04711874       0.005
   0.12564999  0.10994374 -0.04711874       0.005
   0.14135623  0.12564999 -0.04711874       0.005
   0.15706248  0.14135623 -0.04711874       0.005
   0.17276873  0.15706248 -0.04711874       0.003
   0.00000000 -0.01570625 -0.04711874       0.003
   0.09423749  0.06282499 -0.06282499       0.003
   0.10994374  0.07853124 -0.06282499       0.005
   0.12564999  0.09423749 -0.06282499       0.005
   0.14135623  0.10994374 -0.06282499       0.005
   0.15706248  0.12564999 -0.06282499       0.005
   0.17276873  0.14135623 -0.06282499       0.005
   0.00000000 -0.03141250 -0.06282499       0.003
   0.01570625 -0.01570625 -0.06282499       0.003
   0.12564999  0.07853124 -0.07853124       0.003
   0.14135623  0.09423749 -0.07853124       0.005
   0.15706248  0.10994374 -0.07853124       0.005
   0.17276873  0.12564999 -0.07853124       0.005
   0.18847498  0.14135623 -0.07853124       0.003
   0.00000000 -0.04711874 -0.07853124       0.003
   0.01570625 -0.03141250 -0.07853124       0.005
   0.15706248  0.09423749 -0.09423749       0.003
   0.17276873  0.10994374 -0.09423749       0.005
   0.18847498  0.12564999 -0.09423749       0.005
   0.00000000 -0.06282499 -0.09423749       0.003
   0.01570625 -0.04711874 -0.09423749       0.005
   0.03141250 -0.03141250 -0.09423749       0.003
   0.18847498  0.10994374 -0.10994374       0.003
   0.20418123  0.12564999 -0.10994374       0.003
   0.00000000 -0.07853124 -0.10994374       0.003
   0.01570625 -0.06282499 -0.10994374       0.005
   0.03141250 -0.04711874 -0.10994374       0.005
   0.00000000 -0.09423749 -0.12564999       0.003
   0.01570625 -0.07853124 -0.12564999       0.005
   0.03141250 -0.06282499 -0.12564999       0.005
   0.04711874 -0.04711874 -0.12564999       0.003
   0.00000000 -0.10994374 -0.14135623       0.003
   0.01570625 -0.09423749 -0.14135623       0.005
   0.03141250 -0.07853124 -0.14135623       0.005
   0.04711874 -0.06282499 -0.14135623       0.005
   0.00000000 -0.12564999 -0.15706248       0.003
   0.01570625 -0.10994374 -0.15706248       0.005
   0.03141250 -0.09423749 -0.15706248       0.005
   0.04711874 -0.07853124 -0.15706248       0.005
   0.06282499 -0.06282499 -0.15706248       0.003
   0.00000000 -0.14135623 -0.17276873       0.003
   0.01570625 -0.12564999 -0.17276873       0.005
   0.03141250 -0.10994374 -0.17276873       0.005
   0.04711874 -0.09423749 -0.17276873       0.005
   0.06282499 -0.07853124 -0.17276873       0.005
  -0.31412496 -0.14135623  0.14135623       0.003
  -0.29841871 -0.12564999  0.14135623       0.005
  -0.28271247 -0.10994374  0.14135623       0.005
  -0.26700622 -0.09423749  0.14135623       0.005
  -0.25129997 -0.07853124  0.14135623       0.003
  -0.28271247 -0.12564999  0.12564999       0.003
  -0.26700622 -0.10994374  0.12564999       0.005
  -0.25129997 -0.09423749  0.12564999       0.005
  -0.25129997 -0.10994374  0.10994374       0.003
  -0.23559372 -0.09423749  0.10994374       0.003
   0.06282499  0.06282499 -0.06282499       0.001
   0.07853124  0.07853124 -0.06282499       0.003
   0.09423749  0.09423749 -0.06282499       0.003
   0.10994374  0.10994374 -0.06282499       0.003
   0.12564999  0.12564999 -0.06282499       0.003
   0.14135623  0.14135623 -0.06282499       0.003
   0.15706248  0.15706248 -0.06282499       0.003
   0.00000000  0.00000000 -0.06282499       0.001
   0.09423749  0.07853124 -0.07853124       0.003
   0.10994374  0.09423749 -0.07853124       0.005
   0.12564999  0.10994374 -0.07853124       0.005
   0.14135623  0.12564999 -0.07853124       0.005
   0.15706248  0.14135623 -0.07853124       0.005
   0.17276873  0.15706248 -0.07853124       0.003
   0.00000000 -0.01570625 -0.07853124       0.003
   0.12564999  0.09423749 -0.09423749       0.003
   0.14135623  0.10994374 -0.09423749       0.005
   0.15706248  0.12564999 -0.09423749       0.005
   0.17276873  0.14135623 -0.09423749       0.005
   0.00000000 -0.03141250 -0.09423749       0.003
   0.01570625 -0.01570625 -0.09423749       0.003
   0.15706248  0.10994374 -0.10994374       0.003
   0.17276873  0.12564999 -0.10994374       0.005
   0.18847498  0.14135623 -0.10994374       0.003
   0.00000000 -0.04711874 -0.10994374       0.003
   0.01570625 -0.03141250 -0.10994374       0.005
   0.18847498  0.12564999 -0.12564999       0.003
   0.00000000 -0.06282499 -0.12564999       0.003
   0.01570625 -0.04711874 -0.12564999       0.005
   0.03141250 -0.03141250 -0.12564999       0.003
   0.00000000 -0.07853124 -0.14135623       0.003
   0.01570625 -0.06282499 -0.14135623       0.005
   0.03141250 -0.04711874 -0.14135623       0.005
   0.00000000 -0.09423749 -0.15706248       0.003
   0.01570625 -0.07853124 -0.15706248       0.005
   0.03141250 -0.06282499 -0.15706248       0.005
   0.04711874 -0.04711874 -0.15706248       0.003
   0.00000000 -0.10994374 -0.17276873       0.003
   0.01570625 -0.09423749 -0.17276873       0.005
   0.03141250 -0.07853124 -0.17276873       0.005
   0.04711874 -0.06282499 -0.17276873       0.005
   0.00000000 -0.12564999 -0.18847498       0.003
   0.01570625 -0.10994374 -0.18847498       0.005
   0.03141250 -0.09423749 -0.18847498       0.005
   0.04711874 -0.07853124 -0.18847498       0.005
   0.06282499 -0.06282499 -0.18847498       0.003
  -0.31412496 -0.12564999  0.12564999       0.003
  -0.29841871 -0.10994374  0.12564999       0.005
  -0.28271247 -0.09423749  0.12564999       0.005
  -0.26700622 -0.07853124  0.12564999       0.005
  -0.28271247 -0.10994374  0.10994374       0.003
  -0.26700622 -0.09423749  0.10994374       0.005
  -0.25129997 -0.07853124  0.10994374       0.003
  -0.25129997 -0.09423749  0.09423749       0.003
   0.09423749  0.09423749 -0.09423749       0.001
   0.10994374  0.10994374 -0.09423749       0.003
   0.12564999  0.12564999 -0.09423749       0.003
   0.14135623  0.14135623 -0.09423749       0.003
   0.15706248  0.15706248 -0.09423749       0.003
   0.00000000  0.00000000 -0.09423749       0.001
   0.12564999  0.10994374 -0.10994374       0.003
   0.14135623  0.12564999 -0.10994374       0.005
   0.15706248  0.14135623 -0.10994374       0.005
   0.17276873  0.15706248 -0.10994374       0.003
   0.00000000 -0.01570625 -0.10994374       0.003
   0.15706248  0.12564999 -0.12564999       0.003
   0.17276873  0.14135623 -0.12564999       0.005
   0.00000000 -0.03141250 -0.12564999       0.003
   0.01570625 -0.01570625 -0.12564999       0.003
   0.18847498  0.14135623 -0.14135623       0.001
   0.00000000 -0.04711874 -0.14135623       0.003
   0.01570625 -0.03141250 -0.14135623       0.005
   0.00000000 -0.06282499 -0.15706248       0.003
   0.01570625 -0.04711874 -0.15706248       0.005
   0.03141250 -0.03141250 -0.15706248       0.003
   0.00000000 -0.07853124 -0.17276873       0.003
   0.01570625 -0.06282499 -0.17276873       0.005
   0.03141250 -0.04711874 -0.17276873       0.005
   0.00000000 -0.09423749 -0.18847498       0.003
   0.01570625 -0.07853124 -0.18847498       0.005
   0.03141250 -0.06282499 -0.18847498       0.005
   0.04711874 -0.04711874 -0.18847498       0.003
   0.00000000 -0.10994374 -0.20418123       0.003
   0.01570625 -0.09423749 -0.20418123       0.005
   0.03141250 -0.07853124 -0.20418123       0.005
   0.04711874 -0.06282499 -0.20418123       0.005
  -0.31412496 -0.10994374  0.10994374       0.003
  -0.29841871 -0.09423749  0.10994374       0.005
  -0.28271247 -0.07853124  0.10994374       0.005
  -0.26700622 -0.06282499  0.10994374       0.003
  -0.28271247 -0.09423749  0.09423749       0.003
  -0.26700622 -0.07853124  0.09423749       0.005
  -0.25129997 -0.07853124  0.07853124       0.001
   0.12564999  0.12564999 -0.12564999       0.001
   0.14135623  0.14135623 -0.12564999       0.003
   0.15706248  0.15706248 -0.12564999       0.003
   0.00000000  0.00000000 -0.12564999       0.001
   0.15706248  0.14135623 -0.14135623       0.003
   0.17276873  0.15706248 -0.14135623       0.003
   0.00000000 -0.01570625 -0.14135623       0.003
   0.00000000 -0.03141250 -0.15706248       0.003
   0.01570625 -0.01570625 -0.15706248       0.003
   0.00000000 -0.04711874 -0.17276873       0.003
   0.01570625 -0.03141250 -0.17276873       0.005
   0.00000000 -0.06282499 -0.18847498       0.003
   0.01570625 -0.04711874 -0.18847498       0.005
   0.03141250 -0.03141250 -0.18847498       0.003
   0.00000000 -0.07853124 -0.20418123       0.003
   0.01570625 -0.06282499 -0.20418123       0.005
   0.03141250 -0.04711874 -0.20418123       0.005
   0.00000000 -0.09423749 -0.21988747       0.003
   0.01570625 -0.07853124 -0.21988747       0.005
   0.03141250 -0.06282499 -0.21988747       0.005
   0.04711874 -0.04711874 -0.21988747       0.003
  -0.31412496 -0.09423749  0.09423749       0.003
  -0.29841871 -0.07853124  0.09423749       0.005
  -0.28271247 -0.06282499  0.09423749       0.005
  -0.28271247 -0.07853124  0.07853124       0.003
  -0.26700622 -0.06282499  0.07853124       0.003
   0.15706248  0.15706248 -0.15706248       0.001
   0.00000000  0.00000000 -0.15706248       0.001
   0.00000000 -0.01570625 -0.17276873       0.003
   0.00000000 -0.03141250 -0.18847498       0.003
   0.01570625 -0.01570625 -0.18847498       0.003
   0.00000000 -0.04711874 -0.20418123       0.003
   0.01570625 -0.03141250 -0.20418123       0.005
   0.00000000 -0.06282499 -0.21988747       0.003
   0.01570625 -0.04711874 -0.21988747       0.005
   0.03141250 -0.03141250 -0.21988747       0.003
   0.00000000 -0.07853124 -0.23559372       0.003
   0.01570625 -0.06282499 -0.23559372       0.005
   0.03141250 -0.04711874 -0.23559372       0.005
  -0.31412496 -0.07853124  0.07853124       0.003
  -0.29841871 -0.06282499  0.07853124       0.005
  -0.28271247 -0.04711874  0.07853124       0.003
  -0.28271247 -0.06282499  0.06282499       0.003
   0.00000000  0.00000000 -0.18847498       0.001
   0.00000000 -0.01570625 -0.20418123       0.003
   0.00000000 -0.03141250 -0.21988747       0.003
   0.01570625 -0.01570625 -0.21988747       0.003
   0.00000000 -0.04711874 -0.23559372       0.003
   0.01570625 -0.03141250 -0.23559372       0.005
   0.00000000 -0.06282499 -0.25129997       0.003
   0.01570625 -0.04711874 -0.25129997       0.005
   0.03141250 -0.03141250 -0.25129997       0.003
  -0.31412496 -0.06282499  0.06282499       0.003
  -0.29841871 -0.04711874  0.06282499       0.005
  -0.28271247 -0.04711874  0.04711874       0.001
   0.00000000  0.00000000 -0.21988747       0.001
   0.00000000 -0.01570625 -0.23559372       0.003
   0.00000000 -0.03141250 -0.25129997       0.003
   0.01570625 -0.01570625 -0.25129997       0.003
   0.00000000 -0.04711874 -0.26700622       0.003
   0.01570625 -0.03141250 -0.26700622       0.005
  -0.31412496 -0.04711874  0.04711874       0.003
  -0.29841871 -0.03141250  0.04711874       0.003
   0.00000000  0.00000000 -0.25129997       0.001
   0.00000000 -0.01570625 -0.26700622       0.003
   0.00000000 -0.03141250 -0.28271247       0.003
   0.01570625 -0.01570625 -0.28271247       0.003
  -0.31412496 -0.03141250  0.03141250       0.003
   0.00000000  0.00000000 -0.28271247       0.001
   0.00000000 -0.01570625 -0.29841871       0.003
  -0.31412496 -0.01570625  0.01570625       0.001
   0.00000000  0.00000000 -0.31412496       0.001
 
 k-points in reciprocal lattice and weights: Automatic                               
   0.00000000  0.00000000  0.00000000       0.000
   0.04761905  0.00000000  0.00000000       0.001
   0.09523810  0.00000000  0.00000000       0.001
   0.14285714  0.00000000  0.00000000       0.001
   0.19047619  0.00000000  0.00000000       0.001
   0.23809524  0.00000000  0.00000000       0.001
   0.28571429  0.00000000  0.00000000       0.001
   0.33333333  0.00000000  0.00000000       0.001
   0.38095238  0.00000000  0.00000000       0.001
   0.42857143  0.00000000  0.00000000       0.001
   0.47619048  0.00000000  0.00000000       0.001
   0.04761905  0.04761905  0.00000000       0.003
   0.09523810  0.04761905  0.00000000       0.005
   0.14285714  0.04761905  0.00000000       0.005
   0.19047619  0.04761905  0.00000000       0.005
   0.23809524  0.04761905 -0.00000000       0.005
   0.28571429  0.04761905 -0.00000000       0.005
   0.33333333  0.04761905  0.00000000       0.005
   0.38095238  0.04761905  0.00000000       0.005
   0.42857143  0.04761905 -0.00000000       0.005
   0.47619048  0.04761905 -0.00000000       0.003
   0.09523810  0.09523810  0.00000000       0.003
   0.14285714  0.09523810  0.00000000       0.005
   0.19047619  0.09523810  0.00000000       0.005
   0.23809524  0.09523810 -0.00000000       0.005
   0.28571429  0.09523810 -0.00000000       0.005
   0.33333333  0.09523810 -0.00000000       0.005
   0.38095238  0.09523810 -0.00000000       0.005
   0.42857143  0.09523810 -0.00000000       0.005
   0.14285714  0.14285714  0.00000000       0.003
   0.19047619  0.14285714 -0.00000000       0.005
   0.23809524  0.14285714  0.00000000       0.005
   0.28571429  0.14285714  0.00000000       0.005
   0.33333333  0.14285714  0.00000000       0.005
   0.38095238  0.14285714  0.00000000       0.005
   0.42857143  0.14285714  0.00000000       0.003
   0.19047619  0.19047619  0.00000000       0.003
   0.23809524  0.19047619  0.00000000       0.005
   0.28571429  0.19047619 -0.00000000       0.005
   0.33333333  0.19047619 -0.00000000       0.005
   0.38095238  0.19047619  0.00000000       0.005
   0.23809524  0.23809524 -0.00000000       0.003
   0.28571429  0.23809524 -0.00000000       0.005
   0.33333333  0.23809524  0.00000000       0.005
   0.38095238  0.23809524 -0.00000000       0.003
   0.28571429  0.28571429  0.00000000       0.003
   0.33333333  0.28571429 -0.00000000       0.005
   0.33333333  0.33333333  0.00000000       0.001
   0.04761905  0.04761905  0.04761905       0.001
   0.09523810  0.04761905  0.04761905       0.003
   0.14285714  0.04761905  0.04761905       0.003
   0.19047619  0.04761905  0.04761905       0.003
   0.23809524  0.04761905  0.04761905       0.003
   0.28571429  0.04761905  0.04761905       0.003
   0.33333333  0.04761905  0.04761905       0.003
   0.38095238  0.04761905  0.04761905       0.003
   0.42857143  0.04761905  0.04761905       0.003
  -0.04761905  0.04761905  0.04761905       0.001
   0.09523810  0.09523810  0.04761905       0.003
   0.14285714  0.09523810  0.04761905       0.005
   0.19047619  0.09523810  0.04761905       0.005
   0.23809524  0.09523810  0.04761905       0.005
   0.28571429  0.09523810  0.04761905       0.005
   0.33333333  0.09523810  0.04761905       0.005
   0.38095238  0.09523810  0.04761905       0.005
   0.42857143  0.09523810  0.04761905       0.003
  -0.09523810  0.09523810  0.04761905       0.003
   0.14285714  0.14285714  0.04761905       0.003
   0.19047619  0.14285714  0.04761905       0.005
   0.23809524  0.14285714  0.04761905       0.005
   0.28571429  0.14285714  0.04761905       0.005
   0.33333333  0.14285714  0.04761905       0.005
   0.38095238  0.14285714  0.04761905       0.005
  -0.14285714  0.14285714  0.04761905       0.003
  -0.09523810  0.14285714  0.04761905       0.003
   0.19047619  0.19047619  0.04761905       0.003
   0.23809524  0.19047619  0.04761905       0.005
   0.28571429  0.19047619  0.04761905       0.005
   0.33333333  0.19047619  0.04761905       0.005
   0.38095238  0.19047619  0.04761905       0.003
  -0.19047619  0.19047619  0.04761905       0.003
  -0.14285714  0.19047619  0.04761905       0.005
   0.23809524  0.23809524  0.04761905       0.003
   0.28571429  0.23809524  0.04761905       0.005
   0.33333333  0.23809524  0.04761905       0.005
  -0.23809524  0.23809524  0.04761905       0.003
  -0.19047619  0.23809524  0.04761905       0.005
  -0.14285714  0.23809524  0.04761905       0.003
   0.28571429  0.28571429  0.04761905       0.003
   0.33333333  0.28571429  0.04761905       0.003
  -0.28571429  0.28571429  0.04761905       0.003
  -0.23809524  0.28571429  0.04761905       0.005
  -0.19047619  0.28571429  0.04761905       0.005
  -0.33333333  0.33333333  0.04761905       0.003
  -0.28571429  0.33333333  0.04761905       0.005
  -0.23809524  0.33333333  0.04761905       0.005
  -0.19047619  0.33333333  0.04761905       0.003
  -0.38095238  0.38095238  0.04761905       0.003
  -0.33333333  0.38095238  0.04761905       0.005
  -0.28571429  0.38095238  0.04761905       0.005
  -0.23809524  0.38095238  0.04761905       0.005
  -0.42857143  0.42857143  0.04761905       0.003
  -0.38095238  0.42857143  0.04761905       0.005
  -0.33333333  0.42857143  0.04761905       0.005
  -0.28571429  0.42857143  0.04761905       0.005
  -0.23809524  0.42857143  0.04761905       0.003
  -0.47619048  0.47619048  0.04761905       0.003
  -0.42857143  0.47619048  0.04761905       0.005
  -0.38095238  0.47619048  0.04761905       0.005
  -0.33333333  0.47619048  0.04761905       0.005
  -0.28571429  0.47619048  0.04761905       0.005
  -0.47619048 -0.47619048  0.04761905       0.003
  -0.42857143 -0.47619048  0.04761905       0.005
  -0.38095238 -0.47619048  0.04761905       0.005
  -0.33333333 -0.47619048  0.04761905       0.005
  -0.28571429 -0.47619048  0.04761905       0.003
  -0.42857143 -0.42857143  0.04761905       0.003
  -0.38095238 -0.42857143  0.04761905       0.005
  -0.33333333 -0.42857143  0.04761905       0.005
  -0.38095238 -0.38095238  0.04761905       0.003
  -0.33333333 -0.38095238  0.04761905       0.003
   0.09523810  0.09523810  0.09523810       0.001
   0.14285714  0.09523810  0.09523810       0.003
   0.19047619  0.09523810  0.09523810       0.003
   0.23809524  0.09523810  0.09523810       0.003
   0.28571429  0.09523810  0.09523810       0.003
   0.33333333  0.09523810  0.09523810       0.003
   0.38095238  0.09523810  0.09523810       0.003
  -0.09523810  0.09523810  0.09523810       0.001
   0.14285714  0.14285714  0.09523810       0.003
   0.19047619  0.14285714  0.09523810       0.005
   0.23809524  0.14285714  0.09523810       0.005
   0.28571429  0.14285714  0.09523810       0.005
   0.33333333  0.14285714  0.09523810       0.005
   0.38095238  0.14285714  0.09523810       0.003
  -0.14285714  0.14285714  0.09523810       0.003
   0.19047619  0.19047619  0.09523810       0.003
   0.23809524  0.19047619  0.09523810       0.005
   0.28571429  0.19047619  0.09523810       0.005
   0.33333333  0.19047619  0.09523810       0.005
  -0.19047619  0.19047619  0.09523810       0.003
  -0.14285714  0.19047619  0.09523810       0.003
   0.23809524  0.23809524  0.09523810       0.003
   0.28571429  0.23809524  0.09523810       0.005
   0.33333333  0.23809524  0.09523810       0.003
  -0.23809524  0.23809524  0.09523810       0.003
  -0.19047619  0.23809524  0.09523810       0.005
   0.28571429  0.28571429  0.09523810       0.003
  -0.28571429  0.28571429  0.09523810       0.003
  -0.23809524  0.28571429  0.09523810       0.005
  -0.19047619  0.28571429  0.09523810       0.003
  -0.33333333  0.33333333  0.09523810       0.003
  -0.28571429  0.33333333  0.09523810       0.005
  -0.23809524  0.33333333  0.09523810       0.005
  -0.38095238  0.38095238  0.09523810       0.003
  -0.33333333  0.38095238  0.09523810       0.005
  -0.28571429  0.38095238  0.09523810       0.005
  -0.23809524  0.38095238  0.09523810       0.003
  -0.42857143  0.42857143  0.09523810       0.003
  -0.38095238  0.42857143  0.09523810       0.005
  -0.33333333  0.42857143  0.09523810       0.005
  -0.28571429  0.42857143  0.09523810       0.005
  -0.47619048  0.47619048  0.09523810       0.003
  -0.42857143  0.47619048  0.09523810       0.005
  -0.38095238  0.47619048  0.09523810       0.005
  -0.33333333  0.47619048  0.09523810       0.005
  -0.28571429  0.47619048  0.09523810       0.003
  -0.47619048 -0.47619048  0.09523810       0.003
  -0.42857143 -0.47619048  0.09523810       0.005
  -0.38095238 -0.47619048  0.09523810       0.005
  -0.33333333 -0.47619048  0.09523810       0.005
  -0.42857143 -0.42857143  0.09523810       0.003
  -0.38095238 -0.42857143  0.09523810       0.005
  -0.33333333 -0.42857143  0.09523810       0.003
  -0.38095238 -0.38095238  0.09523810       0.003
   0.14285714  0.14285714  0.14285714       0.001
   0.19047619  0.14285714  0.14285714       0.003
   0.23809524  0.14285714  0.14285714       0.003
   0.28571429  0.14285714  0.14285714       0.003
   0.33333333  0.14285714  0.14285714       0.003
  -0.14285714  0.14285714  0.14285714       0.001
   0.19047619  0.19047619  0.14285714       0.003
   0.23809524  0.19047619  0.14285714       0.005
   0.28571429  0.19047619  0.14285714       0.005
   0.33333333  0.19047619  0.14285714       0.003
  -0.19047619  0.19047619  0.14285714       0.003
   0.23809524  0.23809524  0.14285714       0.003
   0.28571429  0.23809524  0.14285714       0.005
  -0.23809524  0.23809524  0.14285714       0.003
  -0.19047619  0.23809524  0.14285714       0.003
   0.28571429  0.28571429  0.14285714       0.001
  -0.28571429  0.28571429  0.14285714       0.003
  -0.23809524  0.28571429  0.14285714       0.005
  -0.33333333  0.33333333  0.14285714       0.003
  -0.28571429  0.33333333  0.14285714       0.005
  -0.23809524  0.33333333  0.14285714       0.003
  -0.38095238  0.38095238  0.14285714       0.003
  -0.33333333  0.38095238  0.14285714       0.005
  -0.28571429  0.38095238  0.14285714       0.005
  -0.42857143  0.42857143  0.14285714       0.003
  -0.38095238  0.42857143  0.14285714       0.005
  -0.33333333  0.42857143  0.14285714       0.005
  -0.28571429  0.42857143  0.14285714       0.003
  -0.47619048  0.47619048  0.14285714       0.003
  -0.42857143  0.47619048  0.14285714       0.005
  -0.38095238  0.47619048  0.14285714       0.005
  -0.33333333  0.47619048  0.14285714       0.005
  -0.47619048 -0.47619048  0.14285714       0.003
  -0.42857143 -0.47619048  0.14285714       0.005
  -0.38095238 -0.47619048  0.14285714       0.005
  -0.33333333 -0.47619048  0.14285714       0.003
  -0.42857143 -0.42857143  0.14285714       0.003
  -0.38095238 -0.42857143  0.14285714       0.005
  -0.38095238 -0.38095238  0.14285714       0.001
   0.19047619  0.19047619  0.19047619       0.001
   0.23809524  0.19047619  0.19047619       0.003
   0.28571429  0.19047619  0.19047619       0.003
  -0.19047619  0.19047619  0.19047619       0.001
   0.23809524  0.23809524  0.19047619       0.003
   0.28571429  0.23809524  0.19047619       0.003
  -0.23809524  0.23809524  0.19047619       0.003
  -0.28571429  0.28571429  0.19047619       0.003
  -0.23809524  0.28571429  0.19047619       0.003
  -0.33333333  0.33333333  0.19047619       0.003
  -0.28571429  0.33333333  0.19047619       0.005
  -0.38095238  0.38095238  0.19047619       0.003
  -0.33333333  0.38095238  0.19047619       0.005
  -0.28571429  0.38095238  0.19047619       0.003
  -0.42857143  0.42857143  0.19047619       0.003
  -0.38095238  0.42857143  0.19047619       0.005
  -0.33333333  0.42857143  0.19047619       0.005
  -0.47619048  0.47619048  0.19047619       0.003
  -0.42857143  0.47619048  0.19047619       0.005
  -0.38095238  0.47619048  0.19047619       0.005
  -0.33333333  0.47619048  0.19047619       0.003
  -0.47619048 -0.47619048  0.19047619       0.003
  -0.42857143 -0.47619048  0.19047619       0.005
  -0.38095238 -0.47619048  0.19047619       0.005
  -0.42857143 -0.42857143  0.19047619       0.003
  -0.38095238 -0.42857143  0.19047619       0.003
   0.23809524  0.23809524  0.23809524       0.001
  -0.23809524  0.23809524  0.23809524       0.001
  -0.28571429  0.28571429  0.23809524       0.003
  -0.33333333  0.33333333  0.23809524       0.003
  -0.28571429  0.33333333  0.23809524       0.003
  -0.38095238  0.38095238  0.23809524       0.003
  -0.33333333  0.38095238  0.23809524       0.005
  -0.42857143  0.42857143  0.23809524       0.003
  -0.38095238  0.42857143  0.23809524       0.005
  -0.33333333  0.42857143  0.23809524       0.003
  -0.47619048  0.47619048  0.23809524       0.003
  -0.42857143  0.47619048  0.23809524       0.005
  -0.38095238  0.47619048  0.23809524       0.005
  -0.47619048 -0.47619048  0.23809524       0.003
  -0.42857143 -0.47619048  0.23809524       0.005
  -0.38095238 -0.47619048  0.23809524       0.003
  -0.42857143 -0.42857143  0.23809524       0.003
  -0.28571429  0.28571429  0.28571429       0.001
  -0.33333333  0.33333333  0.28571429       0.003
  -0.38095238  0.38095238  0.28571429       0.003
  -0.33333333  0.38095238  0.28571429       0.003
  -0.42857143  0.42857143  0.28571429       0.003
  -0.38095238  0.42857143  0.28571429       0.005
  -0.47619048  0.47619048  0.28571429       0.003
  -0.42857143  0.47619048  0.28571429       0.005
  -0.38095238  0.47619048  0.28571429       0.003
  -0.47619048 -0.47619048  0.28571429       0.003
  -0.42857143 -0.47619048  0.28571429       0.005
  -0.42857143 -0.42857143  0.28571429       0.001
  -0.33333333  0.33333333  0.33333333       0.001
  -0.38095238  0.38095238  0.33333333       0.003
  -0.42857143  0.42857143  0.33333333       0.003
  -0.38095238  0.42857143  0.33333333       0.003
  -0.47619048  0.47619048  0.33333333       0.003
  -0.42857143  0.47619048  0.33333333       0.005
  -0.47619048 -0.47619048  0.33333333       0.003
  -0.42857143 -0.47619048  0.33333333       0.003
  -0.38095238  0.38095238  0.38095238       0.001
  -0.42857143  0.42857143  0.38095238       0.003
  -0.47619048  0.47619048  0.38095238       0.003
  -0.42857143  0.47619048  0.38095238       0.003
  -0.47619048 -0.47619048  0.38095238       0.003
  -0.42857143  0.42857143  0.42857143       0.001
  -0.47619048  0.47619048  0.42857143       0.003
  -0.47619048 -0.47619048  0.42857143       0.001
  -0.47619048  0.47619048  0.47619048       0.001
 
 position of ions in fractional coordinates (direct lattice) 
   0.00000000  0.00000000  0.00000000
 
 position of ions in cartesian coordinates  (Angst):
   0.00000000  0.00000000  0.00000000
 


--------------------------------------------------------------------------------------------------------


 k-point   1 :   0.0000 0.0000 0.0000  plane waves:     321
 k-point   2 :   0.0476 0.0000 0.0000  plane waves:     321
 k-point   3 :   0.0952 0.0000 0.0000  plane waves:     321
 k-point   4 :   0.1429 0.0000 0.0000  plane waves:     329
 k-point   5 :   0.1905 0.0000 0.0000  plane waves:     323
 k-point   6 :   0.2381 0.0000 0.0000  plane waves:     320
 k-point   7 :   0.2857 0.0000 0.0000  plane waves:     314
 k-point   8 :   0.3333 0.0000 0.0000  plane waves:     322
 k-point   9 :   0.3810 0.0000 0.0000  plane waves:     316
 k-point  10 :   0.4286 0.0000 0.0000  plane waves:     316
 k-point  11 :   0.4762 0.0000 0.0000  plane waves:     316
 k-point  12 :   0.0476 0.0476 0.0000  plane waves:     321
 k-point  13 :   0.0952 0.0476 0.0000  plane waves:     324
 k-point  14 :   0.1429 0.0476 0.0000  plane waves:     326
 k-point  15 :   0.1905 0.0476 0.0000  plane waves:     322
 k-point  16 :   0.2381 0.0476-0.0000  plane waves:     321
 k-point  17 :   0.2857 0.0476-0.0000  plane waves:     318
 k-point  18 :   0.3333 0.0476 0.0000  plane waves:     312
 k-point  19 :   0.3810 0.0476 0.0000  plane waves:     316
 k-point  20 :   0.4286 0.0476-0.0000  plane waves:     317
 k-point  21 :   0.4762 0.0476-0.0000  plane waves:     320
 k-point  22 :   0.0952 0.0952 0.0000  plane waves:     325
 k-point  23 :   0.1429 0.0952 0.0000  plane waves:     324
 k-point  24 :   0.1905 0.0952 0.0000  plane waves:     322
 k-point  25 :   0.2381 0.0952-0.0000  plane waves:     319
 k-point  26 :   0.2857 0.0952-0.0000  plane waves:     317
 k-point  27 :   0.3333 0.0952-0.0000  plane waves:     315
 k-point  28 :   0.3810 0.0952-0.0000  plane waves:     315
 k-point  29 :   0.4286 0.0952-0.0000  plane waves:     316
 k-point  30 :   0.1429 0.1429 0.0000  plane waves:     321
 k-point  31 :   0.1905 0.1429-0.0000  plane waves:     320
 k-point  32 :   0.2381 0.1429 0.0000  plane waves:     320
 k-point  33 :   0.2857 0.1429 0.0000  plane waves:     318
 k-point  34 :   0.3333 0.1429 0.0000  plane waves:     311
 k-point  35 :   0.3810 0.1429 0.0000  plane waves:     312
 k-point  36 :   0.4286 0.1429 0.0000  plane waves:     315
 k-point  37 :   0.1905 0.1905 0.0000  plane waves:     320
 k-point  38 :   0.2381 0.1905 0.0000  plane waves:     316
 k-point  39 :   0.2857 0.1905-0.0000  plane waves:     315
 k-point  40 :   0.3333 0.1905-0.0000  plane waves:     315
 k-point  41 :   0.3810 0.1905 0.0000  plane waves:     312
 k-point  42 :   0.2381 0.2381-0.0000  plane waves:     321
 k-point  43 :   0.2857 0.2381-0.0000  plane waves:     317
 k-point  44 :   0.3333 0.2381 0.0000  plane waves:     313
 k-point  45 :   0.3810 0.2381-0.0000  plane waves:     312
 k-point  46 :   0.2857 0.2857 0.0000  plane waves:     316
 k-point  47 :   0.3333 0.2857-0.0000  plane waves:     313
 k-point  48 :   0.3333 0.3333 0.0000  plane waves:     309
 k-point  49 :   0.0476 0.0476 0.0476  plane waves:     321
 k-point  50 :   0.0952 0.0476 0.0476  plane waves:     329
 k-point  51 :   0.1429 0.0476 0.0476  plane waves:     323
 k-point  52 :   0.1905 0.0476 0.0476  plane waves:     322
 k-point  53 :   0.2381 0.0476 0.0476  plane waves:     318
 k-point  54 :   0.2857 0.0476 0.0476  plane waves:     316
 k-point  55 :   0.3333 0.0476 0.0476  plane waves:     314
 k-point  56 :   0.3810 0.0476 0.0476  plane waves:     315
 k-point  57 :   0.4286 0.0476 0.0476  plane waves:     313
 k-point  58 :  -0.0476 0.0476 0.0476  plane waves:     321
 k-point  59 :   0.0952 0.0952 0.0476  plane waves:     325
 k-point  60 :   0.1429 0.0952 0.0476  plane waves:     323
 k-point  61 :   0.1905 0.0952 0.0476  plane waves:     319
 k-point  62 :   0.2381 0.0952 0.0476  plane waves:     316
 k-point  63 :   0.2857 0.0952 0.0476  plane waves:     316
 k-point  64 :   0.3333 0.0952 0.0476  plane waves:     316
 k-point  65 :   0.3810 0.0952 0.0476  plane waves:     315
 k-point  66 :   0.4286 0.0952 0.0476  plane waves:     316
 k-point  67 :  -0.0952 0.0952 0.0476  plane waves:     321
 k-point  68 :   0.1429 0.1429 0.0476  plane waves:     317
 k-point  69 :   0.1905 0.1429 0.0476  plane waves:     319
 k-point  70 :   0.2381 0.1429 0.0476  plane waves:     314
 k-point  71 :   0.2857 0.1429 0.0476  plane waves:     319
 k-point  72 :   0.3333 0.1429 0.0476  plane waves:     318
 k-point  73 :   0.3810 0.1429 0.0476  plane waves:     315
 k-point  74 :  -0.1429 0.1429 0.0476  plane waves:     329
 k-point  75 :  -0.0952 0.1429 0.0476  plane waves:     327
 k-point  76 :   0.1905 0.1905 0.0476  plane waves:     316
 k-point  77 :   0.2381 0.1905 0.0476  plane waves:     320
 k-point  78 :   0.2857 0.1905 0.0476  plane waves:     318
 k-point  79 :   0.3333 0.1905 0.0476  plane waves:     315
 k-point  80 :   0.3810 0.1905 0.0476  plane waves:     312
 k-point  81 :  -0.1905 0.1905 0.0476  plane waves:     326
 k-point  82 :  -0.1429 0.1905 0.0476  plane waves:     324
 k-point  83 :   0.2381 0.2381 0.0476  plane waves:     320
 k-point  84 :   0.2857 0.2381 0.0476  plane waves:     315
 k-point  85 :   0.3333 0.2381 0.0476  plane waves:     314
 k-point  86 :  -0.2381 0.2381 0.0476  plane waves:     323
 k-point  87 :  -0.1905 0.2381 0.0476  plane waves:     322
 k-point  88 :  -0.1429 0.2381 0.0476  plane waves:     323
 k-point  89 :   0.2857 0.2857 0.0476  plane waves:     313
 k-point  90 :   0.3333 0.2857 0.0476  plane waves:     312
 k-point  91 :  -0.2857 0.2857 0.0476  plane waves:     315
 k-point  92 :  -0.2381 0.2857 0.0476  plane waves:     321
 k-point  93 :  -0.1905 0.2857 0.0476  plane waves:     321
 k-point  94 :  -0.3333 0.3333 0.0476  plane waves:     317
 k-point  95 :  -0.2857 0.3333 0.0476  plane waves:     314
 k-point  96 :  -0.2381 0.3333 0.0476  plane waves:     320
 k-point  97 :  -0.1905 0.3333 0.0476  plane waves:     318
 k-point  98 :  -0.3810 0.3810 0.0476  plane waves:     315
 k-point  99 :  -0.3333 0.3810 0.0476  plane waves:     313
 k-point 100 :  -0.2857 0.3810 0.0476  plane waves:     315
 k-point 101 :  -0.2381 0.3810 0.0476  plane waves:     317
 k-point 102 :  -0.4286 0.4286 0.0476  plane waves:     314
 k-point 103 :  -0.3810 0.4286 0.0476  plane waves:     315
 k-point 104 :  -0.3333 0.4286 0.0476  plane waves:     316
 k-point 105 :  -0.2857 0.4286 0.0476  plane waves:     315
 k-point 106 :  -0.2381 0.4286 0.0476  plane waves:     315
 k-point 107 :  -0.4762 0.4762 0.0476  plane waves:     320
 k-point 108 :  -0.4286 0.4762 0.0476  plane waves:     315
 k-point 109 :  -0.3810 0.4762 0.0476  plane waves:     311
 k-point 110 :  -0.3333 0.4762 0.0476  plane waves:     313
 k-point 111 :  -0.2857 0.4762 0.0476  plane waves:     314
 k-point 112 :  -0.4762-0.4762 0.0476  plane waves:     316
 k-point 113 :  -0.4286-0.4762 0.0476  plane waves:     312
[...]
      1       4.2017      2.00000
      2       5.6286      2.00000
      3      11.3594      0.00000
      4      13.8903      0.00000
      5      19.2033      0.00000
      6      20.8898      0.00000
      7      24.8152      0.00000
      8      28.1102      0.00000

 k-point   252 :      -0.4286    0.4762    0.2381
  band No.  band energies     occupation 
      1       3.9440      2.00000
      2       6.7255      2.00000
      3      10.5194      0.00000
      4      14.1934      0.00000
      5      17.8575      0.00000
      6      20.5359      0.00000
      7      25.4320      0.00000
      8      29.2608      0.00000

 k-point   253 :      -0.3810    0.4762    0.2381
  band No.  band energies     occupation 
      1       3.8127      2.00000
      2       7.9315      2.00000
      3       9.2448      2.00000
      4      15.0909      0.00000
      5      16.6012      0.00000
      6      20.3845      0.00000
      7      25.5823      0.00000
      8      30.8103      0.00000

 k-point   254 :      -0.4762   -0.4762    0.2381
  band No.  band energies     occupation 
      1       5.1204      2.00000
      2       5.4350      2.00000
      3      10.4561      0.00000
      4      14.1340      0.00000
      5      18.6442      0.00000
      6      19.6353      0.00000
      7      25.3755      0.00000
      8      29.2567      0.00000

 k-point   255 :      -0.4286   -0.4762    0.2381
  band No.  band energies     occupation 
      1       5.0608      2.00000
      2       6.4681      2.00000
      3       9.1127      2.00000
      4      15.0149      0.00000
      5      17.5986      0.00000
      6      19.1020      0.00000
      7      25.4877      0.00000
      8      30.9343      0.00000

 k-point   256 :      -0.3810   -0.4762    0.2381
  band No.  band energies     occupation 
      1       5.0002      2.00000
      2       7.6309      2.00000
      3       7.8649      2.00000
      4      15.7890      0.00000
      5      16.7252      0.00000
      6      18.9887      0.00000
      7      25.4962      0.00000
      8      32.1523      0.00000

 k-point   257 :      -0.4286   -0.4286    0.2381
  band No.  band energies     occupation 
      1       6.1626      2.00000
      2       6.4651      2.00000
      3       7.6983      2.00000
      4      15.9488      0.00000
      5      17.3935      0.00000
      6      17.9730      0.00000
      7      25.4595      0.00000
      8      32.6113      0.00000

 k-point   258 :      -0.2857    0.2857    0.2857
  band No.  band energies     occupation 
      1       0.6530      2.00000
      2      11.9799      0.00000
      3      11.9799      0.00000
      4      14.0416      0.00000
      5      15.1541      0.00000
      6      24.8307      0.00000
      7      27.3390      0.00000
      8      28.6261      0.00000

 k-point   259 :      -0.3333    0.3333    0.2857
  band No.  band energies     occupation 
      1       1.5337      2.00000
      2      10.8901      0.00000
      3      11.4840      0.00000
      4      13.7949      0.00000
      5      14.9297      0.00000
      6      23.2655      0.00000
      7      27.3868      0.00000
      8      29.1775      0.00000

 k-point   260 :      -0.3810    0.3810    0.2857
  band No.  band energies     occupation 
      1       2.5439      2.00000
      2       9.3581      2.00000
      3      11.1112      0.00000
      4      13.5685      0.00000
      5      15.4805      0.00000
      6      21.7260      0.00000
      7      27.1082      0.00000
      8      29.4564      0.00000

 k-point   261 :      -0.3333    0.3810    0.2857
  band No.  band energies     occupation 
      1       2.4768      2.00000
      2      10.3909      0.00000
      3      10.5105      0.00000
      4      13.7523      0.00000
      5      14.6359      0.00000
      6      21.6704      0.00000
      7      27.6549      0.00000
      8      30.1350      0.00000

 k-point   262 :      -0.4286    0.4286    0.2857
  band No.  band energies     occupation 
      1       3.6796      2.00000
      2       7.8067      2.00000
      3      10.8624      0.00000
      4      13.3479      0.00000
      5      16.3985      0.00000
      6      20.2686      0.00000
      7      26.8940      0.00000
      8      29.5591      0.00000

 k-point   263 :      -0.3810    0.4286    0.2857
  band No.  band energies     occupation 
      1       3.5468      2.00000
      2       8.9696      2.00000
      3      10.1414      0.00000
      4      13.7291      0.00000
      5      15.1214      0.00000
      6      20.1390      0.00000
      7      27.5171      0.00000
      8      30.6203      0.00000

 k-point   264 :      -0.4762    0.4762    0.2857
  band No.  band energies     occupation 
      1       4.9291      2.00000
      2       6.3381      2.00000
      3      10.7379      0.00000
      4      13.2278      0.00000
      5      17.4409      0.00000
      6      18.9732      0.00000
      7      26.7828      0.00000
      8      29.5856      0.00000

 k-point   265 :      -0.4286    0.4762    0.2857
  band No.  band energies     occupation 
      1       4.7378      2.00000
      2       7.4814      2.00000
      3       9.9499      0.65806
      4      13.5943      0.00000
      5      16.0820      0.00000
      6      18.7189      0.00000
      7      27.3888      0.00000
      8      30.7762      0.00000

 k-point   266 :      -0.3810    0.4762    0.2857
  band No.  band energies     occupation 
      1       4.6728      2.00000
      2       8.6197      2.00000
      3       8.8187      2.00000
      4      14.3209      0.00000
      5      15.1259      0.00000
      6      18.6434      0.00000
      7      27.5002      0.00000
      8      31.8815      0.00000

 k-point   267 :      -0.4762   -0.4762    0.2857
  band No.  band energies     occupation 
      1       5.9121      2.00000
      2       6.2023      2.00000
      3       9.8863      1.82530
      4      13.5405      0.00000
      5      16.9511      0.00000
      6      17.7098      0.00000
      7      27.3417      0.00000
      8      30.8135      0.00000

 k-point   268 :      -0.4286   -0.4762    0.2857
  band No.  band energies     occupation 
      1       5.9087      2.00000
      2       7.2872      2.00000
      3       8.6008      2.00000
      4      14.4511      0.00000
      5      15.9252      0.00000
      6      17.3011      0.00000
      7      27.4483      0.00000
      8      32.3858      0.00000

 k-point   269 :      -0.4286   -0.4286    0.2857
  band No.  band energies     occupation 
      1       6.9664      2.00000
      2       7.3421      2.00000
      3       7.3421      2.00000
      4      15.0754      0.00000
      5      16.1917      0.00000
      6      16.1917      0.00000
      7      27.4430      0.00000
      8      33.7165      0.00000

 k-point   270 :      -0.3333    0.3333    0.3333
  band No.  band energies     occupation 
      1       2.4096      2.00000
      2      10.9868      0.00000
      3      10.9868      0.00000
      4      13.0547      0.00000
      5      14.0310      0.00000
      6      21.6164      0.00000
      7      29.0257      0.00000
      8      30.0789      0.00000

 k-point   271 :      -0.3810    0.3810    0.3333
  band No.  band energies     occupation 
      1       3.4135      2.00000
      2      10.0055      0.04398
      3      10.6133      0.00000
      4      12.9129      0.00000
      5      13.9671      0.00000
      6      20.0156      0.00000
      7      29.1222      0.00000
      8      30.6822      0.00000

 k-point   272 :      -0.4286    0.4286    0.3333
  band No.  band energies     occupation 
      1       4.5409      2.00000
      2       8.5857      2.00000
      3      10.3640      0.00000
      4      12.7855      0.00000
      5      14.6874      0.00000
      6      18.5110      0.00000
      7      28.9399      0.00000
      8      30.9987      0.00000

 k-point   273 :      -0.3810    0.4286    0.3333
  band No.  band energies     occupation 
      1       4.4750      2.00000
      2       9.6326      2.00000
      3       9.7488      2.00000
      4      13.0023      0.00000
      5      13.8072      0.00000
      6      18.4435      0.00000
      7      29.4568      0.00000
      8      31.7176      0.00000

 k-point   274 :      -0.4762    0.4762    0.3333
  band No.  band energies     occupation 
      1       5.7791      2.00000
      2       7.1612      2.00000
      3      10.2393      0.00000
      4      12.6827      0.00000
      5      15.7194      0.00000
      6      17.1623      0.00000
      7      28.8359      0.00000
      8      31.1240      0.00000

 k-point   275 :      -0.4286    0.4762    0.3333
  band No.  band energies     occupation 
      1       5.6535      2.00000
      2       8.3259      2.00000
      3       9.5069      2.00000
      4      13.0813      0.00000
      5      14.4502      0.00000
      6      16.9923      0.00000
      7      29.4104      0.00000
      8      32.2204      0.00000

 k-point   276 :      -0.4762   -0.4762    0.3333
  band No.  band energies     occupation 
      1       6.8186      2.00000
      2       7.0806      2.00000
      3       9.4424      2.00000
      4      13.0539      0.00000
      5      15.3229      0.00000
      6      15.9243      0.00000
      7      29.3791      0.00000
      8      32.3377      0.00000

 k-point   277 :      -0.4286   -0.4762    0.3333
  band No.  band energies     occupation 
      1       6.8661      2.00000
      2       8.1146      2.00000
      3       8.3007      2.00000
      4      13.7687      0.00000
      5      14.5839      0.00000
      6      15.6402      0.00000
      7      29.4604      0.00000
      8      33.4573      0.00000

 k-point   278 :      -0.3810    0.3810    0.3810
  band No.  band energies     occupation 
      1       4.4089      2.00000
      2      10.2392      0.00000
      3      10.2392      0.00000
      4      12.2916      0.00000
      5      13.1870      0.00000
      6      18.3776      0.00000
      7      30.8966      0.00000
      8      31.6627      0.00000

 k-point   279 :      -0.4286    0.4286    0.3810
  band No.  band energies     occupation 
      1       5.5237      2.00000
      2       9.3711      2.00000
      3       9.9896      0.11768
      4      12.2625      0.00000
      5      13.2777      0.00000
      6      16.8493      0.00000
      7      31.0129      0.00000
      8      32.2864      0.00000

 k-point   280 :      -0.4762    0.4762    0.3810
  band No.  band energies     occupation 
      1       6.7421      2.00000
      2       8.0737      2.00000
      3       9.8647      1.95086
      4      12.2421      0.00000
      5      14.1305      0.00000
      6      15.4824      0.00000
      7      30.9248      0.00000
      8      32.5702      0.00000

 k-point   281 :      -0.4286    0.4762    0.3810
  band No.  band energies     occupation 
      1       6.6811      2.00000
      2       9.1260      2.00000
      3       9.2398      2.00000
      4      12.4719      0.00000
      5      13.2541      0.00000
      6      15.3927      0.00000
      7      31.3863      0.00000
      8      33.2997      0.00000

 k-point   282 :      -0.4762   -0.4762    0.3810
  band No.  band energies     occupation 
      1       7.8184      2.00000
      2       8.0414      2.00000
      3       9.1267      2.00000
      4      12.6222      0.00000
      5      13.8738      0.00000
      6      14.3125      0.00000
      7      31.4020      0.00000
      8      33.6546      0.00000

 k-point   283 :      -0.4286    0.4286    0.4286
  band No.  band energies     occupation 
      1       6.6176      2.00000
      2       9.7398      2.00000
      3       9.7398      2.00000
      4      11.7577      0.00000
      5      12.6238      0.00000
      6      15.3164      0.00000
      7      32.8257      0.00000
      8      33.2462      0.00000

 k-point   284 :      -0.4762    0.4762    0.4286
  band No.  band energies     occupation 
      1       7.7945      2.00000
      2       8.9914      2.00000
      3       9.6148      2.00000
      4      11.8238      0.00000
      5      12.8529      0.00000
      6      13.9748      0.00000
      7      32.9175      0.00000
      8      33.7477      0.00000

 k-point   285 :      -0.4762   -0.4762    0.4286
  band No.  band energies     occupation 
      1       8.7966      2.00000
      2       8.9850      2.00000
      3       8.9850      2.00000
      4      11.9590      0.00000
      5      12.9775      0.00000
      6      12.9775      0.00000
      7      33.2180      0.00000
      8      34.4835      0.00000

 k-point   286 :      -0.4762    0.4762    0.4762
  band No.  band energies     occupation 
      1       8.8531      2.00000
      2       9.4898      2.00000
      3       9.4898      2.00000
      4      11.3513      0.00000
      5      12.3420      0.00000
      6      12.7820      0.00000
      7      34.3634      0.00000
      8      34.4328      0.00000


--------------------------------------------------------------------------------------------------------


 soft charge-density along one line, spin component           1
         0         1         2         3         4         5         6         7         8         9
 total charge-density along one line
 
 pseudopotential strength for first ion, spin component:           1
 17.980  25.083   0.000  -0.000   0.000   0.000  -0.000   0.000
 25.083  34.997   0.000  -0.000   0.000   0.000  -0.000   0.000
  0.000   0.000   4.099  -0.000   0.000   7.636  -0.000   0.000
 -0.000  -0.000  -0.000   4.099  -0.000  -0.000   7.636  -0.000
  0.000   0.000   0.000  -0.000   4.099   0.000  -0.000   7.636
  0.000   0.000   7.636  -0.000   0.000  14.235  -0.000   0.000
 -0.000  -0.000  -0.000   7.636  -0.000  -0.000  14.235  -0.000
  0.000   0.000   0.000  -0.000   7.636   0.000  -0.000  14.235
 total augmentation occupancy for first ion, spin component:           1
  4.808  -1.948   0.000   0.000   0.000   0.000   0.000   0.000
 -1.948   1.212   0.000   0.000   0.000   0.000   0.000   0.000
  0.000   0.000   2.294   0.000   0.000  -0.533   0.000   0.000
  0.000   0.000   0.000   2.294  -0.000   0.000  -0.533  -0.000
  0.000   0.000  -0.000   0.000   2.294  -0.000   0.000  -0.533
  0.000   0.000  -0.533   0.000  -0.000   0.138   0.000   0.000
  0.000   0.000   0.000  -0.533  -0.000  -0.000   0.138   0.000
  0.000   0.000   0.000  -0.000  -0.533  -0.000  -0.000   0.138


------------------------ aborting loop because EDIFF is reached ----------------------------------------





 total charge

# of ion       s       p       d       tot
------------------------------------------
    1        0.835   0.716   0.000   1.551
 
    CHARGE:  cpu time    0.0750: real time    0.0749
    FORLOC:  cpu time    0.0000: real time    0.0006
    FORNL :  cpu time    0.0740: real time    0.0733
    STRESS:  cpu time    0.9409: real time    0.9411
    FORCOR:  cpu time    0.0140: real time    0.0139
    FORHAR:  cpu time    0.0030: real time    0.0028
    MIXING:  cpu time    0.0000: real time    0.0006
    OFIELD:  cpu time    0.0010: real time    0.0002

  FORCE on cell =-STRESS in cart. coord.  units (eV):
  Direction    XX          YY          ZZ          XY          YZ          ZX
  --------------------------------------------------------------------------------------
  Alpha Z     2.31026     2.31026     2.31026
  Ewald     -45.41093   -45.41093   -45.41093    -0.00000    -0.00000     0.00000
  Hartree     0.14155     0.14155     0.14155    -0.00000     0.00000     0.00000
  E(xc)     -12.68130   -12.68130   -12.68130     0.00000    -0.00000    -0.00000
  Local      -5.06420    -5.06420    -5.06420    -0.00000     0.00000     0.00000
  n-local    38.92560    38.34927    38.16236    -1.08555    -1.23696     0.48642
  augment    -6.26850    -6.26850    -6.26850     0.00000    -0.00000    -0.00000
  Kinetic    24.02440    34.16219    27.38552    11.84130    13.74921    -5.81163
  Fock        0.00000     0.00000     0.00000     0.00000     0.00000     0.00000
  -------------------------------------------------------------------------------------
  Total       0.02999     0.02999     0.02999    -0.00000    -0.00000     0.00000
  in kB       3.29773     3.29773     3.29773    -0.00000    -0.00000     0.00000
  external pressure =        3.30 kB  Pullay stress =        0.00 kB


 VOLUME and BASIS-vectors are now :
 -----------------------------------------------------------------------------
  energy-cutoff  :      450.00
  volume of cell :       14.57
      direct lattice vectors                 reciprocal lattice vectors
     1.538665789  1.538665789  1.538665789     0.324956858  0.324956858  0.000000000
     1.538665789 -1.538665789 -1.538665789     0.324956858  0.000000000 -0.324956858
    -1.538665789  1.538665789 -1.538665789     0.000000000  0.324956858 -0.324956858

  length of vectors
     2.665047322  2.665047322  2.665047322     0.459558396  0.459558396  0.459558396


 FORCES acting on ions
    electron-ion (+dipol)            ewald-force                    non-local-force                 convergence-correction
 -----------------------------------------------------------------------------------------------
   0.139E-14 0.146E-14 -.463E-15   0.156E-15 -.248E-15 -.336E-16   -.517E-24 0.383E-23 -.310E-24   0.955E-17 -.637E-18 -.147E-16
 -----------------------------------------------------------------------------------------------
   0.139E-14 0.146E-14 -.463E-15   0.156E-15 -.248E-15 -.336E-16   -.517E-24 0.383E-23 -.310E-24   0.955E-17 -.637E-18 -.147E-16
 
 
 POSITION                                       TOTAL-FORCE (eV/Angst)
 -----------------------------------------------------------------------------------
      0.00000      0.00000      0.00000        -0.000000     -0.000000     -0.000000
 -----------------------------------------------------------------------------------
    total drift:                                0.000000      0.000000     -0.000000


--------------------------------------------------------------------------------------------------------



  FREE ENERGIE OF THE ION-ELECTRON SYSTEM (eV)
  ---------------------------------------------------
  free  energy   TOTEN  =        -4.90237061 eV

  energy  without entropy=       -4.90182665  energy(sigma->0) =       -4.90209863
 


--------------------------------------------------------------------------------------------------------


    POTLOK:  cpu time    0.1820: real time    0.1892


--------------------------------------------------------------------------------------------------------


 writing wavefunctions
     LOOP+:  cpu time   18.5742: real time   19.7400
    4ORBIT:  cpu time    0.0000: real time    0.0000



 total charge

# of ion       s       p       d       tot
------------------------------------------
    1        0.835   0.716   0.000   1.551
 

 total amount of memory used by VASP MPI-rank0    41790. kBytes
=======================================================================

   base      :      30000. kBytes
   nonl-proj :       6082. kBytes
   fftplans  :       1775. kBytes
   grid      :        819. kBytes
   one-center:          3. kBytes
   wavefun   :       3111. kBytes
 
  
  
 General timing and accounting informations for this job:
 ========================================================
  
                  Total CPU time used (sec):       20.965
                            User time (sec):       19.698
                          System time (sec):        1.267
                         Elapsed time (sec):       25.512
  
                   Maximum memory used (kb):       66764.
                   Average memory used (kb):          N/A
  
                          Minor page faults:        10981
                          Major page faults:            1
                 Voluntary context switches:       107632
