PROCAR lm decomposed
# of k-points:  286         # of bands:    8         # of ions:    1

 k-point     1 :    0.00000000 0.00000000 0.00000000     weight = 0.00010798

band     1 # energy   -4.30051608 # occ.  2.00000000
 
ion      s     py     pz     px    dxy    dyz    dz2    dxz  x2-y2    tot
    1  0.386  0.000  0.000  0.000  0.000  0.000  0.000  0.000  0.000  0.386
 
band     2 # energy   21.39242074 # occ.  0.00000000
 
ion      s     py     pz     px    dxy    dyz    dz2    dxz  x2-y2    tot
    1  0.000  0.354  0.362  0.000  0.000  0.000  0.000  0.000  0.000  0.716
 
band     3 # energy   21.39242074 # occ.  0.00000000
 
ion      s     py     pz     px    dxy    dyz    dz2    dxz  x2-y2    tot
    1  0.000  0.121  0.114  0.481  0.000  0.000  0.000  0.000  0.000  0.716
 
band     4 # energy   21.39242080 # occ.  0.00000000
 
ion      s     py     pz     px    dxy    dyz    dz2    dxz  x2-y2    tot
    1  0.000  0.241  0.241  0.235  0.000  0.000  0.000  0.000  0.000  0.716
 
band     5 # energy   22.50971108 # occ.  0.00000000
 
ion      s     py     pz     px    dxy    dyz    dz2    dxz  x2-y2    tot
    1  0.000  0.000  0.000  0.000  0.000  0.000  0.000  0.000  0.000  0.000
 
band     6 # energy   22.50971115 # occ.  0.00000000
 
ion      s     py     pz     px    dxy    dyz    dz2    dxz  x2-y2    tot
    1  0.000  0.000  0.000  0.000  0.000  0.000  0.000  0.000  0.000  0.000
 
band     7 # energy   22.50971115 # occ.  0.00000000
 
ion      s     py     pz     px    dxy    dyz    dz2    dxz  x2-y2    tot
    1  0.000  0.000  0.000  0.000  0.000  0.000  0.000  0.000  0.000  0.000
 
band     8 # energy   26.21119824 # occ.  0.00000000
 
ion      s     py     pz     px    dxy    dyz    dz2    dxz  x2-y2    tot
    1  0.000  0.000  0.000  0.000  0.000  0.000  0.000  0.000  0.000  0.000
 

 k-point     2 :    0.04761905 0.00000000 0.00000000     weight = 0.00129576

band     1 # energy   -4.23090580 # occ.  2.00000000
 
ion      s     py     pz     px    dxy    dyz    dz2    dxz  x2-y2    tot
    1  0.384  0.001  0.000  0.001  0.000  0.000  0.000  0.000  0.000  0.386
 
band     2 # energy   20.40817870 # occ.  0.00000000
 
ion      s     py     pz     px    dxy    dyz    dz2    dxz  x2-y2    tot
    1  0.010  0.251  0.000  0.251  0.000  0.000  0.000  0.000  0.000  0.513
 
band     3 # energy   20.65227932 # occ.  0.00000000
 
ion      s     py     pz     px    dxy    dyz    dz2    dxz  x2-y2    tot
    1  0.000  0.000  0.532  0.000  0.000  0.000  0.000  0.000  0.000  0.532
 
band     4 # energy   21.29236340 # occ.  0.00000000
 
ion      s     py     pz     px    dxy    dyz    dz2    dxz  x2-y2    tot
    1  0.000  0.351  0.000  0.351  0.000  0.000  0.000  0.000  0.000  0.702
 
band     5 # energy   22.26984729 # occ.  0.00000000
 
ion      s     py     pz     px    dxy    dyz    dz2    dxz  x2-y2    tot
    1  0.000  0.000  0.000  0.000  0.000  0.000  0.000  0.000  0.000  0.000
 
band     6 # energy   23.06765095 # occ.  0.00000000
 
ion      s     py     pz     px    dxy    dyz    dz2    dxz  x2-y2    tot
    1  0.006  0.095  0.000  0.095  0.000  0.000  0.000  0.000  0.000  0.197
 
band     7 # energy   23.36641071 # occ.  0.00000000
 
ion      s     py     pz     px    dxy    dyz    dz2    dxz  x2-y2    tot
    1  0.000  0.000  0.183  0.000  0.000  0.000  0.000  0.000  0.000  0.183
 
band     8 # energy   25.61571152 # occ.  0.00000000
 
ion      s     py     pz     px    dxy    dyz    dz2    dxz  x2-y2    tot
    1  0.000  0.001  0.000  0.001  0.000  0.000  0.000  0.000  0.000  0.001
 

 k-point     3 :    0.09523810 0.00000000 0.00000000     weight = 0.00129576

band     1 # energy   -4.02216852 # occ.  2.00000000
 
ion      s     py     pz     px    dxy    dyz    dz2    dxz  x2-y2    tot
    1  0.379  0.004  0.000  0.004  0.000  0.000  0.000  0.000  0.000  0.386
 
band     2 # energy   18.69536592 # occ.  0.00000000
 
ion      s     py     pz     px    dxy    dyz    dz2    dxz  x2-y2    tot
    1  0.029  0.204  0.000  0.204  0.000  0.000  0.000  0.000  0.000  0.437
 
band     3 # energy   19.64956290 # occ.  0.00000000
 
ion      s     py     pz     px    dxy    dyz    dz2    dxz  x2-y2    tot
    1  0.000  0.000  0.492  0.000  0.000  0.000  0.000  0.000  0.000  0.492
 
band     4 # energy   21.00649777 # occ.  0.00000000
 
ion      s     py     pz     px    dxy    dyz    dz2    dxz  x2-y2    tot
    1  0.000  0.331  0.000  0.331  0.000  0.000  0.000  0.000  0.000  0.663
 
band     5 # energy   21.67378289 # occ.  0.00000000
 
ion      s     py     pz     px    dxy    dyz    dz2    dxz  x2-y2    tot
    1  0.000  0.000  0.000  0.000  0.000  0.000  0.000  0.000  0.000  0.000
 
band     6 # energy   23.39284971 # occ.  0.00000000
 
ion      s     py     pz     px    dxy    dyz    dz2    dxz  x2-y2    tot
    1  0.030  0.112  0.000  0.112  0.000  0.000  0.000  0.000  0.000  0.254
 
band     7 # energy   24.71771249 # occ.  0.00000000
 
ion      s     py     pz     px    dxy    dyz    dz2    dxz  x2-y2    tot
    1  0.000  0.000  0.220  0.000  0.000  0.000  0.000  0.000  0.000  0.220
 
band     8 # energy   25.04488947 # occ.  0.00000000
 
ion      s     py     pz     px    dxy    dyz    dz2    dxz  x2-y2    tot
    1  0.001  0.003  0.000  0.003  0.000  0.000  0.000  0.000  0.000  0.008
 

 k-point     4 :    0.14285714 0.00000000 0.00000000     weight = 0.00129576

band     1 # energy   -3.67473977 # occ.  2.00000000
 
ion      s     py     pz     px    dxy    dyz    dz2    dxz  x2-y2    tot
    1  0.371  0.008  0.000  0.008  0.000  0.000  0.000  0.000  0.000  0.387
 
band     2 # energy   16.74426599 # occ.  0.00000000
 
ion      s     py     pz     px    dxy    dyz    dz2    dxz  x2-y2    tot
    1  0.049  0.177  0.000  0.177  0.000  0.000  0.000  0.000  0.000  0.403
 
band     3 # energy   18.72763712 # occ.  0.00000000
 
ion      s     py     pz     px    dxy    dyz    dz2    dxz  x2-y2    tot
    1  0.000  0.000  0.492  0.000  0.000  0.000  0.000  0.000  0.000  0.492
 
band     4 # energy   20.58126344 # occ.  0.00000000
 
ion      s     py     pz     px    dxy    dyz    dz2    dxz  x2-y2    tot
    1  0.000  0.307  0.000  0.307  0.000  0.000  0.000  0.000  0.000  0.614
 
band     5 # energy   20.92844089 # occ.  0.00000000
 
ion      s     py     pz     px    dxy    dyz    dz2    dxz  x2-y2    tot
    1  0.000  0.000  0.000  0.000  0.000  0.000  0.000  0.000  0.000  0.000
 
band     6 # energy   22.92780886 # occ.  0.00000000
 
ion      s     py     pz     px    dxy    dyz    dz2    dxz  x2-y2    tot
    1  0.057  0.087  0.000  0.087  0.000  0.000  0.000  0.000  0.000  0.230
 
band     7 # energy   25.32568166 # occ.  0.00000000
 
ion      s     py     pz     px    dxy    dyz    dz2    dxz  x2-y2    tot
    1  0.015  0.018  0.000  0.018  0.000  0.000  0.000  0.000  0.000  0.051
 
band     8 # energy   26.00968111 # occ.  0.00000000
 
ion      s     py     pz     px    dxy    dyz    dz2    dxz  x2-y2    tot
    1  0.000  0.041  0.000  0.041  0.000  0.000  0.000  0.000  0.000  0.082
 

 k-point     5 :    0.19047619 0.00000000 0.00000000     weight = 0.00129576

band     1 # energy   -3.18932623 # occ.  2.00000000
 
ion      s     py     pz     px    dxy    dyz    dz2    dxz  x2-y2    tot
    1  0.361  0.014  0.000  0.014  0.000  0.000  0.000  0.000  0.000  0.388
 
band     2 # energy   14.72011470 # occ.  0.00000000
 
ion      s     py     pz     px    dxy    dyz    dz2    dxz  x2-y2    tot
    1  0.069  0.159  0.000  0.159  0.000  0.000  0.000  0.000  0.000  0.386
 
band     3 # energy   17.91420019 # occ.  0.00000000
 
ion      s     py     pz     px    dxy    dyz    dz2    dxz  x2-y2    tot
    1  0.000  0.000  0.503  0.000  0.000  0.000  0.000  0.000  0.000  0.503
 
band     4 # energy   20.08492349 # occ.  0.00000000
 
ion      s     py     pz     px    dxy    dyz    dz2    dxz  x2-y2    tot
    1  0.000  0.285  0.000  0.285  0.000  0.000  0.000  0.000  0.000  0.569
 
band     5 # energy   20.16989886 # occ.  0.00000000
 
ion      s     py     pz     px    dxy    dyz    dz2    dxz  x2-y2    tot
    1  0.000  0.000  0.000  0.000  0.000  0.000  0.000  0.000  0.000  0.000
 
band     6 # energy   22.24159595 # occ.  0.00000000
 
ion      s     py     pz     px    dxy    dyz    dz2    dxz  x2-y2    tot
    1  0.085  0.068  0.000  0.068  0.000  0.000  0.000  0.000  0.000  0.222
 
band     7 # energy   25.95523443 # occ.  0.00000000
 
ion      s     py     pz     px    dxy    dyz    dz2    dxz  x2-y2    tot
    1  0.033  0.016  0.000  0.016  0.000  0.000  0.000  0.000  0.000  0.065
 
band     8 # energy   26.21695998 # occ.  0.00000000
 
ion      s     py     pz     px    dxy    dyz    dz2    dxz  x2-y2    tot
    1  0.000  0.057  0.000  0.057  0.000  0.000  0.000  0.000  0.000  0.114
 

 k-point     6 :    0.23809524 0.00000000 0.00000000     weight = 0.00129576

band     1 # energy   -2.56691961 # occ.  2.00000000
 
ion      s     py     pz     px    dxy    dyz    dz2    dxz  x2-y2    tot
    1  0.347  0.021  0.000  0.021  0.000  0.000  0.000  0.000  0.000  0.389
 
band     2 # energy   12.71132569 # occ.  0.00000000
 
ion      s     py     pz     px    dxy    dyz    dz2    dxz  x2-y2    tot
    1  0.089  0.145  0.000  0.145  0.000  0.000  0.000  0.000  0.000  0.379
 
band     3 # energy   17.21511493 # occ.  0.00000000
 
ion      s     py     pz     px    dxy    dyz    dz2    dxz  x2-y2    tot
    1  0.000  0.000  0.516  0.000  0.000  0.000  0.000  0.000  0.000  0.516
 
band     4 # energy   19.46736452 # occ.  0.00000000
 
ion      s     py     pz     px    dxy    dyz    dz2    dxz  x2-y2    tot
    1  0.000  0.000  0.000  0.000  0.000  0.000  0.000  0.000  0.000  0.000
 
band     5 # energy   19.58179453 # occ.  0.00000000
 
ion      s     py     pz     px    dxy    dyz    dz2    dxz  x2-y2    tot
    1  0.000  0.267  0.000  0.267  0.000  0.000  0.000  0.000  0.000  0.535
 
band     6 # energy   21.59404360 # occ.  0.00000000
 
ion      s     py     pz     px    dxy    dyz    dz2    dxz  x2-y2    tot
    1  0.115  0.053  0.000  0.053  0.000  0.000  0.000  0.000  0.000  0.220
 
band     7 # energy   26.60239644 # occ.  0.00000000
 
ion      s     py     pz     px    dxy    dyz    dz2    dxz  x2-y2    tot
    1  0.000  0.067  0.000  0.067  0.000  0.000  0.000  0.000  0.000  0.134
 
band     8 # energy   26.69357073 # occ.  0.00000000
 
ion      s     py     pz     px    dxy    dyz    dz2    dxz  x2-y2    tot
    1  0.048  0.009  0.000  0.009  0.000  0.000  0.000  0.000  0.000  0.066
 

 k-point     7 :    0.28571429 0.00000000 0.00000000     weight = 0.00129576

band     1 # energy   -1.80879313 # occ.  2.00000000
 
ion      s     py     pz     px    dxy    dyz    dz2    dxz  x2-y2    tot
    1  0.332  0.029  0.000  0.029  0.000  0.000  0.000  0.000  0.000  0.390
 
band     2 # energy   10.76447257 # occ.  0.00000000
 
ion      s     py     pz     px    dxy    dyz    dz2    dxz  x2-y2    tot
    1  0.111  0.133  0.000  0.133  0.000  0.000  0.000  0.000  0.000  0.377
 
band     3 # energy   16.63211531 # occ.  0.00000000
 
ion      s     py     pz     px    dxy    dyz    dz2    dxz  x2-y2    tot
    1  0.000  0.000  0.529  0.000  0.000  0.000  0.000  0.000  0.000  0.529
 
band     4 # energy   18.85591527 # occ.  0.00000000
 
ion      s     py     pz     px    dxy    dyz    dz2    dxz  x2-y2    tot
    1  0.000  0.000  0.000  0.000  0.000  0.000  0.000  0.000  0.000  0.000
 
band     5 # energy   19.11832537 # occ.  0.00000000
 
ion      s     py     pz     px    dxy    dyz    dz2    dxz  x2-y2    tot
    1  0.000  0.255  0.000  0.255  0.000  0.000  0.000  0.000  0.000  0.510
 
band     6 # energy   21.03114881 # occ.  0.00000000
 
ion      s     py     pz     px    dxy    dyz    dz2    dxz  x2-y2    tot
    1  0.143  0.037  0.000  0.037  0.000  0.000  0.000  0.000  0.000  0.217
 
band     7 # energy   27.14251753 # occ.  0.00000000
 
ion      s     py     pz     px    dxy    dyz    dz2    dxz  x2-y2    tot
    1  0.000  0.070  0.000  0.070  0.000  0.000  0.000  0.000  0.000  0.140
 
band     8 # energy   27.50931211 # occ.  0.00000000
 
ion      s     py     pz     px    dxy    dyz    dz2    dxz  x2-y2    tot
    1  0.058  0.003  0.000  0.003  0.000  0.000  0.000  0.000  0.000  0.065
 

 k-point     8 :    0.33333333 0.00000000 0.00000000     weight = 0.00129576

band     1 # energy   -0.91663673 # occ.  2.00000000
 
ion      s     py     pz     px    dxy    dyz    dz2    dxz  x2-y2    tot
    1  0.315  0.038  0.000  0.038  0.000  0.000  0.000  0.000  0.000  0.392
 
band     2 # energy    8.90480664 # occ.  2.00000000
 
ion      s     py     pz     px    dxy    dyz    dz2    dxz  x2-y2    tot
    1  0.132  0.123  0.000  0.123  0.000  0.000  0.000  0.000  0.000  0.377
 
band     3 # energy   16.16563549 # occ.  0.00000000
 
ion      s     py     pz     px    dxy    dyz    dz2    dxz  x2-y2    tot
    1  0.000  0.000  0.540  0.000  0.000  0.000  0.000  0.000  0.000  0.540
 
band     4 # energy   18.35364726 # occ.  0.00000000
 
ion      s     py     pz     px    dxy    dyz    dz2    dxz  x2-y2    tot
    1  0.000  0.000  0.000  0.000  0.000  0.000  0.000  0.000  0.000  0.000
 
band     5 # energy   18.72406595 # occ.  0.00000000
 
ion      s     py     pz     px    dxy    dyz    dz2    dxz  x2-y2    tot
    1  0.000  0.247  0.000  0.247  0.000  0.000  0.000  0.000  0.000  0.494
 
band     6 # energy   20.56775080 # occ.  0.00000000
 
ion      s     py     pz     px    dxy    dyz    dz2    dxz  x2-y2    tot
    1  0.167  0.024  0.000  0.024  0.000  0.000  0.000  0.000  0.000  0.214
 
band     7 # energy   27.81424322 # occ.  0.00000000
 
ion      s     py     pz     px    dxy    dyz    dz2    dxz  x2-y2    tot
    1  0.000  0.067  0.000  0.067  0.000  0.000  0.000  0.000  0.000  0.134
 
band     8 # energy   28.38852915 # occ.  0.00000000
 
ion      s     py     pz     px    dxy    dyz    dz2    dxz  x2-y2    tot
    1  0.065  0.001  0.000  0.001  0.000  0.000  0.000  0.000  0.000  0.066
 

 k-point     9 :    0.38095238 0.00000000 0.00000000     weight = 0.00129576

band     1 # energy    0.10746770 # occ.  2.00000000
 
ion      s     py     pz     px    dxy    dyz    dz2    dxz  x2-y2    tot
    1  0.297  0.048  0.000  0.048  0.000  0.000  0.000  0.000  0.000  0.393
 
band     2 # energy    7.14743177 # occ.  2.00000000
 
ion      s     py     pz     px    dxy    dyz    dz2    dxz  x2-y2    tot
    1  0.153  0.113  0.000  0.113  0.000  0.000  0.000  0.000  0.000  0.378
 
band     3 # energy   15.81592397 # occ.  0.00000000
 
ion      s     py     pz     px    dxy    dyz    dz2    dxz  x2-y2    tot
    1  0.000  0.000  0.550  0.000  0.000  0.000  0.000  0.000  0.000  0.550
 
band     4 # energy   17.97091952 # occ.  0.00000000
 
ion      s     py     pz     px    dxy    dyz    dz2    dxz  x2-y2    tot
    1  0.000  0.000  0.000  0.000  0.000  0.000  0.000  0.000  0.000  0.000
 
band     5 # energy   18.41696647 # occ.  0.00000000
 
ion      s     py     pz     px    dxy    dyz    dz2    dxz  x2-y2    tot
    1  0.000  0.242  0.000  0.242  0.000  0.000  0.000  0.000  0.000  0.484
 
band     6 # energy   20.21311212 # occ.  0.00000000
 
ion      s     py     pz     px    dxy    dyz    dz2    dxz  x2-y2    tot
    1  0.185  0.012  0.000  0.012  0.000  0.000  0.000  0.000  0.000  0.210
 
band     7 # energy   28.59102155 # occ.  0.00000000
 
ion      s     py     pz     px    dxy    dyz    dz2    dxz  x2-y2    tot
    1  0.000  0.057  0.000  0.057  0.000  0.000  0.000  0.000  0.000  0.114
 
band     8 # energy   29.30218233 # occ.  0.00000000
 
ion      s     py     pz     px    dxy    dyz    dz2    dxz  x2-y2    tot
    1  0.069  0.000  0.000  0.000  0.000  0.000  0.000  0.000  0.000  0.069
 

 k-point    10 :    0.42857143 0.00000000 0.00000000     weight = 0.00129576

band     1 # energy    1.26007770 # occ.  2.00000000
 
ion      s     py     pz     px    dxy    dyz    dz2    dxz  x2-y2    tot
    1  0.283  0.056  0.000  0.056  0.000  0.000  0.000  0.000  0.000  0.395
 
band     2 # energy    5.50282052 # occ.  2.00000000
 
ion      s     py     pz     px    dxy    dyz    dz2    dxz  x2-y2    tot
    1  0.169  0.105  0.000  0.105  0.000  0.000  0.000  0.000  0.000  0.378
 
band     3 # energy   15.58284897 # occ.  0.00000000
 
ion      s     py     pz     px    dxy    dyz    dz2    dxz  x2-y2    tot
    1  0.000  0.000  0.556  0.000  0.000  0.000  0.000  0.000  0.000  0.556
 
band     4 # energy   17.71315856 # occ.  0.00000000
 
ion      s     py     pz     px    dxy    dyz    dz2    dxz  x2-y2    tot
    1  0.000  0.000  0.000  0.000  0.000  0.000  0.000  0.000  0.000  0.000
 
band     5 # energy   18.20748838 # occ.  0.00000000
 
ion      s     py     pz     px    dxy    dyz    dz2    dxz  x2-y2    tot
    1  0.000  0.239  0.000  0.239  0.000  0.000  0.000  0.000  0.000  0.478
 
band     6 # energy   19.97335642 # occ.  0.00000000
 
ion      s     py     pz     px    dxy    dyz    dz2    dxz  x2-y2    tot
    1  0.198  0.005  0.000  0.005  0.000  0.000  0.000  0.000  0.000  0.207
 
band     7 # energy   29.41695964 # occ.  0.00000000
 
ion      s     py     pz     px    dxy    dyz    dz2    dxz  x2-y2    tot
    1  0.000  0.039  0.000  0.039  0.000  0.000  0.000  0.000  0.000  0.077
 
band     8 # energy   30.16673342 # occ.  0.00000000
 
ion      s     py     pz     px    dxy    dyz    dz2    dxz  x2-y2    tot
    1  0.073  0.000  0.000  0.000  0.000  0.000  0.000  0.000  0.000  0.073
 

 k-point    11 :    0.47619048 0.00000000 0.00000000     weight = 0.00129576

band     1 # energy    2.52694066 # occ.  2.00000000
 
ion      s     py     pz     px    dxy    dyz    dz2    dxz  x2-y2    tot
    1  0.299  0.053  0.000  0.053  0.000  0.000  0.000  0.000  0.000  0.405
 
band     2 # energy    3.98913672 # occ.  2.00000000
 
ion      s     py     pz     px    dxy    dyz    dz2    dxz  x2-y2    tot
    1  0.155  0.107  0.000  0.107  0.000  0.000  0.000  0.000  0.000  0.369
 
band     3 # energy   15.46633784 # occ.  0.00000000
 
ion      s     py     pz     px    dxy    dyz    dz2    dxz  x2-y2    tot
    1  0.000  0.000  0.559  0.000  0.000  0.000  0.000  0.000  0.000  0.559
 
band     4 # energy   17.58375747 # occ.  0.00000000
 
ion      s     py     pz     px    dxy    dyz    dz2    dxz  x2-y2    tot
    1  0.000  0.000  0.000  0.000  0.000  0.000  0.000  0.000  0.000  0.000
 
band     5 # energy   18.10146013 # occ.  0.00000000
 
ion      s     py     pz     px    dxy    dyz    dz2    dxz  x2-y2    tot
    1  0.000  0.237  0.000  0.237  0.000  0.000  0.000  0.000  0.000  0.475
 
band     6 # energy   19.85247715 # occ.  0.00000000
 
ion      s     py     pz     px    dxy    dyz    dz2    dxz  x2-y2    tot
    1  0.204  0.001  0.000  0.001  0.000  0.000  0.000  0.000  0.000  0.205
 
band     7 # energy   30.10211495 # occ.  0.00000000
 
ion      s     py     pz     px    dxy    dyz    dz2    dxz  x2-y2    tot
    1  0.000  0.008  0.000  0.008  0.000  0.000  0.000  0.000  0.000  0.017
 
band     8 # energy   30.76969741 # occ.  0.00000000
 
ion      s     py     pz     px    dxy    dyz    dz2    dxz  x2-y2    tot
    1  0.076  0.000  0.000  0.000  0.000  0.000  0.000  0.000  0.000  0.077
 

 k-point    12 :    0.04761905 0.04761905 0.00000000     weight = 0.00259151

band     1 # energy   -4.09171840 # occ.  2.00000000
 
ion      s     py     pz     px    dxy    dyz    dz2    dxz  x2-y2    tot
    1  0.381  0.001  0.001  0.004  0.000  0.000  0.000  0.000  0.000  0.386
 
band     2 # energy   19.33795632 # occ.  0.00000000
 
ion      s     py     pz     px    dxy    dyz    dz2    dxz  x2-y2    tot
    1  0.024  0.146  0.146  0.179  0.000  0.000  0.000  0.000  0.000  0.496
 
band     3 # energy   19.81901013 # occ.  0.00000000
 
ion      s     py     pz     px    dxy    dyz    dz2    dxz  x2-y2    tot
    1  0.000  0.209  0.209  0.000  0.000  0.000  0.000  0.000  0.000  0.418
 
band     4 # energy   20.70780101 # occ.  0.00000000
 
ion      s     py     pz     px    dxy    dyz    dz2    dxz  x2-y2    tot
    1  0.002  0.110  0.110  0.318  0.000  0.000  0.000  0.000  0.000  0.541
 
band     5 # energy   22.33954676 # occ.  0.00000000
 
ion      s     py     pz     px    dxy    dyz    dz2    dxz  x2-y2    tot
    1  0.005  0.005  0.005  0.138  0.000  0.000  0.000  0.000  0.000  0.153
 
band     6 # energy   23.33176582 # occ.  0.00000000
 
ion      s     py     pz     px    dxy    dyz    dz2    dxz  x2-y2    tot
    1  0.000  0.145  0.145  0.000  0.000  0.000  0.000  0.000  0.000  0.291
 
band     7 # energy   24.30562518 # occ.  0.00000000
 
ion      s     py     pz     px    dxy    dyz    dz2    dxz  x2-y2    tot
    1  0.014  0.080  0.080  0.023  0.000  0.000  0.000  0.000  0.000  0.197
 
band     8 # energy   24.93669601 # occ.  0.00000000
 
ion      s     py     pz     px    dxy    dyz    dz2    dxz  x2-y2    tot
    1  0.000  0.001  0.001  0.000  0.000  0.000  0.000  0.000  0.000  0.001
 

 k-point    13 :    0.09523810 0.04761905 0.00000000     weight = 0.00518303

band     1 # energy   -3.81363738 # occ.  2.00000000
 
ion      s     py     pz     px    dxy    dyz    dz2    dxz  x2-y2    tot
    1  0.375  0.004  0.001  0.008  0.000  0.000  0.000  0.000  0.000  0.387
 
band     2 # energy   17.71797870 # occ.  0.00000000
 
ion      s     py     pz     px    dxy    dyz    dz2    dxz  x2-y2    tot
    1  0.043  0.214  0.010  0.172  0.000  0.000  0.000  0.000  0.000  0.438
 
band     3 # energy   18.71085574 # occ.  0.00000000
 
ion      s     py     pz     px    dxy    dyz    dz2    dxz  x2-y2    tot
    1  0.004  0.018  0.382  0.012  0.000  0.000  0.000  0.000  0.000  0.416
 
band     4 # energy   20.09807047 # occ.  0.00000000
 
ion      s     py     pz     px    dxy    dyz    dz2    dxz  x2-y2    tot
    1  0.001  0.167  0.058  0.218  0.000  0.000  0.000  0.000  0.000  0.444
 
band     5 # energy   21.99821148 # occ.  0.00000000
 
ion      s     py     pz     px    dxy    dyz    dz2    dxz  x2-y2    tot
    1  0.010  0.044  0.000  0.171  0.000  0.000  0.000  0.000  0.000  0.224
 
band     6 # energy   23.45564809 # occ.  0.00000000
 
ion      s     py     pz     px    dxy    dyz    dz2    dxz  x2-y2    tot
    1  0.018  0.179  0.076  0.018  0.000  0.000  0.000  0.000  0.000  0.290
 
band     7 # energy   24.65598410 # occ.  0.00000000
 
ion      s     py     pz     px    dxy    dyz    dz2    dxz  x2-y2    tot
    1  0.003  0.010  0.014  0.012  0.000  0.000  0.000  0.000  0.000  0.039
 
band     8 # energy   25.44396416 # occ.  0.00000000
 
ion      s     py     pz     px    dxy    dyz    dz2    dxz  x2-y2    tot
    1  0.021  0.005  0.143  0.013  0.000  0.000  0.000  0.000  0.000  0.182
 

 k-point    14 :    0.14285714 0.04761905 0.00000000     weight = 0.00518303

band     1 # energy   -3.39722831 # occ.  2.00000000
 
ion      s     py     pz     px    dxy    dyz    dz2    dxz  x2-y2    tot
    1  0.365  0.008  0.001  0.014  0.000  0.000  0.000  0.000  0.000  0.388
 
band     2 # energy   15.76297830 # occ.  0.00000000
 
ion      s     py     pz     px    dxy    dyz    dz2    dxz  x2-y2    tot
    1  0.060  0.187  0.000  0.153  0.000  0.000  0.000  0.000  0.000  0.400
 
band     3 # energy   17.80649378 # occ.  0.00000000
 
ion      s     py     pz     px    dxy    dyz    dz2    dxz  x2-y2    tot
    1  0.010  0.003  0.407  0.019  0.000  0.000  0.000  0.000  0.000  0.438
 
band     4 # energy   19.44116555 # occ.  0.00000000
 
ion      s     py     pz     px    dxy    dyz    dz2    dxz  x2-y2    tot
    1  0.001  0.153  0.051  0.166  0.000  0.000  0.000  0.000  0.000  0.370
 
band     5 # energy   21.48143464 # occ.  0.00000000
 
ion      s     py     pz     px    dxy    dyz    dz2    dxz  x2-y2    tot
    1  0.013  0.062  0.000  0.177  0.000  0.000  0.000  0.000  0.000  0.252
 
band     6 # energy   22.92115739 # occ.  0.00000000
 
ion      s     py     pz     px    dxy    dyz    dz2    dxz  x2-y2    tot
    1  0.039  0.161  0.045  0.009  0.000  0.000  0.000  0.000  0.000  0.254
 
band     7 # energy   25.02071139 # occ.  0.00000000
 
ion      s     py     pz     px    dxy    dyz    dz2    dxz  x2-y2    tot
    1  0.024  0.006  0.010  0.040  0.000  0.000  0.000  0.000  0.000  0.080
 
band     8 # energy   26.53639316 # occ.  0.00000000
 
ion      s     py     pz     px    dxy    dyz    dz2    dxz  x2-y2    tot
    1  0.002  0.037  0.058  0.014  0.000  0.000  0.000  0.000  0.000  0.111
 

 k-point    15 :    0.19047619 0.04761905 0.00000000     weight = 0.00518303

band     1 # energy   -2.84329892 # occ.  2.00000000
 
ion      s     py     pz     px    dxy    dyz    dz2    dxz  x2-y2    tot
    1  0.353  0.014  0.001  0.021  0.000  0.000  0.000  0.000  0.000  0.389
 
band     2 # energy   13.75103128 # occ.  0.00000000
 
ion      s     py     pz     px    dxy    dyz    dz2    dxz  x2-y2    tot
    1  0.079  0.166  0.000  0.139  0.000  0.000  0.000  0.000  0.000  0.384
 
band     3 # energy   17.03391776 # occ.  0.00000000
 
ion      s     py     pz     px    dxy    dyz    dz2    dxz  x2-y2    tot
    1  0.014  0.001  0.419  0.019  0.000  0.000  0.000  0.000  0.000  0.453
 
band     4 # energy   18.78524989 # occ.  0.00000000
 
ion      s     py     pz     px    dxy    dyz    dz2    dxz  x2-y2    tot
    1  0.000  0.134  0.052  0.137  0.000  0.000  0.000  0.000  0.000  0.324
 
band     5 # energy   20.91764774 # occ.  0.00000000
 
ion      s     py     pz     px    dxy    dyz    dz2    dxz  x2-y2    tot
    1  0.018  0.064  0.000  0.173  0.000  0.000  0.000  0.000  0.000  0.255
 
band     6 # energy   22.33302413 # occ.  0.00000000
 
ion      s     py     pz     px    dxy    dyz    dz2    dxz  x2-y2    tot
    1  0.061  0.153  0.039  0.003  0.000  0.000  0.000  0.000  0.000  0.256
 
band     7 # energy   25.47687552 # occ.  0.00000000
 
ion      s     py     pz     px    dxy    dyz    dz2    dxz  x2-y2    tot
    1  0.036  0.001  0.005  0.050  0.000  0.000  0.000  0.000  0.000  0.091
 
band     8 # energy   27.21950620 # occ.  0.00000000
 
ion      s     py     pz     px    dxy    dyz    dz2    dxz  x2-y2    tot
    1  0.004  0.070  0.010  0.013  0.000  0.000  0.000  0.000  0.000  0.097
 

 k-point    16 :    0.23809524 0.04761905-0.00000000     weight = 0.00518303

band     1 # energy   -2.15302643 # occ.  2.00000000
 
ion      s     py     pz     px    dxy    dyz    dz2    dxz  x2-y2    tot
    1  0.339  0.021  0.001  0.030  0.000  0.000  0.000  0.000  0.000  0.390
 
band     2 # energy   11.77350398 # occ.  0.00000000
 
ion      s     py     pz     px    dxy    dyz    dz2    dxz  x2-y2    tot
    1  0.100  0.150  0.000  0.128  0.000  0.000  0.000  0.000  0.000  0.379
 
band     3 # energy   16.38056073 # occ.  0.00000000
 
ion      s     py     pz     px    dxy    dyz    dz2    dxz  x2-y2    tot
    1  0.017  0.001  0.429  0.017  0.000  0.000  0.000  0.000  0.000  0.465
 
band     4 # energy   18.18457423 # occ.  0.00000000
 
ion      s     py     pz     px    dxy    dyz    dz2    dxz  x2-y2    tot
    1  0.000  0.121  0.055  0.120  0.000  0.000  0.000  0.000  0.000  0.296
 
band     5 # energy   20.37445280 # occ.  0.00000000
 
ion      s     py     pz     px    dxy    dyz    dz2    dxz  x2-y2    tot
    1  0.024  0.064  0.000  0.163  0.000  0.000  0.000  0.000  0.000  0.251
 
band     6 # energy   21.79829634 # occ.  0.00000000
 
ion      s     py     pz     px    dxy    dyz    dz2    dxz  x2-y2    tot
    1  0.084  0.137  0.037  0.000  0.000  0.000  0.000  0.000  0.000  0.258
 
band     7 # energy   26.02444807 # occ.  0.00000000
 
ion      s     py     pz     px    dxy    dyz    dz2    dxz  x2-y2    tot
    1  0.039  0.012  0.003  0.049  0.000  0.000  0.000  0.000  0.000  0.103
 
band     8 # energy   27.93627273 # occ.  0.00000000
 
ion      s     py     pz     px    dxy    dyz    dz2    dxz  x2-y2    tot
    1  0.014  0.062  0.004  0.012  0.000  0.000  0.000  0.000  0.000  0.094
 

 k-point    17 :    0.28571429 0.04761905-0.00000000     weight = 0.00518303

band     1 # energy   -1.32786488 # occ.  2.00000000
 
ion      s     py     pz     px    dxy    dyz    dz2    dxz  x2-y2    tot
    1  0.322  0.029  0.001  0.039  0.000  0.000  0.000  0.000  0.000  0.391
 
band     2 # energy    9.86998138 # occ.  1.93098662
 
ion      s     py     pz     px    dxy    dyz    dz2    dxz  x2-y2    tot
    1  0.121  0.138  0.000  0.118  0.000  0.000  0.000  0.000  0.000  0.377
 
band     3 # energy   15.84519741 # occ.  0.00000000
 
ion      s     py     pz     px    dxy    dyz    dz2    dxz  x2-y2    tot
    1  0.019  0.001  0.438  0.015  0.000  0.000  0.000  0.000  0.000  0.474
 
band     4 # energy   17.67033814 # occ.  0.00000000
 
ion      s     py     pz     px    dxy    dyz    dz2    dxz  x2-y2    tot
    1  0.000  0.112  0.058  0.110  0.000  0.000  0.000  0.000  0.000  0.279
 
band     5 # energy   19.89607533 # occ.  0.00000000
 
ion      s     py     pz     px    dxy    dyz    dz2    dxz  x2-y2    tot
    1  0.029  0.067  0.001  0.151  0.000  0.000  0.000  0.000  0.000  0.247
 
band     6 # energy   21.33739905 # occ.  0.00000000
 
ion      s     py     pz     px    dxy    dyz    dz2    dxz  x2-y2    tot
    1  0.103  0.115  0.037  0.001  0.000  0.000  0.000  0.000  0.000  0.256
 
band     7 # energy   26.68874497 # occ.  0.00000000
 
ion      s     py     pz     px    dxy    dyz    dz2    dxz  x2-y2    tot
    1  0.037  0.029  0.002  0.043  0.000  0.000  0.000  0.000  0.000  0.110
 
band     8 # energy   28.72411923 # occ.  0.00000000
 
ion      s     py     pz     px    dxy    dyz    dz2    dxz  x2-y2    tot
    1  0.025  0.045  0.003  0.012  0.000  0.000  0.000  0.000  0.000  0.085
 

 k-point    18 :    0.33333333 0.04761905 0.00000000     weight = 0.00518303

band     1 # energy   -0.36963028 # occ.  2.00000000
 
ion      s     py     pz     px    dxy    dyz    dz2    dxz  x2-y2    tot
    1  0.305  0.037  0.001  0.049  0.000  0.000  0.000  0.000  0.000  0.392
 
band     2 # energy    8.06112557 # occ.  2.00000000
 
ion      s     py     pz     px    dxy    dyz    dz2    dxz  x2-y2    tot