 running on    4 total cores
 distrk:  each k-point on    4 cores,    1 groups
 distr:  one band on    1 cores,    4 groups
 vasp.6.2.0 18Jan21 (build Aug 12 2022 13:00:08) complex                        
  
 POSCAR found type information on POSCAR Si
 POSCAR found :  1 types and       1 ions
 scaLAPACK will be used
 LDA part: xc-table for Pade appr. of Perdew
 POSCAR, INCAR and KPOINTS ok, starting setup
 FFT: planning ...
 WAVECAR not read
 entering main loop
       N       E                     dE             d eps       ncg     rms          rms(c)
DAV:   1    -0.271854421048E+01   -0.27185E+01   -0.16204E+03  4944   0.332E+02
DAV:   2    -0.490773825601E+01   -0.21892E+01   -0.20622E+01  6944   0.274E+01
DAV:   3    -0.491921986192E+01   -0.11482E-01   -0.11474E-01  5000   0.208E+00
DAV:   4    -0.491923108635E+01   -0.11224E-04   -0.11224E-04  7504   0.713E-02
DAV:   5    -0.491923108852E+01   -0.21639E-08   -0.17215E-08  5112   0.577E-04    0.259E+00
DAV:   6    -0.490846852942E+01    0.10763E-01   -0.37885E-03  4888   0.271E-01    0.143E+00
DAV:   7    -0.490238590608E+01    0.60826E-02   -0.75572E-03  4936   0.381E-01    0.132E-01
DAV:   8    -0.490236994967E+01    0.15956E-04   -0.37338E-05  6744   0.471E-02    0.126E-02
DAV:   9    -0.490237061150E+01   -0.66184E-06   -0.44990E-07  5384   0.387E-03
   1 F= -.49023706E+01 E0= -.49020986E+01  d E =-.543962E-03
 writing wavefunctions
