unknown system                          
           1
     1.538666    1.538666    1.538666
     1.538666   -1.538666   -1.538666
    -1.538666    1.538666   -1.538666
   Si
     1
Direct configuration=     1
   0.00000000  0.00000000  0.00000000
