   1   1   0   0
  0.1408159E+02  0.2710538E-09  0.2710538E-09  0.2710538E-09  0.5000000E-15
  1.000000000000000E-004
  CAR 
 unknown system                          
     38.50809448     -6.30462487  301     10.20461640      1.00000000
     -6.305  0.0000E+00  0.0000E+00
     -6.155  0.0000E+00  0.0000E+00
     -6.006  0.0000E+00  0.0000E+00
     -5.856  0.0000E+00  0.0000E+00
     -5.707  0.0000E+00  0.0000E+00
     -5.558  0.0000E+00  0.0000E+00
     -5.408  0.0000E+00  0.0000E+00
     -5.259  0.0000E+00  0.0000E+00
     -5.110  0.0000E+00  0.0000E+00
     -4.960  0.0000E+00  0.0000E+00
     -4.811  0.0000E+00  0.0000E+00
     -4.661  0.0000E+00  0.0000E+00
     -4.512  0.9372E-16  0.1400E-16
     -4.363  0.1423E-06  0.2126E-07
     -4.213  0.4235E-04  0.6347E-05
     -4.064  0.5008E-03  0.8115E-04
     -3.915  0.3279E-03  0.1301E-03
     -3.765  0.1041E-02  0.2856E-03
     -3.616  0.4595E-03  0.3543E-03
     -3.466  0.5180E-03  0.4316E-03
     -3.317  0.1594E-02  0.6697E-03
     -3.168  0.9580E-03  0.8128E-03
     -3.018  0.1252E-02  0.9998E-03
     -2.869  0.3444E-03  0.1051E-02
     -2.720  0.2321E-02  0.1398E-02
     -2.570  0.1128E-02  0.1566E-02
     -2.421  0.1232E-02  0.1750E-02
     -2.271  0.1418E-02  0.1962E-02
     -2.122  0.4591E-03  0.2031E-02
     -1.973  0.2653E-02  0.2427E-02
     -1.823  0.1663E-02  0.2676E-02
     -1.674  0.2990E-02  0.3122E-02
     -1.525  0.2577E-03  0.3161E-02
     -1.375  0.1138E-02  0.3331E-02
     -1.226  0.1967E-02  0.3624E-02
     -1.076  0.1797E-02  0.3893E-02
     -0.927  0.2691E-02  0.4295E-02
     -0.778  0.9741E-03  0.4440E-02
     -0.628  0.4415E-02  0.5100E-02
     -0.479  0.9895E-03  0.5248E-02
     -0.330  0.1910E-02  0.5533E-02
     -0.180  0.5268E-03  0.5612E-02
     -0.031  0.2199E-02  0.5940E-02
      0.119  0.2654E-02  0.6337E-02
      0.268  0.3085E-02  0.6797E-02
      0.417  0.3759E-02  0.7359E-02
      0.567  0.7005E-04  0.7369E-02
      0.716  0.4073E-02  0.7978E-02
      0.865  0.1736E-02  0.8237E-02
      1.015  0.2388E-02  0.8594E-02
      1.164  0.4388E-03  0.8659E-02
      1.314  0.2529E-02  0.9037E-02
      1.463  0.4605E-02  0.9725E-02
      1.612  0.2163E-02  0.1005E-01
      1.762  0.4352E-02  0.1070E-01
      1.911  0.1228E-02  0.1088E-01
      2.060  0.2910E-02  0.1132E-01
      2.210  0.2210E-02  0.1165E-01
      2.359  0.4381E-02  0.1230E-01
      2.509  0.5789E-03  0.1239E-01
      2.658  0.2454E-02  0.1275E-01
      2.807  0.3171E-02  0.1323E-01
      2.957  0.3708E-02  0.1378E-01
      3.106  0.3790E-02  0.1435E-01
      3.255  0.1837E-02  0.1462E-01
      3.405  0.5634E-02  0.1546E-01
      3.554  0.2579E-02  0.1585E-01
      3.704  0.1309E-02  0.1604E-01
      3.853  0.9112E-03  0.1618E-01
      4.002  0.3735E-02  0.1674E-01
      4.152  0.2404E-02  0.1710E-01
      4.301  0.6124E-02  0.1801E-01
      4.450  0.3188E-02  0.1849E-01
      4.600  0.1705E-02  0.1874E-01
      4.749  0.3205E-02  0.1922E-01
      4.899  0.4173E-02  0.1984E-01
      5.048  0.4344E-02  0.2049E-01
      5.197  0.1496E-02  0.2072E-01
      5.347  0.4169E-02  0.2134E-01
      5.496  0.4909E-02  0.2207E-01
      5.645  0.2532E-02  0.2245E-01
      5.795  0.1266E-02  0.2264E-01
      5.944  0.1873E-02  0.2292E-01
      6.094  0.5302E-02  0.2371E-01
      6.243  0.4882E-02  0.2444E-01
      6.392  0.5489E-02  0.2526E-01
      6.542  0.9625E-03  0.2541E-01
      6.691  0.3350E-02  0.2591E-01
      6.840  0.4779E-02  0.2662E-01
      6.990  0.5020E-02  0.2737E-01
      7.139  0.1585E-02  0.2761E-01
      7.289  0.4560E-02  0.2829E-01
      7.438  0.4912E-02  0.2902E-01
      7.587  0.1843E-02  0.2930E-01
      7.737  0.1086E-02  0.2946E-01
      7.886  0.2271E-02  0.2980E-01
      8.035  0.4618E-02  0.3049E-01
      8.185  0.6310E-02  0.3143E-01
      8.334  0.9197E-02  0.3280E-01
      8.484  0.2405E-02  0.3316E-01
      8.633  0.1493E-02  0.3339E-01
      8.782  0.4031E-02  0.3399E-01
      8.932  0.4850E-02  0.3471E-01
      9.081  0.2288E-02  0.3505E-01
      9.230  0.1828E-02  0.3533E-01
      9.380  0.7086E-02  0.3639E-01
      9.529  0.3305E-02  0.3688E-01
      9.679  0.4561E-02  0.3756E-01
      9.828  0.1367E-02  0.3777E-01
      9.977  0.6844E-02  0.3879E-01
     10.127  0.4879E-02  0.3952E-01
     10.276  0.6291E-02  0.4046E-01
     10.425  0.2842E-02  0.4088E-01
     10.575  0.2081E-02  0.4119E-01
     10.724  0.3681E-02  0.4174E-01
     10.874  0.6760E-02  0.4275E-01
     11.023  0.6206E-02  0.4368E-01
     11.172  0.2666E-02  0.4408E-01
     11.322  0.6279E-02  0.4501E-01
     11.471  0.4237E-02  0.4565E-01
     11.620  0.2241E-02  0.4598E-01
     11.770  0.3208E-02  0.4646E-01
     11.919  0.4551E-02  0.4714E-01
     12.069  0.3363E-02  0.4764E-01
     12.218  0.1018E-01  0.4916E-01
     12.367  0.2748E-02  0.4957E-01
     12.517  0.6819E-02  0.5059E-01
     12.666  0.3207E-02  0.5107E-01
     12.815  0.5339E-02  0.5187E-01
     12.965  0.2915E-02  0.5231E-01
     13.114  0.7384E-02  0.5341E-01
     13.264  0.6150E-02  0.5433E-01
     13.413  0.4927E-02  0.5506E-01
     13.562  0.3707E-02  0.5562E-01
     13.712  0.5939E-02  0.5650E-01
     13.861  0.5648E-02  0.5735E-01
     14.010  0.5205E-02  0.5813E-01
     14.160  0.6553E-02  0.5910E-01
     14.309  0.3688E-02  0.5965E-01
     14.459  0.5022E-02  0.6041E-01
     14.608  0.7446E-02  0.6152E-01
     14.757  0.6032E-02  0.6242E-01
     14.907  0.3791E-02  0.6298E-01
     15.056  0.4855E-02  0.6371E-01
     15.205  0.3467E-02  0.6423E-01
     15.355  0.1481E-02  0.6445E-01
     15.504  0.6666E-02  0.6544E-01
     15.654  0.4706E-02  0.6615E-01
     15.803  0.7278E-02  0.6723E-01
     15.952  0.6265E-02  0.6817E-01
     16.102  0.2463E-02  0.6854E-01
     16.251  0.5870E-02  0.6942E-01
     16.400  0.1818E-02  0.6969E-01
     16.550  0.6553E-02  0.7067E-01
     16.699  0.2600E-02  0.7105E-01
     16.849  0.5075E-02  0.7181E-01
     16.998  0.4345E-02  0.7246E-01
     17.147  0.7213E-02  0.7354E-01
     17.297  0.4789E-02  0.7425E-01
     17.446  0.2741E-02  0.7466E-01
     17.595  0.5416E-02  0.7547E-01
     17.745  0.6877E-02  0.7650E-01
     17.894  0.3478E-02  0.7702E-01
     18.044  0.1947E-02  0.7731E-01
     18.193  0.9082E-02  0.7867E-01
     18.342  0.7643E-02  0.7981E-01
     18.492  0.6028E-02  0.8071E-01
     18.641  0.2738E-02  0.8112E-01
     18.790  0.4837E-02  0.8184E-01
     18.940  0.6107E-02  0.8275E-01
     19.089  0.4688E-02  0.8345E-01
     19.239  0.3611E-02  0.8399E-01
     19.388  0.1060E-01  0.8558E-01
     19.537  0.3357E-02  0.8608E-01
     19.687  0.1860E-02  0.8635E-01
     19.836  0.3495E-02  0.8688E-01
     19.986  0.5247E-02  0.8766E-01
     20.135  0.7668E-02  0.8881E-01
     20.284  0.7199E-02  0.8988E-01
     20.434  0.8000E-02  0.9108E-01
     20.583  0.5477E-02  0.9189E-01
     20.732  0.3945E-02  0.9248E-01
     20.882  0.5131E-02  0.9325E-01
     21.031  0.4639E-02  0.9394E-01
     21.181  0.1078E-01  0.9555E-01
     21.330  0.4727E-02  0.9626E-01
     21.479  0.7761E-02  0.9742E-01
     21.629  0.3116E-02  0.9788E-01
     21.778  0.5334E-02  0.9868E-01
     21.927  0.9676E-02  0.1001E+00
     22.077  0.3575E-02  0.1007E+00
     22.226  0.2699E-02  0.1011E+00
     22.376  0.3318E-02  0.1016E+00
     22.525  0.8467E-02  0.1028E+00
     22.674  0.5483E-02  0.1036E+00
     22.824  0.4118E-02  0.1043E+00
     22.973  0.4668E-02  0.1050E+00
     23.122  0.6563E-02  0.1059E+00
     23.272  0.8066E-02  0.1071E+00
     23.421  0.8090E-02  0.1083E+00
     23.571  0.1063E-01  0.1099E+00
     23.720  0.7307E-02  0.1110E+00
     23.869  0.5489E-02  0.1118E+00
     24.019  0.3100E-02  0.1123E+00
     24.168  0.7310E-02  0.1134E+00
     24.317  0.2342E-02  0.1138E+00
     24.467  0.7910E-02  0.1149E+00
     24.616  0.7899E-02  0.1161E+00
     24.766  0.4667E-02  0.1168E+00
     24.915  0.4115E-02  0.1174E+00
     25.064  0.3709E-02  0.1180E+00
     25.214  0.6569E-02  0.1190E+00
     25.363  0.1502E-01  0.1212E+00
     25.512  0.7774E-02  0.1224E+00
     25.662  0.3130E-02  0.1228E+00
     25.811  0.5522E-02  0.1237E+00
     25.961  0.9349E-02  0.1251E+00
     26.110  0.5648E-02  0.1259E+00
     26.259  0.6546E-02  0.1269E+00
     26.409  0.4207E-02  0.1275E+00
     26.558  0.9236E-02  0.1289E+00
     26.707  0.6387E-02  0.1298E+00
     26.857  0.2993E-02  0.1303E+00
     27.006  0.4194E-02  0.1309E+00
     27.156  0.4052E-02  0.1315E+00
     27.305  0.8258E-02  0.1328E+00
     27.454  0.8118E-02  0.1340E+00
     27.604  0.9114E-02  0.1353E+00
     27.753  0.7182E-02  0.1364E+00
     27.902  0.2813E-02  0.1368E+00
     28.052  0.4109E-02  0.1374E+00
     28.201  0.8132E-02  0.1386E+00
     28.351  0.7575E-02  0.1398E+00
     28.500  0.4209E-02  0.1404E+00
     28.649  0.1833E-02  0.1407E+00
     28.799  0.1090E-02  0.1408E+00
     28.948  0.8014E-02  0.1420E+00
     29.097  0.5625E-02  0.1429E+00
     29.247  0.5646E-02  0.1437E+00
     29.396  0.3799E-02  0.1443E+00
     29.546  0.1761E-02  0.1446E+00
     29.695  0.9180E-02  0.1459E+00
     29.844  0.9367E-02  0.1473E+00
     29.994  0.6441E-02  0.1483E+00
     30.143  0.4936E-02  0.1490E+00
     30.292  0.3255E-02  0.1495E+00
     30.442  0.3297E-02  0.1500E+00
     30.591  0.2521E-02  0.1504E+00
     30.741  0.6558E-02  0.1514E+00
     30.890  0.3252E-02  0.1518E+00
     31.039  0.2899E-02  0.1523E+00
     31.189  0.3208E-02  0.1528E+00
     31.338  0.4871E-02  0.1535E+00
     31.487  0.4915E-02  0.1542E+00
     31.637  0.2920E-02  0.1547E+00
     31.786  0.7154E-04  0.1547E+00
     31.936  0.1032E-02  0.1548E+00
     32.085  0.5440E-02  0.1556E+00
     32.234  0.1087E-02  0.1558E+00
     32.384  0.7262E-03  0.1559E+00
     32.533  0.2029E-02  0.1562E+00
     32.682  0.8173E-03  0.1563E+00
     32.832  0.3354E-02  0.1568E+00
     32.981  0.2938E-02  0.1573E+00
     33.131  0.1390E-02  0.1575E+00
     33.280  0.9754E-03  0.1576E+00
     33.429  0.1892E-02  0.1579E+00
     33.579  0.1701E-02  0.1582E+00
     33.728  0.2431E-02  0.1585E+00
     33.877  0.5164E-03  0.1586E+00
     34.027  0.1976E-02  0.1589E+00
     34.176  0.1989E-04  0.1589E+00
     34.326  0.6428E-03  0.1590E+00
     34.475  0.1274E-02  0.1592E+00
     34.624  0.4582E-03  0.1593E+00
     34.774  0.3754E-04  0.1593E+00
     34.923  0.1049E-02  0.1594E+00
     35.072  0.1165E-03  0.1594E+00
     35.222  0.1960E-02  0.1597E+00
     35.371  0.1777E-03  0.1598E+00
     35.521  0.8847E-03  0.1599E+00
     35.670  0.6439E-04  0.1599E+00
     35.819  0.5112E-11  0.1599E+00
     35.969  0.5852E-08  0.1599E+00
     36.118  0.2392E-03  0.1599E+00
     36.267  0.2368E-03  0.1600E+00
     36.417  0.1482E-04  0.1600E+00
     36.566  0.2224E-03  0.1600E+00
     36.716  0.8539E-06  0.1600E+00
     36.865  0.5623E-15  0.1600E+00
     37.014  0.0000E+00  0.1600E+00
     37.164  0.0000E+00  0.1600E+00
     37.313  0.0000E+00  0.1600E+00
     37.462  0.0000E+00  0.1600E+00
     37.612  0.0000E+00  0.1600E+00
     37.761  0.0000E+00  0.1600E+00
     37.911  0.0000E+00  0.1600E+00
     38.060  0.0000E+00  0.1600E+00
     38.209  0.0000E+00  0.1600E+00
     38.359  0.0000E+00  0.1600E+00
     38.508  0.0000E+00  0.1600E+00
