    1    1  100    1
  0.1408159E+02  0.2710538E-09  0.2710538E-09  0.2710538E-09  0.5000000E-15
  1.000000000000000E-004
  CAR 
 unknown system                          
      4    120      8
 
  0.0000000E+00  0.0000000E+00  0.0000000E+00  0.2962963E-03
    1       -4.267683   1.000000
    2       21.411735   0.000000
    3       21.411742   0.000000
    4       21.411750   0.000000
    5       22.208587   0.000000
    6       22.208596   0.000000
    7       22.208605   0.000000
    8       27.520223   0.000000
 
  0.6666667E-01 -0.6938894E-17  0.0000000E+00  0.2370370E-02
    1       -4.137866   1.000000
    2       19.259000   0.000000
    3       20.742600   0.000000
    4       20.742612   0.000000
    5       23.037720   0.000000
    6       23.037735   0.000000
    7       23.252976   0.000000
    8       28.455894   0.000000
 
  0.1333333E+00  0.0000000E+00  0.0000000E+00  0.2370370E-02
    1       -3.748904   1.000000
    2       16.423576   0.000000
    3       19.978721   0.000000
    4       19.978732   0.000000
    5       23.540515   0.000000
    6       24.134907   0.000000
    7       24.134921   0.000000
    8       27.416854   0.000000
 
  0.2000000E+00  0.0000000E+00  0.0000000E+00  0.2370370E-02
    1       -3.102362   1.000000
    2       13.586502   0.000000
    3       19.398960   0.000000
    4       19.398969   0.000000
    5       23.471770   0.000000
    6       24.359215   0.000000
    7       24.359225   0.000000
    8       27.396373   0.000000
 
  0.2666667E+00  0.0000000E+00  0.0000000E+00  0.2370370E-02
    1       -2.200923   1.000000
    2       10.878171   0.000000
    3       19.018879   0.000000
    4       19.018887   0.000000
    5       23.377552   0.000000
    6       23.469873   0.000000
    7       23.469882   0.000000
    8       28.756672   0.000000
 
  0.3333333E+00  0.0000000E+00  0.0000000E+00  0.2370370E-02
    1       -1.048466   1.000000
    2        8.349329   1.000000
    3       18.826466   0.000000
    4       18.826473   0.000000
    5       22.466416   0.000000
    6       22.466426   0.000000
    7       23.376310   0.000000
    8       27.591843   0.000000
 
  0.4000000E+00 -0.2775558E-16  0.0000000E+00  0.2370370E-02
    1        0.347343   1.000000
    2        6.023266   1.000000
    3       18.783540   0.000000
    4       18.783545   0.000000
    5       21.656928   0.000000
    6       21.656940   0.000000
    7       23.454763   0.000000
    8       26.665461   0.000000
 
  0.4666667E+00  0.0000000E+00  0.0000000E+00  0.2370370E-02
    1        1.957945   1.000000
    2        3.947475   1.000000
    3       18.813306   0.000000
    4       18.813309   0.000000
    5       21.190549   0.000000
    6       21.190562   0.000000
    7       23.569453   0.000000
    8       26.120517   0.000000
 
  0.6666667E-01  0.6666667E-01  0.0000000E+00  0.1777778E-02
    1       -4.094607   1.000000
    2       19.737086   0.000000
    3       19.737087   0.000000
    4       21.008850   0.000000
    5       21.283629   0.000000
    6       24.102028   0.000000
    7       24.102028   0.000000
    8       27.325824   0.000000
 
  0.1333333E+00  0.6666667E-01  0.0000000E+00  0.7111111E-02
    1       -3.792057   1.000000
    2       17.432687   0.000000
    3       18.893504   0.000000
    4       20.452084   0.000000
    5       21.824279   0.000000
    6       24.822735   0.000000
    7       25.256615   0.000000
    8       25.851446   0.000000
 
  0.2000000E+00  0.6666667E-01  0.0000000E+00  0.7111111E-02
    1       -3.231415   1.000000
    2       14.611460   0.000000
    3       18.254904   0.000000
    4       19.818727   0.000000
    5       22.516581   0.000000
    6       24.618946   0.000000
    7       25.381897   0.000000
    8       25.873450   0.000000
 
  0.2666667E+00  0.6666667E-01  0.0000000E+00  0.7111111E-02
    1       -2.414997   1.000000
    2       11.863164   0.000000
    3       17.831910   0.000000
    4       19.305978   0.000000
    5       21.957022   0.000000
    6       24.458763   0.000000
    7       25.218755   0.000000
    8       26.416257   0.000000
 
  0.3333333E+00  0.6666667E-01  0.0000000E+00  0.7111111E-02
    1       -1.346323   1.000000
    2        9.274837   1.000000
    3       17.626011   0.000000
    4       18.869967   0.000000
    5       21.083603   0.000000
    6       24.183240   0.000000
    7       24.438389   0.000000
    8       28.013924   0.000000
 
  0.4000000E+00  0.6666667E-01  0.0000000E+00  0.7111111E-02
    1       -0.031054   1.000000
    2        6.880563   1.000000
    3       17.631660   0.000000
    4       18.395481   0.000000
    5       20.562146   0.000000
    6       23.219366   0.000000
    7       24.453610   0.000000
    8       27.890906   0.000000
 
  0.4666667E+00  0.6666667E-01  0.0000000E+00  0.7111111E-02
    1        1.516195   1.000000
    2        4.714828   1.000000
    3       17.841113   0.000000
    4       17.855638   0.000000
    5       20.522742   0.000000
    6       22.453131   0.000000
    7       24.478716   0.000000
    8       27.349645   0.000000
 
 -0.4666667E+00  0.6666667E-01  0.0000000E+00  0.7111111E-02
    1        2.590503   1.000000
    2        3.485588   1.000000
    3       17.366532   0.000000
    4       18.231460   0.000000
    5       20.873968   0.000000
    6       21.930168   0.000000
    7       24.415806   0.000000
    8       27.262237   0.000000
 
 -0.4000000E+00  0.6666667E-01  0.0000000E+00  0.7111111E-02
    1        0.976910   1.000000
    2        5.408863   1.000000
    3       17.023462   0.000000
    4       18.758693   0.000000
    5       21.520084   0.000000
    6       21.702632   0.000000
    7       24.263461   0.000000
    8       27.660776   0.000000
 
 -0.3333333E+00  0.6666667E-01  0.0000000E+00  0.7111111E-02
    1       -0.496298   1.000000
    2        7.655906   1.000000
    3       16.873482   0.000000
    4       19.341431   0.000000
    5       21.849370   0.000000
    6       22.412180   0.000000
    7       24.133305   0.000000
    8       28.395887   0.000000
 
 -0.2666667E+00  0.6666667E-01  0.0000000E+00  0.7111111E-02
    1       -1.730372   1.000000
    2       10.116713   0.993546
    3       16.933314   0.000000
    4       19.896209   0.000000
    5       22.417002   0.000000
    6       23.491496   0.000000
    7       24.077630   0.000000
    8       28.088855   0.000000
 
 -0.2000000E+00  0.6666667E-01  0.0000000E+00  0.7111111E-02
    1       -2.715356   1.000000
    2       12.762208   0.000000
    3       17.210849   0.000000
    4       20.437545   0.000000
    5       23.219266   0.000000
    6       24.085408   0.000000
    7       24.643571   0.000000
    8       26.404170   0.000000
 
 -0.1333333E+00  0.6666667E-01  0.0000000E+00  0.7111111E-02
    1       -3.446835   1.000000
    2       15.547570   0.000000
    3       17.707175   0.000000
    4       21.033100   0.000000
    5       23.324927   0.000000
    6       24.036208   0.000000
    7       25.266571   0.000000
    8       25.968081   0.000000
 
 -0.6666667E-01  0.6666667E-01  0.0000000E+00  0.3555556E-02
    1       -3.921698   1.000000
    2       18.256996   0.000000
    3       18.514986   0.000000
    4       21.492349   0.000000
    5       22.544204   0.000000
    6       23.670475   0.000000
    7       24.568414   0.000000
    8       27.082628   0.000000
 
  0.1333333E+00  0.1333333E+00  0.0000000E+00  0.1777778E-02
    1       -3.576113   1.000000
    2       17.977437   0.000000
    3       17.977438   0.000000
    4       19.626733   0.000000
    5       19.937457   0.000000
    6       24.042376   0.000000
    7       26.490629   0.000000
    8       26.490630   0.000000
 
  0.2000000E+00  0.1333333E+00  0.0000000E+00  0.7111111E-02
    1       -3.102057   1.000000
    2       15.778972   0.000000
    3       17.267382   0.000000
    4       19.085532   0.000000
    5       20.196968   0.000000
    6       22.724560   0.000000
    7       27.211785   0.000000
    8       27.453074   0.000000
 
  0.2666667E+00  0.1333333E+00  0.0000000E+00  0.7111111E-02
    1       -2.371737   1.000000
    2       13.054103   0.000000
    3       16.776867   0.000000
    4       18.370962   0.000000
    5       20.089459   0.000000
    6       23.078816   0.000000
    7       27.189421   0.000000
    8       27.390955   0.000000
 
  0.3333333E+00  0.1333333E+00  0.0000000E+00  0.7111111E-02
    1       -1.388220   1.000000
    2       10.427215   0.000000
    3       16.506720   0.000000
    4       17.546909   0.000000
    5       19.488797   0.000000
    6       24.561366   0.000000
    7       26.225165   0.000000
    8       27.555171   0.000000
 
  0.4000000E+00  0.1333333E+00  0.0000000E+00  0.7111111E-02
    1       -0.156224   1.000000
    2        7.976256   1.000000
    3       16.458180   0.000000
    4       16.635537   0.000000
    5       19.242080   0.000000
    6       25.236183   0.000000
    7       25.833840   0.000000
    8       28.248199   0.000000
 
  0.4666667E+00  0.1333333E+00  0.0000000E+00  0.7111111E-02
    1        1.314923   1.000000
    2        5.735542   1.000000
    3       15.790815   0.000000
    4       16.629203   0.000000
    5       19.347852   0.000000
    6       24.387693   0.000000
    7       26.211648   0.000000
    8       29.739119   0.000000
 
 -0.4666667E+00  0.1333333E+00  0.0000000E+00  0.7111111E-02
    1        2.929552   1.000000
    2        3.812106   1.000000
    3       15.108511   0.000000
    4       17.015550   0.000000
    5       19.741917   0.000000
    6       23.742456   0.000000
    7       26.120068   0.000000
    8       29.853024   0.000000
 
 -0.4000000E+00  0.1333333E+00  0.0000000E+00  0.7111111E-02
    1        1.853607   1.000000
    2        5.041746   1.000000
    3       14.631571   0.000000
    4       17.605151   0.000000
    5       20.392147   0.000000
    6       23.318799   0.000000
    7       25.885785   0.000000
    8       30.161383   0.000000
 
 -0.3333333E+00  0.1333333E+00  0.0000000E+00  0.7111111E-02
    1        0.308143   1.000000
    2        7.201791   1.000000
    3       14.375914   0.000000
    4       18.380243   0.000000
    5       21.278370   0.000000
    6       23.142412   0.000000
    7       25.654435   0.000000
    8       29.731665   0.000000
 
 -0.2666667E+00  0.1333333E+00  0.0000000E+00  0.7111111E-02
    1       -1.005042   1.000000
    2        9.582389   1.000000
    3       14.350294   0.000000
    4       19.303440   0.000000
    5       22.368942   0.000000
    6       23.234747   0.000000
    7       25.468341   0.000000
    8       27.563467   0.000000
 
 -0.2000000E+00  0.1333333E+00  0.0000000E+00  0.7111111E-02
    1       -2.072070   1.000000
    2       12.137996   0.000000
    3       14.568570   0.000000
    4       20.292674   0.000000
    5       23.583479   0.000000
    6       23.614813   0.000000
    7       25.248027   0.000000
    8       25.680064   0.000000
 
 -0.1333333E+00  0.1333333E+00  0.0000000E+00  0.3555556E-02
    1       -2.887145   1.000000
    2       14.605121   0.000000
    3       15.250154   0.000000
    4       21.132357   0.000000
    5       23.547631   0.000000
    6       24.802624   0.000000
    7       24.835765   0.000000
    8       24.951147   0.000000
 
  0.2000000E+00  0.2000000E+00  0.0000000E+00  0.1777778E-02
    1       -2.714837   1.000000
    2       16.484715   0.000000
    3       16.484715   0.000000
    4       18.046453   0.000000
    5       18.185724   0.000000
    6       21.025284   0.000000
    7       28.930576   0.000000
    8       28.930576   0.000000
 
  0.2666667E+00  0.2000000E+00  0.0000000E+00  0.7111111E-02
    1       -2.071391   1.000000
    2       14.386023   0.000000
    3       15.920190   0.000000
    4       17.035609   0.000000
    5       18.305945   0.000000
    6       20.590518   0.000000
    7       29.247680   0.000000
    8       29.666532   0.000000
 
  0.3333333E+00  0.2000000E+00  0.0000000E+00  0.7111111E-02
    1       -1.174231   1.000000
    2       11.784257   0.000000
    3       15.578286   0.000000
    4       15.807144   0.000000
    5       18.211050   0.000000
    6       21.860017   0.000000
    7       28.442297   0.000000
    8       29.832246   0.000000
 
  0.4000000E+00  0.2000000E+00  0.0000000E+00  0.7111111E-02
    1       -0.027689   1.000000
    2        9.296164   1.000000
    3       14.633409   0.000000
    4       15.460096   0.000000
    5       18.094084   0.000000
    6       23.760384   0.000000
    7       27.471918   0.000000
    8       29.745848   0.000000
 
  0.4666667E+00  0.2000000E+00  0.0000000E+00  0.7111111E-02
    1        1.361807   1.000000
    2        6.996949   1.000000
    3       13.624615   0.000000
    4       15.566977   0.000000
    5       18.206796   0.000000
    6       25.785805   0.000000
    7       26.599402   0.000000
    8       29.625582   0.000000
 
 -0.4666667E+00  0.2000000E+00  0.0000000E+00  0.7111111E-02
    1        2.967259   1.000000
    2        4.930562   1.000000
    3       12.820252   0.000000
    4       15.893930   0.000000
    5       18.565314   0.000000
    6       25.884154   0.000000
    7       27.314734   0.000000
    8       29.929888   0.000000
 
 -0.4000000E+00  0.2000000E+00  0.0000000E+00  0.7111111E-02
    1        2.967844   1.000000
    2        4.927485   1.000000
    3       12.241797   0.000000
    4       16.439926   0.000000
    5       19.171799   0.000000
    6       25.377620   0.000000
    7       27.628193   0.000000
    8       31.125496   0.000000
 
 -0.3333333E+00  0.2000000E+00  0.0000000E+00  0.7111111E-02
    1        1.361443   1.000000
    2        6.985818   1.000000
    3       11.900377   0.000000
    4       17.193844   0.000000
    5       20.009427   0.000000
    6       25.089663   0.000000
    7       27.388262   0.000000
    8       29.546281   0.000000
 
 -0.2666667E+00  0.2000000E+00  0.0000000E+00  0.7111111E-02
    1       -0.028179   1.000000
    2        9.258592   1.000000
    3       11.817980   0.000000
    4       18.139987   0.000000
    5       21.064251   0.000000
    6       25.033616   0.000000
    7       26.978606   0.000000
    8       27.274179   0.000000
 
 -0.2000000E+00  0.2000000E+00  0.0000000E+00  0.3555556E-02
    1       -1.175153   1.000000
    2       11.418033   0.000000
    3       12.280233   0.000000
    4       19.232097   0.000000
    5       22.298523   0.000000
    6       25.196739   0.000000
    7       25.245309   0.000000
    8       26.298460   0.000000
 
  0.2666667E+00  0.2666667E+00  0.0000000E+00  0.1777778E-02
    1       -1.515160   1.000000
    2       15.281495   0.000000
    3       15.281496   0.000000
    4       15.453179   0.000000
    5       16.723123   0.000000
    6       19.171600   0.000000
    7       31.264733   0.000000
    8       31.264733   0.000000
 
  0.3333333E+00  0.2666667E+00  0.0000000E+00  0.7111111E-02
    1       -0.705295   1.000000
    2       13.244775   0.000000
    3       14.070042   0.000000
    4       14.865223   0.000000
    5       17.038889   0.000000
    6       19.358197   0.000000
    7       30.741626   0.000000
    8       31.947731   0.000000
 
  0.4000000E+00  0.2666667E+00  0.0000000E+00  0.7111111E-02
    1        0.354516   1.000000
    2       10.808162   0.000000
    3       12.721930   0.000000
    4       14.674493   0.000000
    5       17.136735   0.000000
    6       20.974722   0.000000
    7       29.859154   0.000000
    8       31.963886   0.000000
 
  0.4666667E+00  0.2666667E+00  0.0000000E+00  0.7111111E-02
    1        1.658372   1.000000
    2        8.477423   1.000000
    3       11.583042   0.000000
    4       14.708159   0.000000
    5       17.243626   0.000000
    6       23.110248   0.000000
    7       28.974778   0.000000
    8       31.584108   0.000000
 
 -0.4666667E+00  0.2666667E+00  0.0000000E+00  0.7111111E-02
    1        3.192522   1.000000
    2        6.342140   1.000000
    3       10.673580   0.000000
    4       14.966792   0.000000
    5       17.552448   0.000000
    6       25.432951   0.000000
    7       28.227313   0.000000
    8       31.028508   0.000000
 
 -0.4000000E+00  0.2666667E+00  0.0000000E+00  0.7111111E-02
    1        4.276396   1.000000
    2        5.098166   1.000000
    3       10.004403   1.000000
    4       15.447141   0.000000
    5       18.093773   0.000000
    6       27.648750   0.000000
    7       27.684876   0.000000
    8       30.423009   0.000000
 
 -0.3333333E+00  0.2666667E+00  0.0000000E+00  0.7111111E-02
    1        2.657600   1.000000
    2        6.986386   1.000000
    3        9.603331   1.000000
    4       16.146664   0.000000
    5       18.874836   0.000000
    6       27.272736   0.000000
    7       29.011853   0.000000
    8       29.613185   0.000000
 
 -0.2666667E+00  0.2666667E+00  0.0000000E+00  0.3555556E-02
    1        1.195522   1.000000
    2        8.832203   1.000000
    3        9.780603   1.000000
    4       17.052301   0.000000
    5       19.873882   0.000000
    6       26.911364   0.000000
    7       27.466572   0.000000
    8       28.303817   0.000000
 
  0.3333333E+00  0.3333333E+00  0.0000000E+00  0.1777778E-02
    1        0.016751   1.000000
    2       12.343088   0.000000
    3       14.374718   0.000000
    4       14.374719   0.000000
    5       15.711212   0.000000
    6       18.097034   0.000000
    7       32.674539   0.000000
    8       33.379262   0.000000
 
  0.4000000E+00  0.3333333E+00  0.0000000E+00  0.7111111E-02
    1        0.988083   1.000000
    2       10.882703   0.000000
    3       12.557441   0.000000
    4       14.109315   0.000000
    5       16.194442   0.000000
    6       18.557555   0.000000
    7       32.239772   0.000000
    8       33.918337   0.000000
 
  0.4666667E+00  0.3333333E+00  0.0000000E+00  0.7111111E-02
    1        2.203245   1.000000
    2        9.574763   1.000000
    3       10.317683   0.000692
    4       14.069665   0.000000
    5       16.459161   0.000000
    6       20.381933   0.000000
    7       31.436921   0.000000
    8       33.683364   0.000000
 
 -0.4666667E+00  0.3333333E+00  0.0000000E+00  0.7111111E-02
    1        3.650428   1.000000
    2        7.910735   1.000000
    3        8.802199   1.000000
    4       14.255423   0.000000
    5       16.741599   0.000000
    6       22.700384   0.000000
    7       30.675847   0.000000
    8       32.999052   0.000000
 
 -0.4000000E+00  0.3333333E+00  0.0000000E+00  0.7111111E-02
    1        5.254186   1.000000
    2        6.030006   1.000000
    3        8.015851   1.000000
    4       14.666198   0.000000
    5       17.225956   0.000000
    6       25.214955   0.000000
    7       30.029609   0.000000
    8       32.031180   0.000000
 
 -0.3333333E+00  0.3333333E+00  0.0000000E+00  0.3555556E-02
    1        4.184569   1.000000
    2        6.882458   1.000000
    3        7.859492   1.000000
    4       15.297935   0.000000
    5       17.936920   0.000000
    6       27.729820   0.000000
    7       29.255025   0.000000
    8       30.276779   0.000000
 
  0.4000000E+00  0.4000000E+00  0.0000000E+00  0.1777778E-02
    1        1.869335   1.000000
    2        9.349276   1.000000
    3       13.769202   0.000000
    4       13.769203   0.000000
    5       15.030905   0.000000
    6       17.433441   0.000000
    7       33.933690   0.000000
    8       35.200232   0.000000
 
  0.4666667E+00  0.4000000E+00  0.0000000E+00  0.7111111E-02
    1        2.990913   1.000000
    2        8.023131   1.000000
    3       12.065405   0.000000
    4       13.655025   0.000000
    5       15.690931   0.000000
    6       18.084705   0.000000
    7       33.707629   0.000000
    8       35.467771   0.000000
 
 -0.4666667E+00  0.4000000E+00  0.0000000E+00  0.7111111E-02
    1        4.329397   1.000000
    2        6.944916   1.000000
    3        9.911412   1.000000
    4       13.766874   0.000000
    5       16.120639   0.000000
    6       20.082146   0.000000
    7       33.004210   0.000000
    8       34.838196   0.000000
 
 -0.4000000E+00  0.4000000E+00  0.0000000E+00  0.3555556E-02
    1        5.581191   1.000000
    2        6.384348   1.000000
    3        7.941669   1.000000
    4       14.104535   0.000000
    5       16.576327   0.000000
    6       22.562061   0.000000
    7       32.018192   0.000000
    8       33.417876   0.000000
 
  0.4666667E+00  0.4666667E+00  0.0000000E+00  0.1777778E-02
    1        4.001199   1.000000
    2        6.631301   1.000000
    3       13.466050   0.000000
    4       13.466051   0.000000
    5       14.691413   0.000000
    6       17.108785   0.000000
    7       34.916280   0.000000
    8       36.471153   0.000000
 
 -0.4666667E+00  0.4666667E+00  0.0000000E+00  0.3555556E-02
    1        4.929532   1.000000
    2        5.789795   1.000000
    3       11.903794   0.000000
    4       13.503204   0.000000
    5       15.522259   0.000000
    6       17.924575   0.000000
    7       34.543013   0.000000
    8       36.117856   0.000000
 
  0.2000000E+00  0.1333333E+00  0.6666667E-01  0.7111111E-02
    1       -3.403646   1.000000
    2       16.453300   0.000000
    3       16.871540   0.000000
    4       20.781585   0.000000
    5       21.403387   0.000000
    6       24.379482   0.000000
    7       25.743875   0.000000
    8       26.115621   0.000000
 
  0.2666667E+00  0.1333333E+00  0.6666667E-01  0.1422222E-01
    1       -2.758148   1.000000
    2       13.856051   0.000000
    3       16.136407   0.000000
    4       20.132924   0.000000
    5       21.837939   0.000000
    6       23.920760   0.000000
    7       25.963360   0.000000
    8       26.191844   0.000000
 
  0.3333333E+00  0.1333333E+00  0.6666667E-01  0.1422222E-01
    1       -1.858198   1.000000
    2       11.180676   0.000000
    3       15.778086   0.000000
    4       19.260151   0.000000
    5       21.398534   0.000000
    6       24.494210   0.000000
    7       25.426290   0.000000
    8       26.585243   0.000000
 
  0.4000000E+00  0.1333333E+00  0.6666667E-01  0.1422222E-01
    1       -0.707687   1.000000
    2        8.664511   1.000000
    3       15.647171   0.000000
    4       18.321096   0.000000
    5       21.071541   0.000000
    6       23.727354   0.000000
    7       25.690813   0.000000
    8       27.974734   0.000000
 
  0.4666667E+00  0.1333333E+00  0.6666667E-01  0.1422222E-01
    1        0.686235   1.000000
    2        6.348383   1.000000
    3       15.730994   0.000000
    4       17.455002   0.000000
    5       21.030522   0.000000
    6       22.850657   0.000000
    7       25.839569   0.000000
    8       29.371262   0.000000
 
 -0.4666667E+00  0.1333333E+00  0.6666667E-01  0.1422222E-01
    1        2.295519   1.000000
    2        4.276004   1.000000
    3       15.975293   0.000000
    4       16.802682   0.000000
    5       21.170332   0.000000
    6       22.242442   0.000000
    7       25.931240   0.000000
    8       29.104916   0.000000
 
  0.2666667E+00  0.2000000E+00  0.6666667E-01  0.7111111E-02
    1       -2.543204   1.000000
    2       14.896178   0.000000
    3       15.398837   0.000000
    4       18.785834   0.000000
    5       19.924546   0.000000
    6       21.805931   0.000000
    7       27.697721   0.000000
    8       28.347080   0.000000
 
  0.3333333E+00  0.2000000E+00  0.6666667E-01  0.1422222E-01
    1       -1.729459   1.000000
    2       12.438954   0.000000
    3       14.772852   0.000000
    4       17.612912   0.000000
    5       20.141484   0.000000
    6       22.495696   0.000000
    7       26.965655   0.000000
    8       28.808322   0.000000
 
  0.4000000E+00  0.2000000E+00  0.6666667E-01  0.1422222E-01
    1       -0.664208   1.000000
    2        9.896520   1.000000
    3       14.546747   0.000000
    4       16.421430   0.000000
    5       19.997661   0.000000
    6       24.136343   0.000000
    7       26.048558   0.000000
    8       28.951286   0.000000
 
  0.4666667E+00  0.2000000E+00  0.6666667E-01  0.1422222E-01
    1        0.646977   1.000000
    2        7.525096   1.000000
    3       14.504941   0.000000
    4       15.429176   0.000000
    5       20.020987   0.000000
    6       24.695173   0.000000
    7       26.418309   0.000000
    8       29.159409   0.000000
 
 -0.4666667E+00  0.2000000E+00  0.6666667E-01  0.1422222E-01
    1        2.190054   1.000000
    2        5.368900   1.000000
    3       14.255336   0.000000
    4       15.070644   0.000000
    5       20.269587   0.000000
    6       24.021097   0.000000
    7       27.570539   0.000000
    8       29.956527   0.000000
 
 -0.4000000E+00  0.2000000E+00  0.6666667E-01  0.1422222E-01
    1        3.267820   1.000000
    2        4.137067   1.000000
    3       13.702645   0.000000
    4       15.462778   0.000000
    5       20.735456   0.000000
    6       23.460139   0.000000
    7       27.772968   0.000000
    8       31.100558   0.000000
 
 -0.3333333E+00  0.2000000E+00  0.6666667E-01  0.1422222E-01
    1        1.651944   1.000000
    2        6.058547   1.000000
    3       13.303243   0.000000
    4       16.154044   0.000000
    5       21.387997   0.000000
    6       23.138791   0.000000
    7       27.516840   0.000000
    8       29.911503   0.000000
 
 -0.2666667E+00  0.2000000E+00  0.6666667E-01  0.1422222E-01
    1        0.182856   1.000000
    2        8.287506   1.000000
    3       13.126498   0.000000
    4       17.064905   0.000000
    5       22.103327   0.000000
    6       23.157471   0.000000
    7       26.720910   0.000000
    8       28.380855   0.000000
 
 -0.2000000E+00  0.2000000E+00  0.6666667E-01  0.1422222E-01
    1       -1.047206   1.000000
    2       10.703975   0.000000
    3       13.198413   0.000000
    4       18.159751   0.000000
    5       22.607486   0.000000
    6       23.622936   0.000000
    7       25.249043   0.000000
    8       27.736381   0.000000
 
 -0.1333333E+00  0.2000000E+00  0.6666667E-01  0.7111111E-02
    1       -2.029104   1.000000
    2       13.019484   0.000000
    3       13.772961   0.000000
    4       19.349855   0.000000
    5       22.648933   0.000000
    6       23.395212   0.000000
    7       25.204996   0.000000
    8       27.141529   0.000000
 
  0.3333333E+00  0.2666667E+00  0.6666667E-01  0.7111111E-02
    1       -1.344638   1.000000
    2       13.634556   0.000000
    3       14.147011   0.000000
    4       15.831974   0.000000
    5       18.674919   0.000000
    6       20.292202   0.000000
    7       29.076703   0.000000
    8       30.912229   0.000000
 
  0.4000000E+00  0.2666667E+00  0.6666667E-01  0.1422222E-01
    1       -0.365890   1.000000
    2       11.318581   0.000000
    3       13.603744   0.000000
    4       14.545777   0.000000
    5       18.994867   0.000000
    6       21.479595   0.000000
    7       28.213373   0.000000
    8       31.361609   0.000000
 
  0.4666667E+00  0.2666667E+00  0.6666667E-01  0.1422222E-01
    1        0.859915   1.000000
    2        8.922705   1.000000
    3       13.049434   0.000000
    4       13.853103   0.000000
    5       19.052354   0.000000
    6       23.457802   0.000000
    7       27.303602   0.000000
    8       31.268332   0.000000
 
 -0.4666667E+00  0.2666667E+00  0.6666667E-01  0.1422222E-01
    1        2.323535   1.000000
    2        6.707637   1.000000
    3       12.173300   0.000000
    4       13.938589   0.000000
    5       19.271097   0.000000
    6       25.425436   0.000000
    7       26.735492   0.000000
    8       30.916684   0.000000
 
 -0.4000000E+00  0.2666667E+00  0.6666667E-01  0.1422222E-01
    1        3.939618   1.000000
    2        4.784987   1.000000
    3       11.447951   0.000000
    4       14.338046   0.000000
    5       19.706901   0.000000
    6       25.561806   0.000000
    7       28.119929   0.000000
    8       30.303237   0.000000
 
 -0.3333333E+00  0.2666667E+00  0.6666667E-01  0.1422222E-01
    1        2.860237   1.000000
    2        6.009850   1.000000
    3       10.950192   0.000000
    4       14.980778   0.000000
    5       20.360727   0.000000
    6       25.165498   0.000000
    7       28.870188   0.000000
    8       29.753624   0.000000
 
 -0.2666667E+00  0.2666667E+00  0.6666667E-01  0.1422222E-01
    1        1.321396   1.000000
    2        8.124433   1.000000
    3       10.712357   0.000000
    4       15.850863   0.000000
    5       21.216341   0.000000
    6       24.919461   0.000000
    7       26.997316   0.000000
    8       29.709574   0.000000
 
 -0.2000000E+00  0.2666667E+00  0.6666667E-01  0.7111111E-02
    1        0.014590   1.000000
    2       10.128228   0.984636
    3       11.035282   0.000000
    4       16.926697   0.000000
    5       22.223294   0.000000
    6       24.546015   0.000000
    7       25.299934   0.000000
    8       28.962519   0.000000
 
  0.4000000E+00  0.3333333E+00  0.6666667E-01  0.7111111E-02
    1        0.185665   1.000000
    2       12.398830   0.000000
    3       12.681570   0.000000
    4       13.485524   0.000000
    5       17.715758   0.000000
    6       19.328907   0.000000
    7       30.520871   0.000000
    8       33.212271   0.000000
 
  0.4666667E+00  0.3333333E+00  0.6666667E-01  0.1422222E-01
    1        1.323991   1.000000
    2       10.459417   0.000000
    3       11.285335   0.000000
    4       13.034649   0.000000
    5       18.195481   0.000000
    6       20.753891   0.000000
    7       29.705376   0.000000
    8       33.454221   0.000000
 
 -0.4666667E+00  0.3333333E+00  0.6666667E-01  0.1422222E-01
    1        2.701899   1.000000
    2        8.253306   1.000000
    3       10.201113   0.539468
    4       13.105978   0.000000
    5       18.425528   0.000000
    6       22.940044   0.000000
    7       28.882368   0.000000
    8       32.854176   0.000000
 