       N       E                     dE             d eps       ncg     rms          rms(c)
DAV:   1    -0.365800632743E+01   -0.36580E+01   -0.13851E+03  2152   0.250E+02
DAV:   2    -0.489062427171E+01   -0.12326E+01   -0.11648E+01  2928   0.202E+01
DAV:   3    -0.489560133780E+01   -0.49771E-02   -0.49767E-02  2128   0.129E+00
DAV:   4    -0.489560418191E+01   -0.28441E-05   -0.28438E-05  3304   0.312E-02
DAV:   5    -0.489560418171E+01    0.20063E-09   -0.60958E-10  2080   0.115E-04    0.290E+00
DAV:   6    -0.488180185041E+01    0.13802E-01   -0.39843E-03  2224   0.276E-01    0.160E+00
DAV:   7    -0.487389568183E+01    0.79062E-02   -0.79618E-03  2296   0.389E-01    0.136E-01
DAV:   8    -0.487385487588E+01    0.40806E-04   -0.23762E-05  2832   0.373E-02    0.133E-02
DAV:   9    -0.487385525769E+01   -0.38182E-06   -0.28076E-07  2344   0.305E-03
   1 F= -.48738553E+01 E0= -.48734574E+01  d E =-.487386E+01
       N       E                     dE             d eps       ncg     rms          rms(c)
DAV:   1    -0.487709038776E+01   -0.32355E-02   -0.69591E-02  2088   0.103E+00    0.249E-01
DAV:   2    -0.487631549814E+01    0.77489E-03   -0.33078E-04  2584   0.120E-01    0.139E-01
DAV:   3    -0.487586383005E+01    0.45167E-03   -0.50594E-04  2104   0.941E-02    0.435E-02
DAV:   4    -0.487586318735E+01    0.64269E-06   -0.78310E-07  2752   0.732E-03    0.367E-02
DAV:   5    -0.487586004515E+01    0.31422E-05   -0.17501E-07  1328   0.280E-03    0.685E-03
DAV:   6    -0.487586027268E+01   -0.22753E-06   -0.57120E-09  1088   0.609E-04
   2 F= -.48758603E+01 E0= -.48754492E+01  d E =-.200501E-02
       N       E                     dE             d eps       ncg     rms          rms(c)
DAV:   1    -0.487588716707E+01   -0.27122E-04   -0.52972E-04  2080   0.905E-02    0.212E-02
DAV:   2    -0.487588095313E+01    0.62139E-05   -0.24965E-06  2560   0.104E-02    0.118E-02
DAV:   3    -0.487587806373E+01    0.28894E-05   -0.38687E-06  2104   0.823E-03    0.389E-03
DAV:   4    -0.487587808187E+01   -0.18139E-07   -0.57732E-09   984   0.639E-04    0.329E-03
DAV:   5    -0.487587824623E+01   -0.16435E-06   -0.16971E-09   984   0.298E-04    0.456E-04
DAV:   6    -0.487587822780E+01    0.18422E-07   -0.51084E-11   984   0.556E-05
   3 F= -.48758782E+01 E0= -.48754653E+01  d E =-.202297E-02
