 running on    4 total cores
 distrk:  each k-point on    4 cores,    1 groups
 distr:  one band on    1 cores,    4 groups
 vasp.6.2.0 18Jan21 (build Aug 12 2022 13:00:08) complex                        
  
 POSCAR found type information on POSCAR Si
 POSCAR found :  1 types and       1 ions
 scaLAPACK will be used
 LDA part: xc-table for Pade appr. of Perdew
 POSCAR, INCAR and KPOINTS ok, starting setup
 FFT: planning ...
 WAVECAR not read
 entering main loop
       N       E                     dE             d eps       ncg     rms          rms(c)
DAV:   1    -0.365800632743E+01   -0.36580E+01   -0.13851E+03  2152   0.250E+02
DAV:   2    -0.489062427171E+01   -0.12326E+01   -0.11648E+01  2928   0.202E+01
DAV:   3    -0.489560133780E+01   -0.49771E-02   -0.49767E-02  2128   0.129E+00
DAV:   4    -0.489560418191E+01   -0.28441E-05   -0.28438E-05  3304   0.312E-02
DAV:   5    -0.489560418171E+01    0.20063E-09   -0.60958E-10  2080   0.115E-04    0.290E+00
DAV:   6    -0.488180185041E+01    0.13802E-01   -0.39843E-03  2224   0.276E-01    0.160E+00
DAV:   7    -0.487389568183E+01    0.79062E-02   -0.79618E-03  2296   0.389E-01    0.136E-01
DAV:   8    -0.487385487588E+01    0.40806E-04   -0.23762E-05  2832   0.373E-02    0.133E-02
DAV:   9    -0.487385525769E+01   -0.38182E-06   -0.28076E-07  2344   0.305E-03
   1 F= -.48738553E+01 E0= -.48734574E+01  d E =-.487386E+01
 curvature:   0.00 expect dE= 0.000E+00 dE for cont linesearch  0.000E+00
 trial: gam= 0.00000 g(F)=  0.200E-64 g(S)=  0.449E-02 ort = 0.000E+00 (trialstep = 0.100E+01)
 search vector abs. value=  0.449E-02
 bond charge predicted
       N       E                     dE             d eps       ncg     rms          rms(c)
DAV:   1    -0.487709038776E+01   -0.32355E-02   -0.69591E-02  2088   0.103E+00    0.249E-01
DAV:   2    -0.487631549814E+01    0.77489E-03   -0.33078E-04  2584   0.120E-01    0.139E-01
DAV:   3    -0.487586383005E+01    0.45167E-03   -0.50594E-04  2104   0.941E-02    0.435E-02
DAV:   4    -0.487586318735E+01    0.64269E-06   -0.78310E-07  2752   0.732E-03    0.367E-02
DAV:   5    -0.487586004515E+01    0.31422E-05   -0.17501E-07  1328   0.280E-03    0.685E-03
DAV:   6    -0.487586027268E+01   -0.22753E-06   -0.57120E-09  1088   0.609E-04
   2 F= -.48758603E+01 E0= -.48754492E+01  d E =-.200501E-02
 trial-energy change:   -0.002005  1 .order   -0.002039   -0.004488    0.000410
 step:   0.9130(harm=  0.9163)  dis= 0.00000  next Energy=    -4.875878 (dE=-0.202E-02)
 bond charge predicted
       N       E                     dE             d eps       ncg     rms          rms(c)
DAV:   1    -0.487588716707E+01   -0.27122E-04   -0.52972E-04  2080   0.905E-02    0.212E-02
DAV:   2    -0.487588095313E+01    0.62139E-05   -0.24965E-06  2560   0.104E-02    0.118E-02
DAV:   3    -0.487587806373E+01    0.28894E-05   -0.38687E-06  2104   0.823E-03    0.389E-03
DAV:   4    -0.487587808187E+01   -0.18139E-07   -0.57732E-09   984   0.639E-04    0.329E-03
DAV:   5    -0.487587824623E+01   -0.16435E-06   -0.16971E-09   984   0.298E-04    0.456E-04
DAV:   6    -0.487587822780E+01    0.18422E-07   -0.51084E-11   984   0.556E-05
   3 F= -.48758782E+01 E0= -.48754653E+01  d E =-.202297E-02
 curvature:  -0.46 expect dE=-0.190E-08 dE for cont linesearch -0.190E-08
 trial: gam=-0.00096 g(F)=  0.464E-66 g(S)=  0.416E-08 ort = 0.432E-05 (trialstep = 0.983E+00)
 search vector abs. value=  0.100E-09
 reached required accuracy - stopping structural energy minimisation
