<?xml version="1.0" encoding="ISO-8859-1"?>
<modeling>
 <generator>
  <i name="program" type="string">vasp </i>
  <i name="version" type="string">6.2.0  </i>
  <i name="subversion" type="string">18Jan21 (build Aug 12 2022 13:00:08) complex                          parallel </i>
  <i name="platform" type="string">LinuxIFC </i>
  <i name="date" type="string">2024 11 03 </i>
  <i name="time" type="string">22:10:39 </i>
 </generator>
 <incar>
  <i type="int" name="ISTART">     0</i>
  <i type="string" name="PREC">Accurate      (Accurate strictly avoids</i>
  <i type="logical" name="ADDGRID"> T  </i>
  <i type="int" name="ISPIN">     1</i>
  <i type="int" name="NELM">    90</i>
  <i type="int" name="NELMIN">     6</i>
  <i type="int" name="IBRION">     2</i>
  <i name="EDIFF">      0.00000100</i>
  <i name="EDIFFG">     -0.00200000</i>
  <i type="int" name="NSW">   100</i>
  <i type="int" name="ISIF">     3</i>
  <i type="int" name="ISYM">     2</i>
  <i name="ENCUT">    300.00000000</i>
  <i type="logical" name="LREAL"> F  </i>
  <i type="int" name="ISMEAR">     0</i>
  <i name="SIGMA">      0.05000000</i>
  <i type="logical" name="LWAVE"> F  </i>
  <i type="logical" name="LCHARG"> F  </i>
  <i type="logical" name="LASPH"> T  </i>
 </incar>
 <primitive_cell>
  <structure name="primitive_cell" >
   <crystal>
    <varray name="basis" >
     <v>       2.34739500       0.00000000       1.35526800 </v>
     <v>       0.78246500       2.21314500       1.35526800 </v>
     <v>       0.00000000       0.00000000       2.71053800 </v>
    </varray>
    <i name="volume">     14.08158510 </i>
    <varray name="rec_basis" >
     <v>       0.42600415      -0.15061523       0.00000000 </v>
     <v>       0.00000000       0.45184568       0.00000000 </v>
     <v>      -0.21300192      -0.15061511       0.36893045 </v>
    </varray>
   </crystal>
   <varray name="positions" >
    <v>       0.00000000       0.00000000       0.00000000 </v>
   </varray>
  </structure>
  <varray name="primitive_index" >
   <v type="int" >        1 </v>
  </varray>
 </primitive_cell>
 <kpoints>
  <generation param="Monkhorst-Pack">
   <v type="int" name="divisions">      15       15       15 </v>
   <v name="usershift">      0.00000000       0.00000000       0.00000000 </v>
   <v name="genvec1">      0.06666667      -0.00000000       0.00000000 </v>
   <v name="genvec2">      0.00000000       0.06666667       0.00000000 </v>
   <v name="genvec3">      0.00000000       0.00000000       0.06666667 </v>
   <v name="shift">      0.00000000       0.00000000       0.00000000 </v>
  </generation>
  <varray name="kpointlist" >
   <v>       0.00000000       0.00000000       0.00000000 </v>
   <v>       0.06666667      -0.00000000       0.00000000 </v>
   <v>       0.13333333       0.00000000       0.00000000 </v>
   <v>       0.20000000       0.00000000       0.00000000 </v>
   <v>       0.26666667       0.00000000       0.00000000 </v>
   <v>       0.33333333       0.00000000       0.00000000 </v>
   <v>       0.40000000      -0.00000000       0.00000000 </v>
   <v>       0.46666667       0.00000000       0.00000000 </v>
   <v>       0.06666667       0.06666667       0.00000000 </v>
   <v>       0.13333333       0.06666667       0.00000000 </v>
   <v>       0.20000000       0.06666667       0.00000000 </v>
   <v>       0.26666667       0.06666667       0.00000000 </v>
   <v>       0.33333333       0.06666667       0.00000000 </v>
   <v>       0.40000000       0.06666667       0.00000000 </v>
   <v>       0.46666667       0.06666667       0.00000000 </v>
   <v>      -0.46666667       0.06666667       0.00000000 </v>
   <v>      -0.40000000       0.06666667       0.00000000 </v>
   <v>      -0.33333333       0.06666667       0.00000000 </v>
   <v>      -0.26666667       0.06666667       0.00000000 </v>
   <v>      -0.20000000       0.06666667       0.00000000 </v>
   <v>      -0.13333333       0.06666667       0.00000000 </v>
   <v>      -0.06666667       0.06666667       0.00000000 </v>
   <v>       0.13333333       0.13333333       0.00000000 </v>
   <v>       0.20000000       0.13333333       0.00000000 </v>
   <v>       0.26666667       0.13333333       0.00000000 </v>
   <v>       0.33333333       0.13333333       0.00000000 </v>
   <v>       0.40000000       0.13333333       0.00000000 </v>
   <v>       0.46666667       0.13333333       0.00000000 </v>
   <v>      -0.46666667       0.13333333       0.00000000 </v>
   <v>      -0.40000000       0.13333333       0.00000000 </v>
   <v>      -0.33333333       0.13333333       0.00000000 </v>
   <v>      -0.26666667       0.13333333       0.00000000 </v>
   <v>      -0.20000000       0.13333333       0.00000000 </v>
   <v>      -0.13333333       0.13333333       0.00000000 </v>
   <v>       0.20000000       0.20000000       0.00000000 </v>
   <v>       0.26666667       0.20000000       0.00000000 </v>
   <v>       0.33333333       0.20000000       0.00000000 </v>
   <v>       0.40000000       0.20000000       0.00000000 </v>
   <v>       0.46666667       0.20000000       0.00000000 </v>
   <v>      -0.46666667       0.20000000       0.00000000 </v>
   <v>      -0.40000000       0.20000000       0.00000000 </v>
   <v>      -0.33333333       0.20000000       0.00000000 </v>
   <v>      -0.26666667       0.20000000       0.00000000 </v>
   <v>      -0.20000000       0.20000000       0.00000000 </v>
   <v>       0.26666667       0.26666667       0.00000000 </v>
   <v>       0.33333333       0.26666667       0.00000000 </v>
   <v>       0.40000000       0.26666667       0.00000000 </v>
   <v>       0.46666667       0.26666667       0.00000000 </v>
   <v>      -0.46666667       0.26666667       0.00000000 </v>
   <v>      -0.40000000       0.26666667       0.00000000 </v>
   <v>      -0.33333333       0.26666667       0.00000000 </v>
   <v>      -0.26666667       0.26666667       0.00000000 </v>
   <v>       0.33333333       0.33333333       0.00000000 </v>
   <v>       0.40000000       0.33333333       0.00000000 </v>
   <v>       0.46666667       0.33333333       0.00000000 </v>
   <v>      -0.46666667       0.33333333       0.00000000 </v>
   <v>      -0.40000000       0.33333333       0.00000000 </v>
   <v>      -0.33333333       0.33333333       0.00000000 </v>
   <v>       0.40000000       0.40000000       0.00000000 </v>
   <v>       0.46666667       0.40000000       0.00000000 </v>
   <v>      -0.46666667       0.40000000       0.00000000 </v>
   <v>      -0.40000000       0.40000000       0.00000000 </v>
   <v>       0.46666667       0.46666667       0.00000000 </v>
   <v>      -0.46666667       0.46666667       0.00000000 </v>
   <v>       0.20000000       0.13333333       0.06666667 </v>
   <v>       0.26666667       0.13333333       0.06666667 </v>
   <v>       0.33333333       0.13333333       0.06666667 </v>
   <v>       0.40000000       0.13333333       0.06666667 </v>
   <v>       0.46666667       0.13333333       0.06666667 </v>
   <v>      -0.46666667       0.13333333       0.06666667 </v>
   <v>       0.26666667       0.20000000       0.06666667 </v>
   <v>       0.33333333       0.20000000       0.06666667 </v>
   <v>       0.40000000       0.20000000       0.06666667 </v>
   <v>       0.46666667       0.20000000       0.06666667 </v>
   <v>      -0.46666667       0.20000000       0.06666667 </v>
   <v>      -0.40000000       0.20000000       0.06666667 </v>
   <v>      -0.33333333       0.20000000       0.06666667 </v>
   <v>      -0.26666667       0.20000000       0.06666667 </v>
   <v>      -0.20000000       0.20000000       0.06666667 </v>
   <v>      -0.13333333       0.20000000       0.06666667 </v>
   <v>       0.33333333       0.26666667       0.06666667 </v>
   <v>       0.40000000       0.26666667       0.06666667 </v>
   <v>       0.46666667       0.26666667       0.06666667 </v>
   <v>      -0.46666667       0.26666667       0.06666667 </v>
   <v>      -0.40000000       0.26666667       0.06666667 </v>
   <v>      -0.33333333       0.26666667       0.06666667 </v>
   <v>      -0.26666667       0.26666667       0.06666667 </v>
   <v>      -0.20000000       0.26666667       0.06666667 </v>
   <v>       0.40000000       0.33333333       0.06666667 </v>
   <v>       0.46666667       0.33333333       0.06666667 </v>
   <v>      -0.46666667       0.33333333       0.06666667 </v>
   <v>      -0.40000000       0.33333333       0.06666667 </v>
   <v>      -0.33333333       0.33333333       0.06666667 </v>
   <v>      -0.26666667       0.33333333       0.06666667 </v>
   <v>       0.46666667       0.40000000       0.06666667 </v>
   <v>      -0.46666667       0.40000000       0.06666667 </v>
   <v>      -0.40000000       0.40000000       0.06666667 </v>
   <v>      -0.33333333       0.40000000       0.06666667 </v>
   <v>      -0.46666667       0.46666667       0.06666667 </v>
   <v>      -0.40000000       0.46666667       0.06666667 </v>
   <v>       0.40000000       0.26666667       0.13333333 </v>
   <v>       0.46666667       0.26666667       0.13333333 </v>
   <v>      -0.46666667       0.26666667       0.13333333 </v>
   <v>      -0.40000000       0.26666667       0.13333333 </v>
   <v>       0.46666667       0.33333333       0.13333333 </v>
   <v>      -0.46666667       0.33333333       0.13333333 </v>
   <v>      -0.40000000       0.33333333       0.13333333 </v>
   <v>      -0.33333333       0.33333333       0.13333333 </v>
   <v>      -0.26666667       0.33333333       0.13333333 </v>
   <v>      -0.20000000       0.33333333       0.13333333 </v>
   <v>      -0.46666667       0.40000000       0.13333333 </v>
   <v>      -0.40000000       0.40000000       0.13333333 </v>
   <v>      -0.33333333       0.40000000       0.13333333 </v>
   <v>      -0.26666667       0.40000000       0.13333333 </v>
   <v>      -0.40000000       0.46666667       0.13333333 </v>
   <v>      -0.33333333       0.46666667       0.13333333 </v>
   <v>      -0.40000000       0.40000000       0.20000000 </v>
   <v>      -0.33333333       0.40000000       0.20000000 </v>
   <v>      -0.33333333       0.46666667       0.20000000 </v>
   <v>      -0.26666667       0.46666667       0.20000000 </v>
  </varray>
  <varray name="weights" >
   <v>       0.00029630 </v>
   <v>       0.00237037 </v>
   <v>       0.00237037 </v>
   <v>       0.00237037 </v>
   <v>       0.00237037 </v>
   <v>       0.00237037 </v>
   <v>       0.00237037 </v>
   <v>       0.00237037 </v>
   <v>       0.00177778 </v>
   <v>       0.00711111 </v>
   <v>       0.00711111 </v>
   <v>       0.00711111 </v>
   <v>       0.00711111 </v>
   <v>       0.00711111 </v>
   <v>       0.00711111 </v>
   <v>       0.00711111 </v>
   <v>       0.00711111 </v>
   <v>       0.00711111 </v>
   <v>       0.00711111 </v>
   <v>       0.00711111 </v>
   <v>       0.00711111 </v>
   <v>       0.00355556 </v>
   <v>       0.00177778 </v>
   <v>       0.00711111 </v>
   <v>       0.00711111 </v>
   <v>       0.00711111 </v>
   <v>       0.00711111 </v>
   <v>       0.00711111 </v>
   <v>       0.00711111 </v>
   <v>       0.00711111 </v>
   <v>       0.00711111 </v>
   <v>       0.00711111 </v>
   <v>       0.00711111 </v>
   <v>       0.00355556 </v>
   <v>       0.00177778 </v>
   <v>       0.00711111 </v>
   <v>       0.00711111 </v>
   <v>       0.00711111 </v>
   <v>       0.00711111 </v>
   <v>       0.00711111 </v>
   <v>       0.00711111 </v>
   <v>       0.00711111 </v>
   <v>       0.00711111 </v>
   <v>       0.00355556 </v>
   <v>       0.00177778 </v>
   <v>       0.00711111 </v>
   <v>       0.00711111 </v>
   <v>       0.00711111 </v>
   <v>       0.00711111 </v>
   <v>       0.00711111 </v>
   <v>       0.00711111 </v>
   <v>       0.00355556 </v>
   <v>       0.00177778 </v>
   <v>       0.00711111 </v>
   <v>       0.00711111 </v>
   <v>       0.00711111 </v>
   <v>       0.00711111 </v>
   <v>       0.00355556 </v>
   <v>       0.00177778 </v>
   <v>       0.00711111 </v>
   <v>       0.00711111 </v>
   <v>       0.00355556 </v>
   <v>       0.00177778 </v>
   <v>       0.00355556 </v>
   <v>       0.00711111 </v>
   <v>       0.01422222 </v>
   <v>       0.01422222 </v>
   <v>       0.01422222 </v>
   <v>       0.01422222 </v>
   <v>       0.01422222 </v>
   <v>       0.00711111 </v>
   <v>       0.01422222 </v>
   <v>       0.01422222 </v>
   <v>       0.01422222 </v>
   <v>       0.01422222 </v>
   <v>       0.01422222 </v>
   <v>       0.01422222 </v>
   <v>       0.01422222 </v>
   <v>       0.01422222 </v>
   <v>       0.00711111 </v>
   <v>       0.00711111 </v>
   <v>       0.01422222 </v>
   <v>       0.01422222 </v>
   <v>       0.01422222 </v>
   <v>       0.01422222 </v>
   <v>       0.01422222 </v>
   <v>       0.01422222 </v>
   <v>       0.00711111 </v>
   <v>       0.00711111 </v>
   <v>       0.01422222 </v>
   <v>       0.01422222 </v>
   <v>       0.01422222 </v>
   <v>       0.01422222 </v>
   <v>       0.00711111 </v>
   <v>       0.00711111 </v>
   <v>       0.01422222 </v>
   <v>       0.01422222 </v>
   <v>       0.00711111 </v>
   <v>       0.00711111 </v>
   <v>       0.00711111 </v>
   <v>       0.00711111 </v>
   <v>       0.01422222 </v>
   <v>       0.01422222 </v>
   <v>       0.01422222 </v>
   <v>       0.00711111 </v>
   <v>       0.01422222 </v>
   <v>       0.01422222 </v>
   <v>       0.01422222 </v>
   <v>       0.01422222 </v>
   <v>       0.00711111 </v>
   <v>       0.00711111 </v>
   <v>       0.01422222 </v>
   <v>       0.01422222 </v>
   <v>       0.00711111 </v>
   <v>       0.00711111 </v>
   <v>       0.00711111 </v>
   <v>       0.00711111 </v>
   <v>       0.01422222 </v>
   <v>       0.00711111 </v>
   <v>       0.00711111 </v>
  </varray>
 </kpoints>
 <parameters>
  <separator name="general" >
   <i type="string" name="SYSTEM">unknown system</i>
   <i type="logical" name="LCOMPAT"> F  </i>
  </separator>
  <separator name="electronic" >
   <i type="string" name="PREC">accura</i>
   <i name="ENMAX">    300.00000000</i>
   <i name="ENAUG">    322.06900000</i>
   <i name="EDIFF">      0.00000100</i>
   <i type="int" name="IALGO">    38</i>
   <i type="int" name="IWAVPR">    11</i>
   <i type="int" name="NBANDS">     8</i>
   <i type="int" name="NBANDSLOW">    -1</i>
   <i type="int" name="NBANDSHIGH">    -1</i>
   <i name="NELECT">      4.00000000</i>
   <i type="int" name="TURBO">     0</i>
   <i type="int" name="IRESTART">     0</i>
   <i type="int" name="NREBOOT">     0</i>
   <i type="int" name="NMIN">     0</i>
   <i name="EREF">      0.00000000</i>
   <separator name="electronic smearing" >
    <i type="int" name="ISMEAR">     0</i>
    <i name="SIGMA">      0.05000000</i>
    <i name="KSPACING">      0.50000000</i>
    <i type="logical" name="KGAMMA"> T  </i>
    <i type="logical" name="KBLOWUP"> T  </i>
   </separator>
   <separator name="electronic projectors" >
    <i type="logical" name="LREAL"> F  </i>
    <v name="ROPT">      0.00000000</v>
    <i type="int" name="LMAXPAW">  -100</i>
    <i type="int" name="LMAXMIX">     2</i>
    <i type="logical" name="NLSPLINE"> F  </i>
   </separator>
   <separator name="electronic startup" >
    <i type="int" name="ISTART">     0</i>
    <i type="int" name="ICHARG">     2</i>
    <i type="int" name="INIWAV">     1</i>
   </separator>
   <separator name="electronic spin" >
    <i type="int" name="ISPIN">     1</i>
    <i type="logical" name="LNONCOLLINEAR"> F  </i>
    <v name="MAGMOM">      1.00000000</v>
    <i name="NUPDOWN">     -1.00000000</i>
    <i type="logical" name="LSORBIT"> F  </i>
    <v name="SAXIS">      0.00000000      0.00000000      1.00000000</v>
    <i type="logical" name="LSPIRAL"> F  </i>
    <v name="QSPIRAL">      0.00000000      0.00000000      0.00000000</v>
    <i type="logical" name="LZEROZ"> F  </i>
   </separator>
   <separator name="electronic exchange-correlation" >
    <i type="logical" name="LASPH"> T  </i>
    <i type="logical" name="LMETAGGA"> F  </i>
   </separator>
   <separator name="electronic convergence" >
    <i type="int" name="NELM">    90</i>
    <i type="int" name="NELMDL">    -5</i>
    <i type="int" name="NELMIN">     6</i>
    <i name="ENINI">    300.00000000</i>
    <separator name="electronic convergence detail" >
     <i type="logical" name="LDIAG"> T  </i>
     <i type="logical" name="LSUBROT"> F  </i>
     <i name="WEIMIN">      0.00100000</i>
     <i name="EBREAK">      0.00000003</i>
     <i name="DEPER">      0.30000000</i>
     <i type="int" name="NRMM">     4</i>
     <i name="TIME">      0.40000000</i>
    </separator>
   </separator>
   <separator name="electronic mixer" >
    <i name="AMIX">      0.40000000</i>
    <i name="BMIX">      1.00000000</i>
    <i name="AMIN">      0.10000000</i>
    <i name="AMIX_MAG">      1.60000000</i>
    <i name="BMIX_MAG">      1.00000000</i>
    <separator name="electronic mixer details" >
     <i type="int" name="IMIX">     4</i>
     <i type="logical" name="MIXFIRST"> F  </i>
     <i type="int" name="MAXMIX">   -45</i>
     <i name="WC">    100.00000000</i>
     <i type="int" name="INIMIX">     1</i>
     <i type="int" name="MIXPRE">     1</i>
     <i type="int" name="MREMOVE">     5</i>
    </separator>
   </separator>
   <separator name="electronic dipolcorrection" >
    <i type="logical" name="LDIPOL"> F  </i>
    <i type="logical" name="LMONO"> F  </i>
    <i type="int" name="IDIPOL">     0</i>
    <i name="EPSILON">      1.00000000</i>
    <v name="DIPOL">   -100.00000000   -100.00000000   -100.00000000</v>
    <i name="EFIELD">      0.00000000</i>
   </separator>
  </separator>
  <separator name="grids" >
   <i type="int" name="NGX">    16</i>
   <i type="int" name="NGY">    16</i>
   <i type="int" name="NGZ">    16</i>
   <i type="int" name="NGXF">    32</i>
   <i type="int" name="NGYF">    32</i>
   <i type="int" name="NGZF">    32</i>
   <i type="logical" name="ADDGRID"> T  </i>
  </separator>
  <separator name="ionic" >
   <i type="int" name="NSW">   100</i>
   <i type="int" name="IBRION">     2</i>
   <i type="int" name="MDALGO">     0</i>
   <i type="int" name="ISIF">     3</i>
   <i name="PSTRESS">      0.00000000</i>
   <i name="EDIFFG">     -0.00200000</i>
   <i type="int" name="NFREE">     1</i>
   <i name="POTIM">      0.50000000</i>
   <i name="SMASS">     -3.00000000</i>
   <i name="SCALEE">      1.00000000</i>
  </separator>
  <separator name="ionic md" >
   <i name="TEBEG">      0.00010000</i>
   <i name="TEEND">      0.00010000</i>
   <i type="int" name="NBLOCK">     1</i>
   <i type="int" name="KBLOCK">   100</i>
   <i type="int" name="NPACO">   256</i>
   <i name="APACO">     16.00000000</i>
  </separator>
  <separator name="symmetry" >
   <i type="int" name="ISYM">     2</i>
   <i name="SYMPREC">      0.00001000</i>
  </separator>
  <separator name="dos" >
   <i type="int" name="LORBIT">     0</i>
   <v name="RWIGS">     -1.00000000</v>
   <i type="int" name="NEDOS">   301</i>
   <i name="EMIN">     10.00000000</i>
   <i name="EMAX">    -10.00000000</i>
   <i name="EFERMI">      0.00000000</i>
  </separator>
  <separator name="writing" >
   <i type="int" name="NWRITE">     2</i>
   <i type="logical" name="LWAVE"> F  </i>
   <i type="logical" name="LDOWNSAMPLE"> F  </i>
   <i type="logical" name="LCHARG"> F  </i>
   <i type="logical" name="LPARD"> F  </i>
   <i type="logical" name="LVTOT"> F  </i>
   <i type="logical" name="LVHAR"> F  </i>
   <i type="logical" name="LELF"> F  </i>
   <i type="logical" name="LOPTICS"> F  </i>
   <v name="STM">      0.00000000      0.00000000      0.00000000      0.00000000      0.00000000      0.00000000      0.00000000</v>
  </separator>
  <separator name="performance" >
   <i type="int" name="NPAR">     4</i>
   <i type="int" name="NSIM">     4</i>
   <i type="int" name="NBLK">    -1</i>
   <i type="logical" name="LPLANE"> T  </i>
   <i type="logical" name="LSCALAPACK"> T  </i>
   <i type="logical" name="LSCAAWARE"> F  </i>
   <i type="logical" name="LSCALU"> F  </i>
   <i type="logical" name="LASYNC"> F  </i>
   <i type="logical" name="LORBITALREAL"> F  </i>
  </separator>
  <separator name="miscellaneous" >
   <i type="int" name="IDIOT">     3</i>
   <i type="int" name="PHON_NSTRUCT">    -1</i>
   <i type="logical" name="LMUSIC"> F  </i>
   <v name="POMASS">     28.08500000</v>
   <v name="DARWINR">      0.00000000</v>
   <v name="DARWINV">      1.00000000</v>
   <i type="logical" name="LCORR"> T  </i>
  </separator>
  <i type="logical" name="GGA_COMPAT"> T  </i>
  <i type="logical" name="LBERRY"> F  </i>
  <i type="int" name="ICORELEVEL">     0</i>
  <i type="logical" name="LDAU"> F  </i>
  <i type="int" name="I_CONSTRAINED_M">     0</i>
  <separator name="electronic exchange-correlation" >
   <i type="string" name="GGA">--</i>
   <i type="int" name="VOSKOWN">     0</i>
   <i type="logical" name="LHFCALC"> F  </i>
   <i type="string" name="PRECFOCK"></i>
   <i type="logical" name="LSYMGRAD"> F  </i>
   <i type="logical" name="LHFONE"> F  </i>
   <i type="logical" name="LRHFCALC"> F  </i>
   <i type="logical" name="LTHOMAS"> F  </i>
   <i type="logical" name="LMODELHF"> F  </i>
   <i type="logical" name="LFOCKACE"> F  </i>
   <i name="ENCUT4O">     -1.00000000</i>
   <i type="int" name="EXXOEP">     0</i>
   <i type="int" name="FOURORBIT">     0</i>
   <i name="AEXX">      0.00000000</i>
   <i name="HFALPHA">      0.00000000</i>
   <i name="MCALPHA">      0.00000000</i>
   <i name="ALDAX">      1.00000000</i>
   <i name="AGGAX">      1.00000000</i>
   <i name="ALDAC">      1.00000000</i>
   <i name="AGGAC">      1.00000000</i>
   <i type="int" name="NKREDX">     1</i>
   <i type="int" name="NKREDY">     1</i>
   <i type="int" name="NKREDZ">     1</i>
   <i type="logical" name="SHIFTRED"> F  </i>
   <i type="logical" name="ODDONLY"> F  </i>
   <i type="logical" name="EVENONLY"> F  </i>
   <i type="int" name="LMAXFOCK">     0</i>
   <i type="int" name="NMAXFOCKAE">     0</i>
   <i type="logical" name="LFOCKAEDFT"> F  </i>
   <i name="HFSCREEN">      0.00000000</i>
   <i name="HFSCREENC">      0.00000000</i>
   <i type="int" name="NBANDSGWLOW">     0</i>
  </separator>
  <separator name="vdW DFT" >
   <i type="logical" name="LUSE_VDW"> F  </i>
   <i name="Zab_VDW">     -0.84910000</i>
   <i name="PARAM1">      0.12340000</i>
   <i name="PARAM2">      1.00000000</i>
   <i name="PARAM3">      0.00000000</i>
  </separator>
  <separator name="model GW" >
   <i type="int" name="MODEL_GW">     0</i>
   <i name="MODEL_EPS0">      8.44895106</i>
   <i name="MODEL_ALPHA">      1.00000000</i>
  </separator>
  <separator name="linear response parameters" >
   <i type="logical" name="LEPSILON"> F  </i>
   <i type="logical" name="LRPA"> F  </i>
   <i type="logical" name="LNABLA"> F  </i>
   <i type="logical" name="LVEL"> F  </i>
   <i type="int" name="KINTER">     0</i>
   <i name="CSHIFT">      0.10000000</i>
   <i name="OMEGAMAX">     -1.00000000</i>
   <i name="DEG_THRESHOLD">      0.00200000</i>
   <i name="RTIME">     -0.10000000</i>
   <i name="WPLASMAI">      0.00000000</i>
   <v name="DFIELD">      0.00000000      0.00000000      0.00000000</v>
   <v name="WPLASMA">      0.00000000      0.00000000      0.00000000      0.00000000      0.00000000      0.00000000      0.00000000      0.00000000      0.00000000</v>
  </separator>
  <separator name="orbital magnetization" >
   <i type="logical" name="NUCIND"> F  </i>
   <v name="MAGPOS">      0.00000000      0.00000000      0.00000000</v>
   <i type="logical" name="LNICSALL"> T  </i>
   <i type="logical" name="ORBITALMAG"> F  </i>
   <i type="logical" name="LMAGBLOCH"> F  </i>
   <i type="logical" name="LCHIMAG"> F  </i>
   <i type="logical" name="LGAUGE"> T  </i>
   <i type="int" name="MAGATOM">     0</i>
   <v name="MAGDIPOL">      0.00000000      0.00000000      0.00000000</v>
   <v name="AVECCONST">      0.00000000      0.00000000      0.00000000</v>
  </separator>
  <separator name="response functions" >
   <i type="logical" name="LFINITE_TEMPERATURE"> F  </i>
   <i type="logical" name="LADDER"> F  </i>
   <i type="logical" name="LRPAFORCE"> F  </i>
   <i type="logical" name="LFXC"> F  </i>
   <i type="logical" name="LHARTREE"> T  </i>
   <i type="int" name="IBSE">     0</i>
   <v type="int" name="KPOINT">    -1     0     0     0</v>
   <i type="logical" name="LTCTC"> F  </i>
   <i type="logical" name="LTCTE"> F  </i>
   <i type="logical" name="LTETE"> F  </i>
   <i type="logical" name="LTRIPLET"> F  </i>
   <i type="logical" name="LFXCEPS"> F  </i>
   <i type="logical" name="LFXHEG"> F  </i>
   <i type="int" name="NATURALO">     2</i>
   <i type="logical" name="LHOLEGF"> F  </i>
   <i type="logical" name="L2ORDER"> F  </i>
   <i type="logical" name="LDMP1"> F  </i>
   <i type="logical" name="LMP2LT"> F  </i>
   <i type="logical" name="LSMP2LT"> F  </i>
   <i type="logical" name="LGWLF"> F  </i>
   <i name="ENCUTGW">     -2.00000000</i>
   <i name="ENCUTGWSOFT">     -2.00000000</i>
   <i name="ENCUTLF">     -1.00000000</i>
   <i type="logical" name="LESF_SPLINES"> F  </i>
   <i type="int" name="LMAXMP2">    -1</i>
   <i name="SCISSOR">      0.00000000</i>
   <i type="int" name="NOMEGA">     0</i>
   <i type="int" name="NOMEGAR">     0</i>
   <i type="int" name="NBANDSGW">    -1</i>
   <i type="int" name="NBANDSO">    -1</i>
   <i type="int" name="NBANDSV">    -1</i>
   <i type="int" name="NELM">    90</i>
   <i type="int" name="NELMHF">     1</i>
   <i type="int" name="DIM">     3</i>
   <i type="int" name="IESPILON">     4</i>
   <i type="int" name="ANTIRES">     0</i>
   <i name="OMEGAMAX">    -30.00000000</i>
   <i name="OMEGAMIN">    -30.00000000</i>
   <i name="OMEGATL">   -200.00000000</i>
   <i type="int" name="OMEGAGRID">     0</i>
   <i name="CSHIFT">     -0.10000000</i>
   <i type="logical" name="LSELFENERGY"> F  </i>
   <i type="logical" name="LSPECTRAL"> F  </i>
   <i type="logical" name="LSPECTRALGW"> F  </i>
   <i type="logical" name="LSINGLES"> F  </i>
   <i type="logical" name="LFERMIGW"> F  </i>
   <i type="logical" name="ODDONLYGW"> F  </i>
   <i type="logical" name="EVENONLYGW"> F  </i>
   <i type="int" name="NKREDLFX">     1</i>
   <i type="int" name="NKREDLFY">     1</i>
   <i type="int" name="NKREDLFZ">     1</i>
   <i type="int" name="MAXMEM">  2800</i>
   <i type="int" name="TELESCOPE">     0</i>
   <i type="int" name="NTAUPAR">    -1</i>
   <i type="int" name="NOMEGAPAR">    -1</i>
   <i name="DAMP_NEWTON">      0.80000001</i>
   <i name="LAMBDA">      1.00000000</i>
  </separator>
  <separator name="External order field" >
   <i name="OFIELD_KAPPA">      0.00000000</i>
   <v name="OFIELD_K">      0.00000000      0.00000000      0.00000000</v>
   <i name="OFIELD_Q6_NEAR">      0.00000000</i>
   <i name="OFIELD_Q6_FAR">      0.00000000</i>
   <i name="OFIELD_A">      0.00000000</i>
  </separator>
 </parameters>
 <atominfo>
  <atoms>       1 </atoms>
  <types>       1 </types>
  <array name="atoms" >
   <dimension dim="1">ion</dimension>
   <field type="string">element</field>
   <field type="int">atomtype</field>
   <set>
    <rc><c>Si</c><c>   1</c></rc>
   </set>
  </array>
  <array name="atomtypes" >
   <dimension dim="1">type</dimension>
   <field type="int">atomspertype</field>
   <field type="string">element</field>
   <field>mass</field>
   <field>valence</field>
   <field type="string">pseudopotential</field>
   <set>
    <rc><c>   1</c><c>Si</c><c>     28.08500000</c><c>      4.00000000</c><c>  PAW_PBE Si 05Jan2001                  </c></rc>
   </set>
  </array>
 </atominfo>
 <structure name="initialpos" >
  <crystal>
   <varray name="basis" >
    <v>       2.34739500       0.00000000       1.35526800 </v>
    <v>       0.78246500       2.21314500       1.35526800 </v>
    <v>       0.00000000       0.00000000       2.71053800 </v>
   </varray>
   <i name="volume">     14.08158510 </i>
   <varray name="rec_basis" >
    <v>       0.42600415      -0.15061523       0.00000000 </v>
    <v>       0.00000000       0.45184568       0.00000000 </v>
    <v>      -0.21300192      -0.15061511       0.36893045 </v>
   </varray>
  </crystal>
  <varray name="positions" >
   <v>       0.00000000       0.00000000       0.00000000 </v>
  </varray>
 </structure>
 <calculation>
  <scstep>
   <time name="dav">    0.54    0.54</time>
   <time name="total">    0.72    0.73</time>
   <energy>
    <i name="alphaZ">      2.39057823 </i>
    <i name="ewald">   -137.78496289 </i>
    <i name="hartreedc">     -0.54229904 </i>
    <i name="XCdc">     -8.73347877 </i>
    <i name="pawpsdc">     88.12379961 </i>
    <i name="pawaedc">    -70.53051779 </i>
    <i name="eentropy">     -0.00096450 </i>
    <i name="bandstr">     20.35499589 </i>
    <i name="atom">    103.06484294 </i>
    <i name="e_fr_energy">     -3.65800633 </i>
    <i name="e_wo_entrp">     -3.65704182 </i>
    <i name="e_0_energy">     -3.65752408 </i>
   </energy>
  </scstep>
  <scstep>
   <time name="dav">    0.50    0.52</time>
   <time name="total">    0.50    0.52</time>
   <energy>
    <i name="e_fr_energy">     -4.89062427 </i>
    <i name="e_wo_entrp">     -4.88986978 </i>
    <i name="e_0_energy">     -4.89024703 </i>
   </energy>
  </scstep>
  <scstep>
   <time name="dav">    0.35    0.36</time>
   <time name="total">    0.35    0.36</time>
   <energy>
    <i name="e_fr_energy">     -4.89560134 </i>
    <i name="e_wo_entrp">     -4.89485299 </i>
    <i name="e_0_energy">     -4.89522716 </i>
   </energy>
  </scstep>
  <scstep>
   <time name="dav">    0.59    0.60</time>
   <time name="total">    0.60    0.60</time>
   <energy>
    <i name="e_fr_energy">     -4.89560418 </i>
    <i name="e_wo_entrp">     -4.89485583 </i>
    <i name="e_0_energy">     -4.89523001 </i>
   </energy>
  </scstep>
  <scstep>
   <time name="dav">    0.34    0.35</time>
   <time name="total">    0.36    0.37</time>
   <energy>
    <i name="e_fr_energy">     -4.89560418 </i>
    <i name="e_wo_entrp">     -4.89485583 </i>
    <i name="e_0_energy">     -4.89523001 </i>
   </energy>
  </scstep>
  <scstep>
   <time name="dav">    0.37    0.37</time>
   <time name="total">    0.56    0.57</time>
   <energy>
    <i name="e_fr_energy">     -4.88180185 </i>
    <i name="e_wo_entrp">     -4.88103222 </i>
    <i name="e_0_energy">     -4.88141704 </i>
   </energy>
  </scstep>
  <scstep>
   <time name="dav">    0.38    0.38</time>
   <time name="total">    0.57    0.58</time>
   <energy>
    <i name="e_fr_energy">     -4.87389568 </i>
    <i name="e_wo_entrp">     -4.87310000 </i>
    <i name="e_0_energy">     -4.87349784 </i>
   </energy>
  </scstep>
  <scstep>
   <time name="dav">    0.48    0.49</time>
   <time name="total">    0.68    0.69</time>
   <energy>
    <i name="e_fr_energy">     -4.87385488 </i>
    <i name="e_wo_entrp">     -4.87305923 </i>
    <i name="e_0_energy">     -4.87345705 </i>
   </energy>
  </scstep>
  <scstep>
   <time name="dav">    0.40    0.40</time>
   <time name="total">    0.57    0.59</time>
   <energy>
    <i name="alphaZ">      2.39057823 </i>
    <i name="ewald">   -137.78496289 </i>
    <i name="hartreedc">     -0.40839028 </i>
    <i name="XCdc">     -8.66929714 </i>
    <i name="pawpsdc">    332.27766617 </i>
    <i name="pawaedc">   -314.69753774 </i>
    <i name="eentropy">     -0.00079571 </i>
    <i name="bandstr">     18.95404117 </i>
    <i name="atom">    103.06484294 </i>
    <i name="e_fr_energy">     -4.87385526 </i>
    <i name="e_wo_entrp">     -4.87305955 </i>
    <i name="e_0_energy">     -4.87345741 </i>
   </energy>
  </scstep>
  <structure>
   <crystal>
    <varray name="basis" >
     <v>       2.34739500       0.00000000       1.35526800 </v>
     <v>       0.78246500       2.21314500       1.35526800 </v>
     <v>       0.00000000       0.00000000       2.71053800 </v>
    </varray>
    <i name="volume">     14.08158510 </i>
    <varray name="rec_basis" >
     <v>       0.42600415      -0.15061523       0.00000000 </v>
     <v>       0.00000000       0.45184568       0.00000000 </v>
     <v>      -0.21300192      -0.15061511       0.36893045 </v>
    </varray>
   </crystal>
   <varray name="positions" >
    <v>       0.00000000       0.00000000       0.00000000 </v>
   </varray>
  </structure>
  <varray name="forces" >
   <v>       0.00000000       0.00000000       0.00000000 </v>
  </varray>
  <varray name="stress" >
   <v>      20.03639654      -0.00000000      -0.00000854 </v>
   <v>      -0.00000000      20.03639238      -0.00000604 </v>
   <v>      -0.00000854      -0.00000604      20.03639255 </v>
  </varray>
  <energy>
   <i name="e_fr_energy">     -4.87385526 </i>
   <i name="e_wo_entrp">     -4.87305955 </i>
   <i name="e_0_energy">     -4.87345741 </i>
  </energy>
  <time name="totalsc">    5.69    5.91</time>
 </calculation>
 <calculation>
  <scstep>
   <time name="dav">    0.34    0.34</time>
   <time name="total">    0.53    0.54</time>
   <energy>
    <i name="alphaZ">      2.33067113 </i>
    <i name="ewald">   -136.62426406 </i>
    <i name="hartreedc">     -0.40489749 </i>
    <i name="XCdc">     -8.73545134 </i>
    <i name="pawpsdc">    332.27373040 </i>
    <i name="pawaedc">   -314.69332199 </i>
    <i name="eentropy">     -0.00080224 </i>
    <i name="bandstr">     17.91240226 </i>
    <i name="atom">    103.06484294 </i>
    <i name="e_fr_energy">     -4.87709039 </i>
    <i name="e_wo_entrp">     -4.87628815 </i>
    <i name="e_0_energy">     -4.87668927 </i>
   </energy>
  </scstep>
  <scstep>
   <time name="dav">    0.44    0.44</time>
   <time name="total">    0.63    0.64</time>
   <energy>
    <i name="e_fr_energy">     -4.87631550 </i>
    <i name="e_wo_entrp">     -4.87550462 </i>
    <i name="e_0_energy">     -4.87591006 </i>
   </energy>
  </scstep>
  <scstep>
   <time name="dav">    0.35    0.35</time>
   <time name="total">    0.54    0.55</time>
   <energy>
    <i name="e_fr_energy">     -4.87586383 </i>
    <i name="e_wo_entrp">     -4.87504153 </i>
    <i name="e_0_energy">     -4.87545268 </i>
   </energy>
  </scstep>
  <scstep>
   <time name="dav">    0.48    0.48</time>
   <time name="total">    0.67    0.68</time>
   <energy>
    <i name="e_fr_energy">     -4.87586319 </i>
    <i name="e_wo_entrp">     -4.87504096 </i>
    <i name="e_0_energy">     -4.87545207 </i>
   </energy>
  </scstep>
  <scstep>
   <time name="dav">    0.24    0.24</time>
   <time name="total">    0.43    0.45</time>
   <energy>
    <i name="e_fr_energy">     -4.87586005 </i>
    <i name="e_wo_entrp">     -4.87503791 </i>
    <i name="e_0_energy">     -4.87544898 </i>
   </energy>
  </scstep>
  <scstep>
   <time name="dav">    0.21    0.21</time>
   <time name="total">    0.38    0.39</time>
   <energy>
    <i name="alphaZ">      2.33067113 </i>
    <i name="ewald">   -136.62426406 </i>
    <i name="hartreedc">     -0.44557669 </i>
    <i name="XCdc">     -8.74418386 </i>
    <i name="pawpsdc">    316.06596388 </i>
    <i name="pawaedc">   -298.48128670 </i>
    <i name="eentropy">     -0.00082215 </i>
    <i name="bandstr">     17.95879524 </i>
    <i name="atom">    103.06484294 </i>
    <i name="e_fr_energy">     -4.87586027 </i>
    <i name="e_wo_entrp">     -4.87503812 </i>
    <i name="e_0_energy">     -4.87544920 </i>
   </energy>
  </scstep>
  <structure>
   <crystal>
    <varray name="basis" >
     <v>       2.36733742      -0.00000000       1.36678174 </v>
     <v>       0.78911247       2.23194689       1.36678174 </v>
     <v>      -0.00000001      -0.00000001       2.73356552 </v>
    </varray>
    <i name="volume">     14.44353534 </i>
    <varray name="rec_basis" >
     <v>       0.42241549      -0.14934644       0.00000000 </v>
     <v>       0.00000000       0.44803933       0.00000000 </v>
     <v>      -0.21120759      -0.14934633       0.36582258 </v>
    </varray>
   </crystal>
   <varray name="positions" >
    <v>       0.00000000       0.00000000       0.00000000 </v>
   </varray>
  </structure>
  <varray name="forces" >
   <v>       0.00000000       0.00000000       0.00000000 </v>
  </varray>
  <varray name="stress" >
   <v>      -1.78442884       0.00000000       0.00000077 </v>
   <v>       0.00000000      -1.78442847       0.00000055 </v>
   <v>       0.00000077       0.00000055      -1.78442848 </v>
  </varray>
  <energy>
   <i name="e_fr_energy">     -4.87586027 </i>
   <i name="e_wo_entrp">     -4.87503812 </i>
   <i name="e_0_energy">     -4.87544920 </i>
  </energy>
  <time name="totalsc">    3.96    4.20</time>
 </calculation>
 <calculation>
  <scstep>
   <time name="dav">    0.35    0.35</time>
   <time name="total">    0.55    0.55</time>
   <energy>
    <i name="alphaZ">      2.33580422 </i>
    <i name="ewald">   -136.72449138 </i>
    <i name="hartreedc">     -0.44589975 </i>
    <i name="XCdc">     -8.73851610 </i>
    <i name="pawpsdc">    315.97002994 </i>
    <i name="pawaedc">   -298.38535846 </i>
    <i name="eentropy">     -0.00082736 </i>
    <i name="bandstr">     18.04852880 </i>
    <i name="atom">    103.06484294 </i>
    <i name="e_fr_energy">     -4.87588717 </i>
    <i name="e_wo_entrp">     -4.87505981 </i>
    <i name="e_0_energy">     -4.87547349 </i>
   </energy>
  </scstep>
  <scstep>
   <time name="dav">    0.43    0.44</time>
   <time name="total">    0.62    0.64</time>
   <energy>
    <i name="e_fr_energy">     -4.87588095 </i>
    <i name="e_wo_entrp">     -4.87505420 </i>
    <i name="e_0_energy">     -4.87546757 </i>
   </energy>
  </scstep>
  <scstep>
   <time name="dav">    0.34    0.34</time>
   <time name="total">    0.53    0.55</time>
   <energy>
    <i name="e_fr_energy">     -4.87587806 </i>
    <i name="e_wo_entrp">     -4.87505216 </i>
    <i name="e_0_energy">     -4.87546511 </i>
   </energy>
  </scstep>
  <scstep>
   <time name="dav">    0.19    0.19</time>
   <time name="total">    0.38    0.39</time>
   <energy>
    <i name="e_fr_energy">     -4.87587808 </i>
    <i name="e_wo_entrp">     -4.87505217 </i>
    <i name="e_0_energy">     -4.87546513 </i>
   </energy>
  </scstep>
  <scstep>
   <time name="dav">    0.19    0.19</time>
   <time name="total">    0.38    0.39</time>
   <energy>
    <i name="e_fr_energy">     -4.87587825 </i>
    <i name="e_wo_entrp">     -4.87505233 </i>
    <i name="e_0_energy">     -4.87546529 </i>
   </energy>
  </scstep>
  <scstep>
   <time name="dav">    0.19    0.19</time>
   <time name="total">    0.36    0.37</time>
   <energy>
    <i name="alphaZ">      2.33580422 </i>
    <i name="ewald">   -136.72449138 </i>
    <i name="hartreedc">     -0.44218138 </i>
    <i name="XCdc">     -8.73775482 </i>
    <i name="pawpsdc">    317.25256800 </i>
    <i name="pawaedc">   -299.66825879 </i>
    <i name="eentropy">     -0.00082592 </i>
    <i name="bandstr">     18.04441890 </i>
    <i name="atom">    103.06484294 </i>
    <i name="e_fr_energy">     -4.87587823 </i>
    <i name="e_wo_entrp">     -4.87505231 </i>
    <i name="e_0_energy">     -4.87546527 </i>
   </energy>
  </scstep>
  <structure>
   <crystal>
    <varray name="basis" >
     <v>       2.36560202      -0.00000000       1.36577981 </v>
     <v>       0.78853400       2.23031074       1.36577981 </v>
     <v>      -0.00000001      -0.00000001       2.73156165 </v>
    </varray>
    <i name="volume">     14.41179466 </i>
    <varray name="rec_basis" >
     <v>       0.42272537      -0.14945601       0.00000000 </v>
     <v>       0.00000000       0.44836802       0.00000000 </v>
     <v>      -0.21136253      -0.14945589       0.36609095 </v>
    </varray>
   </crystal>
   <varray name="positions" >
    <v>       0.00000000      -0.00000000       0.00000000 </v>
   </varray>
  </structure>
  <varray name="forces" >
   <v>       0.00000000      -0.00000000      -0.00000000 </v>
  </varray>
  <varray name="stress" >
   <v>       0.01884437       0.00000000      -0.00000001 </v>
   <v>       0.00000000       0.01884437      -0.00000001 </v>
   <v>      -0.00000001      -0.00000001       0.01884437 </v>
  </varray>
  <energy>
   <i name="e_fr_energy">     -4.87587823 </i>
   <i name="e_wo_entrp">     -4.87505231 </i>
   <i name="e_0_energy">     -4.87546527 </i>
  </energy>
  <time name="totalsc">    3.55    3.74</time>
  <eigenvalues>
   <array>
    <dimension dim="1">band</dimension>
    <dimension dim="2">kpoint</dimension>
    <dimension dim="3">spin</dimension>
    <field>eigene</field>
    <field>occ</field>
    <set>
     <set comment="spin 1">
      <set comment="kpoint 1">
       <r>   -4.2677    1.0000 </r>
       <r>   21.4117    0.0000 </r>
       <r>   21.4117    0.0000 </r>
       <r>   21.4117    0.0000 </r>
       <r>   22.2086    0.0000 </r>
       <r>   22.2086    0.0000 </r>
       <r>   22.2086    0.0000 </r>
       <r>   27.5202    0.0000 </r>
      </set>
      <set comment="kpoint 2">
       <r>   -4.1379    1.0000 </r>
       <r>   19.2590    0.0000 </r>
       <r>   20.7426    0.0000 </r>
       <r>   20.7426    0.0000 </r>
       <r>   23.0377    0.0000 </r>
       <r>   23.0377    0.0000 </r>
       <r>   23.2530    0.0000 </r>
       <r>   28.4559    0.0000 </r>
      </set>
      <set comment="kpoint 3">
       <r>   -3.7489    1.0000 </r>
       <r>   16.4236    0.0000 </r>
       <r>   19.9787    0.0000 </r>
       <r>   19.9787    0.0000 </r>
       <r>   23.5405    0.0000 </r>
       <r>   24.1349    0.0000 </r>
       <r>   24.1349    0.0000 </r>
       <r>   27.4169    0.0000 </r>
      </set>
      <set comment="kpoint 4">
       <r>   -3.1024    1.0000 </r>
       <r>   13.5865    0.0000 </r>
       <r>   19.3990    0.0000 </r>
       <r>   19.3990    0.0000 </r>
       <r>   23.4718    0.0000 </r>
       <r>   24.3592    0.0000 </r>
       <r>   24.3592    0.0000 </r>
       <r>   27.3964    0.0000 </r>
      </set>
      <set comment="kpoint 5">
       <r>   -2.2009    1.0000 </r>
       <r>   10.8782    0.0000 </r>
       <r>   19.0189    0.0000 </r>
       <r>   19.0189    0.0000 </r>
       <r>   23.3776    0.0000 </r>
       <r>   23.4699    0.0000 </r>
       <r>   23.4699    0.0000 </r>
       <r>   28.7567    0.0000 </r>
      </set>
      <set comment="kpoint 6">
       <r>   -1.0485    1.0000 </r>
       <r>    8.3493    1.0000 </r>
       <r>   18.8265    0.0000 </r>
       <r>   18.8265    0.0000 </r>
       <r>   22.4664    0.0000 </r>
       <r>   22.4664    0.0000 </r>
       <r>   23.3763    0.0000 </r>
       <r>   27.5918    0.0000 </r>
      </set>
      <set comment="kpoint 7">
       <r>    0.3473    1.0000 </r>
       <r>    6.0233    1.0000 </r>
       <r>   18.7835    0.0000 </r>
       <r>   18.7835    0.0000 </r>
       <r>   21.6569    0.0000 </r>
       <r>   21.6569    0.0000 </r>
       <r>   23.4548    0.0000 </r>
       <r>   26.6655    0.0000 </r>
      </set>
      <set comment="kpoint 8">
       <r>    1.9579    1.0000 </r>
       <r>    3.9475    1.0000 </r>
       <r>   18.8133    0.0000 </r>
       <r>   18.8133    0.0000 </r>
       <r>   21.1905    0.0000 </r>
       <r>   21.1906    0.0000 </r>
       <r>   23.5695    0.0000 </r>
       <r>   26.1205    0.0000 </r>
      </set>
      <set comment="kpoint 9">
       <r>   -4.0946    1.0000 </r>
       <r>   19.7371    0.0000 </r>
       <r>   19.7371    0.0000 </r>
       <r>   21.0088    0.0000 </r>
       <r>   21.2836    0.0000 </r>
       <r>   24.1020    0.0000 </r>
       <r>   24.1020    0.0000 </r>
       <r>   27.3258    0.0000 </r>
      </set>
      <set comment="kpoint 10">
       <r>   -3.7921    1.0000 </r>
       <r>   17.4327    0.0000 </r>
       <r>   18.8935    0.0000 </r>
       <r>   20.4521    0.0000 </r>
       <r>   21.8243    0.0000 </r>
       <r>   24.8227    0.0000 </r>
       <r>   25.2566    0.0000 </r>
       <r>   25.8514    0.0000 </r>
      </set>
      <set comment="kpoint 11">
       <r>   -3.2314    1.0000 </r>
       <r>   14.6115    0.0000 </r>
       <r>   18.2549    0.0000 </r>
       <r>   19.8187    0.0000 </r>
       <r>   22.5166    0.0000 </r>
       <r>   24.6189    0.0000 </r>
       <r>   25.3819    0.0000 </r>
       <r>   25.8735    0.0000 </r>
      </set>
      <set comment="kpoint 12">
       <r>   -2.4150    1.0000 </r>
       <r>   11.8632    0.0000 </r>
       <r>   17.8319    0.0000 </r>
       <r>   19.3060    0.0000 </r>
       <r>   21.9570    0.0000 </r>
       <r>   24.4588    0.0000 </r>
       <r>   25.2188    0.0000 </r>
       <r>   26.4163    0.0000 </r>
      </set>
      <set comment="kpoint 13">
       <r>   -1.3463    1.0000 </r>
       <r>    9.2748    1.0000 </r>
       <r>   17.6260    0.0000 </r>
       <r>   18.8700    0.0000 </r>
       <r>   21.0836    0.0000 </r>
       <r>   24.1832    0.0000 </r>
       <r>   24.4384    0.0000 </r>
       <r>   28.0139    0.0000 </r>
      </set>
      <set comment="kpoint 14">
       <r>   -0.0311    1.0000 </r>
       <r>    6.8806    1.0000 </r>
       <r>   17.6317    0.0000 </r>
       <r>   18.3955    0.0000 </r>
       <r>   20.5621    0.0000 </r>
       <r>   23.2194    0.0000 </r>
       <r>   24.4536    0.0000 </r>
       <r>   27.8909    0.0000 </r>
      </set>
      <set comment="kpoint 15">
       <r>    1.5162    1.0000 </r>
       <r>    4.7148    1.0000 </r>
       <r>   17.8411    0.0000 </r>
       <r>   17.8556    0.0000 </r>
       <r>   20.5227    0.0000 </r>
       <r>   22.4531    0.0000 </r>
       <r>   24.4787    0.0000 </r>
       <r>   27.3496    0.0000 </r>
      </set>
      <set comment="kpoint 16">
       <r>    2.5905    1.0000 </r>
       <r>    3.4856    1.0000 </r>
       <r>   17.3665    0.0000 </r>
       <r>   18.2315    0.0000 </r>
       <r>   20.8740    0.0000 </r>
       <r>   21.9302    0.0000 </r>
       <r>   24.4158    0.0000 </r>
       <r>   27.2622    0.0000 </r>
      </set>
      <set comment="kpoint 17">
       <r>    0.9769    1.0000 </r>
       <r>    5.4089    1.0000 </r>
       <r>   17.0235    0.0000 </r>
       <r>   18.7587    0.0000 </r>
       <r>   21.5201    0.0000 </r>
       <r>   21.7026    0.0000 </r>
       <r>   24.2635    0.0000 </r>
       <r>   27.6608    0.0000 </r>
      </set>
      <set comment="kpoint 18">
       <r>   -0.4963    1.0000 </r>
       <r>    7.6559    1.0000 </r>
       <r>   16.8735    0.0000 </r>
       <r>   19.3414    0.0000 </r>
       <r>   21.8494    0.0000 </r>
       <r>   22.4122    0.0000 </r>
       <r>   24.1333    0.0000 </r>
       <r>   28.3959    0.0000 </r>
      </set>
      <set comment="kpoint 19">
       <r>   -1.7304    1.0000 </r>
       <r>   10.1167    0.9935 </r>
       <r>   16.9333    0.0000 </r>
       <r>   19.8962    0.0000 </r>
       <r>   22.4170    0.0000 </r>
       <r>   23.4915    0.0000 </r>
       <r>   24.0776    0.0000 </r>
       <r>   28.0889    0.0000 </r>
      </set>
      <set comment="kpoint 20">
       <r>   -2.7154    1.0000 </r>
       <r>   12.7622    0.0000 </r>
       <r>   17.2108    0.0000 </r>
       <r>   20.4375    0.0000 </r>
       <r>   23.2193    0.0000 </r>
       <r>   24.0854    0.0000 </r>
       <r>   24.6436    0.0000 </r>
       <r>   26.4042    0.0000 </r>
      </set>
      <set comment="kpoint 21">
       <r>   -3.4468    1.0000 </r>
       <r>   15.5476    0.0000 </r>
       <r>   17.7072    0.0000 </r>
       <r>   21.0331    0.0000 </r>
       <r>   23.3249    0.0000 </r>
       <r>   24.0362    0.0000 </r>
       <r>   25.2666    0.0000 </r>
       <r>   25.9681    0.0000 </r>
      </set>
      <set comment="kpoint 22">
       <r>   -3.9217    1.0000 </r>
       <r>   18.2570    0.0000 </r>
       <r>   18.5150    0.0000 </r>
       <r>   21.4923    0.0000 </r>
       <r>   22.5442    0.0000 </r>
       <r>   23.6705    0.0000 </r>
       <r>   24.5684    0.0000 </r>
       <r>   27.0826    0.0000 </r>
      </set>
      <set comment="kpoint 23">
       <r>   -3.5761    1.0000 </r>
       <r>   17.9774    0.0000 </r>
       <r>   17.9774    0.0000 </r>
       <r>   19.6267    0.0000 </r>
       <r>   19.9375    0.0000 </r>
       <r>   24.0424    0.0000 </r>
       <r>   26.4906    0.0000 </r>
       <r>   26.4906    0.0000 </r>
      </set>
      <set comment="kpoint 24">
       <r>   -3.1021    1.0000 </r>
       <r>   15.7790    0.0000 </r>
       <r>   17.2674    0.0000 </r>
       <r>   19.0855    0.0000 </r>
       <r>   20.1970    0.0000 </r>
       <r>   22.7246    0.0000 </r>
       <r>   27.2118    0.0000 </r>
       <r>   27.4531    0.0000 </r>
      </set>
      <set comment="kpoint 25">
       <r>   -2.3717    1.0000 </r>
       <r>   13.0541    0.0000 </r>
       <r>   16.7769    0.0000 </r>
       <r>   18.3710    0.0000 </r>
       <r>   20.0895    0.0000 </r>
       <r>   23.0788    0.0000 </r>
       <r>   27.1894    0.0000 </r>
       <r>   27.3910    0.0000 </r>
      </set>
      <set comment="kpoint 26">
       <r>   -1.3882    1.0000 </r>
       <r>   10.4272    0.0000 </r>
       <r>   16.5067    0.0000 </r>
       <r>   17.5469    0.0000 </r>
       <r>   19.4888    0.0000 </r>
       <r>   24.5614    0.0000 </r>
       <r>   26.2252    0.0000 </r>
       <r>   27.5552    0.0000 </r>
      </set>
      <set comment="kpoint 27">
       <r>   -0.1562    1.0000 </r>
       <r>    7.9763    1.0000 </r>
       <r>   16.4582    0.0000 </r>
       <r>   16.6355    0.0000 </r>
       <r>   19.2421    0.0000 </r>
       <r>   25.2362    0.0000 </r>
       <r>   25.8338    0.0000 </r>
       <r>   28.2482    0.0000 </r>
      </set>
      <set comment="kpoint 28">
       <r>    1.3149    1.0000 </r>
       <r>    5.7355    1.0000 </r>
       <r>   15.7908    0.0000 </r>
       <r>   16.6292    0.0000 </r>
       <r>   19.3479    0.0000 </r>
       <r>   24.3877    0.0000 </r>
       <r>   26.2116    0.0000 </r>
       <r>   29.7391    0.0000 </r>
      </set>
      <set comment="kpoint 29">
       <r>    2.9296    1.0000 </r>
       <r>    3.8121    1.0000 </r>
       <r>   15.1085    0.0000 </r>
       <r>   17.0155    0.0000 </r>
       <r>   19.7419    0.0000 </r>
       <r>   23.7425    0.0000 </r>
       <r>   26.1201    0.0000 </r>
       <r>   29.8530    0.0000 </r>
      </set>
      <set comment="kpoint 30">
       <r>    1.8536    1.0000 </r>
       <r>    5.0417    1.0000 </r>
       <r>   14.6316    0.0000 </r>
       <r>   17.6052    0.0000 </r>
       <r>   20.3921    0.0000 </r>
       <r>   23.3188    0.0000 </r>
       <r>   25.8858    0.0000 </r>
       <r>   30.1614    0.0000 </r>
      </set>
      <set comment="kpoint 31">
       <r>    0.3081    1.0000 </r>
       <r>    7.2018    1.0000 </r>
       <r>   14.3759    0.0000 </r>
       <r>   18.3802    0.0000 </r>
       <r>   21.2784    0.0000 </r>
       <r>   23.1424    0.0000 </r>
       <r>   25.6544    0.0000 </r>
       <r>   29.7317    0.0000 </r>
      </set>
      <set comment="kpoint 32">
       <r>   -1.0050    1.0000 </r>
       <r>    9.5824    1.0000 </r>
       <r>   14.3503    0.0000 </r>
       <r>   19.3034    0.0000 </r>
       <r>   22.3689    0.0000 </r>
       <r>   23.2347    0.0000 </r>
       <r>   25.4683    0.0000 </r>
       <r>   27.5635    0.0000 </r>
      </set>
      <set comment="kpoint 33">
       <r>   -2.0721    1.0000 </r>
       <r>   12.1380    0.0000 </r>
       <r>   14.5686    0.0000 </r>
       <r>   20.2927    0.0000 </r>
       <r>   23.5835    0.0000 </r>
       <r>   23.6148    0.0000 </r>
       <r>   25.2480    0.0000 </r>
       <r>   25.6801    0.0000 </r>
      </set>
      <set comment="kpoint 34">
       <r>   -2.8871    1.0000 </r>
       <r>   14.6051    0.0000 </r>
       <r>   15.2502    0.0000 </r>
       <r>   21.1324    0.0000 </r>
       <r>   23.5476    0.0000 </r>
       <r>   24.8026    0.0000 </r>
       <r>   24.8358    0.0000 </r>
       <r>   24.9511    0.0000 </r>
      </set>
      <set comment="kpoint 35">
       <r>   -2.7148    1.0000 </r>
       <r>   16.4847    0.0000 </r>
       <r>   16.4847    0.0000 </r>
       <r>   18.0465    0.0000 </r>
       <r>   18.1857    0.0000 </r>
       <r>   21.0253    0.0000 </r>
       <r>   28.9306    0.0000 </r>
       <r>   28.9306    0.0000 </r>
      </set>
      <set comment="kpoint 36">
       <r>   -2.0714    1.0000 </r>
       <r>   14.3860    0.0000 </r>
       <r>   15.9202    0.0000 </r>
       <r>   17.0356    0.0000 </r>
       <r>   18.3059    0.0000 </r>
       <r>   20.5905    0.0000 </r>
       <r>   29.2477    0.0000 </r>
       <r>   29.6665    0.0000 </r>
      </set>
      <set comment="kpoint 37">
       <r>   -1.1742    1.0000 </r>
       <r>   11.7843    0.0000 </r>
       <r>   15.5783    0.0000 </r>
       <r>   15.8071    0.0000 </r>
       <r>   18.2110    0.0000 </r>
       <r>   21.8600    0.0000 </r>
       <r>   28.4423    0.0000 </r>
       <r>   29.8322    0.0000 </r>
      </set>
      <set comment="kpoint 38">
       <r>   -0.0277    1.0000 </r>
       <r>    9.2962    1.0000 </r>
       <r>   14.6334    0.0000 </r>
       <r>   15.4601    0.0000 </r>
       <r>   18.0941    0.0000 </r>
       <r>   23.7604    0.0000 </r>
       <r>   27.4719    0.0000 </r>
       <r>   29.7458    0.0000 </r>
      </set>
      <set comment="kpoint 39">
       <r>    1.3618    1.0000 </r>
       <r>    6.9969    1.0000 </r>
       <r>   13.6246    0.0000 </r>
       <r>   15.5670    0.0000 </r>
       <r>   18.2068    0.0000 </r>
       <r>   25.7858    0.0000 </r>
       <r>   26.5994    0.0000 </r>
       <r>   29.6256    0.0000 </r>
      </set>
      <set comment="kpoint 40">
       <r>    2.9673    1.0000 </r>
       <r>    4.9306    1.0000 </r>
       <r>   12.8203    0.0000 </r>
       <r>   15.8939    0.0000 </r>
       <r>   18.5653    0.0000 </r>
       <r>   25.8842    0.0000 </r>
       <r>   27.3147    0.0000 </r>
       <r>   29.9299    0.0000 </r>
      </set>
      <set comment="kpoint 41">
       <r>    2.9678    1.0000 </r>
       <r>    4.9275    1.0000 </r>
       <r>   12.2418    0.0000 </r>
       <r>   16.4399    0.0000 </r>
       <r>   19.1718    0.0000 </r>
       <r>   25.3776    0.0000 </r>
       <r>   27.6282    0.0000 </r>
       <r>   31.1255    0.0000 </r>
      </set>
      <set comment="kpoint 42">
       <r>    1.3614    1.0000 </r>
       <r>    6.9858    1.0000 </r>
       <r>   11.9004    0.0000 </r>
       <r>   17.1938    0.0000 </r>
       <r>   20.0094    0.0000 </r>
       <r>   25.0897    0.0000 </r>
       <r>   27.3883    0.0000 </r>
       <r>   29.5463    0.0000 </r>
      </set>
      <set comment="kpoint 43">
       <r>   -0.0282    1.0000 </r>
       <r>    9.2586    1.0000 </r>
       <r>   11.8180    0.0000 </r>
       <r>   18.1400    0.0000 </r>
       <r>   21.0643    0.0000 </r>
       <r>   25.0336    0.0000 </r>
       <r>   26.9786    0.0000 </r>
       <r>   27.2742    0.0000 </r>
      </set>
      <set comment="kpoint 44">
       <r>   -1.1752    1.0000 </r>
       <r>   11.4180    0.0000 </r>
       <r>   12.2802    0.0000 </r>
       <r>   19.2321    0.0000 </r>
       <r>   22.2985    0.0000 </r>
       <r>   25.1967    0.0000 </r>
       <r>   25.2453    0.0000 </r>
       <r>   26.2985    0.0000 </r>
      </set>
      <set comment="kpoint 45">
       <r>   -1.5152    1.0000 </r>
       <r>   15.2815    0.0000 </r>
       <r>   15.2815    0.0000 </r>
       <r>   15.4532    0.0000 </r>
       <r>   16.7231    0.0000 </r>
       <r>   19.1716    0.0000 </r>
       <r>   31.2647    0.0000 </r>
       <r>   31.2647    0.0000 </r>
      </set>
      <set comment="kpoint 46">
       <r>   -0.7053    1.0000 </r>
       <r>   13.2448    0.0000 </r>
       <r>   14.0700    0.0000 </r>
       <r>   14.8652    0.0000 </r>
       <r>   17.0389    0.0000 </r>
       <r>   19.3582    0.0000 </r>
       <r>   30.7416    0.0000 </r>
       <r>   31.9477    0.0000 </r>
      </set>
      <set comment="kpoint 47">
       <r>    0.3545    1.0000 </r>
       <r>   10.8082    0.0000 </r>
       <r>   12.7219    0.0000 </r>
       <r>   14.6745    0.0000 </r>
       <r>   17.1367    0.0000 </r>
       <r>   20.9747    0.0000 </r>
       <r>   29.8592    0.0000 </r>
       <r>   31.9639    0.0000 </r>
      </set>
      <set comment="kpoint 48">
       <r>    1.6584    1.0000 </r>
       <r>    8.4774    1.0000 </r>
       <r>   11.5830    0.0000 </r>
       <r>   14.7082    0.0000 </r>
       <r>   17.2436    0.0000 </r>
       <r>   23.1102    0.0000 </r>
       <r>   28.9748    0.0000 </r>
       <r>   31.5841    0.0000 </r>
      </set>
      <set comment="kpoint 49">
       <r>    3.1925    1.0000 </r>
       <r>    6.3421    1.0000 </r>
       <r>   10.6736    0.0000 </r>
       <r>   14.9668    0.0000 </r>
       <r>   17.5524    0.0000 </r>
       <r>   25.4330    0.0000 </r>
       <r>   28.2273    0.0000 </r>
       <r>   31.0285    0.0000 </r>
      </set>
      <set comment="kpoint 50">
       <r>    4.2764    1.0000 </r>
       <r>    5.0982    1.0000 </r>
       <r>   10.0044    1.0000 </r>
       <r>   15.4471    0.0000 </r>
       <r>   18.0938    0.0000 </r>
       <r>   27.6487    0.0000 </r>
       <r>   27.6849    0.0000 </r>
       <r>   30.4230    0.0000 </r>
      </set>
      <set comment="kpoint 51">
       <r>    2.6576    1.0000 </r>
       <r>    6.9864    1.0000 </r>
       <r>    9.6033    1.0000 </r>
       <r>   16.1467    0.0000 </r>
       <r>   18.8748    0.0000 </r>
       <r>   27.2727    0.0000 </r>
       <r>   29.0119    0.0000 </r>
       <r>   29.6132    0.0000 </r>
      </set>
      <set comment="kpoint 52">
       <r>    1.1955    1.0000 </r>
       <r>    8.8322    1.0000 </r>
       <r>    9.7806    1.0000 </r>
       <r>   17.0523    0.0000 </r>
       <r>   19.8739    0.0000 </r>
       <r>   26.9114    0.0000 </r>
       <r>   27.4666    0.0000 </r>
       <r>   28.3038    0.0000 </r>
      </set>
      <set comment="kpoint 53">
       <r>    0.0168    1.0000 </r>
       <r>   12.3431    0.0000 </r>
       <r>   14.3747    0.0000 </r>
       <r>   14.3747    0.0000 </r>
       <r>   15.7112    0.0000 </r>
       <r>   18.0970    0.0000 </r>
       <r>   32.6745    0.0000 </r>
       <r>   33.3793    0.0000 </r>
      </set>
      <set comment="kpoint 54">
       <r>    0.9881    1.0000 </r>
       <r>   10.8827    0.0000 </r>
       <r>   12.5574    0.0000 </r>
       <r>   14.1093    0.0000 </r>
       <r>   16.1944    0.0000 </r>
       <r>   18.5576    0.0000 </r>
       <r>   32.2398    0.0000 </r>
       <r>   33.9183    0.0000 </r>
      </set>
      <set comment="kpoint 55">
       <r>    2.2032    1.0000 </r>
       <r>    9.5748    1.0000 </r>
       <r>   10.3177    0.0007 </r>
       <r>   14.0697    0.0000 </r>
       <r>   16.4592    0.0000 </r>
       <r>   20.3819    0.0000 </r>
       <r>   31.4369    0.0000 </r>
       <r>   33.6834    0.0000 </r>
      </set>
      <set comment="kpoint 56">
       <r>    3.6504    1.0000 </r>
       <r>    7.9107    1.0000 </r>
       <r>    8.8022    1.0000 </r>
       <r>   14.2554    0.0000 </r>
       <r>   16.7416    0.0000 </r>
       <r>   22.7004    0.0000 </r>
       <r>   30.6758    0.0000 </r>
       <r>   32.9991    0.0000 </r>
      </set>
      <set comment="kpoint 57">
       <r>    5.2542    1.0000 </r>
       <r>    6.0300    1.0000 </r>
       <r>    8.0159    1.0000 </r>
       <r>   14.6662    0.0000 </r>
       <r>   17.2260    0.0000 </r>
       <r>   25.2150    0.0000 </r>
       <r>   30.0296    0.0000 </r>
       <r>   32.0312    0.0000 </r>
      </set>
      <set comment="kpoint 58">
       <r>    4.1846    1.0000 </r>
       <r>    6.8825    1.0000 </r>
       <r>    7.8595    1.0000 </r>
       <r>   15.2979    0.0000 </r>
       <r>   17.9369    0.0000 </r>
       <r>   27.7298    0.0000 </r>
       <r>   29.2550    0.0000 </r>
       <r>   30.2768    0.0000 </r>
      </set>
      <set comment="kpoint 59">
       <r>    1.8693    1.0000 </r>
       <r>    9.3493    1.0000 </r>
       <r>   13.7692    0.0000 </r>
       <r>   13.7692    0.0000 </r>
       <r>   15.0309    0.0000 </r>
       <r>   17.4334    0.0000 </r>
       <r>   33.9337    0.0000 </r>
       <r>   35.2002    0.0000 </r>
      </set>
      <set comment="kpoint 60">
       <r>    2.9909    1.0000 </r>
       <r>    8.0231    1.0000 </r>
       <r>   12.0654    0.0000 </r>
       <r>   13.6550    0.0000 </r>
       <r>   15.6909    0.0000 </r>
       <r>   18.0847    0.0000 </r>
       <r>   33.7076    0.0000 </r>
       <r>   35.4678    0.0000 </r>
      </set>
      <set comment="kpoint 61">
       <r>    4.3294    1.0000 </r>
       <r>    6.9449    1.0000 </r>
       <r>    9.9114    1.0000 </r>
       <r>   13.7669    0.0000 </r>
       <r>   16.1206    0.0000 </r>
       <r>   20.0821    0.0000 </r>
       <r>   33.0042    0.0000 </r>
       <r>   34.8382    0.0000 </r>
      </set>
      <set comment="kpoint 62">
       <r>    5.5812    1.0000 </r>
       <r>    6.3843    1.0000 </r>
       <r>    7.9417    1.0000 </r>
       <r>   14.1045    0.0000 </r>
       <r>   16.5763    0.0000 </r>
       <r>   22.5621    0.0000 </r>
       <r>   32.0182    0.0000 </r>
       <r>   33.4179    0.0000 </r>
      </set>
      <set comment="kpoint 63">
       <r>    4.0012    1.0000 </r>
       <r>    6.6313    1.0000 </r>
       <r>   13.4660    0.0000 </r>
       <r>   13.4661    0.0000 </r>
       <r>   14.6914    0.0000 </r>
       <r>   17.1088    0.0000 </r>
       <r>   34.9163    0.0000 </r>
       <r>   36.4712    0.0000 </r>
      </set>
      <set comment="kpoint 64">
       <r>    4.9295    1.0000 </r>
       <r>    5.7898    1.0000 </r>
       <r>   11.9038    0.0000 </r>
       <r>   13.5032    0.0000 </r>
       <r>   15.5223    0.0000 </r>
       <r>   17.9246    0.0000 </r>
       <r>   34.5430    0.0000 </r>
       <r>   36.1179    0.0000 </r>
      </set>
      <set comment="kpoint 65">
       <r>   -3.4036    1.0000 </r>
       <r>   16.4533    0.0000 </r>
       <r>   16.8715    0.0000 </r>
       <r>   20.7816    0.0000 </r>
       <r>   21.4034    0.0000 </r>
       <r>   24.3795    0.0000 </r>
       <r>   25.7439    0.0000 </r>
       <r>   26.1156    0.0000 </r>
      </set>
      <set comment="kpoint 66">
       <r>   -2.7581    1.0000 </r>
       <r>   13.8561    0.0000 </r>
       <r>   16.1364    0.0000 </r>
       <r>   20.1329    0.0000 </r>
       <r>   21.8379    0.0000 </r>
       <r>   23.9208    0.0000 </r>
       <r>   25.9634    0.0000 </r>
       <r>   26.1918    0.0000 </r>
      </set>
      <set comment="kpoint 67">
       <r>   -1.8582    1.0000 </r>
       <r>   11.1807    0.0000 </r>
       <r>   15.7781    0.0000 </r>
       <r>   19.2602    0.0000 </r>
       <r>   21.3985    0.0000 </r>
       <r>   24.4942    0.0000 </r>
       <r>   25.4263    0.0000 </r>
       <r>   26.5852    0.0000 </r>
      </set>
      <set comment="kpoint 68">
       <r>   -0.7077    1.0000 </r>
       <r>    8.6645    1.0000 </r>
       <r>   15.6472    0.0000 </r>
       <r>   18.3211    0.0000 </r>
       <r>   21.0715    0.0000 </r>
       <r>   23.7274    0.0000 </r>
       <r>   25.6908    0.0000 </r>
       <r>   27.9747    0.0000 </r>
      </set>
      <set comment="kpoint 69">
       <r>    0.6862    1.0000 </r>
       <r>    6.3484    1.0000 </r>
       <r>   15.7310    0.0000 </r>
       <r>   17.4550    0.0000 </r>
       <r>   21.0305    0.0000 </r>
       <r>   22.8507    0.0000 </r>
       <r>   25.8396    0.0000 </r>
       <r>   29.3713    0.0000 </r>
      </set>
      <set comment="kpoint 70">
       <r>    2.2955    1.0000 </r>
       <r>    4.2760    1.0000 </r>
       <r>   15.9753    0.0000 </r>
       <r>   16.8027    0.0000 </r>
       <r>   21.1703    0.0000 </r>
       <r>   22.2424    0.0000 </r>
       <r>   25.9312    0.0000 </r>
       <r>   29.1049    0.0000 </r>
      </set>
      <set comment="kpoint 71">
       <r>   -2.5432    1.0000 </r>
       <r>   14.8962    0.0000 </r>
       <r>   15.3988    0.0000 </r>
       <r>   18.7858    0.0000 </r>
       <r>   19.9245    0.0000 </r>
       <r>   21.8059    0.0000 </r>
       <r>   27.6977    0.0000 </r>
       <r>   28.3471    0.0000 </r>
      </set>
      <set comment="kpoint 72">
       <r>   -1.7295    1.0000 </r>
       <r>   12.4390    0.0000 </r>
       <r>   14.7729    0.0000 </r>
       <r>   17.6129    0.0000 </r>
       <r>   20.1415    0.0000 </r>
       <r>   22.4957    0.0000 </r>
       <r>   26.9657    0.0000 </r>
       <r>   28.8083    0.0000 </r>
      </set>
      <set comment="kpoint 73">
       <r>   -0.6642    1.0000 </r>
       <r>    9.8965    1.0000 </r>
       <r>   14.5467    0.0000 </r>
       <r>   16.4214    0.0000 </r>
       <r>   19.9977    0.0000 </r>
       <r>   24.1363    0.0000 </r>
       <r>   26.0486    0.0000 </r>
       <r>   28.9513    0.0000 </r>
      </set>
      <set comment="kpoint 74">
       <r>    0.6470    1.0000 </r>
       <r>    7.5251    1.0000 </r>
       <r>   14.5049    0.0000 </r>
       <r>   15.4292    0.0000 </r>
       <r>   20.0210    0.0000 </r>
       <r>   24.6952    0.0000 </r>
       <r>   26.4183    0.0000 </r>
       <r>   29.1594    0.0000 </r>
      </set>
      <set comment="kpoint 75">
       <r>    2.1901    1.0000 </r>
       <r>    5.3689    1.0000 </r>
       <r>   14.2553    0.0000 </r>
       <r>   15.0706    0.0000 </r>
       <r>   20.2696    0.0000 </r>
       <r>   24.0211    0.0000 </r>
       <r>   27.5705    0.0000 </r>
       <r>   29.9565    0.0000 </r>
      </set>
      <set comment="kpoint 76">
       <r>    3.2678    1.0000 </r>
       <r>    4.1371    1.0000 </r>
       <r>   13.7026    0.0000 </r>
       <r>   15.4628    0.0000 </r>
       <r>   20.7355    0.0000 </r>
       <r>   23.4601    0.0000 </r>
       <r>   27.7730    0.0000 </r>
       <r>   31.1006    0.0000 </r>
      </set>
      <set comment="kpoint 77">
       <r>    1.6519    1.0000 </r>
       <r>    6.0585    1.0000 </r>
       <r>   13.3032    0.0000 </r>
       <r>   16.1540    0.0000 </r>
       <r>   21.3880    0.0000 </r>
       <r>   23.1388    0.0000 </r>
       <r>   27.5168    0.0000 </r>
       <r>   29.9115    0.0000 </r>
      </set>
      <set comment="kpoint 78">
       <r>    0.1829    1.0000 </r>
       <r>    8.2875    1.0000 </r>
       <r>   13.1265    0.0000 </r>
       <r>   17.0649    0.0000 </r>
       <r>   22.1033    0.0000 </r>
       <r>   23.1575    0.0000 </r>
       <r>   26.7209    0.0000 </r>
       <r>   28.3809    0.0000 </r>
      </set>
      <set comment="kpoint 79">
       <r>   -1.0472    1.0000 </r>
       <r>   10.7040    0.0000 </r>
       <r>   13.1984    0.0000 </r>
       <r>   18.1598    0.0000 </r>
       <r>   22.6075    0.0000 </r>
       <r>   23.6229    0.0000 </r>
       <r>   25.2490    0.0000 </r>
       <r>   27.7364    0.0000 </r>
      </set>
      <set comment="kpoint 80">
       <r>   -2.0291    1.0000 </r>
       <r>   13.0195    0.0000 </r>
       <r>   13.7730    0.0000 </r>
       <r>   19.3499    0.0000 </r>
       <r>   22.6489    0.0000 </r>
       <r>   23.3952    0.0000 </r>
       <r>   25.2050    0.0000 </r>
       <r>   27.1415    0.0000 </r>
      </set>
      <set comment="kpoint 81">
       <r>   -1.3446    1.0000 </r>
       <r>   13.6346    0.0000 </r>
       <r>   14.1470    0.0000 </r>
       <r>   15.8320    0.0000 </r>
       <r>   18.6749    0.0000 </r>
       <r>   20.2922    0.0000 </r>
       <r>   29.0767    0.0000 </r>
       <r>   30.9122    0.0000 </r>
      </set>
      <set comment="kpoint 82">
       <r>   -0.3659    1.0000 </r>
       <r>   11.3186    0.0000 </r>
       <r>   13.6037    0.0000 </r>
       <r>   14.5458    0.0000 </r>
       <r>   18.9949    0.0000 </r>
       <r>   21.4796    0.0000 </r>
       <r>   28.2134    0.0000 </r>
       <r>   31.3616    0.0000 </r>
      </set>
      <set comment="kpoint 83">
       <r>    0.8599    1.0000 </r>
       <r>    8.9227    1.0000 </r>
       <r>   13.0494    0.0000 </r>
       <r>   13.8531    0.0000 </r>
       <r>   19.0524    0.0000 </r>
       <r>   23.4578    0.0000 </r>
       <r>   27.3036    0.0000 </r>
       <r>   31.2683    0.0000 </r>
      </set>
      <set comment="kpoint 84">
       <r>    2.3235    1.0000 </r>
       <r>    6.7076    1.0000 </r>
       <r>   12.1733    0.0000 </r>
       <r>   13.9386    0.0000 </r>
       <r>   19.2711    0.0000 </r>
       <r>   25.4254    0.0000 </r>
       <r>   26.7355    0.0000 </r>
       <r>   30.9167    0.0000 </r>
      </set>
      <set comment="kpoint 85">
       <r>    3.9396    1.0000 </r>
       <r>    4.7850    1.0000 </r>
       <r>   11.4480    0.0000 </r>
       <r>   14.3380    0.0000 </r>
       <r>   19.7069    0.0000 </r>
       <r>   25.5618    0.0000 </r>
       <r>   28.1199    0.0000 </r>
       <r>   30.3032    0.0000 </r>
      </set>
      <set comment="kpoint 86">
       <r>    2.8602    1.0000 </r>
       <r>    6.0099    1.0000 </r>
       <r>   10.9502    0.0000 </r>
       <r>   14.9808    0.0000 </r>
       <r>   20.3607    0.0000 </r>
       <r>   25.1655    0.0000 </r>
       <r>   28.8702    0.0000 </r>
       <r>   29.7536    0.0000 </r>
      </set>
      <set comment="kpoint 87">
       <r>    1.3214    1.0000 </r>
       <r>    8.1244    1.0000 </r>
       <r>   10.7124    0.0000 </r>
       <r>   15.8509    0.0000 </r>
       <r>   21.2163    0.0000 </r>
       <r>   24.9195    0.0000 </r>
       <r>   26.9973    0.0000 </r>
       <r>   29.7096    0.0000 </r>
      </set>
      <set comment="kpoint 88">
       <r>    0.0146    1.0000 </r>
       <r>   10.1282    0.9846 </r>
       <r>   11.0353    0.0000 </r>
       <r>   16.9267    0.0000 </r>
       <r>   22.2233    0.0000 </r>
       <r>   24.5460    0.0000 </r>
       <r>   25.2999    0.0000 </r>
       <r>   28.9625    0.0000 </r>
      </set>
      <set comment="kpoint 89">
       <r>    0.1857    1.0000 </r>
       <r>   12.3988    0.0000 </r>
       <r>   12.6816    0.0000 </r>
       <r>   13.4855    0.0000 </r>
       <r>   17.7158    0.0000 </r>
       <r>   19.3289    0.0000 </r>
       <r>   30.5209    0.0000 </r>
       <r>   33.2123    0.0000 </r>
      </set>
      <set comment="kpoint 90">
       <r>    1.3240    1.0000 </r>
       <r>   10.4594    0.0000 </r>
       <r>   11.2853    0.0000 </r>
       <r>   13.0346    0.0000 </r>
       <r>   18.1955    0.0000 </r>
       <r>   20.7539    0.0000 </r>
       <r>   29.7054    0.0000 </r>
       <r>   33.4542    0.0000 </r>
      </set>
      <set comment="kpoint 91">
       <r>    2.7019    1.0000 </r>
       <r>    8.2533    1.0000 </r>
       <r>   10.2011    0.5395 </r>
       <r>   13.1060    0.0000 </r>
       <r>   18.4255    0.0000 </r>
       <r>   22.9400    0.0000 </r>
       <r>   28.8824    0.0000 </r>
       <r>   32.8542    0.0000 </r>
      </set>
      <set comment="kpoint 92">
       <r>    4.2939    1.0000 </r>
       <r>    6.2180    1.0000 </r>
       <r>    9.3656    1.0000 </r>
       <r>   13.4420    0.0000 </r>
       <r>   18.8131    0.0000 </r>
       <r>   25.3154    0.0000 </r>
       <r>   28.2312    0.0000 </r>
       <r>   31.5416    0.0000 </r>
      </set>
      <set comment="kpoint 93">
       <r>    4.2994    1.0000 </r>
       <r>    6.1824    1.0000 </r>
       <r>    8.7988    1.0000 </r>
       <r>   14.0182    0.0000 </r>
       <r>   19.4145    0.0000 </r>
       <r>   27.1645    0.0000 </r>
       <r>   28.2461    0.0000 </r>
       <r>   29.5822    0.0000 </r>
      </set>
      <set comment="kpoint 94">
       <r>    2.7011    1.0000 </r>
       <r>    7.8582    1.0000 </r>
       <r>    8.8167    1.0000 </r>
       <r>   14.8244    0.0000 </r>
       <r>   20.2258    0.0000 </r>
       <r>   27.0354    0.0000 </r>
       <r>   27.2261    0.0000 </r>
       <r>   30.2889    0.0000 </r>
      </set>
      <set comment="kpoint 95">
       <r>    2.0364    1.0000 </r>
       <r>    9.4973    1.0000 </r>
       <r>   12.0433    0.0000 </r>
       <r>   12.7593    0.0000 </r>
       <r>   17.0705    0.0000 </r>
       <r>   18.7098    0.0000 </r>
       <r>   32.0925    0.0000 </r>
       <r>   35.1684    0.0000 </r>
      </set>
      <set comment="kpoint 96">
       <r>    3.3222    1.0000 </r>
       <r>    8.3219    1.0000 </r>
       <r>   10.0937    0.9991 </r>
       <r>   12.5324    0.0000 </r>
       <r>   17.7150    0.0000 </r>
       <r>   20.3138    0.0000 </r>
       <r>   31.3783    0.0000 </r>
       <r>   34.3404    0.0000 </r>
      </set>
      <set comment="kpoint 97">
       <r>    4.8180    1.0000 </r>
       <r>    7.3223    1.0000 </r>
       <r>    8.1140    1.0000 </r>
       <r>   12.7813    0.0000 </r>
       <r>   18.1096    0.0000 </r>
       <r>   22.6696    0.0000 </r>
       <r>   30.6714    0.0000 </r>
       <r>   32.4289    0.0000 </r>
      </set>
      <set comment="kpoint 98">
       <r>    5.9184    1.0000 </r>
       <r>    6.2320    1.0000 </r>
       <r>    7.2748    1.0000 </r>
       <r>   13.2820    0.0000 </r>
       <r>   18.6585    0.0000 </r>
       <r>   25.2276    0.0000 </r>
       <r>   30.0317    0.0000 </r>
       <r>   30.1141    0.0000 </r>
      </set>
      <set comment="kpoint 99">
       <r>    4.1657    1.0000 </r>
       <r>    6.7908    1.0000 </r>
       <r>   11.7233    0.0000 </r>
       <r>   12.4346    0.0000 </r>
       <r>   16.7472    0.0000 </r>
       <r>   18.4003    0.0000 </r>
       <r>   33.6347    0.0000 </r>
       <r>   35.1638    0.0000 </r>
      </set>
      <set comment="kpoint 100">
       <r>    5.2556    1.0000 </r>
       <r>    6.1114    1.0000 </r>
       <r>    9.9177    1.0000 </r>
       <r>   12.3706    0.0000 </r>
       <r>   17.5551    0.0000 </r>
       <r>   20.1661    0.0000 </r>
       <r>   32.9034    0.0000 </r>
       <r>   33.3344    0.0000 </r>
      </set>
      <set comment="kpoint 101">
       <r>   -0.8338    1.0000 </r>
       <r>   11.7391    0.0000 </r>
       <r>   12.5367    0.0000 </r>
       <r>   16.2970    0.0000 </r>
       <r>   21.4730    0.0000 </r>
       <r>   22.4102    0.0000 </r>
       <r>   26.0500    0.0000 </r>
       <r>   30.0234    0.0000 </r>
      </set>
      <set comment="kpoint 102">
       <r>    0.3110    1.0000 </r>
       <r>    9.5753    1.0000 </r>
       <r>   12.0925    0.0000 </r>
       <r>   15.0667    0.0000 </r>
       <r>   21.7466    0.0000 </r>
       <r>   23.7105    0.0000 </r>
       <r>   25.3228    0.0000 </r>
       <r>   30.5788    0.0000 </r>
      </set>
      <set comment="kpoint 103">
       <r>    1.6981    1.0000 </r>
       <r>    7.3097    1.0000 </r>
       <r>   12.1584    0.0000 </r>
       <r>   14.0495    0.0000 </r>
       <r>   21.8319    0.0000 </r>
       <r>   23.7697    0.0000 </r>
       <r>   26.5232    0.0000 </r>
       <r>   30.6535    0.0000 </r>
      </set>
      <set comment="kpoint 104">
       <r>    3.3021    1.0000 </r>
       <r>    5.2541    1.0000 </r>
       <r>   12.4117    0.0000 </r>
       <r>   13.3239    0.0000 </r>
       <r>   21.9898    0.0000 </r>
       <r>   23.2790    0.0000 </r>
       <r>   28.5496    0.0000 </r>
       <r>   30.1323    0.0000 </r>
      </set>
      <set comment="kpoint 105">
       <r>    0.6920    1.0000 </r>
       <r>   10.7728    0.0000 </r>
       <r>   11.5318    0.0000 </r>
       <r>   13.1809    0.0000 </r>
       <r>   20.5519    0.0000 </r>
       <r>   21.6371    0.0000 </r>
       <r>   27.3325    0.0000 </r>
       <r>   32.7491    0.0000 </r>
      </set>
      <set comment="kpoint 106">
       <r>    1.9936    1.0000 </r>
       <r>    8.7599    1.0000 </r>
       <r>   11.1755    0.0000 </r>
       <r>   12.1132    0.0000 </r>
       <r>   21.0381    0.0000 </r>
       <r>   23.3302    0.0000 </r>
       <r>   26.4912    0.0000 </r>
       <r>   32.7687    0.0000 </r>
      </set>
      <set comment="kpoint 107">
       <r>    3.5255    1.0000 </r>
       <r>    6.6560    1.0000 </r>
       <r>   10.8545    0.0000 </r>
       <r>   11.7666    0.0000 </r>
       <r>   21.3430    0.0000 </r>
       <r>   24.9232    0.0000 </r>
       <r>   26.4313    0.0000 </r>
       <r>   31.2475    0.0000 </r>
      </set>
      <set comment="kpoint 108">
       <r>    4.6096    1.0000 </r>
       <r>    5.4205    1.0000 </r>
       <r>   10.2805    0.0159 </r>
       <r>   12.1752    0.0000 </r>
       <r>   21.8100    0.0000 </r>
       <r>   24.7487    0.0000 </r>
       <r>   28.1142    0.0000 </r>
       <r>   29.3704    0.0000 </r>
      </set>
      <set comment="kpoint 109">
       <r>    2.9913    1.0000 </r>
       <r>    7.3096    1.0000 </r>
       <r>    9.8987    1.0000 </r>
       <r>   12.9002    0.0000 </r>
       <r>   22.4314    0.0000 </r>
       <r>   24.3917    0.0000 </r>
       <r>   26.5899    0.0000 </r>
       <r>   30.8201    0.0000 </r>
      </set>
      <set comment="kpoint 110">
       <r>    1.5324    1.0000 </r>
       <r>    9.1578    1.0000 </r>
       <r>   10.0707    0.9999 </r>
       <r>   13.8723    0.0000 </r>
       <r>   23.0633    0.0000 </r>
       <r>   23.6858    0.0000 </r>
       <r>   25.1048    0.0000 </r>
       <r>   32.0227    0.0000 </r>
      </set>
      <set comment="kpoint 111">
       <r>    2.5368    1.0000 </r>
       <r>    9.8743    1.0000 </r>
       <r>   10.1269    0.9860 </r>
       <r>   11.2009    0.0000 </r>
       <r>   19.9240    0.0000 </r>
       <r>   21.0990    0.0000 </r>
       <r>   28.9132    0.0000 </r>
       <r>   33.9533    0.0000 </r>
      </set>
      <set comment="kpoint 112">
       <r>    3.9812    1.0000 </r>
       <r>    8.2121    1.0000 </r>
       <r>    9.0521    1.0000 </r>
       <r>   10.9565    0.0000 </r>
       <r>   20.5933    0.0000 </r>
       <r>   22.9882    0.0000 </r>
       <r>   28.1410    0.0000 </r>
       <r>   31.9599    0.0000 </r>
      </set>
      <set comment="kpoint 113">
       <r>    5.5846    1.0000 </r>
       <r>    6.3443    1.0000 </r>
       <r>    8.3137    1.0000 </r>
       <r>   11.3316    0.0000 </r>
       <r>   21.0691    0.0000 </r>
       <r>   25.3153    0.0000 </r>
       <r>   27.5315    0.0000 </r>
       <r>   29.6338    0.0000 </r>
      </set>
      <set comment="kpoint 114">
       <r>    4.5142    1.0000 </r>
       <r>    7.2085    1.0000 </r>
       <r>    8.1615    1.0000 </r>
       <r>   11.9905    0.0000 </r>
       <r>   21.7000    0.0000 </r>
       <r>   26.4846    0.0000 </r>
       <r>   26.6775    0.0000 </r>
       <r>   28.9387    0.0000 </r>
      </set>
      <set comment="kpoint 115">
       <r>    4.6579    1.0000 </r>
       <r>    7.2615    1.0000 </r>
       <r>    9.8042    1.0000 </r>
       <r>   10.7826    0.0000 </r>
       <r>   19.6089    0.0000 </r>
       <r>   20.8228    0.0000 </r>
       <r>   30.7061    0.0000 </r>
       <r>   32.5480    0.0000 </r>
      </set>
      <set comment="kpoint 116">
       <r>    5.9067    1.0000 </r>
       <r>    6.7098    1.0000 </r>
       <r>    8.1993    1.0000 </r>
       <r>   10.7685    0.0000 </r>
       <r>   20.4434    0.0000 </r>
       <r>   22.8662    0.0000 </r>
       <r>   29.7832    0.0000 </r>
       <r>   30.3348    0.0000 </r>
      </set>
      <set comment="kpoint 117">
       <r>    3.3661    1.0000 </r>
       <r>    8.5091    1.0000 </r>
       <r>    9.3532    1.0000 </r>
       <r>   10.9798    0.0000 </r>
       <r>   23.0869    0.0000 </r>
       <r>   23.4740    0.0000 </r>
       <r>   25.8128    0.0000 </r>
       <r>   31.4566    0.0000 </r>
      </set>
      <set comment="kpoint 118">
       <r>    4.9544    1.0000 </r>
       <r>    6.8218    1.0000 </r>
       <r>    9.2765    1.0000 </r>
       <r>   10.2257    0.2756 </r>
       <r>   23.4339    0.0000 </r>
       <r>   24.5392    0.0000 </r>
       <r>   26.2742    0.0000 </r>
       <r>   29.1916    0.0000 </r>
      </set>
      <set comment="kpoint 119">
       <r>    5.4703    1.0000 </r>
       <r>    7.9545    1.0000 </r>
       <r>    8.1847    1.0000 </r>
       <r>    9.3664    1.0000 </r>
       <r>   22.7812    0.0000 </r>
       <r>   23.4372    0.0000 </r>
       <r>   27.3659    0.0000 </r>
       <r>   29.6010    0.0000 </r>
      </set>
      <set comment="kpoint 120">
       <r>    6.5566    1.0000 </r>
       <r>    6.8826    1.0000 </r>
       <r>    7.7821    1.0000 </r>
       <r>    9.4410    1.0000 </r>
       <r>   23.4993    0.0000 </r>
       <r>   25.3454    0.0000 </r>
       <r>   26.1940    0.0000 </r>
       <r>   28.0125    0.0000 </r>
      </set>
     </set>
    </set>
   </array>
  </eigenvalues>
  <separator name="orbital magnetization" >
   <v name="MAGDIPOLOUT">      0.00000000      0.00000000      0.00000000</v>
  </separator>
  <dos>
   <i name="efermi">     10.20461640 </i>
   <total>
    <array>
     <dimension dim="1">gridpoints</dimension>
     <dimension dim="2">spin</dimension>
     <field>energy</field>
     <field>total</field>
     <field>integrated</field>
     <set>
      <set comment="spin 1">
       <r>    -6.3046     0.0000     0.0000 </r>
       <r>    -6.1552     0.0000     0.0000 </r>
       <r>    -6.0059     0.0000     0.0000 </r>
       <r>    -5.8565     0.0000     0.0000 </r>
       <r>    -5.7071     0.0000     0.0000 </r>
       <r>    -5.5577     0.0000     0.0000 </r>
       <r>    -5.4084     0.0000     0.0000 </r>
       <r>    -5.2590     0.0000     0.0000 </r>
       <r>    -5.1096     0.0000     0.0000 </r>
       <r>    -4.9602     0.0000     0.0000 </r>
       <r>    -4.8109     0.0000     0.0000 </r>
       <r>    -4.6615     0.0000     0.0000 </r>
       <r>    -4.5121     0.0000     0.0000 </r>
       <r>    -4.3627     0.0000     0.0000 </r>
       <r>    -4.2134     0.0042     0.0006 </r>
       <r>    -4.0640     0.0501     0.0081 </r>
       <r>    -3.9146     0.0328     0.0130 </r>
       <r>    -3.7652     0.1041     0.0286 </r>
       <r>    -3.6159     0.0460     0.0354 </r>
       <r>    -3.4665     0.0518     0.0432 </r>
       <r>    -3.3171     0.1594     0.0670 </r>
       <r>    -3.1677     0.0958     0.0813 </r>
       <r>    -3.0184     0.1252     0.1000 </r>
       <r>    -2.8690     0.0344     0.1051 </r>
       <r>    -2.7196     0.2321     0.1398 </r>
       <r>    -2.5702     0.1128     0.1566 </r>
       <r>    -2.4209     0.1232     0.1750 </r>
       <r>    -2.2715     0.1418     0.1962 </r>
       <r>    -2.1221     0.0459     0.2031 </r>
       <r>    -1.9727     0.2653     0.2427 </r>
       <r>    -1.8234     0.1663     0.2676 </r>
       <r>    -1.6740     0.2990     0.3122 </r>
       <r>    -1.5246     0.0258     0.3161 </r>
       <r>    -1.3752     0.1138     0.3331 </r>
       <r>    -1.2259     0.1967     0.3624 </r>
       <r>    -1.0765     0.1797     0.3893 </r>
       <r>    -0.9271     0.2691     0.4295 </r>
       <r>    -0.7777     0.0974     0.4440 </r>
       <r>    -0.6283     0.4415     0.5100 </r>
       <r>    -0.4790     0.0990     0.5248 </r>
       <r>    -0.3296     0.1910     0.5533 </r>
       <r>    -0.1802     0.0527     0.5612 </r>
       <r>    -0.0308     0.2199     0.5940 </r>
       <r>     0.1185     0.2654     0.6337 </r>
       <r>     0.2679     0.3085     0.6797 </r>
       <r>     0.4173     0.3759     0.7359 </r>
       <r>     0.5667     0.0070     0.7369 </r>
       <r>     0.7160     0.4073     0.7978 </r>
       <r>     0.8654     0.1736     0.8237 </r>
       <r>     1.0148     0.2388     0.8594 </r>
       <r>     1.1642     0.0439     0.8659 </r>
       <r>     1.3135     0.2529     0.9037 </r>
       <r>     1.4629     0.4605     0.9725 </r>
       <r>     1.6123     0.2163     1.0048 </r>
       <r>     1.7617     0.4352     1.0698 </r>
       <r>     1.9110     0.1228     1.0881 </r>
       <r>     2.0604     0.2910     1.1316 </r>
       <r>     2.2098     0.2210     1.1646 </r>
       <r>     2.3592     0.4381     1.2301 </r>
       <r>     2.5085     0.0579     1.2387 </r>
       <r>     2.6579     0.2454     1.2754 </r>
       <r>     2.8073     0.3171     1.3227 </r>
       <r>     2.9567     0.3708     1.3781 </r>
       <r>     3.1060     0.3790     1.4347 </r>
       <r>     3.2554     0.1837     1.4622 </r>
       <r>     3.4048     0.5634     1.5463 </r>
       <r>     3.5542     0.2579     1.5849 </r>
       <r>     3.7035     0.1309     1.6044 </r>
       <r>     3.8529     0.0911     1.6180 </r>
       <r>     4.0023     0.3735     1.6738 </r>
       <r>     4.1517     0.2404     1.7097 </r>
       <r>     4.3011     0.6124     1.8012 </r>
       <r>     4.4504     0.3188     1.8488 </r>
       <r>     4.5998     0.1705     1.8743 </r>
       <r>     4.7492     0.3205     1.9221 </r>
       <r>     4.8986     0.4173     1.9845 </r>
       <r>     5.0479     0.4344     2.0494 </r>
       <r>     5.1973     0.1496     2.0717 </r>
       <r>     5.3467     0.4169     2.1340 </r>
       <r>     5.4961     0.4909     2.2073 </r>
       <r>     5.6454     0.2532     2.2451 </r>
       <r>     5.7948     0.1266     2.2640 </r>
       <r>     5.9442     0.1873     2.2920 </r>
       <r>     6.0936     0.5302     2.3712 </r>
       <r>     6.2429     0.4882     2.4441 </r>
       <r>     6.3923     0.5489     2.5261 </r>
       <r>     6.5417     0.0962     2.5405 </r>
       <r>     6.6911     0.3350     2.5906 </r>
       <r>     6.8404     0.4779     2.6619 </r>
       <r>     6.9898     0.5020     2.7369 </r>
       <r>     7.1392     0.1585     2.7606 </r>
       <r>     7.2886     0.4560     2.8287 </r>
       <r>     7.4379     0.4912     2.9021 </r>
       <r>     7.5873     0.1843     2.9296 </r>
       <r>     7.7367     0.1086     2.9459 </r>
       <r>     7.8861     0.2271     2.9798 </r>
       <r>     8.0354     0.4618     3.0488 </r>
       <r>     8.1848     0.6310     3.1430 </r>
       <r>     8.3342     0.9197     3.2804 </r>
       <r>     8.4836     0.2405     3.3163 </r>
       <r>     8.6329     0.1493     3.3386 </r>
       <r>     8.7823     0.4031     3.3988 </r>
       <r>     8.9317     0.4850     3.4713 </r>
       <r>     9.0811     0.2288     3.5055 </r>
       <r>     9.2305     0.1828     3.5328 </r>
       <r>     9.3798     0.7086     3.6386 </r>
       <r>     9.5292     0.3305     3.6880 </r>
       <r>     9.6786     0.4561     3.7561 </r>
       <r>     9.8280     0.1367     3.7765 </r>
       <r>     9.9773     0.6844     3.8788 </r>
       <r>    10.1267     0.4879     3.9516 </r>
       <r>    10.2761     0.6291     4.0456 </r>
       <r>    10.4255     0.2842     4.0880 </r>
       <r>    10.5748     0.2081     4.1191 </r>
       <r>    10.7242     0.3681     4.1741 </r>
       <r>    10.8736     0.6760     4.2751 </r>
       <r>    11.0230     0.6206     4.3678 </r>
       <r>    11.1723     0.2666     4.4076 </r>
       <r>    11.3217     0.6279     4.5014 </r>
       <r>    11.4711     0.4237     4.5647 </r>
       <r>    11.6205     0.2241     4.5982 </r>
       <r>    11.7698     0.3208     4.6461 </r>
       <r>    11.9192     0.4551     4.7141 </r>
       <r>    12.0686     0.3363     4.7643 </r>
       <r>    12.2180     1.0185     4.9164 </r>
       <r>    12.3673     0.2748     4.9575 </r>
       <r>    12.5167     0.6819     5.0593 </r>
       <r>    12.6661     0.3207     5.1072 </r>
       <r>    12.8155     0.5339     5.1870 </r>
       <r>    12.9648     0.2915     5.2305 </r>
       <r>    13.1142     0.7384     5.3409 </r>
       <r>    13.2636     0.6150     5.4327 </r>
       <r>    13.4130     0.4927     5.5063 </r>
       <r>    13.5623     0.3707     5.5617 </r>
       <r>    13.7117     0.5939     5.6504 </r>
       <r>    13.8611     0.5648     5.7348 </r>
       <r>    14.0105     0.5205     5.8125 </r>
       <r>    14.1599     0.6553     5.9104 </r>
       <r>    14.3092     0.3688     5.9655 </r>
       <r>    14.4586     0.5022     6.0405 </r>
       <r>    14.6080     0.7446     6.1517 </r>
       <r>    14.7574     0.6032     6.2418 </r>
       <r>    14.9067     0.3791     6.2984 </r>
       <r>    15.0561     0.4855     6.3710 </r>
       <r>    15.2055     0.3467     6.4228 </r>
       <r>    15.3549     0.1481     6.4449 </r>
       <r>    15.5042     0.6666     6.5444 </r>
       <r>    15.6536     0.4706     6.6147 </r>
       <r>    15.8030     0.7278     6.7235 </r>
       <r>    15.9524     0.6265     6.8170 </r>
       <r>    16.1017     0.2463     6.8538 </r>
       <r>    16.2511     0.5870     6.9415 </r>
       <r>    16.4005     0.1818     6.9687 </r>
       <r>    16.5499     0.6553     7.0665 </r>
       <r>    16.6992     0.2600     7.1054 </r>
       <r>    16.8486     0.5075     7.1812 </r>
       <r>    16.9980     0.4345     7.2461 </r>
       <r>    17.1474     0.7213     7.3538 </r>
       <r>    17.2967     0.4789     7.4254 </r>
       <r>    17.4461     0.2741     7.4663 </r>
       <r>    17.5955     0.5416     7.5472 </r>
       <r>    17.7449     0.6877     7.6500 </r>
       <r>    17.8942     0.3478     7.7019 </r>
       <r>    18.0436     0.1947     7.7310 </r>
       <r>    18.1930     0.9082     7.8667 </r>
       <r>    18.3424     0.7643     7.9808 </r>
       <r>    18.4917     0.6028     8.0709 </r>
       <r>    18.6411     0.2738     8.1118 </r>
       <r>    18.7905     0.4837     8.1840 </r>
       <r>    18.9399     0.6107     8.2752 </r>
       <r>    19.0892     0.4688     8.3453 </r>
       <r>    19.2386     0.3611     8.3992 </r>
       <r>    19.3880     1.0601     8.5576 </r>
       <r>    19.5374     0.3357     8.6077 </r>
       <r>    19.6868     0.1860     8.6355 </r>
       <r>    19.8361     0.3495     8.6877 </r>
       <r>    19.9855     0.5247     8.7661 </r>
       <r>    20.1349     0.7668     8.8806 </r>
       <r>    20.2843     0.7199     8.9881 </r>
       <r>    20.4336     0.8000     9.1076 </r>
       <r>    20.5830     0.5477     9.1894 </r>
       <r>    20.7324     0.3945     9.2484 </r>
       <r>    20.8818     0.5131     9.3250 </r>
       <r>    21.0311     0.4639     9.3943 </r>
       <r>    21.1805     1.0782     9.5554 </r>
       <r>    21.3299     0.4727     9.6260 </r>
       <r>    21.4793     0.7761     9.7419 </r>
       <r>    21.6286     0.3116     9.7885 </r>
       <r>    21.7780     0.5334     9.8682 </r>
       <r>    21.9274     0.9676    10.0127 </r>
       <r>    22.0768     0.3575    10.0661 </r>
       <r>    22.2261     0.2699    10.1064 </r>
       <r>    22.3755     0.3318    10.1560 </r>
       <r>    22.5249     0.8467    10.2824 </r>
       <r>    22.6743     0.5483    10.3643 </r>
       <r>    22.8236     0.4118    10.4258 </r>
       <r>    22.9730     0.4668    10.4956 </r>
       <r>    23.1224     0.6563    10.5936 </r>
       <r>    23.2718     0.8066    10.7141 </r>
       <r>    23.4211     0.8090    10.8349 </r>
       <r>    23.5705     1.0626    10.9937 </r>
       <r>    23.7199     0.7307    11.1028 </r>
       <r>    23.8693     0.5489    11.1848 </r>
       <r>    24.0186     0.3100    11.2311 </r>
       <r>    24.1680     0.7310    11.3403 </r>
       <r>    24.3174     0.2342    11.3753 </r>
       <r>    24.4668     0.7910    11.4935 </r>
       <r>    24.6162     0.7899    11.6114 </r>
       <r>    24.7655     0.4667    11.6812 </r>
       <r>    24.9149     0.4115    11.7426 </r>
       <r>    25.0643     0.3709    11.7980 </r>
       <r>    25.2137     0.6569    11.8961 </r>
       <r>    25.3630     1.5022    12.1205 </r>
       <r>    25.5124     0.7774    12.2367 </r>
       <r>    25.6618     0.3130    12.2834 </r>
       <r>    25.8112     0.5522    12.3659 </r>
       <r>    25.9605     0.9349    12.5056 </r>
       <r>    26.1099     0.5648    12.5899 </r>
       <r>    26.2593     0.6546    12.6877 </r>
       <r>    26.4087     0.4207    12.7505 </r>
       <r>    26.5580     0.9236    12.8885 </r>
       <r>    26.7074     0.6387    12.9839 </r>
       <r>    26.8568     0.2993    13.0286 </r>
       <r>    27.0062     0.4194    13.0913 </r>
       <r>    27.1555     0.4052    13.1518 </r>
       <r>    27.3049     0.8258    13.2751 </r>
       <r>    27.4543     0.8118    13.3964 </r>
       <r>    27.6037     0.9114    13.5325 </r>
       <r>    27.7530     0.7182    13.6398 </r>
       <r>    27.9024     0.2813    13.6818 </r>
       <r>    28.0518     0.4109    13.7432 </r>
       <r>    28.2012     0.8132    13.8647 </r>
       <r>    28.3505     0.7575    13.9778 </r>
       <r>    28.4999     0.4209    14.0407 </r>
       <r>    28.6493     0.1833    14.0681 </r>
       <r>    28.7987     0.1090    14.0844 </r>
       <r>    28.9480     0.8014    14.2041 </r>
       <r>    29.0974     0.5625    14.2881 </r>
       <r>    29.2468     0.5646    14.3724 </r>
       <r>    29.3962     0.3799    14.4292 </r>
       <r>    29.5456     0.1761    14.4555 </r>
       <r>    29.6949     0.9180    14.5926 </r>
       <r>    29.8443     0.9367    14.7326 </r>
       <r>    29.9937     0.6441    14.8288 </r>
       <r>    30.1431     0.4936    14.9025 </r>
       <r>    30.2924     0.3255    14.9511 </r>
       <r>    30.4418     0.3297    15.0004 </r>
       <r>    30.5912     0.2521    15.0380 </r>
       <r>    30.7406     0.6558    15.1360 </r>
       <r>    30.8899     0.3252    15.1846 </r>
       <r>    31.0393     0.2899    15.2279 </r>
       <r>    31.1887     0.3208    15.2758 </r>
       <r>    31.3381     0.4871    15.3486 </r>
       <r>    31.4874     0.4915    15.4220 </r>
       <r>    31.6368     0.2920    15.4656 </r>
       <r>    31.7862     0.0072    15.4667 </r>
       <r>    31.9356     0.1032    15.4821 </r>
       <r>    32.0849     0.5440    15.5633 </r>
       <r>    32.2343     0.1087    15.5796 </r>
       <r>    32.3837     0.0726    15.5904 </r>
       <r>    32.5331     0.2029    15.6207 </r>
       <r>    32.6824     0.0817    15.6329 </r>
       <r>    32.8318     0.3354    15.6831 </r>
       <r>    32.9812     0.2938    15.7269 </r>
       <r>    33.1306     0.1390    15.7477 </r>
       <r>    33.2799     0.0975    15.7623 </r>
       <r>    33.4293     0.1892    15.7905 </r>
       <r>    33.5787     0.1701    15.8159 </r>
       <r>    33.7281     0.2431    15.8522 </r>
       <r>    33.8774     0.0516    15.8600 </r>
       <r>    34.0268     0.1976    15.8895 </r>
       <r>    34.1762     0.0020    15.8898 </r>
       <r>    34.3256     0.0643    15.8994 </r>
       <r>    34.4749     0.1274    15.9184 </r>
       <r>    34.6243     0.0458    15.9253 </r>
       <r>    34.7737     0.0038    15.9258 </r>
       <r>    34.9231     0.1049    15.9415 </r>
       <r>    35.0725     0.0117    15.9432 </r>
       <r>    35.2218     0.1960    15.9725 </r>
       <r>    35.3712     0.0178    15.9752 </r>
       <r>    35.5206     0.0885    15.9884 </r>
       <r>    35.6700     0.0064    15.9893 </r>
       <r>    35.8193     0.0000    15.9893 </r>
       <r>    35.9687     0.0000    15.9893 </r>
       <r>    36.1181     0.0239    15.9929 </r>
       <r>    36.2675     0.0237    15.9964 </r>
       <r>    36.4168     0.0015    15.9967 </r>
       <r>    36.5662     0.0222    16.0000 </r>
       <r>    36.7156     0.0001    16.0000 </r>
       <r>    36.8650     0.0000    16.0000 </r>
       <r>    37.0143     0.0000    16.0000 </r>
       <r>    37.1637     0.0000    16.0000 </r>
       <r>    37.3131     0.0000    16.0000 </r>
       <r>    37.4625     0.0000    16.0000 </r>
       <r>    37.6118     0.0000    16.0000 </r>
       <r>    37.7612     0.0000    16.0000 </r>
       <r>    37.9106     0.0000    16.0000 </r>
       <r>    38.0600     0.0000    16.0000 </r>
       <r>    38.2093     0.0000    16.0000 </r>
       <r>    38.3587     0.0000    16.0000 </r>
       <r>    38.5081     0.0000    16.0000 </r>
      </set>
     </set>
    </array>
   </total>
  </dos>
 </calculation>
 <structure name="finalpos" >
  <crystal>
   <varray name="basis" >
    <v>       2.36560202      -0.00000000       1.36577981 </v>
    <v>       0.78853400       2.23031074       1.36577981 </v>
    <v>      -0.00000001      -0.00000001       2.73156165 </v>
   </varray>
   <i name="volume">     14.41179466 </i>
   <varray name="rec_basis" >
    <v>       0.42272537      -0.14945601       0.00000000 </v>
    <v>       0.00000000       0.44836802       0.00000000 </v>
    <v>      -0.21136253      -0.14945589       0.36609095 </v>
   </varray>
  </crystal>
  <varray name="positions" >
   <v>       0.00000000      -0.00000000       0.00000000 </v>
  </varray>
 </structure>
</modeling>
