unknown system                          
           1
     2.347395    0.000000    1.355268
     0.782465    2.213145    1.355268
     0.000000    0.000000    2.710538
   Si
     1
Direct configuration=     1
   0.00000000  0.00000000  0.00000000
unknown system                          
           1
     2.367337   -0.000000    1.366782
     0.789112    2.231947    1.366782
    -0.000000   -0.000000    2.733566
   Si
     1
Direct configuration=     2
   0.00000000  0.00000000  0.00000000
unknown system                          
           1
     2.365602   -0.000000    1.365780
     0.788534    2.230311    1.365780
    -0.000000   -0.000000    2.731562
   Si
     1
Direct configuration=     3
   0.00000000 -0.00000000  0.00000000
