unknown system                          
   1.00000000000000     
     2.799814   -0.000000    0.000000
     0.000000    2.799814    0.000000
    -0.000000   -0.000000    2.799814
   Fe
     2
Direct
  0.000000  0.000000  0.000000
  0.500000  0.500000  0.500000
 
   32   32   32
  199.04      192.77      175.06      148.94      118.49      87.900      60.652      38.990      23.747      14.490    
  9.8296      7.8886      6.8740      6.1588      5.7379      5.5164      5.4556      5.5164      5.7379      6.1588    
  6.8740      7.8886      9.8296      14.490      23.747      38.990      60.652      87.900      118.49      148.94    
  175.06      192.77      192.77      186.72      169.65      144.42      114.96      85.333      58.908      37.894    
  23.130      14.196      9.7240      7.8592      6.8578      6.1525      5.7376      5.5201      5.4599      5.5201    
  5.7376      6.1525      6.8578      7.8592      9.7240      14.196      23.130      37.894      58.908      85.333    
  114.96      144.42      169.65      186.72      175.06      169.65      154.32      131.59      104.93      77.996    
  53.911      34.764      21.379      13.371      9.4353      7.7745      6.8086      6.1337      5.7363      5.5305    
  5.4718      5.5305      5.7363      6.1337      6.8086      7.7745      9.4353      13.371      21.379      34.764    
  53.911      77.996      104.93      131.59      154.32      169.65      148.94      144.42      131.59      112.45    
  89.876      66.936      46.370      30.061      18.790      12.189      9.0364      7.6402      6.7256      6.1030    
  5.7326      5.5462      5.4894      5.5462      5.7326      6.1030      6.7256      7.6402      9.0364      12.189    
  18.790      30.061      46.370      66.936      89.876      112.45      131.59      144.42      118.49      114.96    
  104.93      89.876      71.994      53.740      37.384      24.528      15.824      10.898      8.6124      7.4554    
  6.6135      6.0605      5.7268      5.5635      5.5102      5.5635      5.7268      6.0605      6.6135      7.4554    
  8.6124      10.898      15.824      24.528      37.384      53.740      71.994      89.876      104.93      114.96    
  87.900      85.333      77.996      66.936      53.740      40.272      28.291      19.052      13.010      9.7518    
  8.2059      7.2184      6.4827      6.0056      5.7200      5.5780      5.5330      5.5780      5.7200      6.0056    
  6.4827      7.2184      8.2059      9.7518      13.010      19.052      28.291      40.272      53.740      66.936    
  77.996      85.333      60.652      58.908      53.911      46.370      37.384      28.291      20.355      14.454    
  10.783      8.8815      7.7938      6.9466      6.3426      5.9434      5.7104      5.5876      5.5530      5.5876    
  5.7104      5.9434      6.3426      6.9466      7.7938      8.8815      10.783      14.454      20.355      28.291    
  37.384      46.370      53.911      58.908      38.990      37.894      34.764      30.061      24.528      19.052    
  14.454      11.210      9.3104      8.2114      7.3513      6.6763      6.1967      5.8826      5.6932      5.5950    
  5.5643      5.5950      5.6932      5.8826      6.1967      6.6763      7.3513      8.2114      9.3104      11.210    
  14.454      19.052      24.528      30.061      34.764      37.894      23.747      23.130      21.379      18.790    
  15.824      13.010      10.783      9.3104      8.3660      7.5875      6.9264      6.4214      6.0610      5.8218    
  5.6730      5.5936      5.5683      5.5936      5.6730      5.8218      6.0610      6.4214      6.9264      7.5875    
  8.3660      9.3104      10.783      13.010      15.824      18.790      21.379      23.130      14.490      14.196    
  13.371      12.189      10.898      9.7518      8.8815      8.2114      7.5875      7.0196      6.5547      6.1975    
  5.9398      5.7618      5.6481      5.5844      5.5643      5.5844      5.6481      5.7618      5.9398      6.1975    
  6.5547      7.0196      7.5875      8.2114      8.8815      9.7518      10.898      12.189      13.371      14.196    
  9.8296      9.7240      9.4353      9.0364      8.6124      8.2059      7.7938      7.3513      6.9264      6.5547    
  6.2489      6.0113      5.8334      5.7067      5.6203      5.5700      5.5530      5.5700      5.6203      5.7067    
  5.8334      6.0113      6.2489      6.5547      6.9264      7.3513      7.7938      8.2059      8.6124      9.0364    
  9.4353      9.7240      7.8886      7.8592      7.7745      7.6402      7.4554      7.2184      6.9466      6.6763    
  6.4214      6.1975      6.0113      5.8611      5.7446      5.6536      5.5875      5.5466      5.5330      5.5466    
  5.5875      5.6536      5.7446      5.8611      6.0113      6.1975      6.4214      6.6763      6.9466      7.2184    
  7.4554      7.6402      7.7745      7.8592      6.8740      6.8578      6.8086      6.7256      6.6135      6.4827    
  6.3426      6.1967      6.0610      5.9398      5.8334      5.7446      5.6670      5.6019      5.5521      5.5210    
  5.5102      5.5210      5.5521      5.6019      5.6670      5.7446      5.8334      5.9398      6.0610      6.1967    
  6.3426      6.4827      6.6135      6.7256      6.8086      6.8578      6.1588      6.1525      6.1337      6.1030    
  6.0605      6.0056      5.9434      5.8826      5.8218      5.7618      5.7067      5.6536      5.6019      5.5563    
  5.5205      5.4974      5.4894      5.4974      5.5205      5.5563      5.6019      5.6536      5.7067      5.7618    
  5.8218      5.8826      5.9434      6.0056      6.0605      6.1030      6.1337      6.1525      5.7379      5.7376    
  5.7363      5.7326      5.7268      5.7200      5.7104      5.6932      5.6730      5.6481      5.6203      5.5875    
  5.5521      5.5205      5.4949      5.4779      5.4718      5.4779      5.4949      5.5205      5.5521      5.5875    
  5.6203      5.6481      5.6730      5.6932      5.7104      5.7200      5.7268      5.7326      5.7363      5.7376    
  5.5164      5.5201      5.5305      5.5462      5.5635      5.5780      5.5876      5.5950      5.5936      5.5844    
  5.5700      5.5466      5.5210      5.4974      5.4779      5.4645      5.4599      5.4645      5.4779      5.4974    
  5.5210      5.5466      5.5700      5.5844      5.5936      5.5950      5.5876      5.5780      5.5635      5.5462    
  5.5305      5.5201      5.4556      5.4599      5.4718      5.4894      5.5102      5.5330      5.5530      5.5643    
  5.5683      5.5643      5.5530      5.5330      5.5102      5.4894      5.4718      5.4599      5.4556      5.4599    
  5.4718      5.4894      5.5102      5.5330      5.5530      5.5643      5.5683      5.5643      5.5530      5.5330    
  5.5102      5.4894      5.4718      5.4599      5.5164      5.5201      5.5305      5.5462      5.5635      5.5780    
  5.5876      5.5950      5.5936      5.5844      5.5700      5.5466      5.5210      5.4974      5.4779      5.4645    
  5.4599      5.4645      5.4779      5.4974      5.5210      5.5466      5.5700      5.5844      5.5936      5.5950    
  5.5876      5.5780      5.5635      5.5462      5.5305      5.5201      5.7379      5.7376      5.7363      5.7326    
  5.7268      5.7200      5.7104      5.6932      5.6730      5.6481      5.6203      5.5875      5.5521      5.5205    
  5.4949      5.4779      5.4718      5.4779      5.4949      5.5205      5.5521      5.5875      5.6203      5.6481    
  5.6730      5.6932      5.7104      5.7200      5.7268      5.7326      5.7363      5.7376      6.1588      6.1525    
  6.1337      6.1030      6.0605      6.0056      5.9434      5.8826      5.8218      5.7618      5.7067      5.6536    
  5.6019      5.5563      5.5205      5.4974      5.4894      5.4974      5.5205      5.5563      5.6019      5.6536    
  5.7067      5.7618      5.8218      5.8826      5.9434      6.0056      6.0605      6.1030      6.1337      6.1525    
  6.8740      6.8578      6.8086      6.7256      6.6135      6.4827      6.3426      6.1967      6.0610      5.9398    
  5.8334      5.7446      5.6670      5.6019      5.5521      5.5210      5.5102      5.5210      5.5521      5.6019    
  5.6670      5.7446      5.8334      5.9398      6.0610      6.1967      6.3426      6.4827      6.6135      6.7256    
  6.8086      6.8578      7.8886      7.8592      7.7745      7.6402      7.4554      7.2184      6.9466      6.6763    
  6.4214      6.1975      6.0113      5.8611      5.7446      5.6536      5.5875      5.5466      5.5330      5.5466    
  5.5875      5.6536      5.7446      5.8611      6.0113      6.1975      6.4214      6.6763      6.9466      7.2184    
  7.4554      7.6402      7.7745      7.8592      9.8296      9.7240      9.4353      9.0364      8.6124      8.2059    
  7.7938      7.3513      6.9264      6.5547      6.2489      6.0113      5.8334      5.7067      5.6203      5.5700    
  5.5530      5.5700      5.6203      5.7067      5.8334      6.0113      6.2489      6.5547      6.9264      7.3513    
  7.7938      8.2059      8.6124      9.0364      9.4353      9.7240      14.490      14.196      13.371      12.189    
  10.898      9.7518      8.8815      8.2114      7.5875      7.0196      6.5547      6.1975      5.9398      5.7618    
  5.6481      5.5844      5.5643      5.5844      5.6481      5.7618      5.9398      6.1975      6.5547      7.0196    
  7.5875      8.2114      8.8815      9.7518      10.898      12.189      13.371      14.196      23.747      23.130    
  21.379      18.790      15.824      13.010      10.783      9.3104      8.3660      7.5875      6.9264      6.4214    
  6.0610      5.8218      5.6730      5.5936      5.5683      5.5936      5.6730      5.8218      6.0610      6.4214    
  6.9264      7.5875      8.3660      9.3104      10.783      13.010      15.824      18.790      21.379      23.130    
  38.990      37.894      34.764      30.061      24.528      19.052      14.454      11.210      9.3104      8.2114    
  7.3513      6.6763      6.1967      5.8826      5.6932      5.5950      5.5643      5.5950      5.6932      5.8826    
  6.1967      6.6763      7.3513      8.2114      9.3104      11.210      14.454      19.052      24.528      30.061    
  34.764      37.894      60.652      58.908      53.911      46.370      37.384      28.291      20.355      14.454    
  10.783      8.8815      7.7938      6.9466      6.3426      5.9434      5.7104      5.5876      5.5530      5.5876    
  5.7104      5.9434      6.3426      6.9466      7.7938      8.8815      10.783      14.454      20.355      28.291    
  37.384      46.370      53.911      58.908      87.900      85.333      77.996      66.936      53.740      40.272    
  28.291      19.052      13.010      9.7518      8.2059      7.2184      6.4827      6.0056      5.7200      5.5780    
  5.5330      5.5780      5.7200      6.0056      6.4827      7.2184      8.2059      9.7518      13.010      19.052    
  28.291      40.272      53.740      66.936      77.996      85.333      118.49      114.96      104.93      89.876    
  71.994      53.740      37.384      24.528      15.824      10.898      8.6124      7.4554      6.6135      6.0605    
  5.7268      5.5635      5.5102      5.5635      5.7268      6.0605      6.6135      7.4554      8.6124      10.898    
  15.824      24.528      37.384      53.740      71.994      89.876      104.93      114.96      148.94      144.42    
  131.59      112.45      89.876      66.936      46.370      30.061      18.790      12.189      9.0364      7.6402    
  6.7256      6.1030      5.7326      5.5462      5.4894      5.5462      5.7326      6.1030      6.7256      7.6402    
  9.0364      12.189      18.790      30.061      46.370      66.936      89.876      112.45      131.59      144.42    
  175.06      169.65      154.32      131.59      104.93      77.996      53.911      34.764      21.379      13.371    
  9.4353      7.7745      6.8086      6.1337      5.7363      5.5305      5.4718      5.5305      5.7363      6.1337    
  6.8086      7.7745      9.4353      13.371      21.379      34.764      53.911      77.996      104.93      131.59    
  154.32      169.65      192.77      186.72      169.65      144.42      114.96      85.333      58.908      37.894    
  23.130      14.196      9.7240      7.8592      6.8578      6.1525      5.7376      5.5201      5.4599      5.5201    
  5.7376      6.1525      6.8578      7.8592      9.7240      14.196      23.130      37.894      58.908      85.333    
  114.96      144.42      169.65      186.72      192.77      186.72      169.65      144.42      114.96      85.333    
  58.908      37.894      23.130      14.196      9.7240      7.8592      6.8578      6.1525      5.7376      5.5201    
  5.4599      5.5201      5.7376      6.1525      6.8578      7.8592      9.7240      14.196      23.130      37.894    
  58.908      85.333      114.96      144.42      169.65      186.72      186.72      180.89      164.42      140.05    
  111.55      82.841      57.212      36.828      22.533      13.912      9.6244      7.8314      6.8422      6.1470    
  5.7378      5.5243      5.4645      5.5243      5.7378      6.1470      6.8422      7.8314      9.6244      13.912    
  22.533      36.828      57.212      82.841      111.55      140.05      164.42      180.89      169.65      164.42    
  149.61      127.63      101.82      75.716      52.354      33.788      20.838      13.122      9.3521      7.7508    
  6.7950      6.1301      5.7381      5.5362      5.4779      5.5362      5.7381      6.1301      6.7950      7.7508    
  9.3521      13.122      20.838      33.788      52.354      75.716      101.82      127.63      149.61      164.42    
  144.42      140.05      127.63      109.11      87.224      64.975      45.027      29.226      18.339      11.990    
  8.9763      7.6208      6.7157      6.1025      5.7371      5.5538      5.4974      5.5538      5.7371      6.1025    
  6.7157      7.6208      8.9763      11.990      18.339      29.226      45.027      64.975      87.224      109.11    
  127.63      140.05      114.96      111.55      101.82      87.224      69.875      52.164      36.308      23.872    
  15.483      10.762      8.5749      7.4406      6.6082      6.0634      5.7345      5.5737      5.5210      5.5737    
  5.7345      6.0634      6.6082      7.4406      8.5749      10.762      15.483      23.872      36.308      52.164    
  69.875      87.224      101.82      111.55      85.333      82.841      75.716      64.975      52.164      39.101    
  27.503      18.589      12.786      9.6748      8.1844      7.2084      6.4834      6.0126      5.7313      5.5907    
  5.5466      5.5907      5.7313      6.0126      6.4834      7.2084      8.1844      9.6748      12.786      18.589    
  27.503      39.101      52.164      64.975      75.716      82.841      58.908      57.212      52.354      45.027    
  36.308      27.503      19.844      14.173      10.664      8.8465      7.7805      6.9436      6.3486      5.9549    
  5.7253      5.6041      5.5700      5.6041      5.7253      5.9549      6.3486      6.9436      7.7805      8.8465    
  10.664      14.173      19.844      27.503      36.308      45.027      52.354      57.212      37.894      36.828    
  33.788      29.226      23.872      18.589      14.173      11.073      9.2631      8.1950      7.3453      6.6809    
  6.2085      5.8994      5.7121      5.6150      5.5844      5.6150      5.7121      5.8994      6.2085      6.6809    
  7.3453      8.1950      9.2631      11.073      14.173      18.589      23.872      29.226      33.788      36.828    
  23.130      22.533      20.838      18.339      15.483      12.786      10.664      9.2631      8.3480      7.5799    
  6.9297      6.4333      6.0786      5.8428      5.6966      5.6184      5.5936      5.6184      5.6966      5.8428    
  6.0786      6.4333      6.9297      7.5799      8.3480      9.2631      10.664      12.786      15.483      18.339    
  20.838      22.533      14.196      13.912      13.122      11.990      10.762      9.6748      8.8465      8.1950    
  7.5799      7.0224      6.5664      6.2157      5.9635      5.7898      5.6780      5.6150      5.5950      5.6150    
  5.6780      5.7898      5.9635      6.2157      6.5664      7.0224      7.5799      8.1950      8.8465      9.6748    
  10.762      11.990      13.122      13.912      9.7240      9.6244      9.3521      8.9763      8.5749      8.1844    
  7.7805      7.3453      6.9297      6.5664      6.2673      6.0367      5.8639      5.7387      5.6535      5.6041    
  5.5876      5.6041      5.6535      5.7387      5.8639      6.0367      6.2673      6.5664      6.9297      7.3453    
  7.7805      8.1844      8.5749      8.9763      9.3521      9.6244      7.8592      7.8314      7.7508      7.6208    
  7.4406      7.2084      6.9436      6.6809      6.4333      6.2157      6.0367      5.8922      5.7775      5.6904    
  5.6285      5.5907      5.5780      5.5907      5.6285      5.6904      5.7775      5.8922      6.0367      6.2157    
  6.4333      6.6809      6.9436      7.2084      7.4406      7.6208      7.7508      7.8314      6.8578      6.8422    
  6.7950      6.7157      6.6082      6.4834      6.3486      6.2085      6.0786      5.9635      5.8639      5.7775    
  5.7058      5.6477      5.6027      5.5737      5.5635      5.5737      5.6027      5.6477      5.7058      5.7775    
  5.8639      5.9635      6.0786      6.2085      6.3486      6.4834      6.6082      6.7157      6.7950      6.8422    
  6.1525      6.1470      6.1301      6.1025      6.0634      6.0126      5.9549      5.8994      5.8428      5.7898    
  5.7387      5.6904      5.6477      5.6085      5.5760      5.5538      5.5462      5.5538      5.5760      5.6085    
  5.6477      5.6904      5.7387      5.7898      5.8428      5.8994      5.9549      6.0126      6.0634      6.1025    
  6.1301      6.1470      5.7376      5.7378      5.7381      5.7371      5.7345      5.7313      5.7253      5.7121    
  5.6966      5.6780      5.6535      5.6285      5.6027      5.5760      5.5522      5.5362      5.5305      5.5362    
  5.5522      5.5760      5.6027      5.6285      5.6535      5.6780      5.6966      5.7121      5.7253      5.7313    
  5.7345      5.7371      5.7381      5.7378      5.5201      5.5243      5.5362      5.5538      5.5737      5.5907    
  5.6041      5.6150      5.6184      5.6150      5.6041      5.5907      5.5737      5.5538      5.5362      5.5243    
  5.5201      5.5243      5.5362      5.5538      5.5737      5.5907      5.6041      5.6150      5.6184      5.6150    
  5.6041      5.5907      5.5737      5.5538      5.5362      5.5243      5.4599      5.4645      5.4779      5.4974    
  5.5210      5.5466      5.5700      5.5844      5.5936      5.5950      5.5876      5.5780      5.5635      5.5462    
  5.5305      5.5201      5.5164      5.5201      5.5305      5.5462      5.5635      5.5780      5.5876      5.5950    
  5.5936      5.5844      5.5700      5.5466      5.5210      5.4974      5.4779      5.4645      5.5201      5.5243    
  5.5362      5.5538      5.5737      5.5907      5.6041      5.6150      5.6184      5.6150      5.6041      5.5907    
  5.5737      5.5538      5.5362      5.5243      5.5201      5.5243      5.5362      5.5538      5.5737      5.5907    
  5.6041      5.6150      5.6184      5.6150      5.6041      5.5907      5.5737      5.5538      5.5362      5.5243    
  5.7376      5.7378      5.7381      5.7371      5.7345      5.7313      5.7253      5.7121      5.6966      5.6780    
  5.6535      5.6285      5.6027      5.5760      5.5522      5.5362      5.5305      5.5362      5.5522      5.5760    
  5.6027      5.6285      5.6535      5.6780      5.6966      5.7121      5.7253      5.7313      5.7345      5.7371    
  5.7381      5.7378      6.1525      6.1470      6.1301      6.1025      6.0634      6.0126      5.9549      5.8994    
  5.8428      5.7898      5.7387      5.6904      5.6477      5.6085      5.5760      5.5538      5.5462      5.5538    
  5.5760      5.6085      5.6477      5.6904      5.7387      5.7898      5.8428      5.8994      5.9549      6.0126    
  6.0634      6.1025      6.1301      6.1470      6.8578      6.8422      6.7950      6.7157      6.6082      6.4834    
  6.3486      6.2085      6.0786      5.9635      5.8639      5.7775      5.7058      5.6477      5.6027      5.5737    
  5.5635      5.5737      5.6027      5.6477      5.7058      5.7775      5.8639      5.9635      6.0786      6.2085    
  6.3486      6.4834      6.6082      6.7157      6.7950      6.8422      7.8592      7.8314      7.7508      7.6208    
  7.4406      7.2084      6.9436      6.6809      6.4333      6.2157      6.0367      5.8922      5.7775      5.6904    
  5.6285      5.5907      5.5780      5.5907      5.6285      5.6904      5.7775      5.8922      6.0367      6.2157    
  6.4333      6.6809      6.9436      7.2084      7.4406      7.6208      7.7508      7.8314      9.7240      9.6244    
  9.3521      8.9763      8.5749      8.1844      7.7805      7.3453      6.9297      6.5664      6.2673      6.0367    
  5.8639      5.7387      5.6535      5.6041      5.5876      5.6041      5.6535      5.7387      5.8639      6.0367    
  6.2673      6.5664      6.9297      7.3453      7.7805      8.1844      8.5749      8.9763      9.3521      9.6244    
  14.196      13.912      13.122      11.990      10.762      9.6748      8.8465      8.1950      7.5799      7.0224    
  6.5664      6.2157      5.9635      5.7898      5.6780      5.6150      5.5950      5.6150      5.6780      5.7898    
  5.9635      6.2157      6.5664      7.0224      7.5799      8.1950      8.8465      9.6748      10.762      11.990    
  13.122      13.912      23.130      22.533      20.838      18.339      15.483      12.786      10.664      9.2631    
  8.3480      7.5799      6.9297      6.4333      6.0786      5.8428      5.6966      5.6184      5.5936      5.6184    
  5.6966      5.8428      6.0786      6.4333      6.9297      7.5799      8.3480      9.2631      10.664      12.786    
  15.483      18.339      20.838      22.533      37.894      36.828      33.788      29.226      23.872      18.589    
  14.173      11.073      9.2631      8.1950      7.3453      6.6809      6.2085      5.8994      5.7121      5.6150    
  5.5844      5.6150      5.7121      5.8994      6.2085      6.6809      7.3453      8.1950      9.2631      11.073    
  14.173      18.589      23.872      29.226      33.788      36.828      58.908      57.212      52.354      45.027    
  36.308      27.503      19.844      14.173      10.664      8.8465      7.7805      6.9436      6.3486      5.9549    
  5.7253      5.6041      5.5700      5.6041      5.7253      5.9549      6.3486      6.9436      7.7805      8.8465    
  10.664      14.173      19.844      27.503      36.308      45.027      52.354      57.212      85.333      82.841    
  75.716      64.975      52.164      39.101      27.503      18.589      12.786      9.6748      8.1844      7.2084    
  6.4834      6.0126      5.7313      5.5907      5.5466      5.5907      5.7313      6.0126      6.4834      7.2084    
  8.1844      9.6748      12.786      18.589      27.503      39.101      52.164      64.975      75.716      82.841    
  114.96      111.55      101.82      87.224      69.875      52.164      36.308      23.872      15.483      10.762    
  8.5749      7.4406      6.6082      6.0634      5.7345      5.5737      5.5210      5.5737      5.7345      6.0634    
  6.6082      7.4406      8.5749      10.762      15.483      23.872      36.308      52.164      69.875      87.224    
  101.82      111.55      144.42      140.05      127.63      109.11      87.224      64.975      45.027      29.226    
  18.339      11.990      8.9763      7.6208      6.7157      6.1025      5.7371      5.5538      5.4974      5.5538    
  5.7371      6.1025      6.7157      7.6208      8.9763      11.990      18.339      29.226      45.027      64.975    
  87.224      109.11      127.63      140.05      169.65      164.42      149.61      127.63      101.82      75.716    
  52.354      33.788      20.838      13.122      9.3521      7.7508      6.7950      6.1301      5.7381      5.5362    
  5.4779      5.5362      5.7381      6.1301      6.7950      7.7508      9.3521      13.122      20.838      33.788    
  52.354      75.716      101.82      127.63      149.61      164.42      186.72      180.89      164.42      140.05    
  111.55      82.841      57.212      36.828      22.533      13.912      9.6244      7.8314      6.8422      6.1470    
  5.7378      5.5243      5.4645      5.5243      5.7378      6.1470      6.8422      7.8314      9.6244      13.912    
  22.533      36.828      57.212      82.841      111.55      140.05      164.42      180.89      175.06      169.65    
  154.32      131.59      104.93      77.996      53.911      34.764      21.379      13.371      9.4353      7.7745    
  6.8086      6.1337      5.7363      5.5305      5.4718      5.5305      5.7363      6.1337      6.8086      7.7745    
  9.4353      13.371      21.379      34.764      53.911      77.996      104.93      131.59      154.32      169.65    
  169.65      164.42      149.61      127.63      101.82      75.716      52.354      33.788      20.838      13.122    
  9.3521      7.7508      6.7950      6.1301      5.7381      5.5362      5.4779      5.5362      5.7381      6.1301    
  6.7950      7.7508      9.3521      13.122      20.838      33.788      52.354      75.716      101.82      127.63    
  149.61      164.42      154.32      149.61      136.26      116.39      92.964      69.194      47.899      31.009    
  19.309      12.428      9.1250      7.6800      6.7539      6.1194      5.7429      5.5522      5.4949      5.5522    
  5.7429      6.1194      6.7539      7.6800      9.1250      12.428      19.309      31.009      47.899      69.194    
  92.964      116.39      136.26      149.61      131.59      127.63      116.39      99.569      79.652      59.368    
  41.195      26.858      17.068      11.445      8.8114      7.5625      6.6848      6.1004      5.7493      5.5760    
  5.5205      5.5760      5.7493      6.1004      6.6848      7.5625      8.8114      11.445      17.068      26.858    
  41.195      59.368      79.652      99.569      116.39      127.63      104.93      101.82      92.964      79.652    
  63.817      47.665      33.250      22.019      14.533      10.390      8.4700      7.3943      6.5924      6.0716    
  5.7567      5.6027      5.5521      5.6027      5.7567      6.0716      6.5924      7.3943      8.4700      10.390    
  14.533      22.019      33.250      47.665      63.817      79.652      92.964      101.82      77.996      75.716    
  69.194      59.368      47.665      35.774      25.277      17.293      12.172      9.4655      8.1207      7.1771    
  6.4849      6.0326      5.7650      5.6285      5.5875      5.6285      5.7650      6.0326      6.4849      7.1771    
  8.1207      9.4655      12.172      17.293      25.277      35.774      47.665      59.368      69.194      75.716    
  53.911      52.354      47.899      41.195      33.250      25.277      18.410      13.395      10.341      8.7491    
  7.7385      6.9349      6.3666      5.9905      5.7701      5.6535      5.6203      5.6535      5.7701      5.9905    
  6.3666      6.9349      7.7385      8.7491      10.341      13.395      18.410      25.277      33.250      41.195    
  47.899      52.354      34.764      33.788      31.009      26.858      22.019      17.293      13.395      10.701    
  9.1344      8.1449      7.3277      6.6956      6.2448      5.9505      5.7708      5.6780      5.6481      5.6780    
  5.7708      5.9505      6.2448      6.6956      7.3277      8.1449      9.1344      10.701      13.395      17.293    
  22.019      26.858      31.009      33.788      21.379      20.838      19.309      17.068      14.533      12.172    
  10.341      9.1344      8.2941      7.5576      6.9411      6.4700      6.1352      5.9113      5.7721      5.6966    
  5.6730      5.6966      5.7721      5.9113      6.1352      6.4700      6.9411      7.5576      8.2941      9.1344    
  10.341      12.172      14.533      17.068      19.309      20.838      13.371      13.122      12.428      11.445    
  10.390      9.4655      8.7491      8.1449      7.5576      7.0325      6.6034      6.2759      6.0392      5.8758    
  5.7708      5.7121      5.6932      5.7121      5.7708      5.8758      6.0392      6.2759      6.6034      7.0325    
  7.5576      8.1449      8.7491      9.4655      10.390      11.445      12.428      13.122      9.4353      9.3521    
  9.1250      8.8114      8.4700      8.1207      7.7385      7.3277      6.9411      6.6034      6.3288      6.1162    
  5.9584      5.8463      5.7701      5.7253      5.7104      5.7253      5.7701      5.8463      5.9584      6.1162    
  6.3288      6.6034      6.9411      7.3277      7.7385      8.1207      8.4700      8.8114      9.1250      9.3521    
  7.7745      7.7508      7.6800      7.5625      7.3943      7.1771      6.9349      6.6956      6.4700      6.2759    
  6.1162      5.9901      5.8939      5.8194      5.7650      5.7313      5.7200      5.7313      5.7650      5.8194    
  5.8939      5.9901      6.1162      6.2759      6.4700      6.6956      6.9349      7.1771      7.3943      7.5625    
  7.6800      7.7508      6.8086      6.7950      6.7539      6.6848      6.5924      6.4849      6.3666      6.2448    
  6.1352      6.0392      5.9584      5.8939      5.8386      5.7922      5.7567      5.7345      5.7268      5.7345    