unknown system                          
   1.00000000000000     
     2.829592   -0.000000    0.000000
     0.000000    2.829592    0.000000
    -0.000000   -0.000000    2.829592
   Fe
     2
Direct
 -0.000000 -0.000000  0.000000
  0.500000  0.500000  0.500000
 
   32   32   32
 0.19190516925E+03 0.18599891292E+03 0.16930182958E+03 0.14460220875E+03 0.11569225100E+03
 0.86489991430E+02 0.60266884656E+02 0.39197664749E+02 0.24154794766E+02 0.14833920218E+02
 0.10009390432E+02 0.79696390910E+01 0.69689831093E+01 0.62623046892E+01 0.58390281899E+01
 0.56129638938E+01 0.55508424469E+01 0.56129638938E+01 0.58390281899E+01 0.62623046892E+01
 0.69689831093E+01 0.79696390910E+01 0.10009390432E+02 0.14833920218E+02 0.24154794766E+02
 0.39197664749E+02 0.60266884656E+02 0.86489991430E+02 0.11569225100E+03 0.14460220875E+03
 0.16930182958E+03 0.18599891292E+03 0.18599891292E+03 0.18030093316E+03 0.16418283633E+03
 0.14031061008E+03 0.11232739297E+03 0.84019266490E+02 0.58572791228E+02 0.38120689531E+02
 0.23538004734E+02 0.14532190877E+02 0.98966199602E+01 0.79395119686E+01 0.69542471551E+01
 0.62563995905E+01 0.58393085812E+01 0.56170668890E+01 0.55557278038E+01 0.56170668890E+01
 0.58393085812E+01 0.62563995905E+01 0.69542471551E+01 0.79395119686E+01 0.98966199602E+01
 0.14532190877E+02 0.23538004734E+02 0.38120689531E+02 0.58572791228E+02 0.84019266490E+02
 0.11232739297E+03 0.14031061008E+03 0.16418283633E+03 0.18030093316E+03 0.16930182958E+03
 0.16418283633E+03 0.14967626500E+03 0.12811691310E+03 0.10273701098E+03 0.76954431097E+02
 0.53715247015E+02 0.35040759771E+02 0.21785264535E+02 0.13684726753E+02 0.95878564530E+01
 0.78536681090E+01 0.69093331199E+01 0.62385672258E+01 0.58394298887E+01 0.56282461299E+01
 0.55692314568E+01 0.56282461299E+01 0.58394298887E+01 0.62385672258E+01 0.69093331199E+01
 0.78536681090E+01 0.95878564530E+01 0.13684726753E+02 0.21785264535E+02 0.35040759771E+02
 0.53715247015E+02 0.76954431097E+02 0.10273701098E+03 0.12811691310E+03 0.14967626500E+03
 0.16418283633E+03 0.14460220875E+03 0.14031061008E+03 0.12811691310E+03 0.10989923639E+03
 0.88323399465E+02 0.66285338368E+02 0.46372160485E+02 0.30402575350E+02 0.19183224086E+02
 0.12461795020E+02 0.91596134988E+01 0.77223075740E+01 0.68315513414E+01 0.62094131140E+01
 0.58375159269E+01 0.56453702692E+01 0.55886360318E+01 0.56453702692E+01 0.58375159269E+01
 0.62094131140E+01 0.68315513414E+01 0.77223075740E+01 0.91596134988E+01 0.12461795020E+02
 0.19183224086E+02 0.30402575350E+02 0.46372160485E+02 0.66285338368E+02 0.88323399465E+02
 0.10989923639E+03 0.12811691310E+03 0.14031061008E+03 0.11569225100E+03 0.11232739297E+03
 0.10273701098E+03 0.88323399465E+02 0.71144920867E+02 0.53516196013E+02 0.37590017785E+02
 0.24916259437E+02 0.16181160863E+02 0.11112420499E+02 0.87071159395E+01 0.75466718358E+01
 0.67231973936E+01 0.61686784093E+01 0.58324271261E+01 0.56644387535E+01 0.56108104753E+01
 0.56644387535E+01 0.58324271261E+01 0.61686784093E+01 0.67231973936E+01 0.75466718358E+01
 0.87071159395E+01 0.11112420499E+02 0.16181160863E+02 0.24916259437E+02 0.37590017785E+02
 0.53516196013E+02 0.71144920867E+02 0.88323399465E+02 0.10273701098E+03 0.11232739297E+03
 0.86489991430E+02 0.84019266490E+02 0.76954431097E+02 0.66285338368E+02 0.53516196013E+02
 0.40408376934E+02 0.28642939787E+02 0.19439919244E+02 0.13298636390E+02 0.98976302950E+01
 0.82876898933E+01 0.73222018972E+01 0.65932904904E+01 0.61156616895E+01 0.58250857125E+01
 0.56809989498E+01 0.56340776134E+01 0.56809989498E+01 0.58250857125E+01 0.61156616895E+01
 0.65932904904E+01 0.73222018972E+01 0.82876898933E+01 0.98976302950E+01 0.13298636390E+02
 0.19439919244E+02 0.28642939787E+02 0.40408376934E+02 0.53516196013E+02 0.66285338368E+02
 0.76954431097E+02 0.84019266490E+02 0.60266884656E+02 0.58572791228E+02 0.53715247015E+02
 0.46372160485E+02 0.37590017785E+02 0.28642939787E+02 0.20747775635E+02 0.14777726346E+02
 0.10977845348E+02 0.89738190415E+01 0.78854654274E+01 0.70571611187E+01 0.64537820312E+01
 0.60525198938E+01 0.58152687808E+01 0.56910266156E+01 0.56551362525E+01 0.56910266156E+01
 0.58152687808E+01 0.60525198938E+01 0.64537820312E+01 0.70571611187E+01 0.78854654274E+01
 0.89738190415E+01 0.10977845348E+02 0.14777726346E+02 0.20747775635E+02 0.28642939787E+02
 0.37590017785E+02 0.46372160485E+02 0.53715247015E+02 0.58572791228E+02 0.39197664749E+02
 0.38120689531E+02 0.35040759771E+02 0.30402575350E+02 0.24916259437E+02 0.19439919244E+02
 0.14777726346E+02 0.11423140498E+02 0.94171105548E+01 0.82956797023E+01 0.74579549260E+01
 0.67873082180E+01 0.63073341283E+01 0.59891392687E+01 0.57981266000E+01 0.56978938601E+01
 0.56675528451E+01 0.56978938601E+01 0.57981266000E+01 0.59891392687E+01 0.63073341283E+01
 0.67873082180E+01 0.74579549260E+01 0.82956797023E+01 0.94171105548E+01 0.11423140498E+02
 0.14777726346E+02 0.19439919244E+02 0.24916259437E+02 0.30402575350E+02 0.35040759771E+02
 0.38120689531E+02 0.24154794766E+02 0.23538004734E+02 0.21785264535E+02 0.19183224086E+02
 0.16181160863E+02 0.13298636390E+02 0.10977845348E+02 0.94171105548E+01 0.84483956610E+01
 0.76904974812E+01 0.70366983364E+01 0.65319109727E+01 0.61679858375E+01 0.59262918748E+01
 0.57759030786E+01 0.56965690635E+01 0.56710062491E+01 0.56965690635E+01 0.57759030786E+01
 0.59262918748E+01 0.61679858375E+01 0.65319109727E+01 0.70366983364E+01 0.76904974812E+01
 0.84483956610E+01 0.94171105548E+01 0.10977845348E+02 0.13298636390E+02 0.16181160863E+02
 0.19183224086E+02 0.21785264535E+02 0.23538004734E+02 0.14833920218E+02 0.14532190877E+02
 0.13684726753E+02 0.12461795020E+02 0.11112420499E+02 0.98976302950E+01 0.89738190415E+01
 0.82956797023E+01 0.76904974812E+01 0.71295304839E+01 0.66647854902E+01 0.63041700341E+01
 0.60432241399E+01 0.58637278226E+01 0.57503044763E+01 0.56871980814E+01 0.56675528451E+01
 0.56871980814E+01 0.57503044763E+01 0.58637278226E+01 0.60432241399E+01 0.63041700341E+01
 0.66647854902E+01 0.71295304839E+01 0.76904974812E+01 0.82956797023E+01 0.89738190415E+01
 0.98976302950E+01 0.11112420499E+02 0.12461795020E+02 0.13684726753E+02 0.14532190877E+02
 0.10009390432E+02 0.98966199602E+01 0.95878564530E+01 0.91596134988E+01 0.87071159395E+01
 0.82876898933E+01 0.78854654274E+01 0.74579549260E+01 0.70366983364E+01 0.66647854902E+01
 0.63552640636E+01 0.61139330589E+01 0.59341627568E+01 0.58070106565E+01 0.57211258519E+01
 0.56716824863E+01 0.56551362525E+01 0.56716824863E+01 0.57211258519E+01 0.58070106565E+01
 0.59341627568E+01 0.61139330589E+01 0.63552640636E+01 0.66647854902E+01 0.70366983364E+01
 0.74579549260E+01 0.78854654274E+01 0.82876898933E+01 0.87071159395E+01 0.91596134988E+01
 0.95878564530E+01 0.98966199602E+01 0.79696390910E+01 0.79395119686E+01 0.78536681090E+01
 0.77223075740E+01 0.75466718358E+01 0.73222018972E+01 0.70571611187E+01 0.67873082180E+01
 0.65319109727E+01 0.63041700341E+01 0.61139330589E+01 0.59612602195E+01 0.58430355959E+01
 0.57517423090E+01 0.56867034020E+01 0.56470898423E+01 0.56340776134E+01 0.56470898423E+01
 0.56867034020E+01 0.57517423090E+01 0.58430355959E+01 0.59612602195E+01 0.61139330589E+01
 0.63041700341E+01 0.65319109727E+01 0.67873082180E+01 0.70571611187E+01 0.73222018972E+01
 0.75466718358E+01 0.77223075740E+01 0.78536681090E+01 0.79395119686E+01 0.69689831093E+01
 0.69542471551E+01 0.69093331199E+01 0.68315513414E+01 0.67231973936E+01 0.65932904904E+01
 0.64537820312E+01 0.63073341283E+01 0.61679858375E+01 0.60432241399E+01 0.59341627568E+01
 0.58430355959E+01 0.57640151478E+01 0.56995766914E+01 0.56511261111E+01 0.56212494079E+01
 0.56108104753E+01 0.56212494079E+01 0.56511261111E+01 0.56995766914E+01 0.57640151478E+01
 0.58430355959E+01 0.59341627568E+01 0.60432241399E+01 0.61679858375E+01 0.63073341283E+01
 0.64537820312E+01 0.65932904904E+01 0.67231973936E+01 0.68315513414E+01 0.69093331199E+01
 0.69542471551E+01 0.62623046892E+01 0.62563995905E+01 0.62385672258E+01 0.62094131140E+01
 0.61686784093E+01 0.61156616895E+01 0.60525198938E+01 0.59891392687E+01 0.59262918748E+01
 0.58637278226E+01 0.58070106565E+01 0.57517423090E+01 0.56995766914E+01 0.56544575245E+01
 0.56193771766E+01 0.55965285983E+01 0.55886360318E+01 0.55965285983E+01 0.56193771766E+01
 0.56544575245E+01 0.56995766914E+01 0.57517423090E+01 0.58070106565E+01 0.58637278226E+01
 0.59262918748E+01 0.59891392687E+01 0.60525198938E+01 0.61156616895E+01 0.61686784093E+01
 0.62094131140E+01 0.62385672258E+01 0.62563995905E+01 0.58390281899E+01 0.58393085812E+01
 0.58394298887E+01 0.58375159269E+01 0.58324271261E+01 0.58250857125E+01 0.58152687808E+01
 0.57981266000E+01 0.57759030786E+01 0.57503044763E+01 0.57211258519E+01 0.56867034020E+01
 0.56511261111E+01 0.56193771766E+01 0.55931401510E+01 0.55755509641E+01 0.55692314568E+01
 0.55755509641E+01 0.55931401510E+01 0.56193771766E+01 0.56511261111E+01 0.56867034020E+01
 0.57211258519E+01 0.57503044763E+01 0.57759030786E+01 0.57981266000E+01 0.58152687808E+01
 0.58250857125E+01 0.58324271261E+01 0.58375159269E+01 0.58394298887E+01 0.58393085812E+01
 0.56129638938E+01 0.56170668890E+01 0.56282461299E+01 0.56453702692E+01 0.56644387535E+01
 0.56809989498E+01 0.56910266156E+01 0.56978938601E+01 0.56965690635E+01 0.56871980814E+01
 0.56716824863E+01 0.56470898423E+01 0.56212494079E+01 0.55965285983E+01 0.55755509641E+01
 0.55608176367E+01 0.55557278038E+01 0.55608176367E+01 0.55755509641E+01 0.55965285983E+01
 0.56212494079E+01 0.56470898423E+01 0.56716824863E+01 0.56871980814E+01 0.56965690635E+01
 0.56978938601E+01 0.56910266156E+01 0.56809989498E+01 0.56644387535E+01 0.56453702692E+01
 0.56282461299E+01 0.56170668890E+01 0.55508424469E+01 0.55557278038E+01 0.55692314568E+01
 0.55886360318E+01 0.56108104753E+01 0.56340776134E+01 0.56551362525E+01 0.56675528451E+01
 0.56710062491E+01 0.56675528451E+01 0.56551362525E+01 0.56340776134E+01 0.56108104753E+01
 0.55886360318E+01 0.55692314568E+01 0.55557278038E+01 0.55508424469E+01 0.55557278038E+01
 0.55692314568E+01 0.55886360318E+01 0.56108104753E+01 0.56340776134E+01 0.56551362525E+01
 0.56675528451E+01 0.56710062491E+01 0.56675528451E+01 0.56551362525E+01 0.56340776134E+01
 0.56108104753E+01 0.55886360318E+01 0.55692314568E+01 0.55557278038E+01 0.56129638938E+01
 0.56170668890E+01 0.56282461299E+01 0.56453702692E+01 0.56644387535E+01 0.56809989498E+01
 0.56910266156E+01 0.56978938601E+01 0.56965690635E+01 0.56871980814E+01 0.56716824863E+01
 0.56470898423E+01 0.56212494079E+01 0.55965285983E+01 0.55755509641E+01 0.55608176367E+01
 0.55557278038E+01 0.55608176367E+01 0.55755509641E+01 0.55965285983E+01 0.56212494079E+01
 0.56470898423E+01 0.56716824863E+01 0.56871980814E+01 0.56965690635E+01 0.56978938601E+01
 0.56910266156E+01 0.56809989498E+01 0.56644387535E+01 0.56453702692E+01 0.56282461299E+01
 0.56170668890E+01 0.58390281899E+01 0.58393085812E+01 0.58394298887E+01 0.58375159269E+01
 0.58324271261E+01 0.58250857125E+01 0.58152687808E+01 0.57981266000E+01 0.57759030786E+01
 0.57503044763E+01 0.57211258519E+01 0.56867034020E+01 0.56511261111E+01 0.56193771766E+01
 0.55931401510E+01 0.55755509641E+01 0.55692314568E+01 0.55755509641E+01 0.55931401510E+01
 0.56193771766E+01 0.56511261111E+01 0.56867034020E+01 0.57211258519E+01 0.57503044763E+01
 0.57759030786E+01 0.57981266000E+01 0.58152687808E+01 0.58250857125E+01 0.58324271261E+01
 0.58375159269E+01 0.58394298887E+01 0.58393085812E+01 0.62623046892E+01 0.62563995905E+01
 0.62385672258E+01 0.62094131140E+01 0.61686784093E+01 0.61156616895E+01 0.60525198938E+01
 0.59891392687E+01 0.59262918748E+01 0.58637278226E+01 0.58070106565E+01 0.57517423090E+01
 0.56995766914E+01 0.56544575245E+01 0.56193771766E+01 0.55965285983E+01 0.55886360318E+01
 0.55965285983E+01 0.56193771766E+01 0.56544575245E+01 0.56995766914E+01 0.57517423090E+01
 0.58070106565E+01 0.58637278226E+01 0.59262918748E+01 0.59891392687E+01 0.60525198938E+01
 0.61156616895E+01 0.61686784093E+01 0.62094131140E+01 0.62385672258E+01 0.62563995905E+01
 0.69689831093E+01 0.69542471551E+01 0.69093331199E+01 0.68315513414E+01 0.67231973936E+01
 0.65932904904E+01 0.64537820312E+01 0.63073341283E+01 0.61679858375E+01 0.60432241399E+01
 0.59341627568E+01 0.58430355959E+01 0.57640151478E+01 0.56995766914E+01 0.56511261111E+01
 0.56212494079E+01 0.56108104753E+01 0.56212494079E+01 0.56511261111E+01 0.56995766914E+01
 0.57640151478E+01 0.58430355959E+01 0.59341627568E+01 0.60432241399E+01 0.61679858375E+01
 0.63073341283E+01 0.64537820312E+01 0.65932904904E+01 0.67231973936E+01 0.68315513414E+01
 0.69093331199E+01 0.69542471551E+01 0.79696390910E+01 0.79395119686E+01 0.78536681090E+01
 0.77223075740E+01 0.75466718358E+01 0.73222018972E+01 0.70571611187E+01 0.67873082180E+01
 0.65319109727E+01 0.63041700341E+01 0.61139330589E+01 0.59612602195E+01 0.58430355959E+01
 0.57517423090E+01 0.56867034020E+01 0.56470898423E+01 0.56340776134E+01 0.56470898423E+01
 0.56867034020E+01 0.57517423090E+01 0.58430355959E+01 0.59612602195E+01 0.61139330589E+01
 0.63041700341E+01 0.65319109727E+01 0.67873082180E+01 0.70571611187E+01 0.73222018972E+01
 0.75466718358E+01 0.77223075740E+01 0.78536681090E+01 0.79395119686E+01 0.10009390432E+02
 0.98966199602E+01 0.95878564530E+01 0.91596134988E+01 0.87071159395E+01 0.82876898933E+01
 0.78854654274E+01 0.74579549260E+01 0.70366983364E+01 0.66647854902E+01 0.63552640636E+01
 0.61139330589E+01 0.59341627568E+01 0.58070106565E+01 0.57211258519E+01 0.56716824863E+01
 0.56551362525E+01 0.56716824863E+01 0.57211258519E+01 0.58070106565E+01 0.59341627568E+01
 0.61139330589E+01 0.63552640636E+01 0.66647854902E+01 0.70366983364E+01 0.74579549260E+01
 0.78854654274E+01 0.82876898933E+01 0.87071159395E+01 0.91596134988E+01 0.95878564530E+01
 0.98966199602E+01 0.14833920218E+02 0.14532190877E+02 0.13684726753E+02 0.12461795020E+02
 0.11112420499E+02 0.98976302950E+01 0.89738190415E+01 0.82956797023E+01 0.76904974812E+01
 0.71295304839E+01 0.66647854902E+01 0.63041700341E+01 0.60432241399E+01 0.58637278226E+01
 0.57503044763E+01 0.56871980814E+01 0.56675528451E+01 0.56871980814E+01 0.57503044763E+01
 0.58637278226E+01 0.60432241399E+01 0.63041700341E+01 0.66647854902E+01 0.71295304839E+01
 0.76904974812E+01 0.82956797023E+01 0.89738190415E+01 0.98976302950E+01 0.11112420499E+02
 0.12461795020E+02 0.13684726753E+02 0.14532190877E+02 0.24154794766E+02 0.23538004734E+02
 0.21785264535E+02 0.19183224086E+02 0.16181160863E+02 0.13298636390E+02 0.10977845348E+02
 0.94171105548E+01 0.84483956610E+01 0.76904974812E+01 0.70366983364E+01 0.65319109727E+01
 0.61679858375E+01 0.59262918748E+01 0.57759030786E+01 0.56965690635E+01 0.56710062491E+01
 0.56965690635E+01 0.57759030786E+01 0.59262918748E+01 0.61679858375E+01 0.65319109727E+01
 0.70366983364E+01 0.76904974812E+01 0.84483956610E+01 0.94171105548E+01 0.10977845348E+02
 0.13298636390E+02 0.16181160863E+02 0.19183224086E+02 0.21785264535E+02 0.23538004734E+02
 0.39197664749E+02 0.38120689531E+02 0.35040759771E+02 0.30402575350E+02 0.24916259437E+02
 0.19439919244E+02 0.14777726346E+02 0.11423140498E+02 0.94171105548E+01 0.82956797023E+01
 0.74579549260E+01 0.67873082180E+01 0.63073341283E+01 0.59891392687E+01 0.57981266000E+01
 0.56978938601E+01 0.56675528451E+01 0.56978938601E+01 0.57981266000E+01 0.59891392687E+01
 0.63073341283E+01 0.67873082180E+01 0.74579549260E+01 0.82956797023E+01 0.94171105548E+01
 0.11423140498E+02 0.14777726346E+02 0.19439919244E+02 0.24916259437E+02 0.30402575350E+02
 0.35040759771E+02 0.38120689531E+02 0.60266884656E+02 0.58572791228E+02 0.53715247015E+02
 0.46372160485E+02 0.37590017785E+02 0.28642939787E+02 0.20747775635E+02 0.14777726346E+02
 0.10977845348E+02 0.89738190415E+01 0.78854654274E+01 0.70571611187E+01 0.64537820312E+01
 0.60525198938E+01 0.58152687808E+01 0.56910266156E+01 0.56551362525E+01 0.56910266156E+01
 0.58152687808E+01 0.60525198938E+01 0.64537820312E+01 0.70571611187E+01 0.78854654274E+01
 0.89738190415E+01 0.10977845348E+02 0.14777726346E+02 0.20747775635E+02 0.28642939787E+02
 0.37590017785E+02 0.46372160485E+02 0.53715247015E+02 0.58572791228E+02 0.86489991430E+02
 0.84019266490E+02 0.76954431097E+02 0.66285338368E+02 0.53516196013E+02 0.40408376934E+02
 0.28642939787E+02 0.19439919244E+02 0.13298636390E+02 0.98976302950E+01 0.82876898933E+01
 0.73222018972E+01 0.65932904904E+01 0.61156616895E+01 0.58250857125E+01 0.56809989498E+01
 0.56340776134E+01 0.56809989498E+01 0.58250857125E+01 0.61156616895E+01 0.65932904904E+01
 0.73222018972E+01 0.82876898933E+01 0.98976302950E+01 0.13298636390E+02 0.19439919244E+02
 0.28642939787E+02 0.40408376934E+02 0.53516196013E+02 0.66285338368E+02 0.76954431097E+02
 0.84019266490E+02 0.11569225100E+03 0.11232739297E+03 0.10273701098E+03 0.88323399465E+02
 0.71144920867E+02 0.53516196013E+02 0.37590017785E+02 0.24916259437E+02 0.16181160863E+02
 0.11112420499E+02 0.87071159395E+01 0.75466718358E+01 0.67231973936E+01 0.61686784093E+01
 0.58324271261E+01 0.56644387535E+01 0.56108104753E+01 0.56644387535E+01 0.58324271261E+01
 0.61686784093E+01 0.67231973936E+01 0.75466718358E+01 0.87071159395E+01 0.11112420499E+02
 0.16181160863E+02 0.24916259437E+02 0.37590017785E+02 0.53516196013E+02 0.71144920867E+02
 0.88323399465E+02 0.10273701098E+03 0.11232739297E+03 0.14460220875E+03 0.14031061008E+03
 0.12811691310E+03 0.10989923639E+03 0.88323399465E+02 0.66285338368E+02 0.46372160485E+02
 0.30402575350E+02 0.19183224086E+02 0.12461795020E+02 0.91596134988E+01 0.77223075740E+01
 0.68315513414E+01 0.62094131140E+01 0.58375159269E+01 0.56453702692E+01 0.55886360318E+01
 0.56453702692E+01 0.58375159269E+01 0.62094131140E+01 0.68315513414E+01 0.77223075740E+01
 0.91596134988E+01 0.12461795020E+02 0.19183224086E+02 0.30402575350E+02 0.46372160485E+02
 0.66285338368E+02 0.88323399465E+02 0.10989923639E+03 0.12811691310E+03 0.14031061008E+03
 0.16930182958E+03 0.16418283633E+03 0.14967626500E+03 0.12811691310E+03 0.10273701098E+03
 0.76954431097E+02 0.53715247015E+02 0.35040759771E+02 0.21785264535E+02 0.13684726753E+02
 0.95878564530E+01 0.78536681090E+01 0.69093331199E+01 0.62385672258E+01 0.58394298887E+01
 0.56282461299E+01 0.55692314568E+01 0.56282461299E+01 0.58394298887E+01 0.62385672258E+01
 0.69093331199E+01 0.78536681090E+01 0.95878564530E+01 0.13684726753E+02 0.21785264535E+02
 0.35040759771E+02 0.53715247015E+02 0.76954431097E+02 0.10273701098E+03 0.12811691310E+03
 0.14967626500E+03 0.16418283633E+03 0.18599891292E+03 0.18030093316E+03 0.16418283633E+03
 0.14031061008E+03 0.11232739297E+03 0.84019266490E+02 0.58572791228E+02 0.38120689531E+02
 0.23538004734E+02 0.14532190877E+02 0.98966199602E+01 0.79395119686E+01 0.69542471551E+01
 0.62563995905E+01 0.58393085812E+01 0.56170668890E+01 0.55557278038E+01 0.56170668890E+01
 0.58393085812E+01 0.62563995905E+01 0.69542471551E+01 0.79395119686E+01 0.98966199602E+01
 0.14532190877E+02 0.23538004734E+02 0.38120689531E+02 0.58572791228E+02 0.84019266490E+02
 0.11232739297E+03 0.14031061008E+03 0.16418283633E+03 0.18030093316E+03 0.18599891292E+03
 0.18030093316E+03 0.16418283633E+03 0.14031061008E+03 0.11232739297E+03 0.84019266490E+02
 0.58572791228E+02 0.38120689531E+02 0.23538004734E+02 0.14532190877E+02 0.98966199602E+01
 0.79395119686E+01 0.69542471551E+01 0.62563995905E+01 0.58393085812E+01 0.56170668890E+01
 0.55557278038E+01 0.56170668890E+01 0.58393085812E+01 0.62563995905E+01 0.69542471551E+01
 0.79395119686E+01 0.98966199602E+01 0.14532190877E+02 0.23538004734E+02 0.38120689531E+02
 0.58572791228E+02 0.84019266490E+02 0.11232739297E+03 0.14031061008E+03 0.16418283633E+03
 0.18030093316E+03 0.18030093316E+03 0.17480187485E+03 0.15923728885E+03 0.13615762747E+03
 0.10906474190E+03 0.81618956753E+02 0.56924834246E+02 0.37072996810E+02 0.22940174148E+02
 0.14241843191E+02 0.97899201789E+01 0.79110382213E+01 0.69401643238E+01 0.62511855394E+01
 0.58399478574E+01 0.56214632111E+01 0.55608176367E+01 0.56214632111E+01 0.58399478574E+01
 0.62511855394E+01 0.69401643238E+01 0.79110382213E+01 0.97899201789E+01 0.14241843191E+02
 0.22940174148E+02 0.37072996810E+02 0.56924834246E+02 0.81618956753E+02 0.10906474190E+03
 0.13615762747E+03 0.15923728885E+03 0.17480187485E+03 0.16418283633E+03 0.15923728885E+03
 0.14521467201E+03 0.12435229672E+03 0.99762668412E+02 0.74755046758E+02 0.52200240681E+02
 0.34079248582E+02 0.21242736016E+02 0.13427393777E+02 0.94981962580E+01 0.78299572385E+01
 0.68967551643E+01 0.62352193126E+01 0.58415247216E+01 0.56340866723E+01 0.55755509641E+01
 0.56340866723E+01 0.58415247216E+01 0.62352193126E+01 0.68967551643E+01 0.78299572385E+01
 0.94981962580E+01 0.13427393777E+02 0.21242736016E+02 0.34079248582E+02 0.52200240681E+02
 0.74755046758E+02 0.99762668412E+02 0.12435229672E+03 0.14521467201E+03 0.15923728885E+03
 0.14031061008E+03 0.13615762747E+03 0.12435229672E+03 0.10670039660E+03 0.85776105229E+02
 0.64389445619E+02 0.45062149410E+02 0.29576715097E+02 0.18727726968E+02 0.12255378469E+02
 0.90941967122E+01 0.77038756013E+01 0.68220277056E+01 0.62088391060E+01 0.58417056085E+01
 0.56528571527E+01 0.55965285983E+01 0.56528571527E+01 0.58417056085E+01 0.62088391060E+01
 0.68220277056E+01 0.77038756013E+01 0.90941967122E+01 0.12255378469E+02 0.18727726968E+02
 0.29576715097E+02 0.45062149410E+02 0.64389445619E+02 0.85776105229E+02 0.10670039660E+03
 0.12435229672E+03 0.13615762747E+03 0.11232739297E+03 0.10906474190E+03 0.99762668412E+02
 0.85776105229E+02 0.69100106093E+02 0.51986164351E+02 0.36534051399E+02 0.24262843923E+02
 0.15833960706E+02 0.10967660057E+02 0.86667114200E+01 0.75328591886E+01 0.67177681781E+01
 0.61713776994E+01 0.58396810939E+01 0.56743433175E+01 0.56212494079E+01 0.56743433175E+01
 0.58396810939E+01 0.61713776994E+01 0.67177681781E+01 0.75328591886E+01 0.86667114200E+01
 0.10967660057E+02 0.15833960706E+02 0.24262843923E+02 0.36534051399E+02 0.51986164351E+02
 0.69100106093E+02 0.85776105229E+02 0.99762668412E+02 0.10906474190E+03 0.84019266490E+02
 0.81618956753E+02 0.74755046758E+02 0.64389445619E+02 0.51986164351E+02 0.39262940131E+02
 0.27863310138E+02 0.18973843779E+02 0.13066534755E+02 0.98138489010E+01 0.82656753973E+01
 0.73127463618E+01 0.65933894837E+01 0.61221011532E+01 0.58356428947E+01 0.56932386664E+01
 0.56470898423E+01 0.56932386664E+01 0.58356428947E+01 0.61221011532E+01 0.65933894837E+01
 0.73127463618E+01 0.82656753973E+01 0.98138489010E+01 0.13066534755E+02 0.18973843779E+02
 0.27863310138E+02 0.39262940131E+02 0.51986164351E+02 0.64389445619E+02 0.74755046758E+02
 0.81618956753E+02 0.58572791228E+02 0.56924834246E+02 0.52200240681E+02 0.45062149410E+02
 0.36534051399E+02 0.27863310138E+02 0.20234527160E+02 0.14488315660E+02 0.10850384598E+02
 0.89357703783E+01 0.78730611275E+01 0.70538022290E+01 0.64591859751E+01 0.60633490300E+01
 0.58297595463E+01 0.57069206982E+01 0.56716824863E+01 0.57069206982E+01 0.58297595463E+01
 0.60633490300E+01 0.64591859751E+01 0.70538022290E+01 0.78730611275E+01 0.89357703783E+01
 0.10850384598E+02 0.14488315660E+02 0.20234527160E+02 0.27863310138E+02 0.36534051399E+02
 0.45062149410E+02 0.52200240681E+02 0.56924834246E+02 0.38120689531E+02 0.37072996810E+02
 0.34079248582E+02 0.29576715097E+02 0.24262843923E+02 0.18973843779E+02 0.14488315660E+02
 0.11277477279E+02 0.93651853321E+01 0.82798977897E+01 0.74520791285E+01 0.67914415497E+01
 0.63185896965E+01 0.60052246069E+01 0.58163277028E+01 0.57174073637E+01 0.56871980814E+01
 0.57174073637E+01 0.58163277028E+01 0.60052246069E+01 0.63185896965E+01 0.67914415497E+01
 0.74520791285E+01 0.82798977897E+01 0.93651853321E+01 0.11277477279E+02 0.14488315660E+02
 0.18973843779E+02 0.24262843923E+02 0.29576715097E+02 0.34079248582E+02 0.37072996810E+02
 0.23538004734E+02 0.22940174148E+02 0.21242736016E+02 0.18727726968E+02 0.15833960706E+02
 0.13066534755E+02 0.10850384598E+02 0.93651853321E+01 0.84309172803E+01 0.76834116995E+01
 0.70397045614E+01 0.65432196130E+01 0.61849536789E+01 0.59471744398E+01 0.57996061218E+01
 0.57216460822E+01 0.56965690635E+01 0.57216460822E+01 0.57996061218E+01 0.59471744398E+01
 0.61849536789E+01 0.65432196130E+01 0.70397045614E+01 0.76834116995E+01 0.84309172803E+01
 0.93651853321E+01 0.10850384598E+02 0.13066534755E+02 0.15833960706E+02 0.18727726968E+02
 0.21242736016E+02 0.22940174148E+02 0.14532190877E+02 0.14241843191E+02 0.13427393777E+02
 0.12255378469E+02 0.10967660057E+02 0.98138489010E+01 0.89357703783E+01 0.82798977897E+01
 0.76834116995E+01 0.71320812360E+01 0.66759882371E+01 0.63219725703E+01 0.60671571552E+01
 0.58916888260E+01 0.57799566408E+01 0.57174073637E+01 0.56978938601E+01 0.57174073637E+01
 0.57799566408E+01 0.58916888260E+01 0.60671571552E+01 0.63219725703E+01 0.66759882371E+01
 0.71320812360E+01 0.76834116995E+01 0.82798977897E+01 0.89357703783E+01 0.98138489010E+01
 0.10967660057E+02 0.12255378469E+02 0.13427393777E+02 0.14241843191E+02 0.98966199602E+01
 0.97899201789E+01 0.94981962580E+01 0.90941967122E+01 0.86667114200E+01 0.82656753973E+01
 0.78730611275E+01 0.74520791285E+01 0.70397045614E+01 0.66759882371E+01 0.63734532797E+01
 0.61396242595E+01 0.59641491578E+01 0.58388008932E+01 0.57547564081E+01 0.57069206982E+01
 0.56910266156E+01 0.57069206982E+01 0.57547564081E+01 0.58388008932E+01 0.59641491578E+01
 0.61396242595E+01 0.63734532797E+01 0.66759882371E+01 0.70397045614E+01 0.74520791285E+01
 0.78730611275E+01 0.82656753973E+01 0.86667114200E+01 0.90941967122E+01 0.94981962580E+01
 0.97899201789E+01 0.79395119686E+01 0.79110382213E+01 0.78299572385E+01 0.77038756013E+01
 0.75328591886E+01 0.73127463618E+01 0.70538022290E+01 0.67914415497E+01 0.65432196130E+01
 0.63219725703E+01 0.61396242595E+01 0.59917561847E+01 0.58763937233E+01 0.57902822818E+01
 0.57299218796E+01 0.56932386664E+01 0.56809989498E+01 0.56932386664E+01 0.57299218796E+01
 0.57902822818E+01 0.58763937233E+01 0.59917561847E+01 0.61396242595E+01 0.63219725703E+01
 0.65432196130E+01 0.67914415497E+01 0.70538022290E+01 0.73127463618E+01 0.75328591886E+01
 0.77038756013E+01 0.78299572385E+01 0.79110382213E+01 0.69542471551E+01 0.69401643238E+01
 0.68967551643E+01 0.68220277056E+01 0.67177681781E+01 0.65933894837E+01 0.64591859751E+01
 0.63185896965E+01 0.61849536789E+01 0.60671571552E+01 0.59641491578E+01 0.58763937233E+01
 0.58048482899E+01 0.57472184290E+01 0.57027874095E+01 0.56743433175E+01 0.56644387535E+01
 0.56743433175E+01 0.57027874095E+01 0.57472184290E+01 0.58048482899E+01 0.58763937233E+01
 0.59641491578E+01 0.60671571552E+01 0.61849536789E+01 0.63185896965E+01 0.64591859751E+01
 0.65933894837E+01 0.67177681781E+01 0.68220277056E+01 0.68967551643E+01 0.69401643238E+01
 0.62563995905E+01 0.62511855394E+01 0.62352193126E+01 0.62088391060E+01 0.61713776994E+01
 0.61221011532E+01 0.60633490300E+01 0.60052246069E+01 0.59471744398E+01 0.58916888260E+01
 0.58388008932E+01 0.57902822818E+01 0.57472184290E+01 0.57074803135E+01 0.56747766141E+01
 0.56528571527E+01 0.56453702692E+01 0.56528571527E+01 0.56747766141E+01 0.57074803135E+01
 0.57472184290E+01 0.57902822818E+01 0.58388008932E+01 0.58916888260E+01 0.59471744398E+01
 0.60052246069E+01 0.60633490300E+01 0.61221011532E+01 0.61713776994E+01 0.62088391060E+01
 0.62352193126E+01 0.62511855394E+01 0.58393085812E+01 0.58399478574E+01 0.58415247216E+01
 0.58417056085E+01 0.58396810939E+01 0.58356428947E+01 0.58297595463E+01 0.58163277028E+01
 0.57996061218E+01 0.57799566408E+01 0.57547564081E+01 0.57299218796E+01 0.57027874095E+01
 0.56747766141E+01 0.56502747348E+01 0.56340866723E+01 0.56282461299E+01 0.56340866723E+01
 0.56502747348E+01 0.56747766141E+01 0.57027874095E+01 0.57299218796E+01 0.57547564081E+01
 0.57799566408E+01 0.57996061218E+01 0.58163277028E+01 0.58297595463E+01 0.58356428947E+01
 0.58396810939E+01 0.58417056085E+01 0.58415247216E+01 0.58399478574E+01 0.56170668890E+01
 0.56214632111E+01 0.56340866723E+01 0.56528571527E+01 0.56743433175E+01 0.56932386664E+01
 0.57069206982E+01 0.57174073637E+01 0.57216460822E+01 0.57174073637E+01 0.57069206982E+01
 0.56932386664E+01 0.56743433175E+01 0.56528571527E+01 0.56340866723E+01 0.56214632111E+01
 0.56170668890E+01 0.56214632111E+01 0.56340866723E+01 0.56528571527E+01 0.56743433175E+01
 0.56932386664E+01 0.57069206982E+01 0.57174073637E+01 0.57216460822E+01 0.57174073637E+01
 0.57069206982E+01 0.56932386664E+01 0.56743433175E+01 0.56528571527E+01 0.56340866723E+01
 0.56214632111E+01 0.55557278038E+01 0.55608176367E+01 0.55755509641E+01 0.55965285983E+01
 0.56212494079E+01 0.56470898423E+01 0.56716824863E+01 0.56871980814E+01 0.56965690635E+01
 0.56978938601E+01 0.56910266156E+01 0.56809989498E+01 0.56644387535E+01 0.56453702692E+01
 0.56282461299E+01 0.56170668890E+01 0.56129638938E+01 0.56170668890E+01 0.56282461299E+01
 0.56453702692E+01 0.56644387535E+01 0.56809989498E+01 0.56910266156E+01 0.56978938601E+01
 0.56965690635E+01 0.56871980814E+01 0.56716824863E+01 0.56470898423E+01 0.56212494079E+01
 0.55965285983E+01 0.55755509641E+01 0.55608176367E+01 0.56170668890E+01 0.56214632111E+01
 0.56340866723E+01 0.56528571527E+01 0.56743433175E+01 0.56932386664E+01 0.57069206982E+01
 0.57174073637E+01 0.57216460822E+01 0.57174073637E+01 0.57069206982E+01 0.56932386664E+01
 0.56743433175E+01 0.56528571527E+01 0.56340866723E+01 0.56214632111E+01 0.56170668890E+01
 0.56214632111E+01 0.56340866723E+01 0.56528571527E+01 0.56743433175E+01 0.56932386664E+01
 0.57069206982E+01 0.57174073637E+01 0.57216460822E+01 0.57174073637E+01 0.57069206982E+01
 0.56932386664E+01 0.56743433175E+01 0.56528571527E+01 0.56340866723E+01 0.56214632111E+01
 0.58393085812E+01 0.58399478574E+01 0.58415247216E+01 0.58417056085E+01 0.58396810939E+01
 0.58356428947E+01 0.58297595463E+01 0.58163277028E+01 0.57996061218E+01 0.57799566408E+01
 0.57547564081E+01 0.57299218796E+01 0.57027874095E+01 0.56747766141E+01 0.56502747348E+01
 0.56340866723E+01 0.56282461299E+01 0.56340866723E+01 0.56502747348E+01 0.56747766141E+01
 0.57027874095E+01 0.57299218796E+01 0.57547564081E+01 0.57799566408E+01 0.57996061218E+01
 0.58163277028E+01 0.58297595463E+01 0.58356428947E+01 0.58396810939E+01 0.58417056085E+01