   2   2   1   0
  0.1173411E+02  0.2863036E-09  0.2863036E-09  0.2863036E-09  0.5000000E-15
  1.000000000000000E-004
  CAR 
 unknown system                          
     45.22470792     -4.87044597  301      5.85841459      1.00000000
     -4.870  0.0000E+00  0.0000E+00  0.0000E+00  0.0000E+00
     -4.703  0.0000E+00  0.0000E+00  0.0000E+00  0.0000E+00
     -4.536  0.0000E+00  0.0000E+00  0.0000E+00  0.0000E+00
     -4.369  0.0000E+00  0.0000E+00  0.0000E+00  0.0000E+00
     -4.203 -0.3117E-32  0.0000E+00 -0.5205E-33  0.0000E+00
     -4.036 -0.9542E-27 -0.6202E-32 -0.1593E-27 -0.1036E-32
     -3.869 -0.7177E-22 -0.1765E-26 -0.1199E-22 -0.2948E-27
     -3.702 -0.1287E-17 -0.1235E-21 -0.2148E-18 -0.2061E-22
     -3.535 -0.5806E-14 -0.2057E-17 -0.9698E-15 -0.3434E-18
     -3.368 -0.6511E-11 -0.8627E-14 -0.1088E-11 -0.1441E-14
     -3.201 -0.1848E-08 -0.8995E-11 -0.3096E-09 -0.1504E-11
     -3.034 -0.1359E-06 -0.2375E-08 -0.2301E-07 -0.3981E-09
     -2.867 -0.2522E-05 -0.1626E-06 -0.4441E-06 -0.2756E-07
     -2.700 -0.6095E-05 -0.2791E-05 -0.1462E-05 -0.4936E-06
     -2.533  0.6471E-04 -0.5401E-05  0.9343E-05 -0.1395E-05
     -2.366  0.2305E-03  0.7192E-04  0.4783E-04  0.1061E-04
     -2.199  0.3644E-03  0.2359E-03  0.1087E-03  0.5000E-04
     -2.032  0.5347E-03  0.3682E-03  0.1980E-03  0.1115E-03
     -1.865  0.4665E-03  0.5328E-03  0.2759E-03  0.2005E-03
     -1.698  0.7033E-03  0.4565E-03  0.3933E-03  0.2767E-03
     -1.531  0.7562E-03  0.6974E-03  0.5196E-03  0.3931E-03
     -1.364  0.8082E-03  0.7372E-03  0.6545E-03  0.5162E-03
     -1.197  0.7284E-03  0.7915E-03  0.7761E-03  0.6484E-03
     -1.030  0.1046E-02  0.7034E-03  0.9507E-03  0.7659E-03
     -0.863  0.1231E-02  0.9605E-03  0.1156E-02  0.9262E-03
     -0.696  0.1010E-02  0.1185E-02  0.1325E-02  0.1124E-02
     -0.529  0.1002E-02  0.1038E-02  0.1492E-02  0.1297E-02
     -0.362  0.1517E-02  0.8041E-03  0.1746E-02  0.1432E-02
     -0.195  0.1632E-02  0.1329E-02  0.2018E-02  0.1654E-02
     -0.028  0.1534E-02  0.1498E-02  0.2274E-02  0.1904E-02
      0.139  0.1582E-02  0.1416E-02  0.2538E-02  0.2140E-02
      0.306  0.1928E-02  0.1230E-02  0.2860E-02  0.2346E-02
      0.473  0.2442E-02  0.1590E-02  0.3268E-02  0.2611E-02
      0.640  0.2723E-02  0.1551E-02  0.3723E-02  0.2870E-02
      0.807  0.3142E-02  0.1944E-02  0.4247E-02  0.3195E-02
      0.974  0.5785E-02  0.2178E-02  0.5213E-02  0.3559E-02
      1.141  0.1048E-01  0.1966E-02  0.6964E-02  0.3887E-02
      1.308  0.1154E-01  0.1762E-02  0.8890E-02  0.4181E-02
      1.475  0.1401E-01  0.2719E-02  0.1123E-01  0.4635E-02
      1.642  0.1804E-01  0.3006E-02  0.1424E-01  0.5137E-02
      1.809  0.1807E-01  0.3045E-02  0.1726E-01  0.5646E-02
      1.976  0.1381E-01  0.3655E-02  0.1957E-01  0.6256E-02
      2.143  0.9815E-02  0.4493E-02  0.2120E-01  0.7006E-02
      2.310  0.8516E-02  0.6279E-02  0.2263E-01  0.8055E-02
      2.477  0.1851E-01  0.7815E-02  0.2572E-01  0.9360E-02
      2.644  0.3030E-01  0.6609E-02  0.3078E-01  0.1046E-01
      2.811  0.2427E-01  0.7310E-02  0.3483E-01  0.1168E-01
      2.978  0.2017E-01  0.9185E-02  0.3820E-01  0.1322E-01
      3.145  0.2232E-01  0.1153E-01  0.4193E-01  0.1514E-01
      3.312  0.2818E-01  0.1299E-01  0.4663E-01  0.1731E-01
      3.479  0.2732E-01  0.1123E-01  0.5119E-01  0.1919E-01
      3.646  0.1677E-01  0.8291E-02  0.5399E-01  0.2057E-01
      3.813  0.9482E-02  0.5506E-02  0.5558E-01  0.2149E-01
      3.980  0.8428E-02  0.9522E-02  0.5698E-01  0.2308E-01
      4.147  0.8992E-02  0.2054E-01  0.5849E-01  0.2651E-01
      4.314  0.1187E-01  0.2641E-01  0.6047E-01  0.3092E-01
      4.481  0.1847E-01  0.2461E-01  0.6355E-01  0.3503E-01
      4.648  0.3059E-01  0.2281E-01  0.6866E-01  0.3884E-01
      4.815  0.4278E-01  0.2254E-01  0.7580E-01  0.4260E-01
      4.982  0.5054E-01  0.2422E-01  0.8424E-01  0.4665E-01
      5.149  0.3624E-01  0.2347E-01  0.9029E-01  0.5057E-01
      5.316  0.1898E-01  0.1920E-01  0.9346E-01  0.5377E-01
      5.483  0.1666E-01  0.1336E-01  0.9624E-01  0.5600E-01
      5.650  0.1404E-01  0.6637E-02  0.9859E-01  0.5711E-01
      5.817  0.1489E-01  0.5464E-02  0.1011E+00  0.5802E-01
      5.984  0.1563E-01  0.4715E-02  0.1037E+00  0.5881E-01
      6.150  0.9901E-02  0.5427E-02  0.1053E+00  0.5972E-01
      6.317  0.4596E-02  0.5868E-02  0.1061E+00  0.6070E-01
      6.484  0.2270E-02  0.8548E-02  0.1065E+00  0.6213E-01
      6.651  0.2723E-02  0.1179E-01  0.1069E+00  0.6409E-01
      6.818  0.3541E-02  0.1488E-01  0.1075E+00  0.6658E-01
      6.985  0.3257E-02  0.1763E-01  0.1081E+00  0.6952E-01
      7.152  0.2387E-02  0.2239E-01  0.1085E+00  0.7326E-01
      7.319  0.3051E-02  0.2670E-01  0.1090E+00  0.7772E-01
      7.486  0.3445E-02  0.2537E-01  0.1096E+00  0.8196E-01
      7.653  0.2061E-02  0.3134E-01  0.1099E+00  0.8719E-01
      7.820  0.2168E-02  0.4790E-01  0.1103E+00  0.9519E-01
      7.987  0.3147E-02  0.3372E-01  0.1108E+00  0.1008E+00
      8.154  0.3333E-02  0.1694E-01  0.1113E+00  0.1036E+00
      8.321  0.2839E-02  0.1161E-01  0.1118E+00  0.1056E+00
      8.488  0.2673E-02  0.6300E-02  0.1123E+00  0.1066E+00
      8.655  0.2075E-02  0.4167E-02  0.1126E+00  0.1073E+00
      8.822  0.1879E-02  0.4622E-02  0.1129E+00  0.1081E+00
      8.989  0.2580E-02  0.4409E-02  0.1134E+00  0.1088E+00
      9.156  0.2600E-02  0.3785E-02  0.1138E+00  0.1095E+00
      9.323  0.2366E-02  0.2665E-02  0.1142E+00  0.1099E+00
      9.490  0.2488E-02  0.3266E-02  0.1146E+00  0.1105E+00
      9.657  0.2667E-02  0.4861E-02  0.1150E+00  0.1113E+00
      9.824  0.1964E-02  0.3716E-02  0.1154E+00  0.1119E+00
      9.991  0.1669E-02  0.2243E-02  0.1157E+00  0.1123E+00
     10.158  0.1790E-02  0.2248E-02  0.1160E+00  0.1126E+00
     10.325  0.2139E-02  0.3422E-02  0.1163E+00  0.1132E+00
     10.492  0.1300E-02  0.3499E-02  0.1165E+00  0.1138E+00
     10.659  0.1319E-02  0.2430E-02  0.1167E+00  0.1142E+00
     10.826  0.2485E-02  0.2380E-02  0.1172E+00  0.1146E+00
     10.993  0.2107E-02  0.3194E-02  0.1175E+00  0.1151E+00
     11.160  0.1818E-02  0.2261E-02  0.1178E+00  0.1155E+00
     11.327  0.1161E-02  0.1776E-02  0.1180E+00  0.1158E+00
     11.494  0.1188E-02  0.2375E-02  0.1182E+00  0.1162E+00
     11.661  0.1136E-02  0.1931E-02  0.1184E+00  0.1165E+00
     11.828  0.4209E-03  0.1758E-02  0.1185E+00  0.1168E+00
     11.995  0.1012E-02  0.2527E-02  0.1186E+00  0.1172E+00
     12.162  0.1425E-02  0.2158E-02  0.1189E+00  0.1176E+00
     12.329  0.1006E-02  0.1699E-02  0.1190E+00  0.1179E+00
     12.496  0.9701E-03  0.1172E-02  0.1192E+00  0.1181E+00
     12.663  0.8548E-03  0.1135E-02  0.1194E+00  0.1183E+00
     12.830  0.9031E-03  0.1031E-02  0.1195E+00  0.1184E+00
     12.997  0.5821E-03  0.1165E-02  0.1196E+00  0.1186E+00
     13.164  0.3147E-03  0.1818E-02  0.1197E+00  0.1189E+00
     13.331  0.1520E-02  0.1420E-02  0.1199E+00  0.1192E+00
     13.498  0.3707E-02  0.5615E-03  0.1205E+00  0.1193E+00
     13.665  0.5240E-02  0.5769E-03  0.1214E+00  0.1194E+00
     13.832  0.5554E-02  0.8893E-03  0.1223E+00  0.1195E+00
     13.999  0.4936E-02  0.4998E-03  0.1232E+00  0.1196E+00
     14.166  0.3871E-02  0.2359E-03  0.1238E+00  0.1196E+00
     14.333  0.3612E-02  0.1551E-03  0.1244E+00  0.1197E+00
     14.500  0.3748E-02  0.1373E-02  0.1250E+00  0.1199E+00
     14.667  0.3069E-02  0.4160E-02  0.1255E+00  0.1206E+00
     14.834  0.3071E-02  0.6016E-02  0.1261E+00  0.1216E+00
     15.001  0.3033E-02  0.7080E-02  0.1266E+00  0.1228E+00
     15.168  0.2761E-02  0.5949E-02  0.1270E+00  0.1238E+00
     15.335  0.3621E-02  0.3142E-02  0.1276E+00  0.1243E+00
     15.502  0.3460E-02  0.3269E-02  0.1282E+00  0.1248E+00
     15.669  0.2962E-02  0.4149E-02  0.1287E+00  0.1255E+00
     15.836  0.4356E-02  0.4395E-02  0.1294E+00  0.1263E+00
     16.003  0.4304E-02  0.4212E-02  0.1301E+00  0.1270E+00
     16.170  0.3793E-02  0.2650E-02  0.1308E+00  0.1274E+00
     16.337  0.3393E-02  0.3381E-02  0.1313E+00  0.1280E+00
     16.503  0.3623E-02  0.3769E-02  0.1319E+00  0.1286E+00
     16.670  0.4046E-02  0.4831E-02  0.1326E+00  0.1294E+00
     16.837  0.3711E-02  0.4702E-02  0.1332E+00  0.1302E+00
     17.004  0.3639E-02  0.3903E-02  0.1338E+00  0.1309E+00
     17.171  0.3515E-02  0.4424E-02  0.1344E+00  0.1316E+00
     17.338  0.4956E-02  0.4182E-02  0.1353E+00  0.1323E+00
     17.505  0.4504E-02  0.2749E-02  0.1360E+00  0.1328E+00
     17.672  0.2429E-02  0.3595E-02  0.1364E+00  0.1334E+00
     17.839  0.2395E-02  0.4354E-02  0.1368E+00  0.1341E+00
     18.006  0.3682E-02  0.4165E-02  0.1374E+00  0.1348E+00
     18.173  0.3361E-02  0.5344E-02  0.1380E+00  0.1357E+00
     18.340  0.4003E-02  0.4516E-02  0.1387E+00  0.1364E+00
     18.507  0.5744E-02  0.2190E-02  0.1396E+00  0.1368E+00
     18.674  0.3994E-02  0.2279E-02  0.1403E+00  0.1372E+00
     18.841  0.2548E-02  0.3293E-02  0.1407E+00  0.1377E+00
     19.008  0.3542E-02  0.4796E-02  0.1413E+00  0.1385E+00
     19.175  0.2198E-02  0.5042E-02  0.1417E+00  0.1394E+00
     19.342  0.1349E-02  0.4809E-02  0.1419E+00  0.1402E+00
     19.509  0.4277E-02  0.3624E-02  0.1426E+00  0.1408E+00
     19.676  0.5592E-02  0.2873E-02  0.1435E+00  0.1412E+00
     19.843  0.4552E-02  0.2386E-02  0.1443E+00  0.1416E+00
     20.010  0.4601E-02  0.2171E-02  0.1451E+00  0.1420E+00
     20.177  0.2419E-02  0.4167E-02  0.1455E+00  0.1427E+00
     20.344  0.1542E-02  0.4859E-02  0.1457E+00  0.1435E+00
     20.511  0.2586E-02  0.5180E-02  0.1462E+00  0.1444E+00
     20.678  0.3287E-02  0.4674E-02  0.1467E+00  0.1452E+00
     20.845  0.3070E-02  0.1899E-02  0.1472E+00  0.1455E+00
     21.012  0.3537E-02  0.2575E-02  0.1478E+00  0.1459E+00
     21.179  0.5161E-02  0.3087E-02  0.1487E+00  0.1464E+00
     21.346  0.4854E-02  0.2741E-02  0.1495E+00  0.1469E+00
     21.513  0.3434E-02  0.3337E-02  0.1501E+00  0.1474E+00
     21.680  0.1920E-02  0.4406E-02  0.1504E+00  0.1482E+00
     21.847  0.1406E-02  0.5482E-02  0.1506E+00  0.1491E+00
     22.014  0.3402E-02  0.4141E-02  0.1512E+00  0.1498E+00
     22.181  0.4037E-02  0.2882E-02  0.1519E+00  0.1503E+00
     22.348  0.3928E-02  0.1335E-02  0.1525E+00  0.1505E+00
     22.515  0.4915E-02  0.2522E-02  0.1533E+00  0.1509E+00
     22.682  0.5040E-02  0.3838E-02  0.1542E+00  0.1515E+00
     22.849  0.4934E-02  0.3748E-02  0.1550E+00  0.1522E+00
     23.016  0.4382E-02  0.4127E-02  0.1557E+00  0.1529E+00
     23.183  0.3143E-02  0.5240E-02  0.1563E+00  0.1537E+00
     23.350  0.2980E-02  0.5450E-02  0.1568E+00  0.1546E+00
     23.517  0.4321E-02  0.4286E-02  0.1575E+00  0.1554E+00
     23.684  0.5696E-02  0.3751E-02  0.1584E+00  0.1560E+00
     23.851  0.5086E-02  0.4355E-02  0.1593E+00  0.1567E+00
     24.018  0.5008E-02  0.4323E-02  0.1601E+00  0.1574E+00
     24.185  0.6973E-02  0.4870E-02  0.1613E+00  0.1583E+00
     24.352  0.5542E-02  0.6677E-02  0.1622E+00  0.1594E+00
     24.519  0.4039E-02  0.7087E-02  0.1629E+00  0.1606E+00
     24.686  0.3898E-02  0.5790E-02  0.1635E+00  0.1615E+00
     24.853  0.4192E-02  0.4306E-02  0.1642E+00  0.1622E+00
     25.020  0.4167E-02  0.4401E-02  0.1649E+00  0.1630E+00
     25.187  0.5411E-02  0.4522E-02  0.1658E+00  0.1637E+00
     25.354  0.5993E-02  0.3706E-02  0.1668E+00  0.1643E+00
     25.521  0.6047E-02  0.5176E-02  0.1678E+00  0.1652E+00
     25.688  0.6132E-02  0.5763E-02  0.1689E+00  0.1662E+00
     25.855  0.5655E-02  0.5350E-02  0.1698E+00  0.1671E+00
     26.022  0.3774E-02  0.7063E-02  0.1704E+00  0.1682E+00
     26.189  0.3079E-02  0.6680E-02  0.1710E+00  0.1694E+00
     26.356  0.4400E-02  0.3990E-02  0.1717E+00  0.1700E+00
     26.523  0.6099E-02  0.3271E-02  0.1727E+00  0.1706E+00
     26.690  0.6150E-02  0.4216E-02  0.1737E+00  0.1713E+00
     26.856  0.5763E-02  0.5197E-02  0.1747E+00  0.1721E+00
     27.023  0.4329E-02  0.5873E-02  0.1754E+00  0.1731E+00
     27.190  0.4178E-02  0.5959E-02  0.1761E+00  0.1741E+00
     27.357  0.3305E-02  0.5817E-02  0.1767E+00  0.1751E+00
     27.524  0.2829E-02  0.4722E-02  0.1771E+00  0.1759E+00
     27.691  0.3560E-02  0.2792E-02  0.1777E+00  0.1763E+00
     27.858  0.3304E-02  0.3368E-02  0.1783E+00  0.1769E+00
     28.025  0.3912E-02  0.4095E-02  0.1789E+00  0.1776E+00
     28.192  0.4272E-02  0.2549E-02  0.1797E+00  0.1780E+00
     28.359  0.3987E-02  0.2488E-02  0.1803E+00  0.1784E+00
     28.526  0.3571E-02  0.4577E-02  0.1809E+00  0.1792E+00
     28.693  0.2762E-02  0.5597E-02  0.1814E+00  0.1801E+00
     28.860  0.2891E-02  0.3163E-02  0.1819E+00  0.1807E+00
     29.027  0.2117E-02  0.2317E-02  0.1822E+00  0.1810E+00
     29.194  0.2170E-02  0.3244E-02  0.1826E+00  0.1816E+00
     29.361  0.2240E-02  0.3193E-02  0.1830E+00  0.1821E+00
     29.528  0.3222E-02  0.2319E-02  0.1835E+00  0.1825E+00
     29.695  0.3961E-02  0.2357E-02  0.1842E+00  0.1829E+00
     29.862  0.3148E-02  0.2405E-02  0.1847E+00  0.1833E+00
     30.029  0.3099E-02  0.3770E-02  0.1852E+00  0.1839E+00
     30.196  0.4041E-02  0.4226E-02  0.1859E+00  0.1846E+00
     30.363  0.4545E-02  0.2754E-02  0.1866E+00  0.1851E+00
     30.530  0.5440E-02  0.3631E-02  0.1875E+00  0.1857E+00
     30.697  0.5756E-02  0.5538E-02  0.1885E+00  0.1866E+00
     30.864  0.6731E-02  0.5217E-02  0.1896E+00  0.1875E+00
     31.031  0.6313E-02  0.5870E-02  0.1907E+00  0.1885E+00
     31.198  0.5783E-02  0.6615E-02  0.1916E+00  0.1896E+00
     31.365  0.4958E-02  0.5686E-02  0.1925E+00  0.1905E+00
     31.532  0.4336E-02  0.6120E-02  0.1932E+00  0.1916E+00
     31.699  0.3781E-02  0.5465E-02  0.1938E+00  0.1925E+00
     31.866  0.3034E-02  0.3711E-02  0.1943E+00  0.1931E+00
     32.033  0.3941E-02  0.4806E-02  0.1950E+00  0.1939E+00
     32.200  0.3254E-02  0.4848E-02  0.1955E+00  0.1947E+00
     32.367  0.1679E-02  0.2802E-02  0.1958E+00  0.1952E+00
     32.534  0.1172E-02  0.2288E-02  0.1960E+00  0.1956E+00
     32.701  0.9502E-03  0.1540E-02  0.1962E+00  0.1958E+00
     32.868  0.1874E-02  0.1406E-02  0.1965E+00  0.1960E+00
     33.035  0.1441E-02  0.2444E-02  0.1967E+00  0.1965E+00
     33.202  0.7403E-03  0.1294E-02  0.1968E+00  0.1967E+00
     33.369  0.1151E-02  0.6010E-03  0.1970E+00  0.1968E+00
     33.536  0.1412E-02  0.1605E-02  0.1973E+00  0.1970E+00
     33.703  0.1406E-02  0.2081E-02  0.1975E+00  0.1974E+00
     33.870  0.8065E-03  0.1178E-02  0.1976E+00  0.1976E+00
     34.037  0.7303E-03  0.5744E-03  0.1978E+00  0.1977E+00
     34.204  0.8606E-03  0.7287E-03  0.1979E+00  0.1978E+00
     34.371  0.3495E-03  0.6860E-03  0.1980E+00  0.1979E+00
     34.538  0.7435E-04  0.3506E-03  0.1980E+00  0.1980E+00
     34.705  0.3485E-04  0.6512E-04  0.1980E+00  0.1980E+00
     34.872  0.7378E-03  0.4472E-03  0.1981E+00  0.1981E+00
     35.039  0.1044E-02  0.9674E-03  0.1983E+00  0.1982E+00
     35.206  0.3239E-03  0.6049E-03  0.1983E+00  0.1983E+00
     35.373  0.1767E-04  0.1953E-03  0.1983E+00  0.1984E+00
     35.540  0.8533E-03  0.7888E-03  0.1985E+00  0.1985E+00
     35.707  0.1187E-02  0.1101E-02  0.1987E+00  0.1987E+00
     35.874  0.8021E-03  0.8822E-03  0.1988E+00  0.1988E+00
     36.041  0.5341E-03  0.5553E-03  0.1989E+00  0.1989E+00
     36.208  0.1313E-03  0.1236E-04  0.1989E+00  0.1989E+00
     36.375  0.4969E-03  0.3315E-03  0.1990E+00  0.1990E+00
     36.542  0.3162E-03  0.5679E-03  0.1991E+00  0.1991E+00
     36.709  0.2422E-03  0.3205E-03  0.1991E+00  0.1991E+00
     36.876  0.1043E-03  0.4038E-04  0.1991E+00  0.1991E+00
     37.042  0.7991E-04  0.5857E-04  0.1991E+00  0.1991E+00
     37.209  0.5150E-03  0.5029E-03  0.1992E+00  0.1992E+00
     37.376  0.2916E-03  0.3151E-03  0.1993E+00  0.1993E+00
     37.543 -0.4848E-04 -0.4795E-04  0.1993E+00  0.1993E+00
     37.710  0.5112E-04  0.1560E-03  0.1993E+00  0.1993E+00
     37.877  0.8085E-03  0.8650E-03  0.1994E+00  0.1994E+00
     38.044  0.8096E-03  0.7066E-03  0.1995E+00  0.1995E+00
     38.211  0.2188E-03  0.2750E-03  0.1996E+00  0.1996E+00
     38.378  0.2434E-03  0.1677E-03  0.1996E+00  0.1996E+00
     38.545  0.1997E-03  0.1423E-03  0.1997E+00  0.1996E+00
     38.712  0.1128E-03  0.1318E-03  0.1997E+00  0.1997E+00
     38.879 -0.5202E-05 -0.2326E-05  0.1997E+00  0.1997E+00
     39.046 -0.1408E-04 -0.2753E-05  0.1997E+00  0.1997E+00
     39.213  0.1346E-03  0.1940E-03  0.1997E+00  0.1997E+00
     39.380  0.2647E-03  0.2264E-03  0.1997E+00  0.1997E+00
     39.547  0.4965E-04  0.4847E-05  0.1997E+00  0.1997E+00
     39.714 -0.2208E-04  0.7497E-04  0.1997E+00  0.1998E+00
     39.881  0.1301E-03  0.2725E-03  0.1998E+00  0.1998E+00
     40.048  0.2634E-03  0.9064E-04  0.1998E+00  0.1998E+00
     40.215  0.4345E-04 -0.6523E-05  0.1998E+00  0.1998E+00
     40.382  0.8022E-04  0.1931E-03  0.1998E+00  0.1998E+00
     40.549  0.2597E-03  0.2531E-03  0.1999E+00  0.1999E+00
     40.716  0.1615E-03  0.2634E-03  0.1999E+00  0.1999E+00
     40.883  0.2595E-03  0.1533E-03  0.1999E+00  0.2000E+00
     41.050  0.1074E-03 -0.6281E-05  0.2000E+00  0.2000E+00
     41.217 -0.1186E-04 -0.5213E-05  0.2000E+00  0.2000E+00
     41.384 -0.3099E-05 -0.2099E-06  0.2000E+00  0.2000E+00
     41.551 -0.8680E-07 -0.1664E-08  0.2000E+00  0.2000E+00
     41.718 -0.5013E-09 -0.2979E-11  0.2000E+00  0.2000E+00
     41.885 -0.6625E-12 -0.2619E-13  0.2000E+00  0.2000E+00
     42.052 -0.6876E-12 -0.3242E-10  0.2000E+00  0.2000E+00
     42.219 -0.4765E-09 -0.9827E-08  0.2000E+00  0.2000E+00
     42.386 -0.7529E-07 -0.6502E-06  0.2000E+00  0.2000E+00
     42.553 -0.2423E-05 -0.7145E-05  0.2000E+00  0.2000E+00
     42.720 -0.7169E-05  0.2257E-04  0.2000E+00  0.2000E+00
     42.887  0.8302E-04  0.1666E-03  0.2000E+00  0.2000E+00
     43.054  0.1789E-03  0.1097E-03  0.2000E+00  0.2000E+00
     43.221  0.4092E-04 -0.3400E-05  0.2000E+00  0.2000E+00
     43.388 -0.8207E-05 -0.3568E-05  0.2000E+00  0.2000E+00
     43.555 -0.1088E-05 -0.1477E-06  0.2000E+00  0.2000E+00
     43.722 -0.2112E-07 -0.1200E-08  0.2000E+00  0.2000E+00
     43.889 -0.8763E-10 -0.2205E-11  0.2000E+00  0.2000E+00
     44.056 -0.8406E-13 -0.9560E-15  0.2000E+00  0.2000E+00
     44.223 -0.1916E-16 -0.9456E-19  0.2000E+00  0.2000E+00
     44.390  0.0000E+00  0.0000E+00  0.2000E+00  0.2000E+00
     44.557  0.0000E+00  0.0000E+00  0.2000E+00  0.2000E+00
     44.724  0.0000E+00  0.0000E+00  0.2000E+00  0.2000E+00
     44.891  0.0000E+00  0.0000E+00  0.2000E+00  0.2000E+00
     45.058  0.0000E+00  0.0000E+00  0.2000E+00  0.2000E+00
     45.225  0.0000E+00  0.0000E+00  0.2000E+00  0.2000E+00
     45.22470792     -4.87044597  301      5.85841459      1.00000000
     -4.870  0.0000E+00  0.0000E+00  0.0000E+00  0.0000E+00  0.0000E+00  0.0000E+00  0.0000E+00  0.0000E+00  0.0000E+00  0.0000E+00  0.0000E+00  0.0000E+00  0.0000E+00  0.0000E+00  0.0000E+00  0.0000E+00  0.0000E+00  0.0000E+00
     -4.703  0.0000E+00  0.0000E+00  0.0000E+00  0.0000E+00  0.0000E+00  0.0000E+00  0.0000E+00  0.0000E+00  0.0000E+00  0.0000E+00  0.0000E+00  0.0000E+00  0.0000E+00  0.0000E+00  0.0000E+00  0.0000E+00  0.0000E+00  0.0000E+00
     -4.536  0.0000E+00  0.0000E+00  0.0000E+00  0.0000E+00  0.0000E+00  0.0000E+00  0.0000E+00  0.0000E+00  0.0000E+00  0.0000E+00  0.0000E+00  0.0000E+00  0.0000E+00  0.0000E+00  0.0000E+00  0.0000E+00  0.0000E+00  0.0000E+00
     -4.369  0.0000E+00  0.0000E+00  0.0000E+00  0.0000E+00  0.0000E+00  0.0000E+00  0.0000E+00  0.0000E+00  0.0000E+00  0.0000E+00  0.0000E+00  0.0000E+00  0.0000E+00  0.0000E+00  0.0000E+00  0.0000E+00  0.0000E+00  0.0000E+00
     -4.203 -0.1144E-30  0.0000E+00 -0.1019E-35  0.0000E+00 -0.1019E-35  0.0000E+00 -0.1019E-35  0.0000E+00 -0.5989E-46  0.0000E+00 -0.5989E-46  0.0000E+00 -0.1116E-37  0.0000E+00 -0.5989E-46  0.0000E+00 -0.1116E-37  0.0000E+00
     -4.036 -0.3503E-25 -0.2276E-30 -0.6799E-30 -0.2047E-35 -0.6799E-30 -0.2047E-35 -0.6799E-30 -0.2047E-35 -0.3022E-34 -0.4427E-45 -0.3022E-34 -0.4428E-45 -0.7432E-32 -0.1540E-37 -0.3022E-34 -0.4428E-45 -0.7432E-32 -0.1540E-37
     -3.869 -0.2635E-20 -0.6478E-25 -0.1112E-24 -0.1274E-29 -0.1112E-24 -0.1274E-29 -0.1112E-24 -0.1274E-29 -0.1070E-28 -0.4016E-34 -0.1070E-28 -0.4016E-34 -0.1214E-26 -0.9574E-32 -0.1070E-28 -0.4016E-34 -0.1214E-26 -0.9574E-32
     -3.702 -0.4722E-16 -0.4530E-20 -0.4463E-20 -0.1945E-24 -0.4463E-20 -0.1945E-24 -0.4463E-20 -0.1945E-24 -0.9280E-24 -0.1332E-28 -0.9280E-24 -0.1332E-28 -0.4854E-22 -0.1459E-26 -0.9280E-24 -0.1332E-28 -0.4854E-22 -0.1459E-26
     -3.535 -0.2130E-12 -0.7546E-16 -0.4233E-16 -0.7280E-20 -0.4233E-16 -0.7280E-20 -0.4233E-16 -0.7280E-20 -0.1907E-19 -0.1083E-23 -0.1907E-19 -0.1083E-23 -0.4569E-18 -0.5442E-22 -0.1907E-19 -0.1083E-23 -0.4569E-18 -0.5442E-22
     -3.368 -0.2388E-09 -0.3164E-12 -0.1010E-12 -0.6438E-16 -0.1010E-12 -0.6438E-16 -0.1010E-12 -0.6438E-16 -0.9766E-16 -0.2087E-19 -0.9766E-16 -0.2087E-19 -0.1072E-14 -0.4774E-18 -0.9766E-16 -0.2087E-19 -0.1072E-14 -0.4774E-18
     -3.201 -0.6766E-07 -0.3297E-09 -0.5912E-10 -0.1432E-12 -0.5912E-10 -0.1432E-12 -0.5912E-10 -0.1432E-12 -0.1208E-12 -0.9997E-16 -0.1208E-12 -0.9997E-16 -0.6060E-12 -0.1044E-14 -0.1208E-12 -0.9997E-16 -0.6060E-12 -0.1044E-14
     -3.034 -0.4965E-05 -0.8693E-07 -0.8530E-08 -0.7815E-10 -0.8530E-08 -0.7815E-10 -0.8530E-08 -0.7815E-10 -0.3574E-10 -0.1157E-12 -0.3574E-10 -0.1157E-12 -0.8127E-10 -0.5494E-12 -0.3574E-10 -0.1157E-12 -0.8127E-10 -0.5494E-12
     -2.867 -0.9170E-04 -0.5937E-05 -0.2976E-06 -0.1051E-07 -0.2976E-06 -0.1051E-07 -0.2976E-06 -0.1051E-07 -0.2455E-08 -0.3202E-10 -0.2455E-08 -0.3202E-10 -0.2467E-08 -0.6845E-10 -0.2455E-08 -0.3202E-10 -0.2467E-08 -0.6845E-10
     -2.700 -0.2178E-03 -0.1014E-03 -0.2008E-05 -0.3406E-06 -0.2008E-05 -0.3406E-06 -0.2008E-05 -0.3406E-06 -0.3461E-07 -0.2051E-08 -0.3461E-07 -0.2051E-08 -0.1501E-07 -0.1917E-08 -0.3461E-07 -0.2051E-08 -0.1501E-07 -0.1917E-08
     -2.533  0.2361E-02 -0.1920E-03  0.4904E-05 -0.2066E-05  0.4904E-05 -0.2066E-05  0.4904E-05 -0.2066E-05 -0.2728E-07 -0.2655E-07 -0.2728E-07 -0.2655E-07 -0.4316E-07 -0.1052E-07 -0.2728E-07 -0.2655E-07 -0.4316E-07 -0.1052E-07
     -2.366  0.8338E-02  0.2622E-02  0.4148E-04  0.6041E-05  0.4148E-04  0.6041E-05  0.4148E-04  0.6041E-05  0.4250E-06 -0.1012E-07  0.4250E-06 -0.1012E-07  0.7445E-07 -0.2925E-07  0.4250E-06 -0.1012E-07  0.7445E-07 -0.2925E-07
     -2.199  0.1294E-01  0.8526E-02  0.1428E-03  0.4396E-04  0.1428E-03  0.4396E-04  0.1428E-03  0.4396E-04  0.2893E-05  0.3402E-06  0.2893E-05  0.3402E-06  0.3395E-05  0.7877E-07  0.2893E-05  0.3402E-06  0.3395E-05  0.7877E-07
     -2.032  0.1873E-01  0.1306E-01  0.2948E-03  0.1489E-03  0.2948E-03  0.1489E-03  0.2948E-03  0.1489E-03  0.9828E-05  0.2175E-05  0.9828E-05  0.2175E-05  0.6881E-05  0.2464E-05  0.9828E-05  0.2175E-05  0.6881E-05  0.2464E-05
     -1.865  0.1605E-01  0.1864E-01  0.3433E-03  0.2976E-03  0.3433E-03  0.2976E-03  0.3433E-03  0.2976E-03  0.1965E-04  0.7026E-05  0.1965E-04  0.7026E-05  0.9398E-05  0.4709E-05  0.1965E-04  0.7026E-05  0.9398E-05  0.4709E-05
     -1.698  0.2365E-01  0.1569E-01  0.6802E-03  0.3418E-03  0.6802E-03  0.3418E-03  0.6802E-03  0.3418E-03  0.3772E-04  0.1363E-04  0.3772E-04  0.1363E-04  0.4072E-04  0.6192E-05  0.3772E-04  0.1363E-04  0.4072E-04  0.6192E-05
     -1.531  0.2505E-01  0.2345E-01  0.8365E-03  0.6818E-03  0.8365E-03  0.6818E-03  0.8365E-03  0.6818E-03  0.5997E-04  0.2587E-04  0.5997E-04  0.2587E-04  0.5882E-04  0.2684E-04  0.5997E-04  0.2587E-04  0.5882E-04  0.2684E-04
     -1.364  0.2617E-01  0.2444E-01  0.1048E-02  0.8223E-03  0.1048E-02  0.8223E-03  0.1048E-02  0.8223E-03  0.1273E-03  0.3862E-04  0.1273E-03  0.3862E-04  0.6126E-04  0.3788E-04  0.1273E-03  0.3862E-04  0.6126E-04  0.3788E-04
     -1.197  0.2315E-01  0.2567E-01  0.1060E-02  0.1043E-02  0.1060E-02  0.1043E-02  0.1060E-02  0.1043E-02  0.1228E-03  0.8325E-04  0.1228E-03  0.8325E-04  0.9755E-04  0.3823E-04  0.1228E-03  0.8325E-04  0.9755E-04  0.3823E-04
     -1.030  0.3222E-01  0.2246E-01  0.1762E-02  0.1028E-02  0.1762E-02  0.1028E-02  0.1762E-02  0.1028E-02  0.2222E-03  0.7945E-04  0.2222E-03  0.7945E-04  0.2495E-03  0.5512E-04  0.2222E-03  0.7945E-04  0.2495E-03  0.5512E-04
     -0.863  0.3720E-01  0.2978E-01  0.2207E-02  0.1643E-02  0.2207E-02  0.1643E-02  0.2207E-02  0.1643E-02  0.3765E-03  0.1275E-03  0.3765E-03  0.1275E-03  0.3281E-03  0.1420E-03  0.3765E-03  0.1275E-03  0.3281E-03  0.1420E-03
     -0.696  0.2991E-01  0.3614E-01  0.1945E-02  0.2163E-02  0.1945E-02  0.2163E-02  0.1945E-02  0.2163E-02  0.4214E-03  0.2223E-03  0.4214E-03  0.2223E-03  0.2488E-03  0.1915E-03  0.4214E-03  0.2223E-03  0.2488E-03  0.1915E-03
     -0.529  0.2846E-01  0.3106E-01  0.2111E-02  0.2046E-02  0.2111E-02  0.2046E-02  0.2111E-02  0.2046E-02  0.5930E-03  0.2621E-03  0.5930E-03  0.2621E-03  0.3826E-03  0.1619E-03  0.5930E-03  0.2621E-03  0.3826E-03  0.1619E-03
     -0.362  0.4187E-01  0.2342E-01  0.3422E-02  0.1724E-02  0.3422E-02  0.1724E-02  0.3422E-02  0.1724E-02  0.8675E-03  0.2828E-03  0.8675E-03  0.2828E-03  0.9382E-03  0.1372E-03  0.8675E-03  0.2828E-03  0.9382E-03  0.1372E-03
     -0.195  0.4370E-01  0.3757E-01  0.3907E-02  0.3097E-02  0.3907E-02  0.3097E-02  0.3907E-02  0.3097E-02  0.1121E-02  0.4802E-03  0.1121E-02  0.4802E-03  0.1143E-02  0.4406E-03  0.1121E-02  0.4802E-03  0.1143E-02  0.4406E-03
     -0.028  0.3943E-01  0.4149E-01  0.3704E-02  0.3701E-02  0.3704E-02  0.3701E-02  0.3704E-02  0.3701E-02  0.1596E-02  0.5653E-03  0.1596E-02  0.5653E-03  0.1233E-02  0.5829E-03  0.1596E-02  0.5653E-03  0.1233E-02  0.5829E-03
      0.139  0.3878E-01  0.3823E-01  0.3931E-02  0.3669E-02  0.3931E-02  0.3669E-02  0.3931E-02  0.3669E-02  0.2216E-02  0.6905E-03  0.2216E-02  0.6905E-03  0.1401E-02  0.5960E-03  0.2216E-02  0.6905E-03  0.1401E-02  0.5960E-03
      0.306  0.4497E-01  0.3206E-01  0.5067E-02  0.3292E-02  0.5067E-02  0.3292E-02  0.5067E-02  0.3292E-02  0.2747E-02  0.9109E-03  0.2747E-02  0.9109E-03  0.2491E-02  0.5655E-03  0.2747E-02  0.9109E-03  0.2491E-02  0.5655E-03
      0.473  0.5342E-01  0.4034E-01  0.6475E-02  0.4459E-02  0.6475E-02  0.4459E-02  0.6475E-02  0.4459E-02  0.3978E-02  0.1357E-02  0.3978E-02  0.1357E-02  0.4467E-02  0.7644E-03  0.3978E-02  0.1357E-02  0.4467E-02  0.7644E-03
      0.640  0.5625E-01  0.3810E-01  0.7160E-02  0.4651E-02  0.7160E-02  0.4651E-02  0.7160E-02  0.4651E-02  0.5963E-02  0.1140E-02  0.5963E-02  0.1140E-02  0.4910E-02  0.1182E-02  0.5963E-02  0.1140E-02  0.4910E-02  0.1182E-02
      0.807  0.5709E-01  0.4563E-01  0.7024E-02  0.5965E-02  0.7024E-02  0.5965E-02  0.7024E-02  0.5965E-02  0.1080E-01  0.1800E-02  0.1080E-01  0.1800E-02  0.7017E-02  0.1950E-02  0.1080E-01  0.1800E-02  0.7017E-02  0.1950E-02
      0.974  0.7393E-01  0.4964E-01  0.8726E-02  0.6761E-02  0.8726E-02  0.6761E-02  0.8726E-02  0.6761E-02  0.2827E-01  0.2641E-02  0.2827E-01  0.2641E-02  0.2725E-01  0.2043E-02  0.2827E-01  0.2641E-02  0.2725E-01  0.2043E-02
      1.141  0.1050E+00  0.4317E-01  0.1302E-01  0.6183E-02  0.1302E-01  0.6183E-02  0.1302E-01  0.6183E-02  0.5140E-01  0.2899E-02  0.5140E-01  0.2899E-02  0.7160E-01  0.1939E-02  0.5140E-01  0.2899E-02  0.7160E-01  0.1939E-02
      1.308  0.8550E-01  0.3637E-01  0.1157E-01  0.5422E-02  0.1157E-01  0.5422E-02  0.1157E-01  0.5422E-02  0.5501E-01  0.3328E-02  0.5501E-01  0.3328E-02  0.1041E+00  0.2261E-02  0.5501E-01  0.3328E-02  0.1041E+00  0.2261E-02
      1.475  0.8135E-01  0.5338E-01  0.1530E-01  0.8806E-02  0.1530E-01  0.8806E-02  0.1530E-01  0.8806E-02  0.6002E-01  0.5142E-02  0.6002E-01  0.5142E-02  0.1478E+00  0.4313E-02  0.6002E-01  0.5142E-02  0.1478E+00  0.4313E-02
      1.642  0.7995E-01  0.5602E-01  0.2055E-01  0.9758E-02  0.2055E-01  0.9758E-02  0.2055E-01  0.9758E-02  0.6662E-01  0.6036E-02  0.6662E-01  0.6036E-02  0.2193E+00  0.5961E-02  0.6662E-01  0.6036E-02  0.2193E+00  0.5961E-02
      1.809  0.6280E-01  0.5266E-01  0.2105E-01  0.9285E-02  0.2105E-01  0.9285E-02  0.2105E-01  0.9285E-02  0.6902E-01  0.7999E-02  0.6902E-01  0.7999E-02  0.2269E+00  0.6859E-02  0.6902E-01  0.7999E-02  0.2269E+00  0.6859E-02
      1.976  0.4055E-01  0.5820E-01  0.1468E-01  0.1031E-01  0.1468E-01  0.1031E-01  0.1468E-01  0.1031E-01  0.7335E-01  0.1268E-01  0.7335E-01  0.1268E-01  0.1521E+00  0.8370E-02  0.7335E-01  0.1268E-01  0.1521E+00  0.8370E-02
      2.143  0.1953E-01  0.6190E-01  0.9310E-02  0.1009E-01  0.9310E-02  0.1009E-01  0.9310E-02  0.1009E-01  0.6234E-01  0.1992E-01  0.6234E-01  0.1992E-01  0.1018E+00  0.1446E-01  0.6234E-01  0.1992E-01  0.1018E+00  0.1446E-01
      2.310  0.1019E-01  0.7409E-01  0.8826E-02  0.1258E-01  0.8826E-02  0.1258E-01  0.8826E-02  0.1258E-01  0.5341E-01  0.3098E-01  0.5341E-01  0.3098E-01  0.9246E-01  0.2579E-01  0.5341E-01  0.3098E-01  0.9246E-01  0.2579E-01
      2.477  0.3053E-02  0.8538E-01  0.1563E-01  0.1523E-01  0.1563E-01  0.1523E-01  0.1563E-01  0.1523E-01  0.1890E+00  0.4100E-01  0.1890E+00  0.4100E-01  0.1176E+00  0.3353E-01  0.1890E+00  0.4100E-01  0.1176E+00  0.3353E-01
      2.644  0.3237E-02  0.6447E-01  0.2233E-01  0.1183E-01  0.2233E-01  0.1183E-01  0.2233E-01  0.1183E-01  0.3390E+00  0.3896E-01  0.3390E+00  0.3896E-01  0.1591E+00  0.2891E-01  0.3390E+00  0.3896E-01  0.1591E+00  0.2891E-01
      2.811  0.5835E-02  0.6054E-01  0.1644E-01  0.1391E-01  0.1644E-01  0.1391E-01  0.1644E-01  0.1391E-01  0.2715E+00  0.4106E-01  0.2715E+00  0.4106E-01  0.1295E+00  0.3966E-01  0.2715E+00  0.4106E-01  0.1295E+00  0.3966E-01
      2.978  0.9116E-02  0.5862E-01  0.1766E-01  0.1647E-01  0.1766E-01  0.1647E-01  0.1766E-01  0.1647E-01  0.2230E+00  0.4237E-01  0.2230E+00  0.4237E-01  0.1025E+00  0.7452E-01  0.2230E+00  0.4237E-01  0.1025E+00  0.7452E-01
      3.145  0.1272E-01  0.5052E-01  0.2581E-01  0.1867E-01  0.2581E-01  0.1867E-01  0.2581E-01  0.1867E-01  0.2436E+00  0.4625E-01  0.2436E+00  0.4625E-01  0.1055E+00  0.1203E+00  0.2436E+00  0.4625E-01  0.1055E+00  0.1203E+00
      3.312  0.1874E-01  0.4232E-01  0.3421E-01  0.1961E-01  0.3421E-01  0.1961E-01  0.3421E-01  0.1961E-01  0.3086E+00  0.4837E-01  0.3086E+00  0.4837E-01  0.1289E+00  0.1521E+00  0.3086E+00  0.4837E-01  0.1289E+00  0.1521E+00
      3.479  0.1862E-01  0.2926E-01  0.3098E-01  0.1582E-01  0.3098E-01  0.1582E-01  0.3098E-01  0.1582E-01  0.3012E+00  0.5152E-01  0.3012E+00  0.5152E-01  0.1275E+00  0.1248E+00  0.3012E+00  0.5152E-01  0.1275E+00  0.1248E+00