    2    2  100    2
  0.1173411E+02  0.2863035E-09  0.2863035E-09  0.2863035E-09  0.5000000E-15
  1.000000000000000E-004
  CAR 
 unknown system                          
     16    120     20
 
  0.0000000E+00  0.0000000E+00  0.0000000E+00  0.2962963E-03
    1       -2.593394     -2.435049   1.000000   1.000000
    2        0.997093      2.809391   1.000000   1.000000
    3        0.997093      2.809531   1.000000   1.000000
    4        3.553904      5.452613   1.000000   1.007271
    5        3.553905      5.452746   1.000000   1.007287
    6        3.553905      5.452756   1.000000   1.007288
    7        4.769424      7.514700   1.000000  -0.000000
    8        4.769425      7.514863   1.000000  -0.000000
    9        5.984273      8.157136   0.067274  -0.000000
   10        5.984275      8.157259   0.067270  -0.000000
   11        5.984275      8.157271   0.067270  -0.000000
   12       15.812174     16.073915   0.000000   0.000000
   13       15.812175     16.073915   0.000000   0.000000
   14       15.812175     16.073918   0.000000   0.000000
   15       21.564147     22.608433   0.000000   0.000000
   16       21.564148     22.608446   0.000000   0.000000
   17       26.682961     27.779960   0.000000   0.000000
   18       30.908690     30.647962   0.000000   0.000000
   19       30.908690     30.647962   0.000000   0.000000
   20       30.908690     30.647962   0.000000   0.000000
 
  0.6666667E-01  0.1540744E-32  0.0000000E+00  0.1777778E-02
    1       -2.500777     -2.342017   1.000000   1.000000
    2        1.036637      2.842753   1.000000   1.000000
    3        1.038378      2.856395   1.000000   1.000000
    4        3.553107      5.448343   1.000000   1.006771
    5        3.553108      5.448486   1.000000   1.006787
    6        3.579305      5.480726   1.000000   1.011271
    7        4.728029      7.460734   1.000000  -0.000000
    8        4.785876      7.535548   1.000000  -0.000000
    9        5.905789      8.053420   0.305643  -0.000000
   10        5.905791      8.053554   0.305637  -0.000000
   11        5.956690      8.126235   0.134675  -0.000000
   12       15.142249     15.520476   0.000000   0.000000
   13       15.988124     16.275734   0.000000   0.000000
   14       15.988124     16.275735   0.000000   0.000000
   15       21.590835     22.626936   0.000000   0.000000
   16       22.070762     23.016840   0.000000   0.000000
   17       26.983234     28.065344   0.000000   0.000000
   18       30.278260     30.099198   0.000000   0.000000
   19       30.828937     30.607786   0.000000   0.000000
   20       30.828937     30.607787   0.000000   0.000000
 
  0.1333333E+00  0.0000000E+00  0.0000000E+00  0.1777778E-02
    1       -2.226612     -2.066078   1.000000   1.000000
    2        1.153888      2.930723   1.000000   1.000000
    3        1.154666      2.995935   1.000000   1.000000
    4        3.553397      5.438919   1.000000   1.005761
    5        3.553397      5.439061   1.000000   1.005776
    6        3.654554      5.563652   1.000000   1.028802
    7        4.605424      7.301013   1.000000  -0.000000
    8        4.833926      7.595067   1.000000  -0.000000
    9        5.689587      7.775175   1.000494  -0.000000
   10        5.689589      7.775307   1.000492  -0.000000
   11        5.875151      8.034656   0.429458  -0.000000
   12       13.669381     14.250848   0.000000   0.000000
   13       16.495304     16.847036   0.000000   0.000000
   14       16.495304     16.847039   0.000000   0.000000
   15       21.672419     22.683988   0.000000   0.000000
   16       22.936927     23.754971   0.000000   0.000000
   17       27.993021     28.963187   0.000000   0.000000
   18       29.015537     29.018143   0.000000   0.000000
   19       30.473164     30.394942   0.000000   0.000000
   20       30.473164     30.394945   0.000000   0.000000
 
  0.2000000E+00 -0.6162976E-32  0.0000000E+00  0.1777778E-02
    1       -1.782663     -1.616805   1.000000   1.000000
    2        1.322679      3.036666   1.000000   1.000000
    3        1.344627      3.223796   1.000000   1.000000
    4        3.562145      5.433658   1.000000   1.005252
    5        3.562146      5.433799   1.000000   1.005265
    6        3.776791      5.698471   1.000000   0.989976
    7        4.406377      7.042445   1.000000  -0.000000
    8        4.911467      7.394816   1.000000  -0.000000
    9        5.382351      7.394946   1.001944  -0.000000
   10        5.382352      7.686223   1.001944  -0.000000
   11        5.743206      7.886679   0.908974  -0.000000
   12       11.979176     12.773288   0.000000   0.000000
   13       17.283791     17.711880   0.000000   0.000000
   14       17.283792     17.711884   0.000000   0.000000
   15       21.811315     22.782536   0.000000   0.000000
   16       23.572956     24.312040   0.000000   0.000000
   17       27.692129     27.759443   0.000000   0.000000
   18       29.636708     29.798047   0.000000   0.000000
   19       29.636708     29.798052   0.000000   0.000000
   20       29.771908     30.705385   0.000000   0.000000
 
  0.2666667E+00  0.0000000E+00  0.0000000E+00  0.1777778E-02
    1       -1.191404     -1.011511   1.000000   1.000000
    2        1.502035      3.095662   1.000000   1.000000
    3        1.601815      3.532754   1.000000   1.000000
    4        3.589947      5.445969   1.000000   1.006505
    5        3.589948      5.446108   1.000000   1.006520
    6        3.941294      5.880130   1.000000   0.408710
    7        4.139014      6.696770   1.000000  -0.000000
    8        5.018421      6.982137   1.000000  -0.000000
    9        5.035689      6.982267   1.000000  -0.000000
   10        5.035690      7.690112   1.000000  -0.000000
   11        5.567880      7.799164   1.029700  -0.000000
   12       10.309265     11.351781  -0.000000   0.000000
   13       18.297909     18.795669   0.000000   0.000000
   14       18.297910     18.795673   0.000000   0.000000
   15       22.019655     22.933875   0.000000   0.000000
   16       23.991276     24.663411   0.000000   0.000000
   17       26.476663     26.662459   0.000000   0.000000
   18       28.363449     28.740627   0.000000   0.000000
   19       28.363449     28.740633   0.000000   0.000000
   20       30.164029     30.581682   0.000000   0.000000
 
  0.3333333E+00  0.0000000E+00  0.0000000E+00  0.1777778E-02
    1       -0.491819     -0.277612   1.000000   1.000000
    2        1.632344      3.016656   1.000000   1.000000
    3        1.915557      3.912405   1.000000   1.000000
    4        3.648849      5.490954   1.000000   1.013039
    5        3.648850      5.491092   1.000000   1.013064
    6        3.814815      6.101675   1.000000  -0.035447
    7        4.141604      6.280565   1.000000  -0.005500
    8        4.691294      6.586456   1.000000  -0.000002
    9        4.691295      6.586586   1.000000  -0.000002
   10        5.167187      7.454276   1.000006  -0.000000
   11        5.357205      7.927889   1.001127  -0.000000
   12        8.773731     10.136436  -0.000000  -0.000000
   13       19.488301     20.040725   0.000000   0.000000
   14       19.488302     20.040728   0.000000   0.000000
   15       22.306240     23.147724   0.000000   0.000000
   16       24.368383     24.968158   0.000000   0.000000
   17       25.412866     25.719641   0.000000   0.000000
   18       26.869445     27.378835   0.000000   0.000000
   19       26.869446     27.378841   0.000000   0.000000
   20       28.664443     29.071342   0.000000   0.000000
 
  0.4000000E+00  0.0000000E+00  0.0000000E+00  0.1777778E-02
    1        0.249425      0.542153   1.000000   1.000000
    2        1.631378      2.708265   1.000000   1.000000
    3        2.273186      4.348993   1.000000   1.000000
    4        3.448621      5.583061   1.000000   1.032587
    5        3.750294      5.583197   1.000000   1.032610
    6        3.750295      5.814414   1.000000   0.681280
    7        4.369674      6.237748   1.000000  -0.011002
    8        4.377915      6.237879   1.000000  -0.010981
    9        4.377916      6.354375   1.000000  -0.001267
   10        5.121017      7.190364   1.000001  -0.000000
   11        5.396417      8.079339   1.002594  -0.000000
   12        7.461254      9.224171  -0.000000  -0.000000
   13       20.816011     21.405411   0.000000   0.000000
   14       20.816012     21.405413   0.000000   0.000000
   15       22.684541     23.438498   0.000000   0.000000
   16       24.511538     24.939083   0.000000   0.000000
   17       24.830060     25.357932   0.000000   0.000000
   18       25.314753     25.891308   0.000000   0.000000
   19       25.314754     25.891312   0.000000   0.000000
   20       27.364577     27.771315   0.000000   0.000000
 
  0.4666667E+00 -0.1232595E-31  0.0000000E+00  0.1777778E-02
    1        0.925638      1.380816   1.000000   1.000000
    2        1.409068      2.140617   1.000000   1.000000
    3        2.659517      4.825396   1.000000   1.000000
    4        3.057438      5.321448   1.000000   1.000488
    5        3.903238      5.734157   1.000000   0.929338
    6        3.903239      5.734291   1.000000   0.929052
    7        4.112680      5.951805   1.000000   0.148589
    8        4.112681      5.951938   1.000000   0.148204
    9        4.616041      6.627925   1.000000  -0.000000
   10        4.870264      6.910738   1.000000  -0.000000
   11        5.787988      8.288455   0.778505  -0.000000
   12        6.454504      8.633484  -0.000104  -0.000000
   13       22.249510     22.857223   0.000000   0.000000
   14       22.249510     22.857223   0.000000   0.000000
   15       23.160088     23.815480   0.000000   0.000000
   16       23.756701     24.308747   0.000000   0.000000
   17       23.756702     24.362685   0.000000   0.000000
   18       23.763233     24.362687   0.000000   0.000000
   19       25.455330     25.922359   0.000000   0.000000
   20       26.293490     26.719076   0.000000   0.000000
 
  0.6666667E-01  0.6666667E-01  0.0000000E+00  0.3555556E-02
    1       -2.408874     -2.249598   1.000000   1.000000
    2        1.075406      2.884426   1.000000   1.000000
    3        1.079779      2.894213   1.000000   1.000000
    4        3.503501      5.391996   1.000000   1.002372
    5        3.549854      5.441595   1.000000   1.006035
    6        3.653266      5.560803   1.000000   1.028181
    7        4.719779      7.448468   1.000000  -0.000000
    8        4.773618      7.519397   1.000000  -0.000000
    9        5.765809      7.883767   0.849119  -0.000000
   10        5.827143      7.949985   0.630546  -0.000000
   11        5.995877      8.170185   0.044635  -0.000000
   12       15.160289     15.578530   0.000000   0.000000
   13       15.456648     15.845834   0.000000   0.000000
   14       16.158567     16.468624   0.000000   0.000000
   15       21.849517     22.832507   0.000000   0.000000
   16       22.381108     23.271985   0.000000   0.000000
   17       27.258219     28.329414   0.000000   0.000000
   18       29.719228     29.641610   0.000000   0.000000
   19       30.635351     30.432968   0.000000   0.000000
   20       30.779884     30.587132   0.000000   0.000000
 
  0.1333333E+00  0.6666667E-01  0.0000000E+00  0.7111111E-02
    1       -2.136932     -1.975515   1.000000   1.000000
    2        1.187243      2.976395   1.000000   1.000000
    3        1.199288      3.027314   1.000000   1.000000
    4        3.463936      5.340827   1.000000   1.000775
    5        3.542857      5.424885   1.000000   1.004482
    6        3.767561      5.685026   1.000000   1.005247
    7        4.619012      7.314172   1.000000  -0.000000
    8        4.812912      7.567615   1.000000  -0.000000
    9        5.511602      7.570748   1.017089  -0.000000
   10        5.612091      7.674799   1.035451  -0.000000
   11        5.966658      8.135472   0.108110  -0.000000
   12       13.787657     14.393057   0.000000   0.000000
   13       15.818746     16.284926   0.000000   0.000000
   14       16.651527     17.018027   0.000000   0.000000
   15       22.016444     22.960289   0.000000   0.000000
   16       23.273380     24.041664   0.000000   0.000000
   17       28.200058     28.507406   0.000000   0.000000
   18       28.446490     29.223944   0.000000   0.000000
   19       30.183154     30.101982   0.000000   0.000000
   20       30.502560     30.427883   0.000000   0.000000
 
  0.2000000E+00  0.6666667E-01  0.0000000E+00  0.7111111E-02
    1       -1.697210     -1.529634   1.000000   1.000000
    2        1.357132      3.083209   1.000000   1.000000
    3        1.383737      3.248756   1.000000   1.000000
    4        3.446456      5.309306   1.000000   1.000361
    5        3.538435      5.407402   1.000000   1.003222
    6        3.914483      5.845099   1.000000   0.556206
    7        4.441142      7.076017   1.000000  -0.000000
    8        4.891832      7.185167   1.000000  -0.000000
    9        5.192162      7.304565   1.000013  -0.000000
   10        5.309546      7.661216   1.000363  -0.000000
   11        5.865970      8.019245   0.468054  -0.000000
   12       12.094375     12.905758   0.000000   0.000000
   13       16.541891     17.086057   0.000000   0.000000
   14       17.422380     17.857739   0.000000   0.000000
   15       22.194673     23.092111   0.000000   0.000000
   16       24.000921     24.690091   0.000000   0.000000
   17       27.053987     27.243520   0.000000   0.000000
   18       29.297133     29.409201   0.000000   0.000000
   19       29.722971     29.881829   0.000000   0.000000
   20       29.909767     30.847483   0.000000   0.000000
 
  0.2666667E+00  0.6666667E-01  0.0000000E+00  0.7111111E-02
    1       -1.112880     -0.929511   1.000000   1.000000
    2        1.537976      3.141076   1.000000   1.000000
    3        1.631446      3.547767   1.000000   1.000000
    4        3.456822      5.304873   1.000000   1.000323
    5        3.538414      5.399456   1.000000   1.002756
    6        4.093963      6.041640   1.000000  -0.014091
    7        4.213186      6.760696   1.000000  -0.000000
    8        4.845704      6.778686   1.000000  -0.000000
    9        4.974133      6.915038   1.000000  -0.000000
   10        5.000586      7.777921   1.000000  -0.000000
   11        5.709210      7.840764   0.974922  -0.000000
   12       10.417678     11.468232  -0.000000   0.000000
   13       17.461062     18.074982   0.000000   0.000000
   14       18.418582     18.918385   0.000000   0.000000
   15       22.443863     23.279127   0.000000   0.000000
   16       24.505419     25.132782   0.000000   0.000000
   17       25.713429     26.033763   0.000000   0.000000
   18       28.089131     28.351844   0.000000   0.000000
   19       28.455320     28.835798   0.000000   0.000000
   20       31.229832     31.633228   0.000000   0.000000
 
  0.3333333E+00  0.6666667E-01  0.0000000E+00  0.7111111E-02
    1       -0.424012     -0.203016   1.000000   1.000000
    2        1.665679      3.058153   1.000000   1.000000
    3        1.934339      3.912197   1.000000   1.000000
    4        3.503506      5.338489   1.000000   1.000733
    5        3.509421      5.402265   1.000000   1.002914
    6        3.992399      6.271456   1.000000  -0.006439
    7        4.302822      6.392267   1.000000  -0.000526
    8        4.506648      6.399234   1.000000  -0.000443
    9        4.652115      6.561837   1.000000  -0.000004
   10        5.151300      7.615885   1.000003  -0.000000
   11        5.510009      7.910178   1.016755  -0.000000
   12        8.870542     10.227338  -0.000000  -0.000000
   13       18.514942     19.180780   0.000000   0.000000
   14       19.593241     20.144749   0.000000   0.000000
   15       22.787289     23.544009   0.000000   0.000000
   16       24.451088     24.902523   0.000000   0.000000
   17       24.972142     25.536042   0.000000   0.000000
   18       26.811753     27.158966   0.000000   0.000000
   19       26.953196     27.465580   0.000000   0.000000
   20       29.747898     30.167985   0.000000   0.000000
 
  0.4000000E+00  0.6666667E-01  0.0000000E+00  0.7111111E-02
    1        0.301992      0.606684   1.000000   1.000000
    2        1.659231      2.746555   1.000000   1.000000
    3        2.277879      4.324677   1.000000   1.000000
    4        3.331431      5.370538   1.000000   1.001512
    5        3.595576      5.421919   1.000000   1.004244
    6        3.919957      6.052834   1.000000  -0.021984
    7        4.200333      6.069637   1.000000  -0.030013
    8        4.376678      6.274381   1.000000  -0.006125
    9        4.535010      6.528052   1.000000  -0.000012
   10        5.281197      7.358969   1.000174  -0.000000
   11        5.387227      8.066261   1.002151  -0.000000
   12        7.537396      9.279537  -0.000000  -0.000000
   13       19.655678     20.349491   0.000000   0.000000
   14       20.908370     21.495563   0.000000   0.000000
   15       23.236799     23.806448   0.000000   0.000000
   16       23.248530     23.913249   0.000000   0.000000
   17       25.391820     25.969305   0.000000   0.000000
   18       25.537395     26.039374   0.000000   0.000000
   19       25.632512     26.042430   0.000000   0.000000
   20       28.398973     28.826176   0.000000   0.000000
 
  0.4666667E+00  0.6666667E-01  0.0000000E+00  0.7111111E-02
    1        0.961390      1.433472   1.000000   1.000000
    2        1.435135      2.182723   1.000000   1.000000
    3        2.644369      4.757751   1.000000   1.000000
    4        3.010062      5.152600   1.000000   1.000004
    5        3.740517      5.565345   1.000000   1.029166
    6        3.942404      5.775255   1.000000   0.820414
    7        4.004775      5.952709   1.000000   0.145970
    8        4.161988      6.060694   1.000000  -0.026270
    9        4.782278      6.802354   1.000000  -0.000000
   10        5.034714      7.083435   1.000000  -0.000000
   11        5.798888      8.285950   0.739934  -0.000000
   12        6.498866      8.653765  -0.000029  -0.000000
   13       20.839885     21.532333   0.000000   0.000000
   14       22.040209     22.692771   0.000000   0.000000
   15       22.330159     22.936150   0.000000   0.000000
   16       23.835076     24.417893   0.000000   0.000000
   17       23.849846     24.439778   0.000000   0.000000
   18       24.639439     25.116973   0.000000   0.000000
   19       26.278564     26.739968   0.000000   0.000000
   20       27.233010     27.670087   0.000000   0.000000
 
  0.1333333E+00  0.1333333E+00  0.0000000E+00  0.3555556E-02
    1       -1.872243     -1.707350   1.000000   1.000000
    2        1.283050      3.109695   1.000000   1.000000
    3        1.327625      3.110530   1.000000   1.000000
    4        3.362871      5.223075   1.000000   1.000034
    5        3.516761      5.388197   1.000000   1.002194
    6        3.940768      5.874256   1.000000   0.433201
    7        4.619711      7.207792   1.000000  -0.000000
    8        4.787205      7.300375   1.000000  -0.000000
    9        5.204266      7.413248   1.000019  -0.000000
   10        5.403016      7.535288   1.002957  -0.000000
   11        6.028651      8.206793  -0.002008  -0.000000
   12       13.770550     14.439845   0.000000   0.000000
   13       14.746523     15.395746   0.000000   0.000000
   14       17.107627     17.512864   0.000000   0.000000
   15       22.353611     23.232737   0.000000   0.000000
   16       24.269309     24.919354   0.000000   0.000000
   17       27.132539     27.356576   0.000000   0.000000
   18       28.933288     29.617394   0.000000   0.000000
   19       29.666157     29.940323   0.000000   0.000000
   20       30.478200     30.439634   0.000000   0.000000
 
  0.2000000E+00  0.1333333E+00  0.0000000E+00  0.7111111E-02
    1       -1.446175     -1.272050   1.000000   1.000000
    2        1.428343      3.207649   1.000000   1.000000
    3        1.522544      3.322630   1.000000   1.000000
    4        3.289766      5.132261   1.000000   1.000002
    5        3.485616      5.341177   1.000000   1.000781
    6        4.138483      6.090280   1.000000  -0.034738
    7        4.521097      6.799585   1.000000  -0.000000
    8        4.842327      7.077827   1.000000  -0.000000
    9        4.854410      7.152288   1.000000  -0.000000
   10        5.117668      7.599775   1.000001  -0.000000
   11        6.008958      8.182643   0.023058  -0.000000
   12       12.354766     13.198570   0.000000   0.000000
   13       15.100351     15.830140   0.000000   0.000000
   14       17.829978     18.285663   0.000000   0.000000
   15       22.574069     23.398097   0.000000   0.000000
   16       25.268246     25.833568   0.000000   0.000000
   17       25.642329     25.996837   0.000000   0.000000
   18       28.852799     28.905557   0.000000   0.000000
   19       29.960770     30.104873   0.000000   0.000000
   20       30.390902     31.338051   0.000000   0.000000
 
  0.2666667E+00  0.1333333E+00  0.0000000E+00  0.7111111E-02
    1       -0.884719     -0.688405   1.000000   1.000000
    2        1.590354      3.251228   1.000000   1.000000
    3        1.764575      3.602392   1.000000   1.000000
    4        3.253298      5.079022   1.000000   1.000000
    5        3.450754      5.294001   1.000000   1.000244
    6        4.357064      6.329567   1.000000  -0.002153
    7        4.369718      6.391079   1.000000  -0.000541
    8        4.497411      6.757251   1.000000  -0.000000
    9        4.818527      6.914545   1.000000  -0.000000
   10        4.950381      7.719034   1.000000  -0.000000
   11        5.915295      8.073357   0.269774  -0.000000
   12       10.691158     11.751482  -0.000000   0.000000
   13       15.893487     16.673663   0.000000   0.000000
   14       18.776342     19.282651   0.000000   0.000000
   15       22.815873     23.573894   0.000000   0.000000
   16       24.173988     24.644455   0.000000   0.000000
   17       26.007222     26.526290   0.000000   0.000000
   18       27.793505     27.951070   0.000000   0.000000
   19       28.727447     29.117223   0.000000   0.000000
   20       32.502076     33.407388   0.000000   0.000000
 
  0.3333333E+00  0.1333333E+00  0.0000000E+00  0.7111111E-02
    1       -0.232127      0.013993   1.000000   1.000000
    2        1.704420      3.150230   1.000000   1.000000
    3        2.042803      3.933881   1.000000   1.000000
    4        3.261672      5.073522   1.000000   1.000000
    5        3.383697      5.241902   1.000000   1.000058
    6        4.160943      6.014049   1.000000   0.015749
    7        4.238617      6.516873   1.000000  -0.000017
    8        4.560971      6.588641   1.000000  -0.000002
    9        4.592807      6.648745   1.000000  -0.000000
   10        5.104222      7.858794   1.000001  -0.000000
   11        5.762138      7.897255   0.859702  -0.000000
   12        9.122453     10.456199  -0.000000  -0.000000
   13       16.835826     17.642501   0.000000   0.000000
   14       19.905778     20.455375   0.000000   0.000000
   15       22.772937     23.347613   0.000000   0.000000
   16       23.126485     23.805129   0.000000   0.000000
   17       26.655295     26.924365   0.000000   0.000000
   18       26.682889     27.136077   0.000000   0.000000
   19       27.199638     27.721522   0.000000   0.000000
   20       31.654632     32.062565   0.000000   0.000000
 
  0.4000000E+00  0.1333333E+00  0.0000000E+00  0.7111111E-02
    1        0.441295      0.790503   1.000000   1.000000
    2        1.686344      2.831347   1.000000   1.000000
    3        2.349924      4.295316   1.000000   1.000000
    4        3.228711      5.125508   1.000000   1.000001
    5        3.322625      5.148653   1.000000   1.000003
    6        3.865324      5.689870   1.000000   1.000184
    7        4.193015      6.375244   1.000000  -0.000789
    8        4.382059      6.422314   1.000000  -0.000247
    9        4.840042      6.861839   1.000000  -0.000000
   10        5.359284      7.672497   1.001181  -0.000000
   11        5.564551      8.026876   1.028996  -0.000000
   12        7.740237      9.423344  -0.000000  -0.000000
   13       17.876993     18.683784   0.000000   0.000000
   14       21.183711     21.765049   0.000000   0.000000
   15       21.443366     22.106698   0.000000   0.000000
   16       23.541262     24.129367   0.000000   0.000000
   17       25.617599     25.976808   0.000000   0.000000
   18       25.657667     26.197995   0.000000   0.000000
   19       27.363911     27.810765   0.000000   0.000000
   20       30.372101     30.777557   0.000000   0.000000
 
  0.4666667E+00  0.1333333E+00  0.0000000E+00  0.7111111E-02
    1        1.039711      1.576518   1.000000   1.000000
    2        1.470136      2.286859   1.000000   1.000000
    3        2.669995      4.653020   1.000000   1.000000
    4        2.976316      4.955191   1.000000   1.000000
    5        3.442263      5.243086   1.000000   1.000060
    6        3.623553      5.431089   1.000000   1.005016
    7        4.223021      6.306416   1.000000  -0.003415
    8        4.281486      6.307097   1.000000  -0.003371
    9        5.091260      7.141035   1.000000  -0.000000
   10        5.336468      7.415435   1.000699  -0.000000
   11        5.830712      8.275893   0.615980  -0.000000
   12        6.621911      8.706663  -0.000000  -0.000000
   13       18.993896     19.775871   0.000000   0.000000
   14       20.183515     20.916673   0.000000   0.000000
   15       22.577750     23.177518   0.000000   0.000000
   16       24.068585     24.577590   0.000000   0.000000
   17       24.083613     24.669462   0.000000   0.000000
   18       24.787023     25.189433   0.000000   0.000000
   19       28.207205     28.629689   0.000000   0.000000
   20       29.212685     29.621676   0.000000   0.000000
 
  0.2000000E+00  0.2000000E+00  0.0000000E+00  0.3555556E-02
    1       -1.046589     -0.856102   1.000000   1.000000
    2        1.525310      3.319467   1.000000   1.000000
    3        1.739449      3.485983   1.000000   1.000000
    4        3.160381      4.981334   1.000000   1.000000
    5        3.435718      5.260885   1.000000   1.000100
    6        4.383639      6.359730   1.000000  -0.001124
    7        4.486328      6.380803   1.000000  -0.000692
    8        4.575450      6.811402   1.000000  -0.000000
    9        4.812410      7.185064   1.000000  -0.000000
   10        4.869567      7.566987   1.000000  -0.000000
   11        6.077209      8.260987  -0.032331  -0.000000
   12       12.198802     13.079543   0.000000   0.000000
   13       14.111201     15.016888   0.000000   0.000000
   14       18.485399     18.970261   0.000000   0.000000
   15       22.790969     23.553617   0.000000   0.000000
   16       24.068825     24.544558   0.000000   0.000000
   17       26.715278     27.167069   0.000000   0.000000
   18       28.230861     28.290202   0.000000   0.000000
   19       30.142245     30.269297   0.000000   0.000000
   20       31.411173     32.348764   0.000000   0.000000
 
  0.2666667E+00  0.2000000E+00  0.0000000E+00  0.7111111E-02
    1       -0.530893     -0.303354   1.000000   1.000000
    2        1.621265      3.326163   1.000000   1.000000
    3        2.006035      3.749140   1.000000   1.000000
    4        3.072277      4.873550   1.000000   1.000000
    5        3.405441      5.186811   1.000000   1.000011
    6        4.125334      5.975395   1.000000   0.086875
    7        4.530125      6.601631   1.000000  -0.000001
    8        4.635455      6.642096   1.000000  -0.000000
    9        4.640036      7.083563   1.000000  -0.000000
   10        4.882451      7.643823   1.000000  -0.000000
   11        6.063930      8.244299  -0.027758  -0.000000
   12       10.934302     11.979595  -0.000000   0.000000
   13       14.417384     15.372676   0.000000   0.000000
   14       19.359108     19.876619   0.000000   0.000000
   15       22.530706     23.107789   0.000000   0.000000
   16       23.003013     23.693907   0.000000   0.000000
   17       27.386268     27.491271   0.000000   0.000000
   18       27.859028     28.256023   0.000000   0.000000
   19       29.170790     29.573996   0.000000   0.000000
   20       31.437759     31.995729   0.000000   0.000000
 
  0.3333333E+00  0.2000000E+00  0.0000000E+00  0.7111111E-02
    1        0.047614      0.352553   1.000000   1.000000
    2        1.669864      3.190556   1.000000   1.000000
    3        2.295289      4.055034   1.000000   1.000000
    4        3.035071      4.820465   1.000000   1.000000
    5        3.376544      5.121054   1.000000   1.000001
    6        3.796129      5.611289   1.000000   1.035440
    7        4.468037      6.507914   1.000000  -0.000022
    8        4.473560      6.914671   1.000000  -0.000000
    9        4.901203      6.930779   1.000000  -0.000000
   10        5.029464      7.781411   1.000000  -0.000000
   11        5.977276      8.143056   0.082557  -0.000000
   12        9.417095     10.699170  -0.000000  -0.000000
   13       15.208497     16.163290   0.000000   0.000000
   14       20.419907     20.968272   0.000000   0.000000
   15       21.062353     21.732080   0.000000   0.000000
   16       23.274312     23.879860   0.000000   0.000000
   17       26.446080     26.612844   0.000000   0.000000
   18       27.583097     28.124987   0.000000   0.000000
   19       28.744093     29.123344   0.000000   0.000000
   20       32.099905     32.558408   0.000000   0.000000
 
  0.4000000E+00  0.2000000E+00  0.0000000E+00  0.7111111E-02
    1        0.614008      1.063297   1.000000   1.000000
    2        1.617672      2.876971   1.000000   1.000000
    3        2.587258      4.371092   1.000000   1.000000
    4        3.056711      4.831676   1.000000   1.000000
    5        3.290802      5.038262   1.000000   1.000000
    6        3.516112      5.306784   1.000000   1.000339