 vasp.6.2.0 18Jan21 (build Aug 12 2022 13:00:08) complex                        
  
 executed on             LinuxIFC date 2024.11.04  06:49:05
 running on    4 total cores
 distrk:  each k-point on    4 cores,    1 groups
 distr:  one band on NCORE=   1 cores,    4 groups


--------------------------------------------------------------------------------------------------------


 INCAR:
   ISTART = 0            (Read existing wavefunction, if there)
   ISPIN = 2            (Non-Spin polarised DFT)
   MAGMOM = 5 5          (Set this parameters manually)
   GGA_COMPAT = .FALSE.   (Apply spherical cutoff on gradient field)
   VOSKOWN = 1        (Enhances the magnetic moments and the magnetic energies)
   LMAXMIX = 4        (For d elements increase LMAXMIX to 4, f: LMAXMIX \= 6)
   LREAL = .FALSE.       (Projection operators: automatic)
   ENCUT = 300          (Cut-off energy for plane wave basis set, in eV)
   LORBIT = 11           (Write orbital decomposed charge densities and magnetic moments)
   ADDGRID = .TRUE.        (Increase grid, helps GGA convergence)
   LASPH = .TRUE.        (Give more accurate total energies and band structure calculations)
   PREC = Accurate      (Accurate strictly avoids any aliasing or wrap around errors)
   ISMEAR = 1            (Gaussian smearing, metals:1)
   SIGMA = 0.2          (Smearing value in eV, metals:0.2)
   NELM = 90           (Max electronic SCF steps)
   NELMIN = 6            (Min electronic SCF steps)
   EDIFF = 1E-06        (SCF energy convergence, in eV)
   NSW = 100          (Max ionic steps)
   IBRION = 2            (Algorithm: 0-MD, 1-Quasi-New, 2-CG)
   ISIF = 3            (Stress/relaxation: 2-Ions, 3-Shape/Ions/V, 4-Shape/Ions)
   EDIFFG = -2E-03        (Ionic convergence, eV/AA)
   ISYM = 2              (Symmetry: 0\=none, 2\=GGA, 3\=hybrids)

 POTCAR:    PAW_PBE Fe 06Sep2000                  
 POTCAR:    PAW_PBE Fe 06Sep2000                  
   VRHFIN =Fe:  d7 s1                                                                               
   LEXCH  = PE                                                                                      
   EATOM  =   594.3153 eV,   43.6809 Ry                                                             
                                                                                                    
   TITEL  = PAW_PBE Fe 06Sep2000                                                                    
   LULTRA =        F    use ultrasoft PP ?                                                          
   IUNSCR =        1    unscreen: 0-lin 1-nonlin 2-no                                               
   RPACOR =    2.000    partial core radius                                                         
   POMASS =   55.847; ZVAL   =    8.000    mass and valenz                                          
   RCORE  =    2.300    outmost cutoff radius                                                       
   RWIGS  =    2.460; RWIGS  =    1.302    wigner-seitz radius (au A)                               
   ENMAX  =  267.882; ENMIN  =  200.911 eV                                                          
   RCLOC  =    1.701    cutoff for local pot                                                        
   LCOR   =        T    correct aug charges                                                         
   LPAW   =        T    paw PP                                                                      
   EAUG   =  511.368                                                                                
   DEXC   =    0.000                                                                                
   RMAX   =    2.356    core radius for proj-oper                                                   
   RAUG   =    1.300    factor for augmentation sphere                                              
   RDEP   =    2.442    radius for radial grids                                                     
   RDEPT  =    1.890    core radius for aug-charge                                                  
                                                                                                    
   Atomic configuration                                                                             
    9 entries                                                                                       
     n  l   j            E        occ.                                                              
     1  0  0.50     -6993.8440   2.0000                                                             
     2  0  0.50      -814.6047   2.0000                                                             
     2  1  1.50      -693.3689   6.0000                                                             
     3  0  0.50       -89.4732   2.0000                                                             
     3  1  1.50       -55.6373   6.0000                                                             
     3  2  2.50        -3.8151   7.0000                                                             
     4  0  0.50        -4.2551   1.0000                                                             
     4  1  1.50        -3.4015   0.0000                                                             
     4  3  2.50        -1.3606   0.0000                                                             
   Description                                                                                      
     l       E           TYP  RCUT    TYP  RCUT                                                     
     2     -3.8151135     23  2.300                                                                 
     2     -5.1756961     23  2.300                                                                 
     0     -4.2550963     23  2.300                                                                 
     0      7.2035603     23  2.300                                                                 
     1     -2.7211652     23  2.300                                                                 
     1     18.4316424     23  2.300                                                                 
  local pseudopotential read in
  partial core-charges read in
  partial kinetic energy density read in
  atomic valenz-charges read in
  non local Contribution for L=           2  read in
    real space projection operators read in
  non local Contribution for L=           2  read in
    real space projection operators read in
  non local Contribution for L=           0  read in
    real space projection operators read in
  non local Contribution for L=           0  read in
    real space projection operators read in
  non local Contribution for L=           1  read in
    real space projection operators read in
  non local Contribution for L=           1  read in
    real space projection operators read in
    PAW grid and wavefunctions read in
 
   number of l-projection  operators is LMAX  =           6
   number of lm-projection operators is LMMAX =          18
 
  PAW_PBE Fe 06Sep2000                  :
 energy of atom  1       EATOM= -594.3153
 kinetic energy error for atom=    0.0269 (will be added to EATOM!!)
 
 
 POSCAR: Fe2
  positions in direct lattice
  No initial velocities read in
 exchange correlation table for  LEXCH =        8
   RHO(1)=    0.500       N(1)  =     2000
   RHO(2)=  100.500       N(2)  =     4000
 


--------------------------------------------------------------------------------------------------------


 ion  position               nearest neighbor table
   1  0.000  0.000  0.000-   2 2.48   2 2.48   2 2.48   2 2.48   2 2.48   2 2.48   2 2.48   2 2.48

   2  0.500  0.500  0.500-   1 2.48   1 2.48   1 2.48   1 2.48   1 2.48   1 2.48   1 2.48   1 2.48

 
  LATTYP: Found a simple cubic cell.
 ALAT       =     2.8630354989
  
  Lattice vectors:
  
 A1 = (   2.8630354989,   0.0000000000,   0.0000000000)
 A2 = (   0.0000000000,   2.8630354989,   0.0000000000)
 A3 = (   0.0000000000,   0.0000000000,   2.8630354989)


Analysis of symmetry for initial positions (statically):
=====================================================================
 Subroutine PRICEL returns following result:
 
  LATTYP: Found a body centered cubic cell.
 ALAT       =     2.8630354989
  
  Lattice vectors:
  
 A1 = (   1.4315177495,   1.4315177495,  -1.4315177495)
 A2 = (  -1.4315177495,   1.4315177495,   1.4315177495)
 A3 = (   1.4315177495,  -1.4315177495,   1.4315177495)
 
   2 primitive cells build up your supercell.
 

 Routine SETGRP: Setting up the symmetry group for a 
 simple cubic supercell.


 Subroutine GETGRP returns: Found 48 space group operations
 (whereof 48 operations were pure point group operations)
 out of a pool of 48 trial point group operations.


The static configuration has the point symmetry O_h .


Analysis of symmetry for dynamics (positions and initial velocities):
=====================================================================
 Subroutine PRICEL returns following result:
 
  LATTYP: Found a body centered cubic cell.
 ALAT       =     2.8630354989
  
  Lattice vectors:
  
 A1 = (   1.4315177495,   1.4315177495,  -1.4315177495)
 A2 = (  -1.4315177495,   1.4315177495,   1.4315177495)
 A3 = (   1.4315177495,  -1.4315177495,   1.4315177495)
 
   2 primitive cells build up your supercell.
 

 Routine SETGRP: Setting up the symmetry group for a 
 simple cubic supercell.


 Subroutine GETGRP returns: Found 48 space group operations
 (whereof 48 operations were pure point group operations)
 out of a pool of 48 trial point group operations.


The dynamic configuration has the point symmetry O_h .


Analysis of structural, dynamic, and magnetic symmetry:
=====================================================================
 Subroutine PRICEL returns following result:
 
  LATTYP: Found a body centered cubic cell.
 ALAT       =     2.8630354989
  
  Lattice vectors:
  
 A1 = (   1.4315177495,   1.4315177495,  -1.4315177495)
 A2 = (  -1.4315177495,   1.4315177495,   1.4315177495)
 A3 = (   1.4315177495,  -1.4315177495,   1.4315177495)
 
   2 primitive cells build up your supercell.
 

 Routine SETGRP: Setting up the symmetry group for a 
 simple cubic supercell.


 Subroutine GETGRP returns: Found 48 space group operations
 (whereof 48 operations were pure point group operations)
 out of a pool of 48 trial point group operations.


The overall configuration has the point symmetry O_h .


 Subroutine INISYM returns: Found 48 space group operations
 (whereof 48 operations are pure point group operations),
 and found     2 'primitive' translations


----------------------------------------------------------------------------------------

                                     Primitive cell                                     

  volume of cell :      11.7341

  direct lattice vectors                    reciprocal lattice vectors
     1.431517749  1.431517749 -1.431517749     0.349279637  0.349279637  0.000000000
    -1.431517749  1.431517749  1.431517749     0.000000000  0.349279637  0.349279637
     1.431517749 -1.431517749  1.431517749     0.349279637 -0.000000000  0.349279637

  length of vectors
     2.479461474  2.479461474  2.479461474     0.493956000  0.493956000  0.493956000

  position of ions in fractional coordinates (direct lattice)
     0.000000000  0.000000000  0.000000000

  ion indices of the primitive-cell ions
   primitive index   ion index
                 1           1

----------------------------------------------------------------------------------------

 
 
 KPOINTS: Automatic                               

Automatic generation of k-mesh.
 Grid dimensions read from file:
 generate k-points for:   15   15   15

 Generating k-lattice:

  Cartesian coordinates                     Fractional coordinates (reciprocal lattice)
     0.023285309 -0.000000000  0.000000000     0.066666667  0.000000000  0.000000000
     0.000000000  0.023285309  0.000000000     0.000000000  0.066666667  0.000000000
    -0.000000000 -0.000000000  0.023285309     0.000000000  0.000000000  0.066666667

  Length of vectors
     0.023285309  0.023285309  0.023285309

  Shift w.r.t. Gamma in fractional coordinates (k-lattice)
     0.000000000  0.000000000  0.000000000

 
 Subroutine IBZKPT returns following result:
 ===========================================
 
 Found    120 irreducible k-points:
 
 Following reciprocal coordinates:
            Coordinates               Weight
  0.000000  0.000000  0.000000      1.000000
  0.066667  0.000000  0.000000      6.000000
  0.133333  0.000000  0.000000      6.000000
  0.200000 -0.000000  0.000000      6.000000
  0.266667  0.000000  0.000000      6.000000
  0.333333  0.000000  0.000000      6.000000
  0.400000  0.000000  0.000000      6.000000
  0.466667 -0.000000  0.000000      6.000000
  0.066667  0.066667  0.000000     12.000000
  0.133333  0.066667  0.000000     24.000000
  0.200000  0.066667  0.000000     24.000000
  0.266667  0.066667  0.000000     24.000000
  0.333333  0.066667  0.000000     24.000000
  0.400000  0.066667  0.000000     24.000000
  0.466667  0.066667  0.000000     24.000000
  0.133333  0.133333  0.000000     12.000000
  0.200000  0.133333  0.000000     24.000000
  0.266667  0.133333  0.000000     24.000000
  0.333333  0.133333  0.000000     24.000000
  0.400000  0.133333  0.000000     24.000000
  0.466667  0.133333  0.000000     24.000000
  0.200000  0.200000  0.000000     12.000000
  0.266667  0.200000  0.000000     24.000000
  0.333333  0.200000  0.000000     24.000000
  0.400000  0.200000  0.000000     24.000000
  0.466667  0.200000  0.000000     24.000000
  0.266667  0.266667  0.000000     12.000000
  0.333333  0.266667  0.000000     24.000000
  0.400000  0.266667  0.000000     24.000000
  0.466667  0.266667  0.000000     24.000000
  0.333333  0.333333  0.000000     12.000000
  0.400000  0.333333  0.000000     24.000000
  0.466667  0.333333  0.000000     24.000000
  0.400000  0.400000  0.000000     12.000000
  0.466667  0.400000  0.000000     24.000000
  0.466667  0.466667  0.000000     12.000000
  0.066667  0.066667  0.066667      8.000000
  0.133333  0.066667  0.066667     24.000000
  0.200000  0.066667  0.066667     24.000000
  0.266667  0.066667  0.066667     24.000000
  0.333333  0.066667  0.066667     24.000000
  0.400000  0.066667  0.066667     24.000000
  0.466667  0.066667  0.066667     24.000000
  0.133333  0.133333  0.066667     24.000000
  0.200000  0.133333  0.066667     48.000000
  0.266667  0.133333  0.066667     48.000000
  0.333333  0.133333  0.066667     48.000000
  0.400000  0.133333  0.066667     48.000000
  0.466667  0.133333  0.066667     48.000000
  0.200000  0.200000  0.066667     24.000000
  0.266667  0.200000  0.066667     48.000000
  0.333333  0.200000  0.066667     48.000000
  0.400000  0.200000  0.066667     48.000000
  0.466667  0.200000  0.066667     48.000000
  0.266667  0.266667  0.066667     24.000000
  0.333333  0.266667  0.066667     48.000000
  0.400000  0.266667  0.066667     48.000000
  0.466667  0.266667  0.066667     48.000000
  0.333333  0.333333  0.066667     24.000000
  0.400000  0.333333  0.066667     48.000000
  0.466667  0.333333  0.066667     48.000000
  0.400000  0.400000  0.066667     24.000000
  0.466667  0.400000  0.066667     48.000000
  0.466667  0.466667  0.066667     24.000000
  0.133333  0.133333  0.133333      8.000000
  0.200000  0.133333  0.133333     24.000000
  0.266667  0.133333  0.133333     24.000000
  0.333333  0.133333  0.133333     24.000000
  0.400000  0.133333  0.133333     24.000000
  0.466667  0.133333  0.133333     24.000000
  0.200000  0.200000  0.133333     24.000000
  0.266667  0.200000  0.133333     48.000000
  0.333333  0.200000  0.133333     48.000000
  0.400000  0.200000  0.133333     48.000000
  0.466667  0.200000  0.133333     48.000000
  0.266667  0.266667  0.133333     24.000000
  0.333333  0.266667  0.133333     48.000000
  0.400000  0.266667  0.133333     48.000000
  0.466667  0.266667  0.133333     48.000000
  0.333333  0.333333  0.133333     24.000000
  0.400000  0.333333  0.133333     48.000000
  0.466667  0.333333  0.133333     48.000000
  0.400000  0.400000  0.133333     24.000000
  0.466667  0.400000  0.133333     48.000000
  0.466667  0.466667  0.133333     24.000000
  0.200000  0.200000  0.200000      8.000000
  0.266667  0.200000  0.200000     24.000000
  0.333333  0.200000  0.200000     24.000000
  0.400000  0.200000  0.200000     24.000000
  0.466667  0.200000  0.200000     24.000000
  0.266667  0.266667  0.200000     24.000000
  0.333333  0.266667  0.200000     48.000000
  0.400000  0.266667  0.200000     48.000000
  0.466667  0.266667  0.200000     48.000000
  0.333333  0.333333  0.200000     24.000000
  0.400000  0.333333  0.200000     48.000000
  0.466667  0.333333  0.200000     48.000000
  0.400000  0.400000  0.200000     24.000000
  0.466667  0.400000  0.200000     48.000000
  0.466667  0.466667  0.200000     24.000000
  0.266667  0.266667  0.266667      8.000000
  0.333333  0.266667  0.266667     24.000000
  0.400000  0.266667  0.266667     24.000000
  0.466667  0.266667  0.266667     24.000000
  0.333333  0.333333  0.266667     24.000000
  0.400000  0.333333  0.266667     48.000000
  0.466667  0.333333  0.266667     48.000000
  0.400000  0.400000  0.266667     24.000000
  0.466667  0.400000  0.266667     48.000000
  0.466667  0.466667  0.266667     24.000000
  0.333333  0.333333  0.333333      8.000000
  0.400000  0.333333  0.333333     24.000000
  0.466667  0.333333  0.333333     24.000000
  0.400000  0.400000  0.333333     24.000000
  0.466667  0.400000  0.333333     48.000000
  0.466667  0.466667  0.333333     24.000000
  0.400000  0.400000  0.400000      8.000000
  0.466667  0.400000  0.400000     24.000000
  0.466667  0.466667  0.400000     24.000000
  0.466667  0.466667  0.466667      8.000000
 
 Following cartesian coordinates:
            Coordinates               Weight
  0.000000  0.000000  0.000000      1.000000
  0.023285 -0.000000  0.000000      6.000000
  0.046571 -0.000000  0.000000      6.000000
  0.069856 -0.000000  0.000000      6.000000
  0.093141 -0.000000  0.000000      6.000000
  0.116427 -0.000000  0.000000      6.000000
  0.139712 -0.000000  0.000000      6.000000
  0.162997 -0.000000  0.000000      6.000000
  0.023285  0.023285  0.000000     12.000000
  0.046571  0.023285  0.000000     24.000000
  0.069856  0.023285  0.000000     24.000000
  0.093141  0.023285  0.000000     24.000000
  0.116427  0.023285  0.000000     24.000000
  0.139712  0.023285  0.000000     24.000000
  0.162997  0.023285  0.000000     24.000000
  0.046571  0.046571  0.000000     12.000000
  0.069856  0.046571  0.000000     24.000000
  0.093141  0.046571  0.000000     24.000000
  0.116427  0.046571  0.000000     24.000000
  0.139712  0.046571  0.000000     24.000000
  0.162997  0.046571  0.000000     24.000000
  0.069856  0.069856  0.000000     12.000000
  0.093141  0.069856  0.000000     24.000000
  0.116427  0.069856  0.000000     24.000000
  0.139712  0.069856  0.000000     24.000000
  0.162997  0.069856  0.000000     24.000000
  0.093141  0.093141  0.000000     12.000000
  0.116427  0.093141  0.000000     24.000000
  0.139712  0.093141  0.000000     24.000000
  0.162997  0.093141  0.000000     24.000000
  0.116427  0.116427  0.000000     12.000000
  0.139712  0.116427  0.000000     24.000000
  0.162997  0.116427  0.000000     24.000000
  0.139712  0.139712  0.000000     12.000000
  0.162997  0.139712  0.000000     24.000000
  0.162997  0.162997  0.000000     12.000000
  0.023285  0.023285  0.023285      8.000000
  0.046571  0.023285  0.023285     24.000000
  0.069856  0.023285  0.023285     24.000000
  0.093141  0.023285  0.023285     24.000000
  0.116427  0.023285  0.023285     24.000000
  0.139712  0.023285  0.023285     24.000000
  0.162997  0.023285  0.023285     24.000000
  0.046571  0.046571  0.023285     24.000000
  0.069856  0.046571  0.023285     48.000000
  0.093141  0.046571  0.023285     48.000000
  0.116427  0.046571  0.023285     48.000000
  0.139712  0.046571  0.023285     48.000000
  0.162997  0.046571  0.023285     48.000000
  0.069856  0.069856  0.023285     24.000000
  0.093141  0.069856  0.023285     48.000000
  0.116427  0.069856  0.023285     48.000000
  0.139712  0.069856  0.023285     48.000000
  0.162997  0.069856  0.023285     48.000000
  0.093141  0.093141  0.023285     24.000000
  0.116427  0.093141  0.023285     48.000000
  0.139712  0.093141  0.023285     48.000000
  0.162997  0.093141  0.023285     48.000000
  0.116427  0.116427  0.023285     24.000000
  0.139712  0.116427  0.023285     48.000000
  0.162997  0.116427  0.023285     48.000000
  0.139712  0.139712  0.023285     24.000000
  0.162997  0.139712  0.023285     48.000000
  0.162997  0.162997  0.023285     24.000000
  0.046571  0.046571  0.046571      8.000000
  0.069856  0.046571  0.046571     24.000000
  0.093141  0.046571  0.046571     24.000000
  0.116427  0.046571  0.046571     24.000000
  0.139712  0.046571  0.046571     24.000000
  0.162997  0.046571  0.046571     24.000000
  0.069856  0.069856  0.046571     24.000000
  0.093141  0.069856  0.046571     48.000000
  0.116427  0.069856  0.046571     48.000000
  0.139712  0.069856  0.046571     48.000000
  0.162997  0.069856  0.046571     48.000000
  0.093141  0.093141  0.046571     24.000000
  0.116427  0.093141  0.046571     48.000000
  0.139712  0.093141  0.046571     48.000000
  0.162997  0.093141  0.046571     48.000000
  0.116427  0.116427  0.046571     24.000000
  0.139712  0.116427  0.046571     48.000000
  0.162997  0.116427  0.046571     48.000000
  0.139712  0.139712  0.046571     24.000000
  0.162997  0.139712  0.046571     48.000000
  0.162997  0.162997  0.046571     24.000000
  0.069856  0.069856  0.069856      8.000000
  0.093141  0.069856  0.069856     24.000000
  0.116427  0.069856  0.069856     24.000000
  0.139712  0.069856  0.069856     24.000000
  0.162997  0.069856  0.069856     24.000000
  0.093141  0.093141  0.069856     24.000000
  0.116427  0.093141  0.069856     48.000000
  0.139712  0.093141  0.069856     48.000000
  0.162997  0.093141  0.069856     48.000000
  0.116427  0.116427  0.069856     24.000000
  0.139712  0.116427  0.069856     48.000000
  0.162997  0.116427  0.069856     48.000000
  0.139712  0.139712  0.069856     24.000000
  0.162997  0.139712  0.069856     48.000000
  0.162997  0.162997  0.069856     24.000000
  0.093141  0.093141  0.093141      8.000000
  0.116427  0.093141  0.093141     24.000000
  0.139712  0.093141  0.093141     24.000000
  0.162997  0.093141  0.093141     24.000000
  0.116427  0.116427  0.093141     24.000000
  0.139712  0.116427  0.093141     48.000000
  0.162997  0.116427  0.093141     48.000000
  0.139712  0.139712  0.093141     24.000000
  0.162997  0.139712  0.093141     48.000000
  0.162997  0.162997  0.093141     24.000000
  0.116427  0.116427  0.116427      8.000000
  0.139712  0.116427  0.116427     24.000000
  0.162997  0.116427  0.116427     24.000000
  0.139712  0.139712  0.116427     24.000000
  0.162997  0.139712  0.116427     48.000000
  0.162997  0.162997  0.116427     24.000000
  0.139712  0.139712  0.139712      8.000000
  0.162997  0.139712  0.139712     24.000000
  0.162997  0.162997  0.139712     24.000000
  0.162997  0.162997  0.162997      8.000000
 


--------------------------------------------------------------------------------------------------------




 Dimension of arrays:
   k-points           NKPTS =    120   k-points in BZ     NKDIM =    120   number of bands    NBANDS=     20
   number of dos      NEDOS =    301   number of ions     NIONS =      2
   non local maximal  LDIM  =      6   non local SUM 2l+1 LMDIM =     18
   total plane-waves  NPLWV =   4096
   max r-space proj   IRMAX =      1   max aug-charges    IRDMAX=  49932
   dimension x,y,z NGX =    16 NGY =   16 NGZ =   16
   dimension x,y,z NGXF=    32 NGYF=   32 NGZF=   32
   support grid    NGXF=    64 NGYF=   64 NGZF=   64
   ions per type =               2
   NGX,Y,Z   is equivalent  to a cutoff of   9.29,  9.29,  9.29 a.u.
   NGXF,Y,Z  is equivalent  to a cutoff of  18.58, 18.58, 18.58 a.u.

 SYSTEM =  unknown system                          
 POSCAR =  Fe2                                     

 Startparameter for this run:
   NWRITE =      2    write-flag & timer
   PREC   = accura    normal or accurate (medium, high low for compatibility)
   ISTART =      0    job   : 0-new  1-cont  2-samecut
   ICHARG =      2    charge: 1-file 2-atom 10-const
   ISPIN  =      2    spin polarized calculation?
   LNONCOLLINEAR =      F non collinear calculations
   LSORBIT =      F    spin-orbit coupling
   INIWAV =      1    electr: 0-lowe 1-rand  2-diag
   LASPH  =      T    aspherical Exc in radial PAW
   METAGGA=      F    non-selfconsistent MetaGGA calc.

 Electronic Relaxation 1
   ENCUT  =  300.0 eV  22.05 Ry    4.70 a.u.   4.04  4.04  4.04*2*pi/ulx,y,z
   ENINI  =  300.0     initial cutoff
   ENAUG  =  511.4 eV  augmentation charge cutoff
   NELM   =     90;   NELMIN=  6; NELMDL= -5     # of ELM steps 
   EDIFF  = 0.1E-05   stopping-criterion for ELM
   LREAL  =      F    real-space projection
   NLSPLINE    = F    spline interpolate recip. space projectors
   LCOMPAT=      F    compatible to vasp.4.4
   GGA_COMPAT  = F    GGA compatible to vasp.4.4-vasp.4.6
   LMAXPAW     = -100 max onsite density
   LMAXMIX     =    4 max onsite mixed and CHGCAR
   VOSKOWN=      1    Vosko Wilk Nusair interpolation
   ROPT   =    0.00000
 Ionic relaxation
   EDIFFG = -.2E-02   stopping-criterion for IOM
   NSW    =    100    number of steps for IOM
   NBLOCK =      1;   KBLOCK =    100    inner block; outer block 
   IBRION =      2    ionic relax: 0-MD 1-quasi-New 2-CG
   NFREE  =      1    steps in history (QN), initial steepest desc. (CG)
   ISIF   =      3    stress and relaxation
   IWAVPR =     11    prediction:  0-non 1-charg 2-wave 3-comb
   ISYM   =      2    0-nonsym 1-usesym 2-fastsym
   LCORR  =      T    Harris-Foulkes like correction to forces

   POTIM  = 0.5000    time-step for ionic-motion
   TEIN   =    0.0    initial temperature
   TEBEG  =    0.0;   TEEND  =   0.0 temperature during run
   SMASS  =  -3.00    Nose mass-parameter (am)
   estimated Nose-frequenzy (Omega)   =  0.10E-29 period in steps = 0.13E+47 mass=  -0.187E-27a.u.
   SCALEE = 1.0000    scale energy and forces
   NPACO  =    256;   APACO  = 16.0  distance and # of slots for P.C.
   PSTRESS=    0.0 pullay stress

  Mass of Ions in am
   POMASS =  55.85
  Ionic Valenz
   ZVAL   =   8.00
  Atomic Wigner-Seitz radii
   RWIGS  =  -1.00
  virtual crystal weights 
   VCA    =   1.00
   NELECT =      16.0000    total number of electrons
   NUPDOWN=      -1.0000    fix difference up-down

 DOS related values:
   EMIN   =  10.00;   EMAX   =-10.00  energy-range for DOS
   EFERMI =   0.00
   ISMEAR =     1;   SIGMA  =   0.20  broadening in eV -4-tet -1-fermi 0-gaus

 Electronic relaxation 2 (details)
   IALGO  =     38    algorithm
   LDIAG  =      T    sub-space diagonalisation (order eigenvalues)
   LSUBROT=      F    optimize rotation matrix (better conditioning)
   TURBO    =      0    0=normal 1=particle mesh
   IRESTART =      0    0=no restart 2=restart with 2 vectors
   NREBOOT  =      0    no. of reboots
   NMIN     =      0    reboot dimension
   EREF     =   0.00    reference energy to select bands
   IMIX   =      4    mixing-type and parameters
     AMIX     =   0.40;   BMIX     =  1.00
     AMIX_MAG =   1.60;   BMIX_MAG =  1.00
     AMIN     =   0.10
     WC   =   100.;   INIMIX=   1;  MIXPRE=   1;  MAXMIX= -45

 Intra band minimization:
   WEIMIN = 0.0010     energy-eigenvalue tresh-hold
   EBREAK =  0.12E-07  absolut break condition
   DEPER  =   0.30     relativ break condition  

   TIME   =   0.40     timestep for ELM

  volume/ion in A,a.u.               =      11.73        79.19
  Fermi-wavevector in a.u.,A,eV,Ry     =   1.440859  2.722828 28.246703  2.076074
  Thomas-Fermi vector in A             =   2.559556
 
 Write flags
   LWAVE        =      T    write WAVECAR
   LDOWNSAMPLE  =      F    k-point downsampling of WAVECAR
   LCHARG       =      T    write CHGCAR
   LVTOT        =      F    write LOCPOT, total local potential
   LVHAR        =      F    write LOCPOT, Hartree potential only
   LELF         =      F    write electronic localiz. function (ELF)
   LORBIT       =     11    0 simple, 1 ext, 2 COOP (PROOUT), +10 PAW based schemes


 Dipole corrections
   LMONO  =      F    monopole corrections only (constant potential shift)
   LDIPOL =      F    correct potential (dipole corrections)
   IDIPOL =      0    1-x, 2-y, 3-z, 4-all directions 
   EPSILON=  1.0000000 bulk dielectric constant

 Exchange correlation treatment:
   GGA     =    --    GGA type
   LEXCH   =     8    internal setting for exchange type
   VOSKOWN=      1    Vosko Wilk Nusair interpolation
   LHFCALC =     F    Hartree Fock is set to
   LHFONE  =     F    Hartree Fock one center treatment
   AEXX    =    0.0000 exact exchange contribution

 Linear response parameters
   LEPSILON=     F    determine dielectric tensor
   LRPA    =     F    only Hartree local field effects (RPA)
   LNABLA  =     F    use nabla operator in PAW spheres
   LVEL    =     F    velocity operator in full k-point grid
   LINTERFAST=   F  fast interpolation
   KINTER  =     0    interpolate to denser k-point grid
   CSHIFT  =0.1000    complex shift for real part using Kramers Kronig
   OMEGAMAX=  -1.0    maximum frequency
   DEG_THRESHOLD= 0.2000000E-02 threshold for treating states as degnerate
   RTIME   =   -0.100 relaxation time in fs
  (WPLASMAI=    0.000 imaginary part of plasma frequency in eV, 0.658/RTIME)
   DFIELD  = 0.0000000 0.0000000 0.0000000 field for delta impulse in time
 
 Orbital magnetization related:
   ORBITALMAG=     F  switch on orbital magnetization
   LCHIMAG   =     F  perturbation theory with respect to B field
   DQ        =  0.001000  dq finite difference perturbation B field
   LLRAUG    =     F  two centre corrections for induced B field



--------------------------------------------------------------------------------------------------------


 conjugate gradient relaxation of ions
 charge density and potential will be updated during run
 spin polarized calculation
 Variant of blocked Davidson
 Davidson routine will perform the subspace rotation
 perform sub-space diagonalisation
    after iterative eigenvector-optimisation
 modified Broyden-mixing scheme, WC =      100.0
 initial mixing is a Kerker type mixing with AMIX =  0.4000 and BMIX =      1.0000
 Hartree-type preconditioning will be used
 using additional bands           12
 reciprocal scheme for non local part
 use partial core corrections
 calculate Harris-corrections to forces 
   (improved forces if not selfconsistent)
 use gradient corrections 
 use of overlap-Matrix (Vanderbilt PP)
 Methfessel and Paxton  Order N= 1 SIGMA  =   0.20


--------------------------------------------------------------------------------------------------------


  energy-cutoff  :      300.00
  volume of cell :       23.47
      direct lattice vectors                 reciprocal lattice vectors
     2.863035499  0.000000000  0.000000000     0.349279637 -0.000000000  0.000000000
     0.000000000  2.863035499  0.000000000     0.000000000  0.349279637  0.000000000
     0.000000000  0.000000000  2.863035499    -0.000000000 -0.000000000  0.349279637

  length of vectors
     2.863035499  2.863035499  2.863035499     0.349279637  0.349279637  0.349279637


 
 k-points in units of 2pi/SCALE and weight: Automatic                               
   0.00000000  0.00000000  0.00000000       0.000
   0.02328531 -0.00000000  0.00000000       0.002
   0.04657062 -0.00000000  0.00000000       0.002
   0.06985593 -0.00000000  0.00000000       0.002
   0.09314124 -0.00000000  0.00000000       0.002
   0.11642655 -0.00000000  0.00000000       0.002
   0.13971185 -0.00000000  0.00000000       0.002
   0.16299716 -0.00000000  0.00000000       0.002
   0.02328531  0.02328531  0.00000000       0.004
   0.04657062  0.02328531  0.00000000       0.007
   0.06985593  0.02328531  0.00000000       0.007
   0.09314124  0.02328531  0.00000000       0.007
   0.11642655  0.02328531  0.00000000       0.007
   0.13971185  0.02328531  0.00000000       0.007
   0.16299716  0.02328531  0.00000000       0.007
   0.04657062  0.04657062  0.00000000       0.004
   0.06985593  0.04657062  0.00000000       0.007
   0.09314124  0.04657062  0.00000000       0.007
   0.11642655  0.04657062  0.00000000       0.007
   0.13971185  0.04657062  0.00000000       0.007
   0.16299716  0.04657062  0.00000000       0.007
   0.06985593  0.06985593  0.00000000       0.004
   0.09314124  0.06985593  0.00000000       0.007
   0.11642655  0.06985593  0.00000000       0.007
   0.13971185  0.06985593  0.00000000       0.007
   0.16299716  0.06985593  0.00000000       0.007
   0.09314124  0.09314124  0.00000000       0.004
   0.11642655  0.09314124  0.00000000       0.007
   0.13971185  0.09314124  0.00000000       0.007
   0.16299716  0.09314124  0.00000000       0.007
   0.11642655  0.11642655  0.00000000       0.004
   0.13971185  0.11642655  0.00000000       0.007
   0.16299716  0.11642655  0.00000000       0.007
   0.13971185  0.13971185  0.00000000       0.004
   0.16299716  0.13971185  0.00000000       0.007
   0.16299716  0.16299716  0.00000000       0.004
   0.02328531  0.02328531  0.02328531       0.002
   0.04657062  0.02328531  0.02328531       0.007
   0.06985593  0.02328531  0.02328531       0.007
   0.09314124  0.02328531  0.02328531       0.007
   0.11642655  0.02328531  0.02328531       0.007
   0.13971185  0.02328531  0.02328531       0.007
   0.16299716  0.02328531  0.02328531       0.007
   0.04657062  0.04657062  0.02328531       0.007
   0.06985593  0.04657062  0.02328531       0.014
   0.09314124  0.04657062  0.02328531       0.014
   0.11642655  0.04657062  0.02328531       0.014
   0.13971185  0.04657062  0.02328531       0.014
   0.16299716  0.04657062  0.02328531       0.014
   0.06985593  0.06985593  0.02328531       0.007
   0.09314124  0.06985593  0.02328531       0.014
   0.11642655  0.06985593  0.02328531       0.014
   0.13971185  0.06985593  0.02328531       0.014
   0.16299716  0.06985593  0.02328531       0.014
   0.09314124  0.09314124  0.02328531       0.007
   0.11642655  0.09314124  0.02328531       0.014
   0.13971185  0.09314124  0.02328531       0.014
   0.16299716  0.09314124  0.02328531       0.014
   0.11642655  0.11642655  0.02328531       0.007
   0.13971185  0.11642655  0.02328531       0.014
   0.16299716  0.11642655  0.02328531       0.014
   0.13971185  0.13971185  0.02328531       0.007
   0.16299716  0.13971185  0.02328531       0.014
   0.16299716  0.16299716  0.02328531       0.007
   0.04657062  0.04657062  0.04657062       0.002
   0.06985593  0.04657062  0.04657062       0.007
   0.09314124  0.04657062  0.04657062       0.007
   0.11642655  0.04657062  0.04657062       0.007
   0.13971185  0.04657062  0.04657062       0.007
   0.16299716  0.04657062  0.04657062       0.007
   0.06985593  0.06985593  0.04657062       0.007
   0.09314124  0.06985593  0.04657062       0.014
   0.11642655  0.06985593  0.04657062       0.014
   0.13971185  0.06985593  0.04657062       0.014
   0.16299716  0.06985593  0.04657062       0.014
   0.09314124  0.09314124  0.04657062       0.007
   0.11642655  0.09314124  0.04657062       0.014
   0.13971185  0.09314124  0.04657062       0.014
   0.16299716  0.09314124  0.04657062       0.014
   0.11642655  0.11642655  0.04657062       0.007
   0.13971185  0.11642655  0.04657062       0.014
   0.16299716  0.11642655  0.04657062       0.014
   0.13971185  0.13971185  0.04657062       0.007
   0.16299716  0.13971185  0.04657062       0.014
   0.16299716  0.16299716  0.04657062       0.007
   0.06985593  0.06985593  0.06985593       0.002
   0.09314124  0.06985593  0.06985593       0.007
   0.11642655  0.06985593  0.06985593       0.007
   0.13971185  0.06985593  0.06985593       0.007
   0.16299716  0.06985593  0.06985593       0.007
   0.09314124  0.09314124  0.06985593       0.007
   0.11642655  0.09314124  0.06985593       0.014
   0.13971185  0.09314124  0.06985593       0.014
   0.16299716  0.09314124  0.06985593       0.014
   0.11642655  0.11642655  0.06985593       0.007
   0.13971185  0.11642655  0.06985593       0.014
   0.16299716  0.11642655  0.06985593       0.014
   0.13971185  0.13971185  0.06985593       0.007
   0.16299716  0.13971185  0.06985593       0.014
   0.16299716  0.16299716  0.06985593       0.007
   0.09314124  0.09314124  0.09314124       0.002
   0.11642655  0.09314124  0.09314124       0.007
   0.13971185  0.09314124  0.09314124       0.007
   0.16299716  0.09314124  0.09314124       0.007
   0.11642655  0.11642655  0.09314124       0.007
   0.13971185  0.11642655  0.09314124       0.014
   0.16299716  0.11642655  0.09314124       0.014
   0.13971185  0.13971185  0.09314124       0.007
   0.16299716  0.13971185  0.09314124       0.014
   0.16299716  0.16299716  0.09314124       0.007
   0.11642655  0.11642655  0.11642655       0.002
   0.13971185  0.11642655  0.11642655       0.007
   0.16299716  0.11642655  0.11642655       0.007
   0.13971185  0.13971185  0.11642655       0.007
   0.16299716  0.13971185  0.11642655       0.014
   0.16299716  0.16299716  0.11642655       0.007
   0.13971185  0.13971185  0.13971185       0.002
   0.16299716  0.13971185  0.13971185       0.007
   0.16299716  0.16299716  0.13971185       0.007
   0.16299716  0.16299716  0.16299716       0.002
 
 k-points in reciprocal lattice and weights: Automatic                               
   0.00000000  0.00000000  0.00000000       0.000
   0.06666667  0.00000000  0.00000000       0.002
   0.13333333  0.00000000  0.00000000       0.002
   0.20000000 -0.00000000  0.00000000       0.002
   0.26666667  0.00000000  0.00000000       0.002
   0.33333333  0.00000000  0.00000000       0.002
   0.40000000  0.00000000  0.00000000       0.002
   0.46666667 -0.00000000  0.00000000       0.002
   0.06666667  0.06666667  0.00000000       0.004
   0.13333333  0.06666667  0.00000000       0.007
   0.20000000  0.06666667  0.00000000       0.007
   0.26666667  0.06666667  0.00000000       0.007
   0.33333333  0.06666667  0.00000000       0.007
   0.40000000  0.06666667  0.00000000       0.007
   0.46666667  0.06666667  0.00000000       0.007
   0.13333333  0.13333333  0.00000000       0.004
   0.20000000  0.13333333  0.00000000       0.007
   0.26666667  0.13333333  0.00000000       0.007
   0.33333333  0.13333333  0.00000000       0.007
   0.40000000  0.13333333  0.00000000       0.007
   0.46666667  0.13333333  0.00000000       0.007
   0.20000000  0.20000000  0.00000000       0.004
   0.26666667  0.20000000  0.00000000       0.007
   0.33333333  0.20000000  0.00000000       0.007
   0.40000000  0.20000000  0.00000000       0.007
   0.46666667  0.20000000  0.00000000       0.007
   0.26666667  0.26666667  0.00000000       0.004
   0.33333333  0.26666667  0.00000000       0.007
   0.40000000  0.26666667  0.00000000       0.007
   0.46666667  0.26666667  0.00000000       0.007
   0.33333333  0.33333333  0.00000000       0.004
   0.40000000  0.33333333  0.00000000       0.007
   0.46666667  0.33333333  0.00000000       0.007
   0.40000000  0.40000000  0.00000000       0.004
   0.46666667  0.40000000  0.00000000       0.007
   0.46666667  0.46666667  0.00000000       0.004
   0.06666667  0.06666667  0.06666667       0.002
   0.13333333  0.06666667  0.06666667       0.007
   0.20000000  0.06666667  0.06666667       0.007
   0.26666667  0.06666667  0.06666667       0.007
   0.33333333  0.06666667  0.06666667       0.007
   0.40000000  0.06666667  0.06666667       0.007
   0.46666667  0.06666667  0.06666667       0.007
   0.13333333  0.13333333  0.06666667       0.007
   0.20000000  0.13333333  0.06666667       0.014
   0.26666667  0.13333333  0.06666667       0.014
   0.33333333  0.13333333  0.06666667       0.014
   0.40000000  0.13333333  0.06666667       0.014
   0.46666667  0.13333333  0.06666667       0.014
   0.20000000  0.20000000  0.06666667       0.007
   0.26666667  0.20000000  0.06666667       0.014
   0.33333333  0.20000000  0.06666667       0.014
   0.40000000  0.20000000  0.06666667       0.014
   0.46666667  0.20000000  0.06666667       0.014
   0.26666667  0.26666667  0.06666667       0.007
   0.33333333  0.26666667  0.06666667       0.014
   0.40000000  0.26666667  0.06666667       0.014
   0.46666667  0.26666667  0.06666667       0.014
   0.33333333  0.33333333  0.06666667       0.007
   0.40000000  0.33333333  0.06666667       0.014
   0.46666667  0.33333333  0.06666667       0.014
   0.40000000  0.40000000  0.06666667       0.007
   0.46666667  0.40000000  0.06666667       0.014
   0.46666667  0.46666667  0.06666667       0.007
   0.13333333  0.13333333  0.13333333       0.002
   0.20000000  0.13333333  0.13333333       0.007
   0.26666667  0.13333333  0.13333333       0.007
   0.33333333  0.13333333  0.13333333       0.007
   0.40000000  0.13333333  0.13333333       0.007
   0.46666667  0.13333333  0.13333333       0.007
   0.20000000  0.20000000  0.13333333       0.007
   0.26666667  0.20000000  0.13333333       0.014
   0.33333333  0.20000000  0.13333333       0.014
   0.40000000  0.20000000  0.13333333       0.014
   0.46666667  0.20000000  0.13333333       0.014
   0.26666667  0.26666667  0.13333333       0.007
   0.33333333  0.26666667  0.13333333       0.014
   0.40000000  0.26666667  0.13333333       0.014
   0.46666667  0.26666667  0.13333333       0.014
   0.33333333  0.33333333  0.13333333       0.007
   0.40000000  0.33333333  0.13333333       0.014
   0.46666667  0.33333333  0.13333333       0.014
   0.40000000  0.40000000  0.13333333       0.007
   0.46666667  0.40000000  0.13333333       0.014
   0.46666667  0.46666667  0.13333333       0.007
   0.20000000  0.20000000  0.20000000       0.002
   0.26666667  0.20000000  0.20000000       0.007
   0.33333333  0.20000000  0.20000000       0.007
   0.40000000  0.20000000  0.20000000       0.007
   0.46666667  0.20000000  0.20000000       0.007
   0.26666667  0.26666667  0.20000000       0.007
   0.33333333  0.26666667  0.20000000       0.014
   0.40000000  0.26666667  0.20000000       0.014
   0.46666667  0.26666667  0.20000000       0.014
   0.33333333  0.33333333  0.20000000       0.007
   0.40000000  0.33333333  0.20000000       0.014
   0.46666667  0.33333333  0.20000000       0.014
   0.40000000  0.40000000  0.20000000       0.007
   0.46666667  0.40000000  0.20000000       0.014
   0.46666667  0.46666667  0.20000000       0.007
   0.26666667  0.26666667  0.26666667       0.002
   0.33333333  0.26666667  0.26666667       0.007
   0.40000000  0.26666667  0.26666667       0.007
   0.46666667  0.26666667  0.26666667       0.007
   0.33333333  0.33333333  0.26666667       0.007
   0.40000000  0.33333333  0.26666667       0.014
   0.46666667  0.33333333  0.26666667       0.014
   0.40000000  0.40000000  0.26666667       0.007
   0.46666667  0.40000000  0.26666667       0.014
   0.46666667  0.46666667  0.26666667       0.007
   0.33333333  0.33333333  0.33333333       0.002
   0.40000000  0.33333333  0.33333333       0.007
   0.46666667  0.33333333  0.33333333       0.007
   0.40000000  0.40000000  0.33333333       0.007
   0.46666667  0.40000000  0.33333333       0.014
   0.46666667  0.46666667  0.33333333       0.007
   0.40000000  0.40000000  0.40000000       0.002
   0.46666667  0.40000000  0.40000000       0.007
   0.46666667  0.46666667  0.40000000       0.007
   0.46666667  0.46666667  0.46666667       0.002
 
 position of ions in fractional coordinates (direct lattice) 
   0.00000000  0.00000000  0.00000000
   0.50000000  0.50000000  0.50000000
 
 position of ions in cartesian coordinates  (Angst):
   0.00000000  0.00000000  0.00000000
   1.43151775  1.43151775  1.43151775
 


--------------------------------------------------------------------------------------------------------


 k-point   1 :   0.0000 0.0000 0.0000  plane waves:     257
 k-point   2 :   0.0667 0.0000 0.0000  plane waves:     256
 k-point   3 :   0.1333 0.0000 0.0000  plane waves:     264
 k-point   4 :   0.2000-0.0000 0.0000  plane waves:     272
 k-point   5 :   0.2667 0.0000 0.0000  plane waves:     276
 k-point   6 :   0.3333 0.0000 0.0000  plane waves:     280
 k-point   7 :   0.4000 0.0000 0.0000  plane waves:     272
 k-point   8 :   0.4667-0.0000 0.0000  plane waves:     276
 k-point   9 :   0.0667 0.0667 0.0000  plane waves:     261
 k-point  10 :   0.1333 0.0667 0.0000  plane waves:     266
 k-point  11 :   0.2000 0.0667 0.0000  plane waves:     270
 k-point  12 :   0.2667 0.0667 0.0000  plane waves:     275
 k-point  13 :   0.3333 0.0667 0.0000  plane waves:     277
 k-point  14 :   0.4000 0.0667 0.0000  plane waves:     274
 k-point  15 :   0.4667 0.0667 0.0000  plane waves:     277
 k-point  16 :   0.1333 0.1333 0.0000  plane waves:     269
 k-point  17 :   0.2000 0.1333 0.0000  plane waves:     271
 k-point  18 :   0.2667 0.1333 0.0000  plane waves:     275
 k-point  19 :   0.3333 0.1333 0.0000  plane waves:     277
 k-point  20 :   0.4000 0.1333 0.0000  plane waves:     277
 k-point  21 :   0.4667 0.1333 0.0000  plane waves:     278
 k-point  22 :   0.2000 0.2000 0.0000  plane waves:     274
 k-point  23 :   0.2667 0.2000 0.0000  plane waves:     274
 k-point  24 :   0.3333 0.2000 0.0000  plane waves:     276
 k-point  25 :   0.4000 0.2000 0.0000  plane waves:     275
 k-point  26 :   0.4667 0.2000 0.0000  plane waves:     275
 k-point  27 :   0.2667 0.2667 0.0000  plane waves:     272
 k-point  28 :   0.3333 0.2667 0.0000  plane waves:     274
 k-point  29 :   0.4000 0.2667 0.0000  plane waves:     273
 k-point  30 :   0.4667 0.2667 0.0000  plane waves:     272
 k-point  31 :   0.3333 0.3333 0.0000  plane waves:     276
 k-point  32 :   0.4000 0.3333 0.0000  plane waves:     274
 k-point  33 :   0.4667 0.3333 0.0000  plane waves:     274
 k-point  34 :   0.4000 0.4000 0.0000  plane waves:     276
 k-point  35 :   0.4667 0.4000 0.0000  plane waves:     278
 k-point  36 :   0.4667 0.4667 0.0000  plane waves:     278
 k-point  37 :   0.0667 0.0667 0.0667  plane waves:     263
 k-point  38 :   0.1333 0.0667 0.0667  plane waves:     265
 k-point  39 :   0.2000 0.0667 0.0667  plane waves:     268
 k-point  40 :   0.2667 0.0667 0.0667  plane waves:     276
 k-point  41 :   0.3333 0.0667 0.0667  plane waves:     274
 k-point  42 :   0.4000 0.0667 0.0667  plane waves:     276
 k-point  43 :   0.4667 0.0667 0.0667  plane waves:     274
 k-point  44 :   0.1333 0.1333 0.0667  plane waves:     269
 k-point  45 :   0.2000 0.1333 0.0667  plane waves:     273
 k-point  46 :   0.2667 0.1333 0.0667  plane waves:     276
 k-point  47 :   0.3333 0.1333 0.0667  plane waves:     277
 k-point  48 :   0.4000 0.1333 0.0667  plane waves:     275
 k-point  49 :   0.4667 0.1333 0.0667  plane waves:     276
 k-point  50 :   0.2000 0.2000 0.0667  plane waves:     275
 k-point  51 :   0.2667 0.2000 0.0667  plane waves:     275
 k-point  52 :   0.3333 0.2000 0.0667  plane waves:     278
 k-point  53 :   0.4000 0.2000 0.0667  plane waves:     275
 k-point  54 :   0.4667 0.2000 0.0667  plane waves:     274
 k-point  55 :   0.2667 0.2667 0.0667  plane waves:     275
 k-point  56 :   0.3333 0.2667 0.0667  plane waves:     275
 k-point  57 :   0.4000 0.2667 0.0667  plane waves:     274
 k-point  58 :   0.4667 0.2667 0.0667  plane waves:     276
 k-point  59 :   0.3333 0.3333 0.0667  plane waves:     275
 k-point  60 :   0.4000 0.3333 0.0667  plane waves:     277
 k-point  61 :   0.4667 0.3333 0.0667  plane waves:     277
 k-point  62 :   0.4000 0.4000 0.0667  plane waves:     280
 k-point  63 :   0.4667 0.4000 0.0667  plane waves:     278
 k-point  64 :   0.4667 0.4667 0.0667  plane waves:     279
 k-point  65 :   0.1333 0.1333 0.1333  plane waves:     275
 k-point  66 :   0.2000 0.1333 0.1333  plane waves:     276
 k-point  67 :   0.2667 0.1333 0.1333  plane waves:     278
 k-point  68 :   0.3333 0.1333 0.1333  plane waves:     278
 k-point  69 :   0.4000 0.1333 0.1333  plane waves:     278
 k-point  70 :   0.4667 0.1333 0.1333  plane waves:     274
 k-point  71 :   0.2000 0.2000 0.1333  plane waves:     278
 k-point  72 :   0.2667 0.2000 0.1333  plane waves:     278
 k-point  73 :   0.3333 0.2000 0.1333  plane waves:     277
 k-point  74 :   0.4000 0.2000 0.1333  plane waves:     276
 k-point  75 :   0.4667 0.2000 0.1333  plane waves:     277
 k-point  76 :   0.2667 0.2667 0.1333  plane waves:     278
 k-point  77 :   0.3333 0.2667 0.1333  plane waves:     278
 k-point  78 :   0.4000 0.2667 0.1333  plane waves:     275
 k-point  79 :   0.4667 0.2667 0.1333  plane waves:     279
 k-point  80 :   0.3333 0.3333 0.1333  plane waves:     276
 k-point  81 :   0.4000 0.3333 0.1333  plane waves:     276
 k-point  82 :   0.4667 0.3333 0.1333  plane waves:     278
 k-point  83 :   0.4000 0.4000 0.1333  plane waves:     278
 k-point  84 :   0.4667 0.4000 0.1333  plane waves:     279
 k-point  85 :   0.4667 0.4667 0.1333  plane waves:     280
 k-point  86 :   0.2000 0.2000 0.2000  plane waves:     278
 k-point  87 :   0.2667 0.2000 0.2000  plane waves:     280
 k-point  88 :   0.3333 0.2000 0.2000  plane waves:     281
 k-point  89 :   0.4000 0.2000 0.2000  plane waves:     279
 k-point  90 :   0.4667 0.2000 0.2000  plane waves:     276
 k-point  91 :   0.2667 0.2667 0.2000  plane waves:     281
 k-point  92 :   0.3333 0.2667 0.2000  plane waves:     280
 k-point  93 :   0.4000 0.2667 0.2000  plane waves:     276
 k-point  94 :   0.4667 0.2667 0.2000  plane waves:     279
 k-point  95 :   0.3333 0.3333 0.2000  plane waves:     280
 k-point  96 :   0.4000 0.3333 0.2000  plane waves:     277
 k-point  97 :   0.4667 0.3333 0.2000  plane waves:     276
 k-point  98 :   0.4000 0.4000 0.2000  plane waves:     273
 k-point  99 :   0.4667 0.4000 0.2000  plane waves:     276
 k-point 100 :   0.4667 0.4667 0.2000  plane waves:     280
 k-point 101 :   0.2667 0.2667 0.2667  plane waves:     284
 k-point 102 :   0.3333 0.2667 0.2667  plane waves:     282
 k-point 103 :   0.4000 0.2667 0.2667  plane waves:     281
 k-point 104 :   0.4667 0.2667 0.2667  plane waves:     278
 k-point 105 :   0.3333 0.3333 0.2667  plane waves:     278
 k-point 106 :   0.4000 0.3333 0.2667  plane waves:     281
 k-point 107 :   0.4667 0.3333 0.2667  plane waves:     279
 k-point 108 :   0.4000 0.4000 0.2667  plane waves:     281
 k-point 109 :   0.4667 0.4000 0.2667  plane waves:     281
 k-point 110 :   0.4667 0.4667 0.2667  plane waves:     284
 k-point 111 :   0.3333 0.3333 0.3333  plane waves:     281
 k-point 112 :   0.4000 0.3333 0.3333  plane waves:     280
 k-point 113 :   0.4667 0.3333 0.3333  plane waves:     284
 k-point 114 :   0.4000 0.4000 0.3333  plane waves:     286
 k-point 115 :   0.4667 0.4000 0.3333  plane waves:     288
 k-point 116 :   0.4667 0.4667 0.3333  plane waves:     288
 k-point 117 :   0.4000 0.4000 0.4000  plane waves:     289
 k-point 118 :   0.4667 0.4000 0.4000  plane waves:     287
 k-point 119 :   0.4667 0.4667 0.4000  plane waves:     288
 k-point 120 :   0.4667 0.4667 0.4667  plane waves:     283

 maximum and minimum number of plane-waves per node :       289      256

 maximum number of plane-waves:       289
 maximum index in each direction: 
   IXMAX=    4   IYMAX=    4   IZMAX=    4
   IXMIN=   -4   IYMIN=   -4   IZMIN=   -4


 serial   3D FFT for wavefunctions
 parallel 3D FFT for charge:
    minimum data exchange during FFTs selected (reduces bandwidth)


 total amount of memory used by VASP MPI-rank0    43614. kBytes
=======================================================================

   base      :      30000. kBytes
   nonl-proj :       5055. kBytes
   fftplans  :       1246. kBytes
   grid      :        954. kBytes
   one-center:         62. kBytes
   wavefun   :       6297. kBytes
 
     INWAV:  cpu time    0.0000: real time    0.0007
 Broyden mixing: mesh for mixing (old mesh)
   NGX =  9   NGY =  9   NGZ =  9
  (NGX  = 32   NGY  = 32   NGZ  = 32)
  gives a total of    729 points

 initial charge density was supplied:
 charge density of overlapping atoms calculated
 number of electron      16.0000000 magnetization      10.0000000
 keeping initial charge density in first step


--------------------------------------------------------------------------------------------------------


 Maximum index for augmentation-charges        12135 (set IRDMAX)


--------------------------------------------------------------------------------------------------------


 First call to EWALD:  gamma=   0.619
 Maximum number of real-space cells 3x 3x 3
 Maximum number of reciprocal cells 3x 3x 3

    FEWALD:  cpu time    0.0030: real time    0.0035


--------------------------------------- Iteration      1(   1)  ---------------------------------------


    POTLOK:  cpu time    0.0250: real time    0.0281
    SETDIJ:  cpu time    1.5378: real time    1.5380
     EDDAV:  cpu time    2.5276: real time    2.5302
       DOS:  cpu time    0.0100: real time    0.0108
    --------------------------------------------
      LOOP:  cpu time    4.1004: real time    4.1074

 eigenvalue-minimisations  : 10624
 total energy-change (2. order) : 0.5777288E+02  (-0.5485716E+03)
 number of electron      16.0000000 magnetization      10.0000000
 augmentation part       16.0000000 magnetization      10.0000000

 Free energy of the ion-electron system (eV)
  ---------------------------------------------------
  alpha Z        PSCENC =       117.79976220
  Ewald energy   TEWEN  =     -1171.43779597
  -Hartree energ DENC   =      -228.04061711
  -exchange      EXHF   =         0.00000000
  -V(xc)+E(xc)   XCENC  =        14.27157264
  PAW double counting   =      1103.49540010    -1119.11610375
  entropy T*S    EENTRO =        -0.00085434
  eigenvalues    EBANDS =       152.22476304
  atomic energy  EATOM  =      1188.57675298
  Solvation  Ediel_sol  =         0.00000000
  ---------------------------------------------------
  free energy    TOTEN  =        57.77287979 eV

  energy without entropy =       57.77373413  energy(sigma->0) =       57.77316457


--------------------------------------------------------------------------------------------------------




--------------------------------------- Iteration      1(   2)  ---------------------------------------


     EDDAV:  cpu time    2.3556: real time    2.3749
       DOS:  cpu time    0.0100: real time    0.0106
    --------------------------------------------
      LOOP:  cpu time    2.3666: real time    2.3855

 eigenvalue-minimisations  :  9820
 total energy-change (2. order) :-0.7165131E+02  (-0.6374816E+02)
 number of electron      16.0000000 magnetization      10.0000000
 augmentation part       16.0000000 magnetization      10.0000000

 Free energy of the ion-electron system (eV)
  ---------------------------------------------------
  alpha Z        PSCENC =       117.79976220
  Ewald energy   TEWEN  =     -1171.43779597
  -Hartree energ DENC   =      -228.04061711
  -exchange      EXHF   =         0.00000000
  -V(xc)+E(xc)   XCENC  =        14.27157264
  PAW double counting   =      1103.49540010    -1119.11610375
  entropy T*S    EENTRO =         0.00090412
  eigenvalues    EBANDS =        80.57169501
  atomic energy  EATOM  =      1188.57675298
  Solvation  Ediel_sol  =         0.00000000
  ---------------------------------------------------
  free energy    TOTEN  =       -13.87842978 eV

  energy without entropy =      -13.87933390  energy(sigma->0) =      -13.87873115


--------------------------------------------------------------------------------------------------------




--------------------------------------- Iteration      1(   3)  ---------------------------------------


     EDDAV:  cpu time    2.5576: real time    2.5765
       DOS:  cpu time    0.0100: real time    0.0111
    --------------------------------------------
      LOOP:  cpu time    2.5676: real time    2.5877

 eigenvalue-minimisations  : 10932
 total energy-change (2. order) :-0.2193322E+01  (-0.2162498E+01)
 number of electron      16.0000000 magnetization      10.0000000
 augmentation part       16.0000000 magnetization      10.0000000

 Free energy of the ion-electron system (eV)
  ---------------------------------------------------
  alpha Z        PSCENC =       117.79976220
  Ewald energy   TEWEN  =     -1171.43779597
  -Hartree energ DENC   =      -228.04061711
  -exchange      EXHF   =         0.00000000
  -V(xc)+E(xc)   XCENC  =        14.27157264
  PAW double counting   =      1103.49540010    -1119.11610375
  entropy T*S    EENTRO =         0.00135951
  eigenvalues    EBANDS =        78.37791799
  atomic energy  EATOM  =      1188.57675298
  Solvation  Ediel_sol  =         0.00000000
  ---------------------------------------------------
  free energy    TOTEN  =       -16.07175141 eV

  energy without entropy =      -16.07311092  energy(sigma->0) =      -16.07220458


--------------------------------------------------------------------------------------------------------




--------------------------------------- Iteration      1(   4)  ---------------------------------------


     EDDAV:  cpu time    2.4306: real time    2.4494
       DOS:  cpu time    0.0110: real time    0.0113
    --------------------------------------------
      LOOP:  cpu time    2.4406: real time    2.4607

 eigenvalue-minimisations  : 10248
 total energy-change (2. order) :-0.1481393E-01  (-0.1481162E-01)
 number of electron      16.0000000 magnetization      10.0000000
 augmentation part       16.0000000 magnetization      10.0000000

 Free energy of the ion-electron system (eV)
  ---------------------------------------------------
  alpha Z        PSCENC =       117.79976220
  Ewald energy   TEWEN  =     -1171.43779597
  -Hartree energ DENC   =      -228.04061711
  -exchange      EXHF   =         0.00000000
  -V(xc)+E(xc)   XCENC  =        14.27157264
  PAW double counting   =      1103.49540010    -1119.11610375
  entropy T*S    EENTRO =         0.00134443
  eigenvalues    EBANDS =        78.36311915
  atomic energy  EATOM  =      1188.57675298
  Solvation  Ediel_sol  =         0.00000000
  ---------------------------------------------------
  free energy    TOTEN  =       -16.08656533 eV

  energy without entropy =      -16.08790976  energy(sigma->0) =      -16.08701348


--------------------------------------------------------------------------------------------------------




--------------------------------------- Iteration      1(   5)  ---------------------------------------


     EDDAV:  cpu time    2.5276: real time    2.5475
       DOS:  cpu time    0.0100: real time    0.0112
    CHARGE:  cpu time    0.0960: real time    0.0955
    MIXING:  cpu time    0.0010: real time    0.0009
    --------------------------------------------
      LOOP:  cpu time    2.6346: real time    2.6552

 eigenvalue-minimisations  : 10800
 total energy-change (2. order) :-0.1740593E-03  (-0.1740583E-03)
 number of electron      15.9999999 magnetization       4.3740847
 augmentation part        7.3821192 magnetization       2.7092473

 Broyden mixing:
  rms(total) = 0.19497E+01    rms(broyden)= 0.19495E+01
  rms(prec ) = 0.35291E+01
  weight for this iteration     100.00

 Free energy of the ion-electron system (eV)
  ---------------------------------------------------
  alpha Z        PSCENC =       117.79976220
  Ewald energy   TEWEN  =     -1171.43779597
  -Hartree energ DENC   =      -228.04061711
  -exchange      EXHF   =         0.00000000
  -V(xc)+E(xc)   XCENC  =        14.27157264
  PAW double counting   =      1103.49540010    -1119.11610375
  entropy T*S    EENTRO =         0.00134428
  eigenvalues    EBANDS =        78.36294524
  atomic energy  EATOM  =      1188.57675298
  Solvation  Ediel_sol  =         0.00000000
  ---------------------------------------------------
  free energy    TOTEN  =       -16.08673939 eV

  energy without entropy =      -16.08808368  energy(sigma->0) =      -16.08718749


--------------------------------------------------------------------------------------------------------




--------------------------------------- Iteration      1(   6)  ---------------------------------------


    POTLOK:  cpu time    0.0260: real time    0.0418
    SETDIJ:  cpu time    1.5258: real time    1.5277
     EDDAV:  cpu time    2.4836: real time    2.4862
       DOS:  cpu time    0.0110: real time    0.0117
    CHARGE:  cpu time    0.0860: real time    0.0862
    MIXING:  cpu time    0.0020: real time    0.0011
    --------------------------------------------
      LOOP:  cpu time    4.1344: real time    4.1546

 eigenvalue-minimisations  : 10564
 total energy-change (2. order) :-0.4858061E+00  (-0.5072642E+00)
 number of electron      15.9999999 magnetization       4.6243692
 augmentation part        8.4882496 magnetization       3.7957209

 Broyden mixing:
  rms(total) = 0.59839E+00    rms(broyden)= 0.59757E+00
  rms(prec ) = 0.67471E+00
  weight for this iteration     100.00

 eigenvalues of (default mixing * dielectric matrix)
  average eigenvalue GAMMA=   0.8874
  0.8874

 Free energy of the ion-electron system (eV)
  ---------------------------------------------------
  alpha Z        PSCENC =       117.79976220
  Ewald energy   TEWEN  =     -1171.43779597
  -Hartree energ DENC   =      -196.99082761
  -exchange      EXHF   =         0.00000000
  -V(xc)+E(xc)   XCENC  =         8.24051487
  PAW double counting   =      1214.66061039    -1226.94345090
  entropy T*S    EENTRO =        -0.00037432
  eigenvalues    EBANDS =        49.52226287
  atomic energy  EATOM  =      1188.57675298
  Solvation  Ediel_sol  =         0.00000000
  ---------------------------------------------------
  free energy    TOTEN  =       -16.57254549 eV

  energy without entropy =      -16.57217117  energy(sigma->0) =      -16.57242072


--------------------------------------------------------------------------------------------------------




--------------------------------------- Iteration      1(   7)  ---------------------------------------


    POTLOK:  cpu time    0.0250: real time    0.0412
    SETDIJ:  cpu time    1.5278: real time    1.5279
     EDDAV:  cpu time    2.6236: real time    2.6270
       DOS:  cpu time    0.0110: real time    0.0116
    CHARGE:  cpu time    0.0860: real time    0.0860
    MIXING:  cpu time    0.0000: real time    0.0009
    --------------------------------------------
      LOOP:  cpu time    4.2744: real time    4.2946

 eigenvalue-minimisations  : 11308
 total energy-change (2. order) : 0.5900843E-01  (-0.3646591E-01)
 number of electron      15.9999999 magnetization       4.4875380
 augmentation part        8.2512429 magnetization       3.7059326

 Broyden mixing:
  rms(total) = 0.42720E+00    rms(broyden)= 0.42707E+00
  rms(prec ) = 0.51449E+00
  weight for this iteration     100.00

 eigenvalues of (default mixing * dielectric matrix)
  average eigenvalue GAMMA=   0.7737
  1.0305  0.5169

 Free energy of the ion-electron system (eV)
  ---------------------------------------------------
  alpha Z        PSCENC =       117.79976220
  Ewald energy   TEWEN  =     -1171.43779597
  -Hartree energ DENC   =      -199.51639313
  -exchange      EXHF   =         0.00000000
  -V(xc)+E(xc)   XCENC  =         8.87029148
  PAW double counting   =      1292.19220629    -1307.51347751
  entropy T*S    EENTRO =        -0.00216162
  eigenvalues    EBANDS =        54.51727822
  atomic energy  EATOM  =      1188.57675298
  Solvation  Ediel_sol  =         0.00000000
  ---------------------------------------------------
  free energy    TOTEN  =       -16.51353706 eV

  energy without entropy =      -16.51137544  energy(sigma->0) =      -16.51281652


--------------------------------------------------------------------------------------------------------




--------------------------------------- Iteration      1(   8)  ---------------------------------------


    POTLOK:  cpu time    0.0260: real time    0.0420
    SETDIJ:  cpu time    1.5298: real time    1.5298
     EDDAV:  cpu time    2.8466: real time    2.8497
       DOS:  cpu time    0.0110: real time    0.0116
    CHARGE:  cpu time    0.0850: real time    0.0862
    MIXING:  cpu time    0.0010: real time    0.0010
    --------------------------------------------
      LOOP:  cpu time    4.4993: real time    4.5204

 eigenvalue-minimisations  : 12252
 total energy-change (2. order) : 0.1728981E-01  (-0.1043220E-02)
 number of electron      15.9999999 magnetization       4.4119615
 augmentation part        8.2813465 magnetization       3.6311628

 Broyden mixing:
  rms(total) = 0.16037E+00    rms(broyden)= 0.16034E+00
  rms(prec ) = 0.22894E+00
  weight for this iteration     100.00

 eigenvalues of (default mixing * dielectric matrix)
  average eigenvalue GAMMA=   1.1124
  1.8869  0.8773  0.5729

 Free energy of the ion-electron system (eV)
  ---------------------------------------------------
  alpha Z        PSCENC =       117.79976220
  Ewald energy   TEWEN  =     -1171.43779597
  -Hartree energ DENC   =      -197.70041576
  -exchange      EXHF   =         0.00000000
  -V(xc)+E(xc)   XCENC  =         8.62614037
  PAW double counting   =      1331.14102743    -1347.29807280
  entropy T*S    EENTRO =        -0.00248590
  eigenvalues    EBANDS =        53.79884020
  atomic energy  EATOM  =      1188.57675298
  Solvation  Ediel_sol  =         0.00000000
  ---------------------------------------------------
  free energy    TOTEN  =       -16.49624725 eV

  energy without entropy =      -16.49376135  energy(sigma->0) =      -16.49541861


--------------------------------------------------------------------------------------------------------




--------------------------------------- Iteration      1(   9)  ---------------------------------------


    POTLOK:  cpu time    0.0260: real time    0.0419
    SETDIJ:  cpu time    1.5298: real time    1.5293
     EDDAV:  cpu time    3.1945: real time    3.1990
       DOS:  cpu time    0.0110: real time    0.0118
    CHARGE:  cpu time    0.0870: real time    0.0864
    MIXING:  cpu time    0.0010: real time    0.0011
    --------------------------------------------
      LOOP:  cpu time    4.8483: real time    4.8694

 eigenvalue-minimisations  : 13928
 total energy-change (2. order) : 0.1110425E-01  (-0.3015551E-03)
 number of electron      15.9999999 magnetization       4.4577025
 augmentation part        8.3218183 magnetization       3.6759398

 Broyden mixing:
  rms(total) = 0.42987E-01    rms(broyden)= 0.42960E-01
  rms(prec ) = 0.51065E-01
  weight for this iteration     100.00

 eigenvalues of (default mixing * dielectric matrix)
  average eigenvalue GAMMA=   1.1900
  2.3459  1.0607  0.6767  0.6767

 Free energy of the ion-electron system (eV)
  ---------------------------------------------------
  alpha Z        PSCENC =       117.79976220
  Ewald energy   TEWEN  =     -1171.43779597
  -Hartree energ DENC   =      -195.26031717
  -exchange      EXHF   =         0.00000000
  -V(xc)+E(xc)   XCENC  =         8.47879144
  PAW double counting   =      1391.49786645    -1409.02950688
  entropy T*S    EENTRO =        -0.00285043
  eigenvalues    EBANDS =        52.89215438
  atomic energy  EATOM  =      1188.57675298
  Solvation  Ediel_sol  =         0.00000000
  ---------------------------------------------------
  free energy    TOTEN  =       -16.48514300 eV

  energy without entropy =      -16.48229257  energy(sigma->0) =      -16.48419286


--------------------------------------------------------------------------------------------------------




--------------------------------------- Iteration      1(  10)  ---------------------------------------


    POTLOK:  cpu time    0.0250: real time    0.0417
    SETDIJ:  cpu time    1.5268: real time    1.5270
     EDDAV:  cpu time    2.6396: real time    2.6423
       DOS:  cpu time    0.0100: real time    0.0115
    CHARGE:  cpu time    0.0850: real time    0.0851
    MIXING:  cpu time    0.0020: real time    0.0011
    --------------------------------------------
      LOOP:  cpu time    4.2883: real time    4.3087

 eigenvalue-minimisations  : 11372
 total energy-change (2. order) : 0.3918240E-03  (-0.1807275E-03)
 number of electron      15.9999999 magnetization       4.4705193
 augmentation part        8.3077435 magnetization       3.6831768

 Broyden mixing:
  rms(total) = 0.63713E-02    rms(broyden)= 0.63652E-02
  rms(prec ) = 0.87522E-02
  weight for this iteration     100.00

 eigenvalues of (default mixing * dielectric matrix)
  average eigenvalue GAMMA=   1.1453
  2.4173  1.1269  0.6318  0.7753  0.7753

 Free energy of the ion-electron system (eV)
  ---------------------------------------------------
  alpha Z        PSCENC =       117.79976220
  Ewald energy   TEWEN  =     -1171.43779597
  -Hartree energ DENC   =      -195.15146748
  -exchange      EXHF   =         0.00000000
  -V(xc)+E(xc)   XCENC  =         8.52153767
  PAW double counting   =      1408.87766290    -1426.89460519
  entropy T*S    EENTRO =        -0.00276380
  eigenvalues    EBANDS =        53.22616551
  atomic energy  EATOM  =      1188.57675298
  Solvation  Ediel_sol  =         0.00000000
  ---------------------------------------------------
  free energy    TOTEN  =       -16.48475118 eV

  energy without entropy =      -16.48198738  energy(sigma->0) =      -16.48382991


--------------------------------------------------------------------------------------------------------




--------------------------------------- Iteration      1(  11)  ---------------------------------------


    POTLOK:  cpu time    0.0250: real time    0.0410
    SETDIJ:  cpu time    1.5298: real time    1.5304
     EDDAV:  cpu time    2.6286: real time    2.6319
       DOS:  cpu time    0.0110: real time    0.0117
    CHARGE:  cpu time    0.0850: real time    0.0855
    MIXING:  cpu time    0.0010: real time    0.0011
    --------------------------------------------
      LOOP:  cpu time    4.2813: real time    4.3015

 eigenvalue-minimisations  : 11248
 total energy-change (2. order) :-0.3238331E-04  (-0.7188867E-05)
 number of electron      15.9999999 magnetization       4.4683024
 augmentation part        8.3093963 magnetization       3.6811127

 Broyden mixing:
  rms(total) = 0.45241E-02    rms(broyden)= 0.45238E-02
  rms(prec ) = 0.49492E-02
  weight for this iteration     100.00

 eigenvalues of (default mixing * dielectric matrix)
  average eigenvalue GAMMA=   1.1187
  2.4140  1.2649  1.0075  0.6983  0.6983  0.6290

 Free energy of the ion-electron system (eV)
  ---------------------------------------------------
  alpha Z        PSCENC =       117.79976220
  Ewald energy   TEWEN  =     -1171.43779597
  -Hartree energ DENC   =      -195.10642620
  -exchange      EXHF   =         0.00000000
  -V(xc)+E(xc)   XCENC  =         8.53550727
  PAW double counting   =      1410.85895571    -1428.89523672
  entropy T*S    EENTRO =        -0.00276489
  eigenvalues    EBANDS =        53.18646207
  atomic energy  EATOM  =      1188.57675298
  Solvation  Ediel_sol  =         0.00000000
  ---------------------------------------------------
  free energy    TOTEN  =       -16.48478356 eV

  energy without entropy =      -16.48201867  energy(sigma->0) =      -16.48386193


--------------------------------------------------------------------------------------------------------




--------------------------------------- Iteration      1(  12)  ---------------------------------------


    POTLOK:  cpu time    0.0260: real time    0.0418
    SETDIJ:  cpu time    1.5298: real time    1.5301
     EDDAV:  cpu time    2.4036: real time    2.4058
       DOS:  cpu time    0.0100: real time    0.0115
    CHARGE:  cpu time    0.0860: real time    0.0856
    MIXING:  cpu time    0.0010: real time    0.0011
    --------------------------------------------
      LOOP:  cpu time    4.0554: real time    4.0759

 eigenvalue-minimisations  :  9984
 total energy-change (2. order) : 0.9508227E-05  (-0.2580142E-06)
 number of electron      15.9999999 magnetization       4.4670464
 augmentation part        8.3096231 magnetization       3.6799298

 Broyden mixing:
  rms(total) = 0.18314E-02    rms(broyden)= 0.18312E-02
  rms(prec ) = 0.22317E-02
  weight for this iteration     100.00

 eigenvalues of (default mixing * dielectric matrix)
  average eigenvalue GAMMA=   1.2363
  2.4678  2.2411  1.0926  0.8406  0.6626  0.6626  0.6872

 Free energy of the ion-electron system (eV)
  ---------------------------------------------------
  alpha Z        PSCENC =       117.79976220
  Ewald energy   TEWEN  =     -1171.43779597
  -Hartree energ DENC   =      -195.11653456
  -exchange      EXHF   =         0.00000000
  -V(xc)+E(xc)   XCENC  =         8.53380854
  PAW double counting   =      1411.02809270    -1429.04490303
  entropy T*S    EENTRO =        -0.00276039
  eigenvalues    EBANDS =        53.17880349
  atomic energy  EATOM  =      1188.57675298
  Solvation  Ediel_sol  =         0.00000000
  ---------------------------------------------------
  free energy    TOTEN  =       -16.48477405 eV

  energy without entropy =      -16.48201366  energy(sigma->0) =      -16.48385392


--------------------------------------------------------------------------------------------------------




--------------------------------------- Iteration      1(  13)  ---------------------------------------


    POTLOK:  cpu time    0.0260: real time    0.0416
    SETDIJ:  cpu time    1.5278: real time    1.5295
     EDDAV:  cpu time    2.0367: real time    2.0381
       DOS:  cpu time    0.0110: real time    0.0118
    --------------------------------------------
      LOOP:  cpu time    3.6015: real time    3.6210

 eigenvalue-minimisations  :  7764
 total energy-change (2. order) :-0.9832888E-06  (-0.1020961E-06)
 number of electron      15.9999999 magnetization       4.4670464
 augmentation part        8.3096231 magnetization       3.6799298

 Free energy of the ion-electron system (eV)
  ---------------------------------------------------
  alpha Z        PSCENC =       117.79976220
  Ewald energy   TEWEN  =     -1171.43779597
  -Hartree energ DENC   =      -195.12323755
  -exchange      EXHF   =         0.00000000
  -V(xc)+E(xc)   XCENC  =         8.53423050
  PAW double counting   =      1411.55757468    -1429.56101656
  entropy T*S    EENTRO =        -0.00276353
  eigenvalues    EBANDS =        53.17171821
  atomic energy  EATOM  =      1188.57675298
  Solvation  Ediel_sol  =         0.00000000
  ---------------------------------------------------
  free energy    TOTEN  =       -16.48477503 eV

  energy without entropy =      -16.48201151  energy(sigma->0) =      -16.48385386


--------------------------------------------------------------------------------------------------------




 average (electrostatic) potential at core
  the test charge radii are     1.0103
  (the norm of the test charge is              1.0000)
       1 -43.6053       2 -43.6053
 
 
 
 E-fermi :   5.4754     XC(G=0): -12.9365     alpha+bet :-13.2097

 Fermi energy:         5.4753949686

 spin component 1

 k-point     1 :       0.0000    0.0000    0.0000
  band No.  band energies     occupation 
      1      -2.7434      1.00000
      2       0.8395      1.00000
      3       0.8395      1.00000
      4       3.2555      1.00000
      5       3.2555      1.00000
      6       3.2555      1.00000
      7       4.4057      1.00000
      8       4.4057      1.00000
      9       5.5593      0.17738
     10       5.5593      0.17738
     11       5.5593      0.17738
     12      15.2075      0.00000
     13      15.2075      0.00000
     14      15.2075      0.00000
     15      20.8511      0.00000
     16      20.8511      0.00000
     17      25.5396      0.00000
     18      30.2072      0.00000
     19      30.2072      0.00000
     20      30.2072      0.00000

 k-point     2 :       0.0667    0.0000    0.0000
  band No.  band energies     occupation 
      1      -2.6533      1.00000
      2       0.8772      1.00000
      3       0.8784      1.00000
      4       3.2549      1.00000
      5       3.2549      1.00000
      6       3.2796      1.00000
      7       4.3669      1.00000
      8       4.4212      1.00000
      9       5.4855      0.45730
     10       5.4855      0.45729
     11       5.5332      0.26619
     12      14.5440      0.00000
     13      15.3767      0.00000
     14      15.3767      0.00000
     15      20.8785      0.00000
     16      21.3511      0.00000
     17      25.8409      0.00000
     18      29.5722      0.00000
     19      30.1159      0.00000
     20      30.1159      0.00000

 k-point     3 :       0.1333    0.0000    0.0000
  band No.  band energies     occupation 
      1      -2.3865      1.00000
      2       0.9877      1.00000
      3       0.9889      1.00000
      4       3.2556      1.00000
      5       3.2556      1.00000
      6       3.3512      1.00000
      7       4.2519      1.00000
      8       4.4663      1.00000
      9       5.2817      1.02153
     10       5.2817      1.02153
     11       5.4562      0.58074
     12      13.0902      0.00000
     13      15.8651      0.00000
     14      15.8651      0.00000
     15      20.9622      0.00000
     16      22.1853      0.00000
     17      26.8632      0.00000
     18      28.3119      0.00000
     19      29.7172      0.00000
     20      29.7172      0.00000

 k-point     4 :       0.2000   -0.0000    0.0000
  band No.  band energies     occupation 
      1      -1.9540      1.00000
      2       1.1453      1.00000
      3       1.1705      1.00000
      4       3.2644      1.00000
      5       3.2644      1.00000
      6       3.4674      1.00000
      7       4.0651      1.00000
      8       4.5392      1.00000
      9       4.9916      1.00165
     10       4.9916      1.00165
     11       5.3311      0.96719
     12      11.4267      0.00000
     13      16.6259      0.00000
     14      16.6259      0.00000
     15      21.1040      0.00000
     16      22.7807      0.00000
     17      26.9960      0.00000
     18      28.6577      0.00000
     19      28.8170      0.00000
     20      28.8170      0.00000

 k-point     5 :       0.2667    0.0000    0.0000
  band No.  band energies     occupation 
      1      -1.3767      1.00000
      2       1.3123      1.00000
      3       1.4151      1.00000
      4       3.2914      1.00000
      5       3.2914      1.00000
      6       3.6237      1.00000
      7       3.8140      1.00000
      8       4.6392      1.00000
      9       4.6639      1.00000
     10       4.6639      1.00000
     11       5.1654      1.02537
     12       9.7864     -0.00000
     13      17.6072      0.00000
     14      17.6072      0.00000
     15      21.3168      0.00000
     16      23.1737      0.00000
     17      25.7873      0.00000
     18      27.5039      0.00000
     19      27.5039      0.00000
     20      29.2377      0.00000

 k-point     6 :       0.3333    0.0000    0.0000
  band No.  band energies     occupation 
      1      -0.6916      1.00000
      2       1.4305      1.00000
      3       1.7132      1.00000
      4       3.3478      1.00000
      5       3.3478      1.00000
      6       3.5089      1.00000
      7       3.8139      1.00000
      8       4.3378      1.00000
      9       4.3378      1.00000
     10       4.7790      1.00000
     11       4.9661      1.00094
     12       8.2805     -0.00000
     13      18.7623      0.00000
     14      18.7623      0.00000
     15      21.6084      0.00000
     16      23.5396      0.00000
     17      24.7274      0.00000
     18      26.0027      0.00000
     19      26.0027      0.00000
[...]

 k-point   114 :       0.4000    0.4000    0.3333
  band No.  band energies     occupation 
      1       3.4176      1.00000
      2       3.5357      1.00000
      3       3.9884      1.00000
      4       4.0967      1.00000
      5       4.1466      1.00000
      6       4.3997      1.00000
      7       7.6095     -0.00000
      8       7.6593     -0.00000
      9       7.7199     -0.00000
     10       7.7488     -0.00000
     11      10.8254     -0.00000
     12      12.9197      0.00000
     13      14.5545      0.00000
     14      16.6832      0.00000
     15      17.3244      0.00000
     16      19.0278      0.00000
     17      20.1067      0.00000
     18      22.7575      0.00000
     19      36.3745      0.00000
     20      37.8956      0.00000

 k-point   115 :       0.4667    0.4000    0.3333
  band No.  band energies     occupation 
      1       3.4791      1.00000
      2       3.4970      1.00000
      3       3.9739      1.00000
      4       4.0154      1.00000
      5       4.3233      1.00000
      6       4.4311      1.00000
      7       7.6361     -0.00000
      8       7.6549     -0.00000
      9       7.7722     -0.00000
     10       7.7824     -0.00000
     11      11.5101      0.00000
     12      12.2783      0.00000
     13      15.2037      0.00000
     14      16.1900      0.00000
     15      17.3389      0.00000
     16      18.2514      0.00000
     17      20.5282      0.00000
     18      21.5312      0.00000
     19      37.1733      0.00000
     20      37.7963      0.00000

 k-point   116 :       0.4667    0.4667    0.3333
  band No.  band energies     occupation 
      1       3.4958      1.00000
      2       3.4974      1.00000
      3       3.9288      1.00000
      4       3.9473      1.00000
      5       4.4675      1.00000
      6       4.5088      1.00000
      7       7.6766     -0.00000
      8       7.6837     -0.00000
      9       7.7989     -0.00000
     10       7.8023     -0.00000
     11      12.1113      0.00000
     12      12.4832      0.00000
     13      14.8313      0.00000
     14      15.2723      0.00000
     15      18.0581      0.00000
     16      18.7079      0.00000
     17      19.6651      0.00000
     18      20.3401      0.00000
     19      37.9268      0.00000
     20      38.1931      0.00000

 k-point   117 :       0.4000    0.4000    0.4000
  band No.  band energies     occupation 
      1       3.6231      1.00000
      2       3.7869      1.00000
      3       3.9579      1.00000
      4       3.9580      1.00000
      5       4.1955      1.00000
      6       4.1956      1.00000
      7       7.7164     -0.00000
      8       7.7165     -0.00000
      9       7.7440     -0.00000
     10       7.7442     -0.00000
     11      11.5404      0.00000
     12      14.0192      0.00000
     13      14.0192      0.00000
     14      16.3009      0.00000
     15      17.6958      0.00000
     16      17.6958      0.00000
     17      19.0264      0.00000
     18      21.3887      0.00000
     19      38.5422      0.00000
     20      38.5422      0.00000

 k-point   118 :       0.4667    0.4000    0.4000
  band No.  band energies     occupation 
      1       3.6668      1.00000
      2       3.7453      1.00000
      3       3.9762      1.00000
      4       4.0537      1.00000
      5       4.1352      1.00000
      6       4.2443      1.00000
      7       7.7243     -0.00000
      8       7.7352     -0.00000
      9       7.7806     -0.00000
     10       7.7897     -0.00000
     11      12.3099      0.00000
     12      13.1614      0.00000
     13      15.1859      0.00000
     14      16.4133      0.00000
     15      16.6144      0.00000
     16      17.2735      0.00000
     17      19.2226      0.00000
     18      20.1789      0.00000
     19      39.2263      0.00000
     20      39.8030      0.00000

 k-point   119 :       0.4667    0.4667    0.4000
  band No.  band energies     occupation 
      1       3.7479      1.00000
      2       3.8145      1.00000
      3       3.9159      1.00000
      4       3.9790      1.00000
      5       4.2054      1.00000
      6       4.2465      1.00000
      7       7.7602     -0.00000
      8       7.7641     -0.00000
      9       7.8052     -0.00000
     10       7.8085     -0.00000
     11      13.0903      0.00000
     12      13.6195      0.00000
     13      14.9833      0.00000
     14      15.6505      0.00000
     15      16.8839      0.00000
     16      17.3683      0.00000
     17      18.4312      0.00000
     18      19.0264      0.00000
     19      40.3864      0.00000
     20      40.6809      0.00000

 k-point   120 :       0.4667    0.4667    0.4667
  band No.  band energies     occupation 
      1       3.8670      1.00000
      2       3.9564      1.00000
      3       3.9565      1.00000
      4       4.0637      1.00000
      5       4.0637      1.00000
      6       4.0686      1.00000
      7       7.8097     -0.00000
      8       7.8098     -0.00000
      9       7.8110     -0.00000
     10       7.8112     -0.00000
     11      14.0410      0.00000
     12      14.8170      0.00000
     13      14.8171      0.00000
     14      16.0695      0.00000
     15      16.0695      0.00000
     16      16.2445      0.00000
     17      17.7160      0.00000
     18      18.0068      0.00000
     19      42.8484      0.00000
     20      42.8588      0.00000


--------------------------------------------------------------------------------------------------------


 soft charge-density along one line, spin component           1
         0         1         2         3         4         5         6         7         8         9
 total charge-density along one line
 
 soft charge-density along one line, spin component           2
         0         1         2         3         4         5         6         7         8         9
 total charge-density along one line
 
 pseudopotential strength for first ion, spin component:           1
 -5.573  -0.000  -0.000  -0.000  -0.000  -6.104  -0.000  -0.000
 -0.000  -5.573   0.000   0.000   0.000  -0.000  -6.104   0.000
 -0.000   0.000  -5.782   0.000   0.000  -0.000   0.000  -6.306
 -0.000   0.000   0.000  -5.573  -0.000  -0.000   0.000   0.000
 -0.000   0.000   0.000  -0.000  -5.782  -0.000   0.000   0.000
 -6.104  -0.000  -0.000  -0.000  -0.000  -6.594  -0.000  -0.000
 -0.000  -6.104   0.000   0.000   0.000  -0.000  -6.594   0.000
 -0.000   0.000  -6.306   0.000   0.000  -0.000   0.000  -6.789
 -0.000   0.000   0.000  -6.104  -0.000  -0.000   0.000   0.000
 -0.000   0.000   0.000  -0.000  -6.306  -0.000   0.000   0.000
 -0.000   0.000   0.000   0.000  -0.000  -0.000   0.000   0.000
 -0.000   0.000   0.000   0.000  -0.000  -0.000   0.000   0.000
 -0.000  -0.000   0.000  -0.000   0.000  -0.000  -0.000   0.000
 -0.000  -0.000  -0.000  -0.000  -0.000  -0.000  -0.000  -0.000
 -0.000  -0.000   0.000  -0.000  -0.000  -0.000  -0.000   0.000
  0.000  -0.000   0.000  -0.000  -0.000   0.000  -0.000   0.000
 -0.000  -0.000  -0.000  -0.000  -0.000  -0.000  -0.000  -0.000
 -0.000  -0.000   0.000  -0.000  -0.000  -0.000  -0.000   0.000
 pseudopotential strength for first ion, spin component:           2
 -4.140   0.000  -0.000   0.000  -0.000  -4.715   0.000  -0.000
  0.000  -4.140  -0.000   0.000  -0.000   0.000  -4.715  -0.000
 -0.000  -0.000  -3.890  -0.000  -0.000  -0.000  -0.000  -4.474
  0.000   0.000  -0.000  -4.140   0.000   0.000   0.000  -0.000
 -0.000  -0.000  -0.000   0.000  -3.890  -0.000  -0.000  -0.000
 -4.715   0.000  -0.000   0.000  -0.000  -5.248   0.000  -0.000
  0.000  -4.715  -0.000   0.000  -0.000   0.000  -5.247  -0.000
 -0.000  -0.000  -4.474  -0.000  -0.000  -0.000  -0.000  -5.015
  0.000   0.000  -0.000  -4.715   0.000   0.000   0.000  -0.000
 -0.000  -0.000  -0.000   0.000  -4.474  -0.000  -0.000  -0.000
 -0.000  -0.000  -0.000  -0.000   0.000  -0.000  -0.000  -0.000
 -0.000  -0.000  -0.000  -0.000   0.000  -0.000  -0.000  -0.000
  0.000  -0.000   0.000   0.000   0.000   0.000  -0.000   0.000
  0.000  -0.000  -0.000  -0.000  -0.000   0.000  -0.000  -0.000
 -0.000   0.000   0.000  -0.000  -0.000  -0.000   0.000   0.000
  0.000  -0.000   0.000   0.000   0.000   0.000  -0.000   0.000
  0.000  -0.000  -0.000  -0.000  -0.000   0.000  -0.000  -0.000
 -0.000   0.000   0.000  -0.000  -0.000  -0.000   0.000   0.000
 total augmentation occupancy for first ion, spin component:           1
  2.256   0.000  -0.000   0.000  -0.000  -1.245  -0.000   0.000  -0.000   0.000   0.000   0.000   0.000   0.000   0.000   0.000
  0.000   2.256   0.000   0.000  -0.000  -0.000  -1.245  -0.000  -0.000   0.000   0.000   0.000   0.000   0.000   0.000   0.000
 -0.000   0.000   3.667   0.000   0.000   0.000  -0.000  -2.380   0.000   0.000  -0.000   0.000   0.000   0.000   0.000   0.000
  0.000   0.000   0.000   2.256   0.000  -0.000  -0.000  -0.000  -1.245  -0.000  -0.000   0.000   0.000   0.000   0.000   0.000
 -0.000  -0.000   0.000   0.000   3.667   0.000   0.000   0.000  -0.000  -2.380   0.000   0.000  -0.000   0.000  -0.000   0.000
 -1.245  -0.000   0.000  -0.000   0.000   1.629   0.000  -0.000   0.000  -0.000   0.000  -0.000   0.000   0.000   0.000   0.000
 -0.000  -1.245   0.000  -0.000   0.000   0.000   1.629   0.000   0.000  -0.000  -0.000  -0.000   0.000   0.000   0.000   0.000
  0.000  -0.000  -2.380  -0.000   0.000  -0.000   0.000   2.354   0.000   0.000  -0.000  -0.000  -0.000  -0.000  -0.000   0.000
 -0.000  -0.000   0.000  -1.245  -0.000   0.000   0.000   0.000   1.629   0.000  -0.000   0.000   0.000   0.000   0.000   0.000
  0.000   0.000  -0.000  -0.000  -2.380  -0.000  -0.000   0.000   0.000   2.354   0.000   0.000   0.000  -0.000   0.000   0.000
 -0.000   0.000  -0.000  -0.000   0.000  -0.000  -0.000  -0.000  -0.000   0.000   2.434  -0.284   0.000   0.000   0.000   0.000
  0.000   0.000   0.000   0.000   0.000  -0.000   0.000  -0.000   0.000   0.000  -0.284   0.039   0.000   0.000   0.000   0.000
  0.000   0.000   0.000   0.000   0.000   0.000   0.000   0.000   0.000   0.000   0.000   0.000   0.296   0.000   0.000  -0.026
  0.000   0.000   0.000   0.000  -0.000   0.000   0.000   0.000   0.000  -0.000   0.000   0.000   0.000   0.296   0.000  -0.000
  0.000   0.000   0.000   0.000   0.000   0.000   0.000  -0.000   0.000  -0.000   0.000   0.000   0.000   0.000   0.296  -0.000
  0.000   0.000   0.000   0.000   0.000   0.000   0.000   0.000   0.000   0.000   0.000   0.000  -0.026  -0.000  -0.000   0.003
  0.000   0.000   0.000   0.000   0.000   0.000   0.000  -0.000   0.000   0.000   0.000   0.000  -0.000  -0.026  -0.000   0.000
  0.000   0.000   0.000   0.000   0.000   0.000   0.000   0.000   0.000   0.000   0.000   0.000  -0.000  -0.000  -0.026   0.000
 total augmentation occupancy for first ion, spin component:           2
  1.877   0.000  -0.000   0.000  -0.000  -0.789  -0.000   0.000  -0.000   0.000  -0.000   0.000  -0.000   0.000   0.000   0.000
  0.000   1.877   0.000   0.000  -0.000  -0.000  -0.789  -0.000  -0.000   0.000  -0.000  -0.000   0.000   0.000   0.000   0.000
 -0.000   0.000   3.114   0.000   0.000   0.000   0.000  -1.395   0.000  -0.000   0.000  -0.000  -0.000  -0.000   0.000  -0.000
  0.000   0.000   0.000   1.877   0.000  -0.000  -0.000  -0.000  -0.789  -0.000  -0.000  -0.000   0.000   0.000   0.000   0.000
 -0.000  -0.000  -0.000   0.000   3.114   0.000   0.000  -0.000  -0.000  -1.395  -0.000   0.000  -0.000   0.000   0.000   0.000
 -0.789  -0.000   0.000  -0.000   0.000   0.097   0.000  -0.000   0.000  -0.000   0.000  -0.000   0.000   0.000   0.000   0.000
 -0.000  -0.789   0.000  -0.000   0.000   0.000   0.097  -0.000   0.000  -0.000  -0.000   0.000   0.000   0.000   0.000   0.000
  0.000  -0.000  -1.395  -0.000   0.000  -0.000  -0.000   0.390  -0.000  -0.000  -0.000   0.000   0.000  -0.000  -0.000   0.000
 -0.000  -0.000   0.000  -0.789  -0.000   0.000   0.000  -0.000   0.097   0.000   0.000   0.000   0.000   0.000   0.000   0.000
  0.000   0.000  -0.000  -0.000  -1.395  -0.000  -0.000   0.000   0.000   0.390   0.000   0.000  -0.000   0.000  -0.000   0.000
  0.000  -0.000   0.000  -0.000   0.000   0.000  -0.000  -0.000   0.000   0.000  -0.331   0.100   0.000   0.000   0.000   0.000
 -0.000  -0.000  -0.000   0.000   0.000  -0.000   0.000   0.000   0.000  -0.000   0.100  -0.018   0.000   0.000   0.000   0.000
 -0.000   0.000   0.000   0.000  -0.000   0.000   0.000   0.000   0.000   0.000   0.000   0.000  -0.038  -0.000  -0.000   0.006
  0.000   0.000   0.000   0.000   0.000   0.000   0.000   0.000   0.000  -0.000   0.000   0.000  -0.000  -0.038  -0.000   0.000
  0.000   0.000  -0.000   0.000  -0.000   0.000   0.000   0.000   0.000  -0.000   0.000   0.000  -0.000  -0.000  -0.038   0.000
  0.000   0.000   0.000   0.000   0.000   0.000   0.000   0.000   0.000   0.000   0.000   0.000   0.006   0.000   0.000  -0.001
  0.000   0.000   0.000   0.000   0.000   0.000   0.000   0.000   0.000   0.000   0.000   0.000   0.000   0.006   0.000  -0.000
  0.000   0.000   0.000   0.000   0.000   0.000   0.000   0.000   0.000   0.000   0.000   0.000   0.000   0.000   0.006  -0.000


------------------------ aborting loop because EDIFF is reached ----------------------------------------





 total charge

# of ion       s       p       d       tot
------------------------------------------
    1        0.489   0.545   6.233   7.267
    2        0.489   0.545   6.233   7.267
--------------------------------------------------
tot          0.978   1.090  12.466  14.534



 magnetization (x)

# of ion       s       p       d       tot
------------------------------------------
    1       -0.014  -0.058   2.246   2.175
    2       -0.014  -0.058   2.246   2.175
--------------------------------------------------
tot         -0.027  -0.115   4.492   4.349
 
    CHARGE:  cpu time    0.0850: real time    0.0863
    FORLOC:  cpu time    0.0000: real time    0.0005
    FORNL :  cpu time    0.3020: real time    0.3023
    STRESS:  cpu time    1.0948: real time    1.0964
    FORCOR:  cpu time    0.0230: real time    0.0233
    FORHAR:  cpu time    0.0020: real time    0.0020
    MIXING:  cpu time    0.0000: real time    0.0009
    OFIELD:  cpu time    0.0010: real time    0.0002

  FORCE on cell =-STRESS in cart. coord.  units (eV):
  Direction    XX          YY          ZZ          XY          YZ          ZX
  --------------------------------------------------------------------------------------
  Alpha Z   122.02617   122.02617   122.02617
  Ewald    -395.09433  -395.09433  -395.09433     0.00000     0.00000     0.00000
  Hartree    63.20624    63.20624    63.20624    -0.00000    -0.00000    -0.00000
  E(xc)     -79.44072   -79.44072   -79.44072    -0.00000     0.00000     0.00000
  Local     118.09589   118.09589   118.09589     0.00000     0.00000    -0.00000
  n-local   -54.66220   -51.52380   -48.85988     2.48700    -0.88376     0.68512
  augment    77.43219    77.43219    77.43220    -0.00000     0.00000     0.00000
  Kinetic   147.93885   145.06771   143.36821     2.80861    -0.52911     0.11690
  Fock        0.00000     0.00000     0.00000     0.00000     0.00000     0.00000
  -------------------------------------------------------------------------------------
  Total       0.00174     0.00174     0.00174    -0.00000    -0.00000     0.00000
  in kB       0.12272     0.12272     0.12272    -0.00000    -0.00000     0.00000
  external pressure =        0.12 kB  Pullay stress =        0.00 kB


 VOLUME and BASIS-vectors are now :
 -----------------------------------------------------------------------------
  energy-cutoff  :      300.00
  volume of cell :       22.66
      direct lattice vectors                 reciprocal lattice vectors
     2.829592389 -0.000000000  0.000000000     0.353407792 -0.000000000  0.000000000
     0.000000000  2.829592389  0.000000000     0.000000000  0.353407792  0.000000000
    -0.000000000 -0.000000000  2.829592389    -0.000000000 -0.000000000  0.353407792

  length of vectors
     2.829592389  2.829592389  2.829592389     0.353407792  0.353407792  0.353407792


 FORCES acting on ions
    electron-ion (+dipol)            ewald-force                    non-local-force                 convergence-correction
 -----------------------------------------------------------------------------------------------
   -.113E-14 -.174E-14 0.448E-14   0.332E-14 0.278E-14 -.196E-14   -.131E-24 0.260E-25 0.000E+00   0.159E-13 -.155E-14 0.813E-14
   0.583E-13 0.745E-12 0.153E-12   -.251E-14 -.113E-14 0.253E-14   -.140E-24 0.129E-24 0.000E+00   -.742E-14 -.103E-14 0.891E-14
 -----------------------------------------------------------------------------------------------
   0.572E-13 0.744E-12 0.158E-12   0.807E-15 0.165E-14 0.574E-15   -.271E-24 0.155E-24 0.000E+00   0.845E-14 -.258E-14 0.170E-13
 
 
 POSITION                                       TOTAL-FORCE (eV/Angst)
 -----------------------------------------------------------------------------------
     -0.00000     -0.00000      0.00000         0.000000      0.000000      0.000000
      1.41480      1.41480      1.41480        -0.000000     -0.000000     -0.000000
 -----------------------------------------------------------------------------------
    total drift:                                0.000000      0.000000      0.000000


--------------------------------------------------------------------------------------------------------



  FREE ENERGIE OF THE ION-ELECTRON SYSTEM (eV)
  ---------------------------------------------------
  free  energy   TOTEN  =       -16.50146267 eV

  energy  without entropy=      -16.49885452  energy(sigma->0) =      -16.50059328
 
 d Force = 0.0000000E+00[ 0.000E+00, 0.000E+00]  d Energy = 0.1435478E-01-0.144E-01
 d Force = 0.0000000E+00[ 0.000E+00, 0.000E+00]  d Ewald  =-0.1260649E+02 0.126E+02


--------------------------------------------------------------------------------------------------------


    POTLOK:  cpu time    1.5588: real time    1.5668


--------------------------------------------------------------------------------------------------------




--------------------------------------------------------------------------------------------------------


  
 reached required accuracy - stopping structural energy minimisation
 writing wavefunctions
     LOOP+:  cpu time   41.1757: real time   42.4148
    4ORBIT:  cpu time    0.0000: real time    0.0000



 total charge

# of ion       s       p       d       tot
------------------------------------------
    1        0.489   0.545   6.233   7.267
    2        0.489   0.545   6.233   7.267
--------------------------------------------------
tot          0.978   1.090  12.466  14.534



 magnetization (x)

# of ion       s       p       d       tot
------------------------------------------
    1       -0.014  -0.058   2.246   2.175
    2       -0.014  -0.058   2.246   2.175
--------------------------------------------------
tot         -0.027  -0.115   4.492   4.349
 

 total amount of memory used by VASP MPI-rank0    43614. kBytes
=======================================================================

   base      :      30000. kBytes
   nonl-proj :       5055. kBytes
   fftplans  :       1246. kBytes
   grid      :        954. kBytes
   one-center:         62. kBytes
   wavefun   :       6297. kBytes
 
  
  
 General timing and accounting informations for this job:
 ========================================================
  
                  Total CPU time used (sec):      143.368
                            User time (sec):      139.760
                          System time (sec):        3.608
                         Elapsed time (sec):      152.888
  
                   Maximum memory used (kb):       67916.
                   Average memory used (kb):          N/A
  
                          Minor page faults:        10692
                          Major page faults:            1
                 Voluntary context switches:       233399
