PROCAR lm decomposed
# of k-points:  120         # of bands:   20         # of ions:    2

 k-point     1 :    0.00000000 0.00000000 0.00000000     weight = 0.00029630

band     1 # energy   -2.59339352 # occ.  1.00000000
 
ion      s     py     pz     px    dxy    dyz    dz2    dxz  x2-y2    tot
    1  0.367  0.000  0.000  0.000  0.000  0.000  0.000  0.000  0.000  0.367
    2  0.367  0.000  0.000  0.000  0.000  0.000  0.000  0.000  0.000  0.367
tot    0.734  0.000  0.000  0.000  0.000  0.000  0.000  0.000  0.000  0.734
 
band     2 # energy    0.99709280 # occ.  1.00000000
 
ion      s     py     pz     px    dxy    dyz    dz2    dxz  x2-y2    tot
    1  0.000  0.000  0.000  0.000  0.000  0.000  0.285  0.000  0.152  0.437
    2  0.000  0.000  0.000  0.000  0.000  0.000  0.285  0.000  0.152  0.437
tot    0.000  0.000  0.000  0.000  0.000  0.000  0.570  0.000  0.305  0.875
 
band     3 # energy    0.99709296 # occ.  1.00000000
 
ion      s     py     pz     px    dxy    dyz    dz2    dxz  x2-y2    tot
    1  0.000  0.000  0.000  0.000  0.000  0.000  0.152  0.000  0.285  0.437
    2  0.000  0.000  0.000  0.000  0.000  0.000  0.152  0.000  0.285  0.437
tot    0.000  0.000  0.000  0.000  0.000  0.000  0.305  0.000  0.570  0.875
 
band     4 # energy    3.55390383 # occ.  1.00000000
 
ion      s     py     pz     px    dxy    dyz    dz2    dxz  x2-y2    tot
    1  0.000  0.000  0.000  0.000  0.489  0.000  0.000  0.000  0.000  0.489
    2  0.000  0.000  0.000  0.000  0.489  0.000  0.000  0.000  0.000  0.489
tot    0.000  0.000  0.000  0.000  0.978  0.000  0.000  0.000  0.000  0.978
 
band     5 # energy    3.55390468 # occ.  1.00000000
 
ion      s     py     pz     px    dxy    dyz    dz2    dxz  x2-y2    tot
    1  0.000  0.000  0.000  0.000  0.000  0.000  0.000  0.489  0.000  0.489
    2  0.000  0.000  0.000  0.000  0.000  0.000  0.000  0.489  0.000  0.489
tot    0.000  0.000  0.000  0.000  0.000  0.000  0.000  0.978  0.000  0.978
 
band     6 # energy    3.55390470 # occ.  1.00000000
 
ion      s     py     pz     px    dxy    dyz    dz2    dxz  x2-y2    tot
    1  0.000  0.000  0.000  0.000  0.000  0.489  0.000  0.000  0.000  0.489
    2  0.000  0.000  0.000  0.000  0.000  0.489  0.000  0.000  0.000  0.489
tot    0.000  0.000  0.000  0.000  0.000  0.978  0.000  0.000  0.000  0.978
 
band     7 # energy    4.76942403 # occ.  1.00000000
 
ion      s     py     pz     px    dxy    dyz    dz2    dxz  x2-y2    tot
    1  0.000  0.000  0.000  0.000  0.000  0.000  0.482  0.000  0.003  0.485
    2  0.000  0.000  0.000  0.000  0.000  0.000  0.482  0.000  0.003  0.485
tot    0.000  0.000  0.000  0.000  0.000  0.000  0.964  0.000  0.006  0.970
 
band     8 # energy    4.76942515 # occ.  1.00000000
 
ion      s     py     pz     px    dxy    dyz    dz2    dxz  x2-y2    tot
    1  0.000  0.000  0.000  0.000  0.000  0.000  0.003  0.000  0.482  0.485
    2  0.000  0.000  0.000  0.000  0.000  0.000  0.003  0.000  0.482  0.485
tot    0.000  0.000  0.000  0.000  0.000  0.000  0.006  0.000  0.964  0.970
 
band     9 # energy    5.98427327 # occ.  0.06727377
 
ion      s     py     pz     px    dxy    dyz    dz2    dxz  x2-y2    tot
    1  0.000  0.000  0.000  0.000  0.494  0.000  0.000  0.000  0.000  0.494
    2  0.000  0.000  0.000  0.000  0.494  0.000  0.000  0.000  0.000  0.494
tot    0.000  0.000  0.000  0.000  0.988  0.000  0.000  0.000  0.000  0.988
 
band    10 # energy    5.98427486 # occ.  0.06727043
 
ion      s     py     pz     px    dxy    dyz    dz2    dxz  x2-y2    tot
    1  0.000  0.000  0.000  0.000  0.000  0.000  0.000  0.494  0.000  0.494
    2  0.000  0.000  0.000  0.000  0.000  0.000  0.000  0.494  0.000  0.494
tot    0.000  0.000  0.000  0.000  0.000  0.000  0.000  0.988  0.000  0.988
 
band    11 # energy    5.98427488 # occ.  0.06727039
 
ion      s     py     pz     px    dxy    dyz    dz2    dxz  x2-y2    tot
    1  0.000  0.000  0.000  0.000  0.000  0.494  0.000  0.000  0.000  0.494
    2  0.000  0.000  0.000  0.000  0.000  0.494  0.000  0.000  0.000  0.494
tot    0.000  0.000  0.000  0.000  0.000  0.988  0.000  0.000  0.000  0.988
 
band    12 # energy   15.81217445 # occ.  0.00000000
 
ion      s     py     pz     px    dxy    dyz    dz2    dxz  x2-y2    tot
    1  0.000  0.000  0.000  0.376  0.000  0.000  0.000  0.000  0.000  0.376
    2  0.000  0.000  0.000  0.376  0.000  0.000  0.000  0.000  0.000  0.376
tot    0.000  0.000  0.000  0.752  0.000  0.000  0.000  0.000  0.000  0.752
 
band    13 # energy   15.81217455 # occ.  0.00000000
 
ion      s     py     pz     px    dxy    dyz    dz2    dxz  x2-y2    tot
    1  0.000  0.376  0.000  0.000  0.000  0.000  0.000  0.000  0.000  0.376
    2  0.000  0.376  0.000  0.000  0.000  0.000  0.000  0.000  0.000  0.376
tot    0.000  0.752  0.001  0.000  0.000  0.000  0.000  0.000  0.000  0.752
 
band    14 # energy   15.81217468 # occ.  0.00000000
 
ion      s     py     pz     px    dxy    dyz    dz2    dxz  x2-y2    tot
    1  0.000  0.000  0.376  0.000  0.000  0.000  0.000  0.000  0.000  0.376
    2  0.000  0.000  0.376  0.000  0.000  0.000  0.000  0.000  0.000  0.376
tot    0.000  0.001  0.752  0.000  0.000  0.000  0.000  0.000  0.000  0.752
 
band    15 # energy   21.56414655 # occ.  0.00000000
 
ion      s     py     pz     px    dxy    dyz    dz2    dxz  x2-y2    tot
    1  0.000  0.000  0.000  0.000  0.000  0.000  0.465  0.000  0.000  0.465
    2  0.000  0.000  0.000  0.000  0.000  0.000  0.465  0.000  0.000  0.465
tot    0.000  0.000  0.000  0.000  0.000  0.000  0.930  0.000  0.000  0.930
 
band    16 # energy   21.56414831 # occ.  0.00000000
 
ion      s     py     pz     px    dxy    dyz    dz2    dxz  x2-y2    tot
    1  0.000  0.000  0.000  0.000  0.000  0.000  0.000  0.000  0.465  0.465
    2  0.000  0.000  0.000  0.000  0.000  0.000  0.000  0.000  0.465  0.465
tot    0.000  0.000  0.000  0.000  0.000  0.000  0.000  0.000  0.930  0.930
 
band    17 # energy   26.68296061 # occ.  0.00000000
 
ion      s     py     pz     px    dxy    dyz    dz2    dxz  x2-y2    tot
    1  0.391  0.000  0.000  0.000  0.000  0.000  0.000  0.000  0.000  0.391
    2  0.391  0.000  0.000  0.000  0.000  0.000  0.000  0.000  0.000  0.391
tot    0.782  0.000  0.000  0.000  0.000  0.000  0.000  0.000  0.000  0.782
 
band    18 # energy   30.90868956 # occ.  0.00000000
 
ion      s     py     pz     px    dxy    dyz    dz2    dxz  x2-y2    tot
    1  0.000  0.000  0.000  0.000  0.000  0.000  0.000  0.000  0.000  0.000
    2  0.000  0.000  0.000  0.000  0.000  0.000  0.000  0.000  0.000  0.000
tot    0.000  0.000  0.000  0.000  0.000  0.000  0.000  0.000  0.000  0.000
 
band    19 # energy   30.90868956 # occ.  0.00000000
 
ion      s     py     pz     px    dxy    dyz    dz2    dxz  x2-y2    tot
    1  0.000  0.000  0.000  0.000  0.000  0.000  0.000  0.000  0.000  0.000
    2  0.000  0.000  0.000  0.000  0.000  0.000  0.000  0.000  0.000  0.000
tot    0.000  0.000  0.000  0.000  0.000  0.000  0.000  0.000  0.000  0.000
 
band    20 # energy   30.90868956 # occ.  0.00000000
 
ion      s     py     pz     px    dxy    dyz    dz2    dxz  x2-y2    tot
    1  0.000  0.000  0.000  0.000  0.000  0.000  0.000  0.000  0.000  0.000
    2  0.000  0.000  0.000  0.000  0.000  0.000  0.000  0.000  0.000  0.000
tot    0.000  0.000  0.000  0.000  0.000  0.000  0.000  0.000  0.000  0.000
 

 k-point     2 :    0.06666667 0.00000000 0.00000000     weight = 0.00177778

band     1 # energy   -2.50077713 # occ.  1.00000000
 
ion      s     py     pz     px    dxy    dyz    dz2    dxz  x2-y2    tot
    1  0.364  0.000  0.000  0.003  0.000  0.000  0.000  0.000  0.000  0.367
    2  0.364  0.000  0.000  0.003  0.000  0.000  0.000  0.000  0.000  0.367
tot    0.728  0.000  0.000  0.007  0.000  0.000  0.000  0.000  0.000  0.734
 
band     2 # energy    1.03663750 # occ.  1.00000000
 
ion      s     py     pz     px    dxy    dyz    dz2    dxz  x2-y2    tot
    1  0.000  0.000  0.000  0.000  0.000  0.000  0.328  0.000  0.109  0.438
    2  0.000  0.000  0.000  0.000  0.000  0.000  0.328  0.000  0.109  0.438
tot    0.000  0.000  0.000  0.000  0.000  0.000  0.657  0.000  0.219  0.875
 
band     3 # energy    1.03837767 # occ.  1.00000000
 
ion      s     py     pz     px    dxy    dyz    dz2    dxz  x2-y2    tot
    1  0.000  0.000  0.000  0.002  0.000  0.000  0.109  0.000  0.326  0.437
    2  0.000  0.000  0.000  0.002  0.000  0.000  0.109  0.000  0.326  0.437
tot    0.000  0.000  0.000  0.005  0.000  0.000  0.217  0.000  0.652  0.875
 
band     4 # energy    3.55310713 # occ.  1.00000000
 
ion      s     py     pz     px    dxy    dyz    dz2    dxz  x2-y2    tot
    1  0.000  0.000  0.000  0.000  0.488  0.000  0.000  0.000  0.000  0.489
    2  0.000  0.000  0.000  0.000  0.488  0.000  0.000  0.000  0.000  0.489
tot    0.000  0.001  0.000  0.000  0.977  0.000  0.000  0.000  0.000  0.977
 
band     5 # energy    3.55310798 # occ.  1.00000000
 
ion      s     py     pz     px    dxy    dyz    dz2    dxz  x2-y2    tot
    1  0.000  0.000  0.000  0.000  0.000  0.000  0.000  0.488  0.000  0.489
    2  0.000  0.000  0.000  0.000  0.000  0.000  0.000  0.488  0.000  0.489
tot    0.000  0.000  0.001  0.000  0.000  0.000  0.000  0.977  0.000  0.977
 
band     6 # energy    3.57930472 # occ.  1.00000000
 
ion      s     py     pz     px    dxy    dyz    dz2    dxz  x2-y2    tot
    1  0.000  0.000  0.000  0.000  0.000  0.489  0.000  0.000  0.000  0.489
    2  0.000  0.000  0.000  0.000  0.000  0.489  0.000  0.000  0.000  0.489
tot    0.000  0.000  0.000  0.000  0.000  0.978  0.000  0.000  0.000  0.978
 
band     7 # energy    4.72802921 # occ.  1.00000000
 
ion      s     py     pz     px    dxy    dyz    dz2    dxz  x2-y2    tot
    1  0.000  0.000  0.000  0.000  0.000  0.000  0.363  0.000  0.121  0.484
    2  0.000  0.000  0.000  0.000  0.000  0.000  0.363  0.000  0.121  0.484
tot    0.000  0.000  0.000  0.000  0.000  0.000  0.726  0.000  0.242  0.968
 
band     8 # energy    4.78587569 # occ.  1.00000000
 
ion      s     py     pz     px    dxy    dyz    dz2    dxz  x2-y2    tot
    1  0.000  0.000  0.000  0.000  0.000  0.000  0.121  0.000  0.364  0.485
    2  0.000  0.000  0.000  0.000  0.000  0.000  0.121  0.000  0.364  0.485
tot    0.000  0.000  0.000  0.000  0.000  0.000  0.243  0.000  0.728  0.971
 
band     9 # energy    5.90578898 # occ.  0.30564286
 
ion      s     py     pz     px    dxy    dyz    dz2    dxz  x2-y2    tot
    1  0.000  0.002  0.000  0.000  0.491  0.000  0.000  0.000  0.000  0.493
    2  0.000  0.002  0.000  0.000  0.491  0.000  0.000  0.000  0.000  0.493
tot    0.000  0.004  0.000  0.000  0.981  0.000  0.000  0.000  0.000  0.985
 
band    10 # energy    5.90579053 # occ.  0.30563686
 
ion      s     py     pz     px    dxy    dyz    dz2    dxz  x2-y2    tot
    1  0.000  0.000  0.002  0.000  0.000  0.000  0.000  0.491  0.000  0.493
    2  0.000  0.000  0.002  0.000  0.000  0.000  0.000  0.491  0.000  0.493
tot    0.000  0.000  0.004  0.000  0.000  0.000  0.000  0.981  0.000  0.985
 
band    11 # energy    5.95668999 # occ.  0.13467504
 
ion      s     py     pz     px    dxy    dyz    dz2    dxz  x2-y2    tot
    1  0.000  0.000  0.000  0.000  0.000  0.494  0.000  0.000  0.000  0.494
    2  0.000  0.000  0.000  0.000  0.000  0.494  0.000  0.000  0.000  0.494
tot    0.000  0.000  0.000  0.000  0.000  0.987  0.000  0.000  0.000  0.987
 
band    12 # energy   15.14224914 # occ.  0.00000000
 
ion      s     py     pz     px    dxy    dyz    dz2    dxz  x2-y2    tot
    1  0.016  0.000  0.000  0.340  0.000  0.000  0.007  0.000  0.022  0.386
    2  0.016  0.000  0.000  0.340  0.000  0.000  0.007  0.000  0.022  0.386
tot    0.032  0.000  0.000  0.681  0.000  0.000  0.015  0.000  0.044  0.771
 
band    13 # energy   15.98812427 # occ.  0.00000000
 
ion      s     py     pz     px    dxy    dyz    dz2    dxz  x2-y2    tot
    1  0.000  0.372  0.000  0.000  0.007  0.000  0.000  0.000  0.000  0.379
    2  0.000  0.372  0.000  0.000  0.007  0.000  0.000  0.000  0.000  0.379
tot    0.000  0.744  0.000  0.000  0.014  0.000  0.000  0.000  0.000  0.758
 
band    14 # energy   15.98812444 # occ.  0.00000000
 
ion      s     py     pz     px    dxy    dyz    dz2    dxz  x2-y2    tot
    1  0.000  0.000  0.372  0.000  0.000  0.000  0.000  0.007  0.000  0.379
    2  0.000  0.000  0.372  0.000  0.000  0.000  0.000  0.007  0.000  0.379
tot    0.000  0.000  0.744  0.000  0.000  0.000  0.000  0.014  0.000  0.758
 
band    15 # energy   21.59083545 # occ.  0.00000000
 
ion      s     py     pz     px    dxy    dyz    dz2    dxz  x2-y2    tot
    1  0.000  0.000  0.000  0.000  0.000  0.000  0.347  0.000  0.116  0.463
    2  0.000  0.000  0.000  0.000  0.000  0.000  0.347  0.000  0.116  0.463
tot    0.000  0.000  0.000  0.000  0.000  0.000  0.695  0.000  0.232  0.926
 
band    16 # energy   22.07076186 # occ.  0.00000000
 
ion      s     py     pz     px    dxy    dyz    dz2    dxz  x2-y2    tot
    1  0.005  0.000  0.000  0.014  0.000  0.000  0.108  0.000  0.324  0.451
    2  0.005  0.000  0.000  0.014  0.000  0.000  0.108  0.000  0.324  0.451
tot    0.010  0.000  0.000  0.028  0.000  0.000  0.216  0.000  0.647  0.902
 
band    17 # energy   26.98323439 # occ.  0.00000000
 
ion      s     py     pz     px    dxy    dyz    dz2    dxz  x2-y2    tot
    1  0.369  0.000  0.000  0.020  0.000  0.000  0.001  0.000  0.002  0.392
    2  0.369  0.000  0.000  0.020  0.000  0.000  0.001  0.000  0.002  0.392
tot    0.738  0.000  0.000  0.040  0.000  0.000  0.001  0.000  0.004  0.784
 
band    18 # energy   30.27826015 # occ.  0.00000000
 
ion      s     py     pz     px    dxy    dyz    dz2    dxz  x2-y2    tot
    1  0.000  0.000  0.000  0.000  0.000  0.000  0.045  0.000  0.015  0.060
    2  0.000  0.000  0.000  0.000  0.000  0.000  0.045  0.000  0.015  0.060
tot    0.000  0.000  0.000  0.000  0.000  0.000  0.090  0.000  0.030  0.120
 
band    19 # energy   30.82893683 # occ.  0.00000000
 
ion      s     py     pz     px    dxy    dyz    dz2    dxz  x2-y2    tot
    1  0.000  0.001  0.000  0.000  0.036  0.000  0.000  0.000  0.000  0.037
    2  0.000  0.001  0.000  0.000  0.036  0.000  0.000  0.000  0.000  0.037
tot    0.000  0.002  0.000  0.000  0.072  0.000  0.000  0.000  0.000  0.074
 
band    20 # energy   30.82893690 # occ.  0.00000000
 
ion      s     py     pz     px    dxy    dyz    dz2    dxz  x2-y2    tot
    1  0.000  0.000  0.001  0.000  0.000  0.000  0.000  0.036  0.000  0.037
    2  0.000  0.000  0.001  0.000  0.000  0.000  0.000  0.036  0.000  0.037
tot    0.000  0.000  0.002  0.000  0.000  0.000  0.000  0.072  0.000  0.074
 

 k-point     3 :    0.13333333 0.00000000 0.00000000     weight = 0.00177778

band     1 # energy   -2.22661230 # occ.  1.00000000
 
ion      s     py     pz     px    dxy    dyz    dz2    dxz  x2-y2    tot
    1  0.354  0.000  0.000  0.013  0.000  0.000  0.000  0.000  0.000  0.367
    2  0.354  0.000  0.000  0.013  0.000  0.000  0.000  0.000  0.000  0.367
tot    0.708  0.000  0.000  0.026  0.000  0.000  0.000  0.000  0.001  0.735
 
band     2 # energy    1.15388803 # occ.  1.00000000
 
ion      s     py     pz     px    dxy    dyz    dz2    dxz  x2-y2    tot
    1  0.000  0.000  0.000  0.000  0.000  0.000  0.329  0.000  0.110  0.438
    2  0.000  0.000  0.000  0.000  0.000  0.000  0.329  0.000  0.110  0.438
tot    0.000  0.000  0.000  0.000  0.000  0.000  0.657  0.000  0.219  0.877
 
band     3 # energy    1.15466601 # occ.  1.00000000
 
ion      s     py     pz     px    dxy    dyz    dz2    dxz  x2-y2    tot
    1  0.001  0.000  0.000  0.010  0.000  0.000  0.107  0.000  0.320  0.437
    2  0.001  0.000  0.000  0.010  0.000  0.000  0.107  0.000  0.320  0.437
tot    0.001  0.000  0.000  0.019  0.000  0.000  0.213  0.000  0.640  0.874
 
band     4 # energy    3.55339653 # occ.  1.00000000
 
ion      s     py     pz     px    dxy    dyz    dz2    dxz  x2-y2    tot
    1  0.000  0.001  0.000  0.000  0.486  0.000  0.000  0.000  0.000  0.488
    2  0.000  0.001  0.000  0.000  0.486  0.000  0.000  0.000  0.000  0.488
tot    0.000  0.003  0.000  0.000  0.973  0.000  0.000  0.000  0.000  0.975
 
band     5 # energy    3.55339738 # occ.  1.00000000
 
ion      s     py     pz     px    dxy    dyz    dz2    dxz  x2-y2    tot
    1  0.000  0.000  0.001  0.000  0.000  0.000  0.000  0.486  0.000  0.488
    2  0.000  0.000  0.001  0.000  0.000  0.000  0.000  0.486  0.000  0.488
tot    0.000  0.000  0.003  0.000  0.000  0.000  0.000  0.973  0.000  0.975
 
band     6 # energy    3.65455372 # occ.  1.00000000
 
ion      s     py     pz     px    dxy    dyz    dz2    dxz  x2-y2    tot
    1  0.000  0.000  0.000  0.000  0.000  0.489  0.000  0.000  0.000  0.489
    2  0.000  0.000  0.000  0.000  0.000  0.489  0.000  0.000  0.000  0.489
tot    0.000  0.000  0.000  0.000  0.000  0.977  0.000  0.000  0.000  0.977
 
band     7 # energy    4.60542380 # occ.  1.00000000
 
ion      s     py     pz     px    dxy    dyz    dz2    dxz  x2-y2    tot
    1  0.000  0.000  0.000  0.000  0.000  0.000  0.361  0.000  0.120  0.482
    2  0.000  0.000  0.000  0.000  0.000  0.000  0.361  0.000  0.120  0.482
tot    0.000  0.000  0.000  0.000  0.000  0.000  0.722  0.000  0.241  0.963
 
band     8 # energy    4.83392584 # occ.  1.00000000
 
ion      s     py     pz     px    dxy    dyz    dz2    dxz  x2-y2    tot
    1  0.000  0.000  0.000  0.000  0.000  0.000  0.121  0.000  0.364  0.486
    2  0.000  0.000  0.000  0.000  0.000  0.000  0.121  0.000  0.364  0.486
tot    0.001  0.000  0.000  0.000  0.000  0.000  0.243  0.000  0.729  0.973
 
band     9 # energy    5.68958705 # occ.  1.00049350
 
ion      s     py     pz     px    dxy    dyz    dz2    dxz  x2-y2    tot
    1  0.000  0.007  0.000  0.000  0.482  0.000  0.000  0.000  0.000  0.489
    2  0.000  0.007  0.000  0.000  0.482  0.000  0.000  0.000  0.000  0.489
tot    0.000  0.014  0.000  0.000  0.964  0.000  0.000  0.000  0.000  0.979
 
band    10 # energy    5.68958852 # occ.  1.00049190
 
ion      s     py     pz     px    dxy    dyz    dz2    dxz  x2-y2    tot
    1  0.000  0.000  0.007  0.000  0.000  0.000  0.000  0.482  0.000  0.489
    2  0.000  0.000  0.007  0.000  0.000  0.000  0.000  0.482  0.000  0.489
tot    0.000  0.000  0.014  0.000  0.000  0.000  0.000  0.964  0.000  0.979
 
band    11 # energy    5.87515061 # occ.  0.42945754
 
ion      s     py     pz     px    dxy    dyz    dz2    dxz  x2-y2    tot
    1  0.000  0.000  0.000  0.000  0.000  0.493  0.000  0.000  0.000  0.493
    2  0.000  0.000  0.000  0.000  0.000  0.493  0.000  0.000  0.000  0.493
tot    0.000  0.000  0.000  0.000  0.000  0.986  0.000  0.000  0.000  0.986
 
band    12 # energy   13.66938140 # occ.  0.00000000
 
ion      s     py     pz     px    dxy    dyz    dz2    dxz  x2-y2    tot
    1  0.046  0.000  0.000  0.287  0.000  0.000  0.017  0.000  0.050  0.399
    2  0.046  0.000  0.000  0.287  0.000  0.000  0.017  0.000  0.050  0.399
tot    0.091  0.000  0.000  0.574  0.000  0.000  0.033  0.000  0.099  0.797
 
band    13 # energy   16.49530379 # occ.  0.00000000
 
ion      s     py     pz     px    dxy    dyz    dz2    dxz  x2-y2    tot
    1  0.000  0.361  0.000  0.000  0.026  0.000  0.000  0.000  0.000  0.387
    2  0.000  0.361  0.000  0.000  0.026  0.000  0.000  0.000  0.000  0.387
tot    0.000  0.722  0.000  0.000  0.051  0.000  0.000  0.000  0.000  0.773
 
band    14 # energy   16.49530405 # occ.  0.00000000
 
ion      s     py     pz     px    dxy    dyz    dz2    dxz  x2-y2    tot
    1  0.000  0.000  0.361  0.000  0.000  0.000  0.000  0.026  0.000  0.387
    2  0.000  0.000  0.361  0.000  0.000  0.000  0.000  0.026  0.000  0.387
tot    0.000  0.000  0.722  0.000  0.000  0.000  0.000  0.051  0.000  0.773
 
band    15 # energy   21.67241854 # occ.  0.00000000
 
ion      s     py     pz     px    dxy    dyz    dz2    dxz  x2-y2    tot
    1  0.000  0.000  0.000  0.000  0.000  0.000  0.343  0.000  0.114  0.457
    2  0.000  0.000  0.000  0.000  0.000  0.000  0.343  0.000  0.114  0.457
tot    0.000  0.000  0.000  0.000  0.000  0.000  0.686  0.000  0.229  0.915
 
band    16 # energy   22.93692746 # occ.  0.00000000
 
ion      s     py     pz     px    dxy    dyz    dz2    dxz  x2-y2    tot
    1  0.046  0.000  0.000  0.011  0.000  0.000  0.092  0.000  0.276  0.425
    2  0.046  0.000  0.000  0.011  0.000  0.000  0.092  0.000  0.276  0.425
tot    0.091  0.000  0.000  0.022  0.000  0.000  0.184  0.000  0.553  0.850
 
band    17 # energy   27.99302093 # occ.  0.00000000
 
ion      s     py     pz     px    dxy    dyz    dz2    dxz  x2-y2    tot
    1  0.296  0.000  0.000  0.072  0.000  0.000  0.007  0.000  0.022  0.398
    2  0.296  0.000  0.000  0.072  0.000  0.000  0.007  0.000  0.022  0.398
tot    0.592  0.000  0.000  0.144  0.000  0.000  0.015  0.000  0.044  0.795
 
band    18 # energy   29.01553668 # occ.  0.00000000
 
ion      s     py     pz     px    dxy    dyz    dz2    dxz  x2-y2    tot
    1  0.000  0.000  0.000  0.000  0.000  0.000  0.103  0.000  0.034  0.137
    2  0.000  0.000  0.000  0.000  0.000  0.000  0.103  0.000  0.034  0.137
tot    0.000  0.000  0.000  0.000  0.000  0.000  0.206  0.000  0.069  0.275
 
band    19 # energy   30.47316404 # occ.  0.00000000
 
ion      s     py     pz     px    dxy    dyz    dz2    dxz  x2-y2    tot
    1  0.000  0.016  0.000  0.000  0.140  0.000  0.000  0.000  0.000  0.156
    2  0.000  0.016  0.000  0.000  0.140  0.000  0.000  0.000  0.000  0.156
tot    0.000  0.031  0.000  0.000  0.280  0.000  0.000  0.000  0.000  0.312
 
band    20 # energy   30.47316435 # occ.  0.00000000
 
ion      s     py     pz     px    dxy    dyz    dz2    dxz  x2-y2    tot
    1  0.000  0.000  0.016  0.000  0.000  0.000  0.000  0.140  0.000  0.156
    2  0.000  0.000  0.016  0.000  0.000  0.000  0.000  0.140  0.000  0.156
tot    0.000  0.000  0.031  0.000  0.000  0.000  0.000  0.280  0.000  0.312
 

 k-point     4 :    0.20000000-0.00000000 0.00000000     weight = 0.00177778

band     1 # energy   -1.78266268 # occ.  1.00000000
 
ion      s     py     pz     px    dxy    dyz    dz2    dxz  x2-y2    tot
    1  0.337  0.000  0.000  0.029  0.000  0.000  0.001  0.000  0.002  0.368
    2  0.337  0.000  0.000  0.029  0.000  0.000  0.001  0.000  0.002  0.368
tot    0.674  0.000  0.000  0.057  0.000  0.000  0.001  0.000  0.003  0.736
 
band     2 # energy    1.32267947 # occ.  1.00000000
 
ion      s     py     pz     px    dxy    dyz    dz2    dxz  x2-y2    tot
    1  0.003  0.000  0.000  0.021  0.000  0.000  0.103  0.000  0.308  0.436
    2  0.003  0.000  0.000  0.021  0.000  0.000  0.103  0.000  0.308  0.436
tot    0.006  0.000  0.000  0.043  0.000  0.000  0.206  0.000  0.617  0.871
 
band     3 # energy    1.34462664 # occ.  1.00000000
 
ion      s     py     pz     px    dxy    dyz    dz2    dxz  x2-y2    tot
    1  0.000  0.000  0.000  0.000  0.000  0.000  0.330  0.000  0.110  0.439
    2  0.000  0.000  0.000  0.000  0.000  0.000  0.330  0.000  0.110  0.439
tot    0.000  0.000  0.000  0.000  0.000  0.000  0.659  0.000  0.220  0.879
 
band     4 # energy    3.56214475 # occ.  1.00000000
 
ion      s     py     pz     px    dxy    dyz    dz2    dxz  x2-y2    tot
    1  0.000  0.003  0.000  0.000  0.483  0.000  0.000  0.000  0.000  0.486
    2  0.000  0.003  0.000  0.000  0.483  0.000  0.000  0.000  0.000  0.486
tot    0.000  0.006  0.000  0.000  0.967  0.000  0.000  0.000  0.000  0.972
 
band     5 # energy    3.56214560 # occ.  1.00000000
 
ion      s     py     pz     px    dxy    dyz    dz2    dxz  x2-y2    tot
    1  0.000  0.000  0.003  0.000  0.000  0.000  0.000  0.483  0.000  0.486
    2  0.000  0.000  0.003  0.000  0.000  0.000  0.000  0.483  0.000  0.486
tot    0.000  0.000  0.006  0.000  0.000  0.000  0.000  0.967  0.000  0.972
 
band     6 # energy    3.77679069 # occ.  1.00000000
 
ion      s     py     pz     px    dxy    dyz    dz2    dxz  x2-y2    tot
    1  0.000  0.000  0.000  0.000  0.000  0.488  0.000  0.000  0.000  0.488
    2  0.000  0.000  0.000  0.000  0.000  0.488  0.000  0.000  0.000  0.488
tot    0.000  0.000  0.000  0.000  0.000  0.976  0.000  0.000  0.000  0.976
 
band     7 # energy    4.40637662 # occ.  1.00000000
 
ion      s     py     pz     px    dxy    dyz    dz2    dxz  x2-y2    tot
    1  0.000  0.000  0.000  0.000  0.000  0.000  0.358  0.000  0.119  0.478
    2  0.000  0.000  0.000  0.000  0.000  0.000  0.358  0.000  0.119  0.478
tot    0.000  0.000  0.000  0.000  0.000  0.000  0.716  0.000  0.239  0.955
 
band     8 # energy    4.91146723 # occ.  1.00000000
 
ion      s     py     pz     px    dxy    dyz    dz2    dxz  x2-y2    tot
    1  0.001  0.000  0.000  0.000  0.000  0.000  0.121  0.000  0.364  0.488
    2  0.001  0.000  0.000  0.000  0.000  0.000  0.121  0.000  0.364  0.488
tot    0.003  0.000  0.000  0.001  0.000  0.000  0.243  0.000  0.729  0.975
 
band     9 # energy    5.38235113 # occ.  1.00194369
 
ion      s     py     pz     px    dxy    dyz    dz2    dxz  x2-y2    tot
    1  0.000  0.013  0.000  0.000  0.473  0.000  0.000  0.000  0.000  0.486
    2  0.000  0.013  0.000  0.000  0.473  0.000  0.000  0.000  0.000  0.486
tot    0.000  0.025  0.000  0.000  0.946  0.000  0.000  0.000  0.000  0.971
 
band    10 # energy    5.38235249 # occ.  1.00194375
 
ion      s     py     pz     px    dxy    dyz    dz2    dxz  x2-y2    tot
    1  0.000  0.000  0.013  0.000  0.000  0.000  0.000  0.473  0.000  0.486
    2  0.000  0.000  0.013  0.000  0.000  0.000  0.000  0.473  0.000  0.486
tot    0.000  0.000  0.025  0.000  0.000  0.000  0.000  0.946  0.000  0.971
 
band    11 # energy    5.74320600 # occ.  0.90897415
 
ion      s     py     pz     px    dxy    dyz    dz2    dxz  x2-y2    tot
    1  0.000  0.000  0.000  0.000  0.000  0.492  0.000  0.000  0.000  0.492
    2  0.000  0.000  0.000  0.000  0.000  0.492  0.000  0.000  0.000  0.492
tot    0.000  0.000  0.000  0.000  0.000  0.983  0.000  0.000  0.000  0.983
 
band    12 # energy   11.97917607 # occ.  0.00000000
 
ion      s     py     pz     px    dxy    dyz    dz2    dxz  x2-y2    tot
    1  0.075  0.000  0.000  0.241  0.000  0.000  0.023  0.000  0.070  0.409
    2  0.075  0.000  0.000  0.241  0.000  0.000  0.023  0.000  0.070  0.409
tot    0.149  0.000  0.000  0.482  0.000  0.000  0.047  0.000  0.140  0.817
 
band    13 # energy   17.28379114 # occ.  0.00000000
 
ion      s     py     pz     px    dxy    dyz    dz2    dxz  x2-y2    tot
    1  0.000  0.346  0.000  0.000  0.052  0.000  0.000  0.000  0.000  0.398
    2  0.000  0.346  0.000  0.000  0.052  0.000  0.000  0.000  0.000  0.398
tot    0.000  0.691  0.000  0.000  0.104  0.000  0.000  0.000  0.000  0.796
 
band    14 # energy   17.28379153 # occ.  0.00000000
 
ion      s     py     pz     px    dxy    dyz    dz2    dxz  x2-y2    tot
    1  0.000  0.000  0.346  0.000  0.000  0.000  0.000  0.052  0.000  0.398
    2  0.000  0.000  0.346  0.000  0.000  0.000  0.000  0.052  0.000  0.398
tot    0.000  0.000  0.691  0.000  0.000  0.000  0.000  0.104  0.000  0.796
 
band    15 # energy   21.81131495 # occ.  0.00000000
 
ion      s     py     pz     px    dxy    dyz    dz2    dxz  x2-y2    tot
    1  0.000  0.000  0.000  0.000  0.000  0.000  0.336  0.000  0.112  0.448
    2  0.000  0.000  0.000  0.000  0.000  0.000  0.336  0.000  0.112  0.448
tot    0.000  0.000  0.000  0.000  0.000  0.000  0.672  0.000  0.224  0.896
 
band    16 # energy   23.57295596 # occ.  0.00000000
 
ion      s     py     pz     px    dxy    dyz    dz2    dxz  x2-y2    tot
    1  0.105  0.000  0.000  0.000  0.000  0.000  0.071  0.000  0.213  0.389
    2  0.105  0.000  0.000  0.000  0.000  0.000  0.071  0.000  0.213  0.389
tot    0.209  0.000  0.000  0.001  0.000  0.000  0.142  0.000  0.426  0.778
 
band    17 # energy   27.69212909 # occ.  0.00000000
 
ion      s     py     pz     px    dxy    dyz    dz2    dxz  x2-y2    tot
    1  0.000  0.000  0.000  0.000  0.000  0.000  0.146  0.000  0.049  0.195
    2  0.000  0.000  0.000  0.000  0.000  0.000  0.146  0.000  0.049  0.195
tot    0.000  0.000  0.000  0.000  0.000  0.000  0.292  0.000  0.097  0.390
 
band    18 # energy   29.63670781 # occ.  0.00000000
 
ion      s     py     pz     px    dxy    dyz    dz2    dxz  x2-y2    tot
    1  0.000  0.060  0.000  0.000  0.252  0.000  0.000  0.000  0.000  0.312
    2  0.000  0.060  0.000  0.000  0.252  0.000  0.000  0.000  0.000  0.312
tot    0.000  0.120  0.000  0.000  0.504  0.000  0.000  0.000  0.000  0.625
 
band    19 # energy   29.63670841 # occ.  0.00000000
 
ion      s     py     pz     px    dxy    dyz    dz2    dxz  x2-y2    tot
    1  0.000  0.000  0.060  0.000  0.000  0.000  0.000  0.252  0.000  0.312
    2  0.000  0.000  0.060  0.000  0.000  0.000  0.000  0.252  0.000  0.312
tot    0.000  0.000  0.120  0.000  0.000  0.000  0.000  0.504  0.000  0.625
 
band    20 # energy   29.77190801 # occ.  0.00000000
 
ion      s     py     pz     px    dxy    dyz    dz2    dxz  x2-y2    tot
    1  0.202  0.000  0.000  0.120  0.000  0.000  0.021  0.000  0.064  0.408
    2  0.202  0.000  0.000  0.120  0.000  0.000  0.021  0.000  0.064  0.408
tot    0.404  0.000  0.000  0.240  0.000  0.000  0.043  0.000  0.129  0.816
 

 k-point     5 :    0.26666667 0.00000000 0.00000000     weight = 0.00177778

band     1 # energy   -1.19140372 # occ.  1.00000000
 
ion      s     py     pz     px    dxy    dyz    dz2    dxz  x2-y2    tot
    1  0.312  0.000  0.000  0.049  0.000  0.000  0.002  0.000  0.006  0.369
    2  0.312  0.000  0.000  0.049  0.000  0.000  0.002  0.000  0.006  0.369
tot    0.625  0.000  0.000  0.097  0.000  0.000  0.004  0.000  0.012  0.738
 
band     2 # energy    1.50203478 # occ.  1.00000000
 
ion      s     py     pz     px    dxy    dyz    dz2    dxz  x2-y2    tot
    1  0.009  0.000  0.000  0.037  0.000  0.000  0.096  0.000  0.289  0.432
    2  0.009  0.000  0.000  0.037  0.000  0.000  0.096  0.000  0.289  0.432
tot    0.019  0.000  0.000  0.075  0.000  0.000  0.193  0.000  0.578  0.865
 
band     3 # energy    1.60181520 # occ.  1.00000000
 