<?xml version="1.0" encoding="ISO-8859-1"?>
<modeling>
 <generator>
  <i name="program" type="string">vasp </i>
  <i name="version" type="string">6.2.0  </i>
  <i name="subversion" type="string">18Jan21 (build Aug 12 2022 13:00:08) complex                          parallel </i>
  <i name="platform" type="string">LinuxIFC </i>
  <i name="date" type="string">2024 11 04 </i>
  <i name="time" type="string">06:49:05 </i>
 </generator>
 <incar>
  <i type="int" name="ISTART">     0</i>
  <i type="string" name="PREC">Accurate      (Accurate strictly avoids</i>
  <i type="logical" name="ADDGRID"> T  </i>
  <i type="int" name="ISPIN">     2</i>
  <i type="int" name="NELM">    90</i>
  <i type="int" name="NELMIN">     6</i>
  <i type="int" name="IBRION">     2</i>
  <i name="EDIFF">      0.00000100</i>
  <i name="EDIFFG">     -0.00200000</i>
  <i type="int" name="NSW">   100</i>
  <i type="int" name="ISIF">     3</i>
  <i type="int" name="ISYM">     2</i>
  <i name="ENCUT">    300.00000000</i>
  <v name="MAGMOM">      5.00000000      5.00000000</v>
  <i type="logical" name="LREAL"> F  </i>
  <i type="int" name="ISMEAR">     1</i>
  <i name="SIGMA">      0.20000000</i>
  <i type="int" name="LMAXMIX">     4</i>
  <i type="int" name="LORBIT">    11</i>
  <i type="logical" name="LASPH"> T  </i>
  <i type="logical" name="GGA_COMPAT"> F  </i>
  <i type="int" name="VOSKOWN">     1</i>
 </incar>
 <primitive_cell>
  <structure name="primitive_cell" >
   <crystal>
    <varray name="basis" >
     <v>       1.43151775       1.43151775      -1.43151775 </v>
     <v>      -1.43151775       1.43151775       1.43151775 </v>
     <v>       1.43151775      -1.43151775       1.43151775 </v>
    </varray>
    <i name="volume">     11.73411129 </i>
    <varray name="rec_basis" >
     <v>       0.34927964       0.34927964       0.00000000 </v>
     <v>       0.00000000       0.34927964       0.34927964 </v>
     <v>       0.34927964      -0.00000000       0.34927964 </v>
    </varray>
   </crystal>
   <varray name="positions" >
    <v>       0.00000000       0.00000000       0.00000000 </v>
   </varray>
  </structure>
  <varray name="primitive_index" >
   <v type="int" >        1 </v>
  </varray>
 </primitive_cell>
 <kpoints>
  <generation param="Monkhorst-Pack">
   <v type="int" name="divisions">      15       15       15 </v>
   <v name="usershift">      0.00000000       0.00000000       0.00000000 </v>
   <v name="genvec1">      0.06666667       0.00000000       0.00000000 </v>
   <v name="genvec2">      0.00000000       0.06666667       0.00000000 </v>
   <v name="genvec3">      0.00000000       0.00000000       0.06666667 </v>
   <v name="shift">      0.00000000       0.00000000       0.00000000 </v>
  </generation>
  <varray name="kpointlist" >
   <v>       0.00000000       0.00000000       0.00000000 </v>
   <v>       0.06666667       0.00000000       0.00000000 </v>
   <v>       0.13333333       0.00000000       0.00000000 </v>
   <v>       0.20000000      -0.00000000       0.00000000 </v>
   <v>       0.26666667       0.00000000       0.00000000 </v>
   <v>       0.33333333       0.00000000       0.00000000 </v>
   <v>       0.40000000       0.00000000       0.00000000 </v>
   <v>       0.46666667      -0.00000000       0.00000000 </v>
   <v>       0.06666667       0.06666667       0.00000000 </v>
   <v>       0.13333333       0.06666667       0.00000000 </v>
   <v>       0.20000000       0.06666667       0.00000000 </v>
   <v>       0.26666667       0.06666667       0.00000000 </v>
   <v>       0.33333333       0.06666667       0.00000000 </v>
   <v>       0.40000000       0.06666667       0.00000000 </v>
   <v>       0.46666667       0.06666667       0.00000000 </v>
   <v>       0.13333333       0.13333333       0.00000000 </v>
   <v>       0.20000000       0.13333333       0.00000000 </v>
   <v>       0.26666667       0.13333333       0.00000000 </v>
   <v>       0.33333333       0.13333333       0.00000000 </v>
   <v>       0.40000000       0.13333333       0.00000000 </v>
   <v>       0.46666667       0.13333333       0.00000000 </v>
   <v>       0.20000000       0.20000000       0.00000000 </v>
   <v>       0.26666667       0.20000000       0.00000000 </v>
   <v>       0.33333333       0.20000000       0.00000000 </v>
   <v>       0.40000000       0.20000000       0.00000000 </v>
   <v>       0.46666667       0.20000000       0.00000000 </v>
   <v>       0.26666667       0.26666667       0.00000000 </v>
   <v>       0.33333333       0.26666667       0.00000000 </v>
   <v>       0.40000000       0.26666667       0.00000000 </v>
   <v>       0.46666667       0.26666667       0.00000000 </v>
   <v>       0.33333333       0.33333333       0.00000000 </v>
   <v>       0.40000000       0.33333333       0.00000000 </v>
   <v>       0.46666667       0.33333333       0.00000000 </v>
   <v>       0.40000000       0.40000000       0.00000000 </v>
   <v>       0.46666667       0.40000000       0.00000000 </v>
   <v>       0.46666667       0.46666667       0.00000000 </v>
   <v>       0.06666667       0.06666667       0.06666667 </v>
   <v>       0.13333333       0.06666667       0.06666667 </v>
   <v>       0.20000000       0.06666667       0.06666667 </v>
   <v>       0.26666667       0.06666667       0.06666667 </v>
   <v>       0.33333333       0.06666667       0.06666667 </v>
   <v>       0.40000000       0.06666667       0.06666667 </v>
   <v>       0.46666667       0.06666667       0.06666667 </v>
   <v>       0.13333333       0.13333333       0.06666667 </v>
   <v>       0.20000000       0.13333333       0.06666667 </v>
   <v>       0.26666667       0.13333333       0.06666667 </v>
   <v>       0.33333333       0.13333333       0.06666667 </v>
   <v>       0.40000000       0.13333333       0.06666667 </v>
   <v>       0.46666667       0.13333333       0.06666667 </v>
   <v>       0.20000000       0.20000000       0.06666667 </v>
   <v>       0.26666667       0.20000000       0.06666667 </v>
   <v>       0.33333333       0.20000000       0.06666667 </v>
   <v>       0.40000000       0.20000000       0.06666667 </v>
   <v>       0.46666667       0.20000000       0.06666667 </v>
   <v>       0.26666667       0.26666667       0.06666667 </v>
   <v>       0.33333333       0.26666667       0.06666667 </v>
   <v>       0.40000000       0.26666667       0.06666667 </v>
   <v>       0.46666667       0.26666667       0.06666667 </v>
   <v>       0.33333333       0.33333333       0.06666667 </v>
   <v>       0.40000000       0.33333333       0.06666667 </v>
   <v>       0.46666667       0.33333333       0.06666667 </v>
   <v>       0.40000000       0.40000000       0.06666667 </v>
   <v>       0.46666667       0.40000000       0.06666667 </v>
   <v>       0.46666667       0.46666667       0.06666667 </v>
   <v>       0.13333333       0.13333333       0.13333333 </v>
   <v>       0.20000000       0.13333333       0.13333333 </v>
   <v>       0.26666667       0.13333333       0.13333333 </v>
   <v>       0.33333333       0.13333333       0.13333333 </v>
   <v>       0.40000000       0.13333333       0.13333333 </v>
   <v>       0.46666667       0.13333333       0.13333333 </v>
   <v>       0.20000000       0.20000000       0.13333333 </v>
   <v>       0.26666667       0.20000000       0.13333333 </v>
   <v>       0.33333333       0.20000000       0.13333333 </v>
   <v>       0.40000000       0.20000000       0.13333333 </v>
   <v>       0.46666667       0.20000000       0.13333333 </v>
   <v>       0.26666667       0.26666667       0.13333333 </v>
   <v>       0.33333333       0.26666667       0.13333333 </v>
   <v>       0.40000000       0.26666667       0.13333333 </v>
   <v>       0.46666667       0.26666667       0.13333333 </v>
   <v>       0.33333333       0.33333333       0.13333333 </v>
   <v>       0.40000000       0.33333333       0.13333333 </v>
   <v>       0.46666667       0.33333333       0.13333333 </v>
   <v>       0.40000000       0.40000000       0.13333333 </v>
   <v>       0.46666667       0.40000000       0.13333333 </v>
   <v>       0.46666667       0.46666667       0.13333333 </v>
   <v>       0.20000000       0.20000000       0.20000000 </v>
   <v>       0.26666667       0.20000000       0.20000000 </v>
   <v>       0.33333333       0.20000000       0.20000000 </v>
   <v>       0.40000000       0.20000000       0.20000000 </v>
   <v>       0.46666667       0.20000000       0.20000000 </v>
   <v>       0.26666667       0.26666667       0.20000000 </v>
   <v>       0.33333333       0.26666667       0.20000000 </v>
   <v>       0.40000000       0.26666667       0.20000000 </v>
   <v>       0.46666667       0.26666667       0.20000000 </v>
   <v>       0.33333333       0.33333333       0.20000000 </v>
   <v>       0.40000000       0.33333333       0.20000000 </v>
   <v>       0.46666667       0.33333333       0.20000000 </v>
   <v>       0.40000000       0.40000000       0.20000000 </v>
   <v>       0.46666667       0.40000000       0.20000000 </v>
   <v>       0.46666667       0.46666667       0.20000000 </v>
   <v>       0.26666667       0.26666667       0.26666667 </v>
   <v>       0.33333333       0.26666667       0.26666667 </v>
   <v>       0.40000000       0.26666667       0.26666667 </v>
   <v>       0.46666667       0.26666667       0.26666667 </v>
   <v>       0.33333333       0.33333333       0.26666667 </v>
   <v>       0.40000000       0.33333333       0.26666667 </v>
   <v>       0.46666667       0.33333333       0.26666667 </v>
   <v>       0.40000000       0.40000000       0.26666667 </v>
   <v>       0.46666667       0.40000000       0.26666667 </v>
   <v>       0.46666667       0.46666667       0.26666667 </v>
   <v>       0.33333333       0.33333333       0.33333333 </v>
   <v>       0.40000000       0.33333333       0.33333333 </v>
   <v>       0.46666667       0.33333333       0.33333333 </v>
   <v>       0.40000000       0.40000000       0.33333333 </v>
   <v>       0.46666667       0.40000000       0.33333333 </v>
   <v>       0.46666667       0.46666667       0.33333333 </v>
   <v>       0.40000000       0.40000000       0.40000000 </v>
   <v>       0.46666667       0.40000000       0.40000000 </v>
   <v>       0.46666667       0.46666667       0.40000000 </v>
   <v>       0.46666667       0.46666667       0.46666667 </v>
  </varray>
  <varray name="weights" >
   <v>       0.00029630 </v>
   <v>       0.00177778 </v>
   <v>       0.00177778 </v>
   <v>       0.00177778 </v>
   <v>       0.00177778 </v>
   <v>       0.00177778 </v>
   <v>       0.00177778 </v>
   <v>       0.00177778 </v>
   <v>       0.00355556 </v>
   <v>       0.00711111 </v>
   <v>       0.00711111 </v>
   <v>       0.00711111 </v>
   <v>       0.00711111 </v>
   <v>       0.00711111 </v>
   <v>       0.00711111 </v>
   <v>       0.00355556 </v>
   <v>       0.00711111 </v>
   <v>       0.00711111 </v>
   <v>       0.00711111 </v>
   <v>       0.00711111 </v>
   <v>       0.00711111 </v>
   <v>       0.00355556 </v>
   <v>       0.00711111 </v>
   <v>       0.00711111 </v>
   <v>       0.00711111 </v>
   <v>       0.00711111 </v>
   <v>       0.00355556 </v>
   <v>       0.00711111 </v>
   <v>       0.00711111 </v>
   <v>       0.00711111 </v>
   <v>       0.00355556 </v>
   <v>       0.00711111 </v>
   <v>       0.00711111 </v>
   <v>       0.00355556 </v>
   <v>       0.00711111 </v>
   <v>       0.00355556 </v>
   <v>       0.00237037 </v>
   <v>       0.00711111 </v>
   <v>       0.00711111 </v>
   <v>       0.00711111 </v>
   <v>       0.00711111 </v>
   <v>       0.00711111 </v>
   <v>       0.00711111 </v>
   <v>       0.00711111 </v>
   <v>       0.01422222 </v>
   <v>       0.01422222 </v>
   <v>       0.01422222 </v>
   <v>       0.01422222 </v>
   <v>       0.01422222 </v>
   <v>       0.00711111 </v>
   <v>       0.01422222 </v>
   <v>       0.01422222 </v>
   <v>       0.01422222 </v>
   <v>       0.01422222 </v>
   <v>       0.00711111 </v>
   <v>       0.01422222 </v>
   <v>       0.01422222 </v>
   <v>       0.01422222 </v>
   <v>       0.00711111 </v>
   <v>       0.01422222 </v>
   <v>       0.01422222 </v>
   <v>       0.00711111 </v>
   <v>       0.01422222 </v>
   <v>       0.00711111 </v>
   <v>       0.00237037 </v>
   <v>       0.00711111 </v>
   <v>       0.00711111 </v>
   <v>       0.00711111 </v>
   <v>       0.00711111 </v>
   <v>       0.00711111 </v>
   <v>       0.00711111 </v>
   <v>       0.01422222 </v>
   <v>       0.01422222 </v>
   <v>       0.01422222 </v>
   <v>       0.01422222 </v>
   <v>       0.00711111 </v>
   <v>       0.01422222 </v>
   <v>       0.01422222 </v>
   <v>       0.01422222 </v>
   <v>       0.00711111 </v>
   <v>       0.01422222 </v>
   <v>       0.01422222 </v>
   <v>       0.00711111 </v>
   <v>       0.01422222 </v>
   <v>       0.00711111 </v>
   <v>       0.00237037 </v>
   <v>       0.00711111 </v>
   <v>       0.00711111 </v>
   <v>       0.00711111 </v>
   <v>       0.00711111 </v>
   <v>       0.00711111 </v>
   <v>       0.01422222 </v>
   <v>       0.01422222 </v>
   <v>       0.01422222 </v>
   <v>       0.00711111 </v>
   <v>       0.01422222 </v>
   <v>       0.01422222 </v>
   <v>       0.00711111 </v>
   <v>       0.01422222 </v>
   <v>       0.00711111 </v>
   <v>       0.00237037 </v>
   <v>       0.00711111 </v>
   <v>       0.00711111 </v>
   <v>       0.00711111 </v>
   <v>       0.00711111 </v>
   <v>       0.01422222 </v>
   <v>       0.01422222 </v>
   <v>       0.00711111 </v>
   <v>       0.01422222 </v>
   <v>       0.00711111 </v>
   <v>       0.00237037 </v>
   <v>       0.00711111 </v>
   <v>       0.00711111 </v>
   <v>       0.00711111 </v>
   <v>       0.01422222 </v>
   <v>       0.00711111 </v>
   <v>       0.00237037 </v>
   <v>       0.00711111 </v>
   <v>       0.00711111 </v>
   <v>       0.00237037 </v>
  </varray>
 </kpoints>
 <parameters>
  <separator name="general" >
   <i type="string" name="SYSTEM">unknown system</i>
   <i type="logical" name="LCOMPAT"> F  </i>
  </separator>
  <separator name="electronic" >
   <i type="string" name="PREC">accura</i>
   <i name="ENMAX">    300.00000000</i>
   <i name="ENAUG">    511.36800000</i>
   <i name="EDIFF">      0.00000100</i>
   <i type="int" name="IALGO">    38</i>
   <i type="int" name="IWAVPR">    11</i>
   <i type="int" name="NBANDS">    20</i>
   <i type="int" name="NBANDSLOW">    -1</i>
   <i type="int" name="NBANDSHIGH">    -1</i>
   <i name="NELECT">     16.00000000</i>
   <i type="int" name="TURBO">     0</i>
   <i type="int" name="IRESTART">     0</i>
   <i type="int" name="NREBOOT">     0</i>
   <i type="int" name="NMIN">     0</i>
   <i name="EREF">      0.00000000</i>
   <separator name="electronic smearing" >
    <i type="int" name="ISMEAR">     1</i>
    <i name="SIGMA">      0.20000000</i>
    <i name="KSPACING">      0.50000000</i>
    <i type="logical" name="KGAMMA"> T  </i>
    <i type="logical" name="KBLOWUP"> T  </i>
   </separator>
   <separator name="electronic projectors" >
    <i type="logical" name="LREAL"> F  </i>
    <v name="ROPT">      0.00000000</v>
    <i type="int" name="LMAXPAW">  -100</i>
    <i type="int" name="LMAXMIX">     4</i>
    <i type="logical" name="NLSPLINE"> F  </i>
   </separator>
   <separator name="electronic startup" >
    <i type="int" name="ISTART">     0</i>
    <i type="int" name="ICHARG">     2</i>
    <i type="int" name="INIWAV">     1</i>
   </separator>
   <separator name="electronic spin" >
    <i type="int" name="ISPIN">     2</i>
    <i type="logical" name="LNONCOLLINEAR"> F  </i>
    <v name="MAGMOM">      5.00000000      5.00000000</v>
    <i name="NUPDOWN">     -1.00000000</i>
    <i type="logical" name="LSORBIT"> F  </i>
    <v name="SAXIS">      0.00000000      0.00000000      1.00000000</v>
    <i type="logical" name="LSPIRAL"> F  </i>
    <v name="QSPIRAL">      0.00000000      0.00000000      0.00000000</v>
    <i type="logical" name="LZEROZ"> F  </i>
   </separator>
   <separator name="electronic exchange-correlation" >
    <i type="logical" name="LASPH"> T  </i>
    <i type="logical" name="LMETAGGA"> F  </i>
   </separator>
   <separator name="electronic convergence" >
    <i type="int" name="NELM">    90</i>
    <i type="int" name="NELMDL">    -5</i>
    <i type="int" name="NELMIN">     6</i>
    <i name="ENINI">    300.00000000</i>
    <separator name="electronic convergence detail" >
     <i type="logical" name="LDIAG"> T  </i>
     <i type="logical" name="LSUBROT"> F  </i>
     <i name="WEIMIN">      0.00100000</i>
     <i name="EBREAK">      0.00000001</i>
     <i name="DEPER">      0.30000000</i>
     <i type="int" name="NRMM">     4</i>
     <i name="TIME">      0.40000000</i>
    </separator>
   </separator>
   <separator name="electronic mixer" >
    <i name="AMIX">      0.40000000</i>
    <i name="BMIX">      1.00000000</i>
    <i name="AMIN">      0.10000000</i>
    <i name="AMIX_MAG">      1.60000000</i>
    <i name="BMIX_MAG">      1.00000000</i>
    <separator name="electronic mixer details" >
     <i type="int" name="IMIX">     4</i>
     <i type="logical" name="MIXFIRST"> F  </i>
     <i type="int" name="MAXMIX">   -45</i>
     <i name="WC">    100.00000000</i>
     <i type="int" name="INIMIX">     1</i>
     <i type="int" name="MIXPRE">     1</i>
     <i type="int" name="MREMOVE">     5</i>
    </separator>
   </separator>
   <separator name="electronic dipolcorrection" >
    <i type="logical" name="LDIPOL"> F  </i>
    <i type="logical" name="LMONO"> F  </i>
    <i type="int" name="IDIPOL">     0</i>
    <i name="EPSILON">      1.00000000</i>
    <v name="DIPOL">   -100.00000000   -100.00000000   -100.00000000</v>
    <i name="EFIELD">      0.00000000</i>
   </separator>
  </separator>
  <separator name="grids" >
   <i type="int" name="NGX">    16</i>
   <i type="int" name="NGY">    16</i>
   <i type="int" name="NGZ">    16</i>
   <i type="int" name="NGXF">    32</i>
   <i type="int" name="NGYF">    32</i>
   <i type="int" name="NGZF">    32</i>
   <i type="logical" name="ADDGRID"> T  </i>
  </separator>
  <separator name="ionic" >
   <i type="int" name="NSW">   100</i>
   <i type="int" name="IBRION">     2</i>
   <i type="int" name="MDALGO">     0</i>
   <i type="int" name="ISIF">     3</i>
   <i name="PSTRESS">      0.00000000</i>
   <i name="EDIFFG">     -0.00200000</i>
   <i type="int" name="NFREE">     1</i>
   <i name="POTIM">      0.50000000</i>
   <i name="SMASS">     -3.00000000</i>
   <i name="SCALEE">      1.00000000</i>
  </separator>
  <separator name="ionic md" >
   <i name="TEBEG">      0.00010000</i>
   <i name="TEEND">      0.00010000</i>
   <i type="int" name="NBLOCK">     1</i>
   <i type="int" name="KBLOCK">   100</i>
   <i type="int" name="NPACO">   256</i>
   <i name="APACO">     16.00000000</i>
  </separator>
  <separator name="symmetry" >
   <i type="int" name="ISYM">     2</i>
   <i name="SYMPREC">      0.00001000</i>
  </separator>
  <separator name="dos" >
   <i type="int" name="LORBIT">    11</i>
   <v name="RWIGS">     -1.00000000</v>
   <i type="int" name="NEDOS">   301</i>
   <i name="EMIN">     10.00000000</i>
   <i name="EMAX">    -10.00000000</i>
   <i name="EFERMI">      0.00000000</i>
  </separator>
  <separator name="writing" >
   <i type="int" name="NWRITE">     2</i>
   <i type="logical" name="LWAVE"> T  </i>
   <i type="logical" name="LDOWNSAMPLE"> F  </i>
   <i type="logical" name="LCHARG"> T  </i>
   <i type="logical" name="LPARD"> F  </i>
   <i type="logical" name="LVTOT"> F  </i>
   <i type="logical" name="LVHAR"> F  </i>
   <i type="logical" name="LELF"> F  </i>
   <i type="logical" name="LOPTICS"> F  </i>
   <v name="STM">      0.00000000      0.00000000      0.00000000      0.00000000      0.00000000      0.00000000      0.00000000</v>
  </separator>
  <separator name="performance" >
   <i type="int" name="NPAR">     4</i>
   <i type="int" name="NSIM">     4</i>
   <i type="int" name="NBLK">    -1</i>
   <i type="logical" name="LPLANE"> T  </i>
   <i type="logical" name="LSCALAPACK"> T  </i>
   <i type="logical" name="LSCAAWARE"> F  </i>
   <i type="logical" name="LSCALU"> F  </i>
   <i type="logical" name="LASYNC"> F  </i>
   <i type="logical" name="LORBITALREAL"> F  </i>
  </separator>
  <separator name="miscellaneous" >
   <i type="int" name="IDIOT">     3</i>
   <i type="int" name="PHON_NSTRUCT">    -1</i>
   <i type="logical" name="LMUSIC"> F  </i>
   <v name="POMASS">     55.84700000</v>
   <v name="DARWINR">      0.00000000</v>
   <v name="DARWINV">      1.00000000</v>
   <i type="logical" name="LCORR"> T  </i>
  </separator>
  <i type="logical" name="GGA_COMPAT"> F  </i>
  <i type="logical" name="LBERRY"> F  </i>
  <i type="int" name="ICORELEVEL">     0</i>
  <i type="logical" name="LDAU"> F  </i>
  <i type="int" name="I_CONSTRAINED_M">     0</i>
  <separator name="electronic exchange-correlation" >
   <i type="string" name="GGA">--</i>
   <i type="int" name="VOSKOWN">     1</i>
   <i type="logical" name="LHFCALC"> F  </i>
   <i type="string" name="PRECFOCK"></i>
   <i type="logical" name="LSYMGRAD"> F  </i>
   <i type="logical" name="LHFONE"> F  </i>
   <i type="logical" name="LRHFCALC"> F  </i>
   <i type="logical" name="LTHOMAS"> F  </i>
   <i type="logical" name="LMODELHF"> F  </i>
   <i type="logical" name="LFOCKACE"> F  </i>
   <i name="ENCUT4O">     -1.00000000</i>
   <i type="int" name="EXXOEP">     0</i>
   <i type="int" name="FOURORBIT">     0</i>
   <i name="AEXX">      0.00000000</i>
   <i name="HFALPHA">      0.00000000</i>
   <i name="MCALPHA">      0.00000000</i>
   <i name="ALDAX">      1.00000000</i>
   <i name="AGGAX">      1.00000000</i>
   <i name="ALDAC">      1.00000000</i>
   <i name="AGGAC">      1.00000000</i>
   <i type="int" name="NKREDX">     1</i>
   <i type="int" name="NKREDY">     1</i>
   <i type="int" name="NKREDZ">     1</i>
   <i type="logical" name="SHIFTRED"> F  </i>
   <i type="logical" name="ODDONLY"> F  </i>
   <i type="logical" name="EVENONLY"> F  </i>
   <i type="int" name="LMAXFOCK">     0</i>
   <i type="int" name="NMAXFOCKAE">     0</i>
   <i type="logical" name="LFOCKAEDFT"> F  </i>
   <i name="HFSCREEN">      0.00000000</i>
   <i name="HFSCREENC">      0.00000000</i>
   <i type="int" name="NBANDSGWLOW">     0</i>
  </separator>
  <separator name="vdW DFT" >
   <i type="logical" name="LUSE_VDW"> F  </i>
   <i name="Zab_VDW">     -0.84910000</i>
   <i name="PARAM1">      0.12340000</i>
   <i name="PARAM2">      1.00000000</i>
   <i name="PARAM3">      0.00000000</i>
  </separator>
  <separator name="model GW" >
   <i type="int" name="MODEL_GW">     0</i>
   <i name="MODEL_EPS0">      7.04046678</i>
   <i name="MODEL_ALPHA">      1.00000000</i>
  </separator>
  <separator name="linear response parameters" >
   <i type="logical" name="LEPSILON"> F  </i>
   <i type="logical" name="LRPA"> F  </i>
   <i type="logical" name="LNABLA"> F  </i>
   <i type="logical" name="LVEL"> F  </i>
   <i type="int" name="KINTER">     0</i>
   <i name="CSHIFT">      0.10000000</i>
   <i name="OMEGAMAX">     -1.00000000</i>
   <i name="DEG_THRESHOLD">      0.00200000</i>
   <i name="RTIME">     -0.10000000</i>
   <i name="WPLASMAI">      0.00000000</i>
   <v name="DFIELD">      0.00000000      0.00000000      0.00000000</v>
   <v name="WPLASMA">      0.00000000      0.00000000      0.00000000      0.00000000      0.00000000      0.00000000      0.00000000      0.00000000      0.00000000</v>
  </separator>
  <separator name="orbital magnetization" >
   <i type="logical" name="NUCIND"> F  </i>
   <v name="MAGPOS">      0.00000000      0.00000000      0.00000000</v>
   <i type="logical" name="LNICSALL"> T  </i>
   <i type="logical" name="ORBITALMAG"> F  </i>
   <i type="logical" name="LMAGBLOCH"> F  </i>
   <i type="logical" name="LCHIMAG"> F  </i>
   <i type="logical" name="LGAUGE"> T  </i>
   <i type="int" name="MAGATOM">     0</i>
   <v name="MAGDIPOL">      0.00000000      0.00000000      0.00000000</v>
   <v name="AVECCONST">      0.00000000      0.00000000      0.00000000</v>
  </separator>
  <separator name="response functions" >
   <i type="logical" name="LFINITE_TEMPERATURE"> F  </i>
   <i type="logical" name="LADDER"> F  </i>
   <i type="logical" name="LRPAFORCE"> F  </i>
   <i type="logical" name="LFXC"> F  </i>
   <i type="logical" name="LHARTREE"> T  </i>
   <i type="int" name="IBSE">     0</i>
   <v type="int" name="KPOINT">    -1     0     0     0</v>
   <i type="logical" name="LTCTC"> F  </i>
   <i type="logical" name="LTCTE"> F  </i>
   <i type="logical" name="LTETE"> F  </i>
   <i type="logical" name="LTRIPLET"> F  </i>
   <i type="logical" name="LFXCEPS"> F  </i>
   <i type="logical" name="LFXHEG"> F  </i>
   <i type="int" name="NATURALO">     2</i>
   <i type="logical" name="LHOLEGF"> F  </i>
   <i type="logical" name="L2ORDER"> F  </i>
   <i type="logical" name="LDMP1"> F  </i>
   <i type="logical" name="LMP2LT"> F  </i>
   <i type="logical" name="LSMP2LT"> F  </i>
   <i type="logical" name="LGWLF"> F  </i>
   <i name="ENCUTGW">     -2.00000000</i>
   <i name="ENCUTGWSOFT">     -2.00000000</i>
   <i name="ENCUTLF">     -1.00000000</i>
   <i type="logical" name="LESF_SPLINES"> F  </i>
   <i type="int" name="LMAXMP2">    -1</i>
   <i name="SCISSOR">      0.00000000</i>
   <i type="int" name="NOMEGA">     0</i>
   <i type="int" name="NOMEGAR">     0</i>
   <i type="int" name="NBANDSGW">    -1</i>
   <i type="int" name="NBANDSO">    -1</i>
   <i type="int" name="NBANDSV">    -1</i>
   <i type="int" name="NELM">    90</i>
   <i type="int" name="NELMHF">     1</i>
   <i type="int" name="DIM">     3</i>
   <i type="int" name="IESPILON">     4</i>
   <i type="int" name="ANTIRES">     0</i>
   <i name="OMEGAMAX">    -30.00000000</i>
   <i name="OMEGAMIN">    -30.00000000</i>
   <i name="OMEGATL">   -200.00000000</i>
   <i type="int" name="OMEGAGRID">     0</i>
   <i name="CSHIFT">     -0.10000000</i>
   <i type="logical" name="LSELFENERGY"> F  </i>
   <i type="logical" name="LSPECTRAL"> F  </i>
   <i type="logical" name="LSPECTRALGW"> F  </i>
   <i type="logical" name="LSINGLES"> F  </i>
   <i type="logical" name="LFERMIGW"> F  </i>
   <i type="logical" name="ODDONLYGW"> F  </i>
   <i type="logical" name="EVENONLYGW"> F  </i>
   <i type="int" name="NKREDLFX">     1</i>
   <i type="int" name="NKREDLFY">     1</i>
   <i type="int" name="NKREDLFZ">     1</i>
   <i type="int" name="MAXMEM">  2800</i>
   <i type="int" name="TELESCOPE">     0</i>
   <i type="int" name="NTAUPAR">    -1</i>
   <i type="int" name="NOMEGAPAR">    -1</i>
   <i name="DAMP_NEWTON">      0.80000001</i>
   <i name="LAMBDA">      1.00000000</i>
  </separator>
  <separator name="External order field" >
   <i name="OFIELD_KAPPA">      0.00000000</i>
   <v name="OFIELD_K">      0.00000000      0.00000000      0.00000000</v>
   <i name="OFIELD_Q6_NEAR">      0.00000000</i>
   <i name="OFIELD_Q6_FAR">      0.00000000</i>
   <i name="OFIELD_A">      0.00000000</i>
  </separator>
 </parameters>
 <atominfo>
  <atoms>       2 </atoms>
  <types>       1 </types>
  <array name="atoms" >
   <dimension dim="1">ion</dimension>
   <field type="string">element</field>
   <field type="int">atomtype</field>
   <set>
    <rc><c>Fe</c><c>   1</c></rc>
    <rc><c>Fe</c><c>   1</c></rc>
   </set>
  </array>
  <array name="atomtypes" >
   <dimension dim="1">type</dimension>
   <field type="int">atomspertype</field>
   <field type="string">element</field>
   <field>mass</field>
   <field>valence</field>
   <field type="string">pseudopotential</field>
   <set>
    <rc><c>   2</c><c>Fe</c><c>     55.84700000</c><c>      8.00000000</c><c>  PAW_PBE Fe 06Sep2000                  </c></rc>
   </set>
  </array>
 </atominfo>
 <structure name="initialpos" >
  <crystal>
   <varray name="basis" >
    <v>       2.86303550       0.00000000       0.00000000 </v>
    <v>       0.00000000       2.86303550       0.00000000 </v>
    <v>       0.00000000       0.00000000       2.86303550 </v>
   </varray>
   <i name="volume">     23.46822259 </i>
   <varray name="rec_basis" >
    <v>       0.34927964      -0.00000000       0.00000000 </v>
    <v>       0.00000000       0.34927964       0.00000000 </v>
    <v>      -0.00000000      -0.00000000       0.34927964 </v>
   </varray>
  </crystal>
  <varray name="positions" >
   <v>       0.00000000       0.00000000       0.00000000 </v>
   <v>       0.50000000       0.50000000       0.50000000 </v>
  </varray>
 </structure>
 <calculation>
  <scstep>
   <time name="dav">    2.53    2.53</time>
   <time name="total">    4.10    4.11</time>
   <energy>
    <i name="alphaZ">    117.79976220 </i>
    <i name="ewald">  -1171.43779597 </i>
    <i name="hartreedc">   -228.04061711 </i>
    <i name="XCdc">     14.27157264 </i>
    <i name="pawpsdc">   1103.49540010 </i>
    <i name="pawaedc">  -1119.11610375 </i>
    <i name="eentropy">     -0.00085434 </i>
    <i name="bandstr">    152.22476304 </i>
    <i name="atom">   1188.57675298 </i>
    <i name="e_fr_energy">     57.77287979 </i>
    <i name="e_wo_entrp">     57.77373413 </i>
    <i name="e_0_energy">     57.77316457 </i>
   </energy>
  </scstep>
  <scstep>
   <time name="dav">    2.36    2.37</time>
   <time name="total">    2.37    2.39</time>
   <energy>
    <i name="e_fr_energy">    -13.87842978 </i>
    <i name="e_wo_entrp">    -13.87933390 </i>
    <i name="e_0_energy">    -13.87873115 </i>
   </energy>
  </scstep>
  <scstep>
   <time name="dav">    2.56    2.58</time>
   <time name="total">    2.57    2.59</time>
   <energy>
    <i name="e_fr_energy">    -16.07175141 </i>
    <i name="e_wo_entrp">    -16.07311092 </i>
    <i name="e_0_energy">    -16.07220458 </i>
   </energy>
  </scstep>
  <scstep>
   <time name="dav">    2.43    2.45</time>
   <time name="total">    2.44    2.46</time>
   <energy>
    <i name="e_fr_energy">    -16.08656533 </i>
    <i name="e_wo_entrp">    -16.08790976 </i>
    <i name="e_0_energy">    -16.08701348 </i>
   </energy>
  </scstep>
  <scstep>
   <time name="dav">    2.53    2.55</time>
   <time name="total">    2.63    2.66</time>
   <energy>
    <i name="e_fr_energy">    -16.08673939 </i>
    <i name="e_wo_entrp">    -16.08808368 </i>
    <i name="e_0_energy">    -16.08718749 </i>
   </energy>
  </scstep>
  <scstep>
   <time name="dav">    2.48    2.49</time>
   <time name="total">    4.13    4.15</time>
   <energy>
    <i name="e_fr_energy">    -16.57254549 </i>
    <i name="e_wo_entrp">    -16.57217117 </i>
    <i name="e_0_energy">    -16.57242072 </i>
   </energy>
  </scstep>
  <scstep>
   <time name="dav">    2.62    2.63</time>
   <time name="total">    4.27    4.29</time>
   <energy>
    <i name="e_fr_energy">    -16.51353706 </i>
    <i name="e_wo_entrp">    -16.51137544 </i>
    <i name="e_0_energy">    -16.51281652 </i>
   </energy>
  </scstep>
  <scstep>
   <time name="dav">    2.85    2.85</time>
   <time name="total">    4.50    4.52</time>
   <energy>
    <i name="e_fr_energy">    -16.49624725 </i>
    <i name="e_wo_entrp">    -16.49376135 </i>
    <i name="e_0_energy">    -16.49541861 </i>
   </energy>
  </scstep>
  <scstep>
   <time name="dav">    3.19    3.20</time>
   <time name="total">    4.85    4.87</time>
   <energy>
    <i name="e_fr_energy">    -16.48514300 </i>
    <i name="e_wo_entrp">    -16.48229257 </i>
    <i name="e_0_energy">    -16.48419286 </i>
   </energy>
  </scstep>
  <scstep>
   <time name="dav">    2.64    2.64</time>
   <time name="total">    4.29    4.31</time>
   <energy>
    <i name="e_fr_energy">    -16.48475118 </i>
    <i name="e_wo_entrp">    -16.48198738 </i>
    <i name="e_0_energy">    -16.48382991 </i>
   </energy>
  </scstep>
  <scstep>
   <time name="dav">    2.63    2.63</time>
   <time name="total">    4.28    4.30</time>
   <energy>
    <i name="e_fr_energy">    -16.48478356 </i>
    <i name="e_wo_entrp">    -16.48201867 </i>
    <i name="e_0_energy">    -16.48386193 </i>
   </energy>
  </scstep>
  <scstep>
   <time name="dav">    2.40    2.41</time>
   <time name="total">    4.06    4.08</time>
   <energy>
    <i name="e_fr_energy">    -16.48477405 </i>
    <i name="e_wo_entrp">    -16.48201366 </i>
    <i name="e_0_energy">    -16.48385392 </i>
   </energy>
  </scstep>
  <scstep>
   <time name="dav">    2.04    2.04</time>
   <time name="total">    3.60    3.62</time>
   <energy>
    <i name="alphaZ">    117.79976220 </i>
    <i name="ewald">  -1171.43779597 </i>
    <i name="hartreedc">   -195.12323755 </i>
    <i name="XCdc">      8.53423050 </i>
    <i name="pawpsdc">   1411.55757468 </i>
    <i name="pawaedc">  -1429.56101656 </i>
    <i name="eentropy">     -0.00276353 </i>
    <i name="bandstr">     53.17171821 </i>
    <i name="atom">   1188.57675298 </i>
    <i name="e_fr_energy">    -16.48477503 </i>
    <i name="e_wo_entrp">    -16.48201151 </i>
    <i name="e_0_energy">    -16.48385386 </i>
   </energy>
  </scstep>
  <structure>
   <crystal>
    <varray name="basis" >
     <v>       2.86303550       0.00000000       0.00000000 </v>
     <v>       0.00000000       2.86303550       0.00000000 </v>
     <v>       0.00000000       0.00000000       2.86303550 </v>
    </varray>
    <i name="volume">     23.46822259 </i>
    <varray name="rec_basis" >
     <v>       0.34927964      -0.00000000       0.00000000 </v>
     <v>       0.00000000       0.34927964       0.00000000 </v>
     <v>      -0.00000000      -0.00000000       0.34927964 </v>
    </varray>
   </crystal>
   <varray name="positions" >
    <v>       0.00000000       0.00000000       0.00000000 </v>
    <v>       0.50000000       0.50000000       0.50000000 </v>
   </varray>
  </structure>
  <varray name="forces" >
   <v>      -0.00000000      -0.00000000       0.00000000 </v>
   <v>       0.00000000       0.00000000      -0.00000000 </v>
  </varray>
  <varray name="stress" >
   <v>     -62.49816041      -0.00000000       0.00000000 </v>
   <v>      -0.00000000     -62.49816041       0.00000000 </v>
   <v>      -0.00000000      -0.00000000     -62.49816041 </v>
  </varray>
  <energy>
   <i name="e_fr_energy">    -16.48477503 </i>
   <i name="e_wo_entrp">    -16.48201151 </i>
   <i name="e_0_energy">    -16.48385386 </i>
  </energy>
  <time name="totalsc">   53.34   54.49</time>
 </calculation>
 <calculation>
  <scstep>
   <time name="dav">    2.48    2.48</time>
   <time name="total">    4.13    4.14</time>
   <energy>
    <i name="alphaZ">    125.96128122 </i>
    <i name="ewald">  -1197.88957170 </i>
    <i name="hartreedc">   -199.53408858 </i>
    <i name="XCdc">      9.84062160 </i>
    <i name="pawpsdc">   1411.55023193 </i>
    <i name="pawaedc">  -1429.55243818 </i>
    <i name="eentropy">     -0.00196363 </i>
    <i name="bandstr">     73.84948770 </i>
    <i name="atom">   1188.57675298 </i>
    <i name="e_fr_energy">    -17.19968666 </i>
    <i name="e_wo_entrp">    -17.19772303 </i>
    <i name="e_0_energy">    -17.19903212 </i>
   </energy>
  </scstep>
  <scstep>
   <time name="dav">    2.48    2.49</time>
   <time name="total">    4.14    4.16</time>
   <energy>
    <i name="e_fr_energy">    -16.53405833 </i>
    <i name="e_wo_entrp">    -16.53024382 </i>
    <i name="e_0_energy">    -16.53278682 </i>
   </energy>
  </scstep>
  <scstep>
   <time name="dav">    2.65    2.65</time>
   <time name="total">    4.31    4.33</time>
   <energy>
    <i name="e_fr_energy">    -16.49965349 </i>
    <i name="e_wo_entrp">    -16.49659549 </i>
    <i name="e_0_energy">    -16.49863416 </i>
   </energy>
  </scstep>
  <scstep>
   <time name="dav">    2.75    2.75</time>
   <time name="total">    4.40    4.42</time>
   <energy>
    <i name="e_fr_energy">    -16.49265020 </i>
    <i name="e_wo_entrp">    -16.48976041 </i>
    <i name="e_0_energy">    -16.49168693 </i>
   </energy>
  </scstep>
  <scstep>
   <time name="dav">    2.80    2.81</time>
   <time name="total">    4.46    4.48</time>
   <energy>
    <i name="e_fr_energy">    -16.48700311 </i>
    <i name="e_wo_entrp">    -16.48432971 </i>
    <i name="e_0_energy">    -16.48611198 </i>
   </energy>
  </scstep>
  <scstep>
   <time name="dav">    2.51    2.51</time>
   <time name="total">    4.16    4.18</time>
   <energy>
    <i name="e_fr_energy">    -16.48710300 </i>
    <i name="e_wo_entrp">    -16.48440851 </i>
    <i name="e_0_energy">    -16.48620483 </i>
   </energy>
  </scstep>
  <scstep>
   <time name="dav">    2.42    2.42</time>
   <time name="total">    4.07    4.09</time>
   <energy>
    <i name="e_fr_energy">    -16.48711158 </i>
    <i name="e_wo_entrp">    -16.48440565 </i>
    <i name="e_0_energy">    -16.48620960 </i>
   </energy>
  </scstep>
  <scstep>
   <time name="dav">    2.08    2.08</time>
   <time name="total">    3.73    3.75</time>
   <energy>
    <i name="e_fr_energy">    -16.48710911 </i>
    <i name="e_wo_entrp">    -16.48440299 </i>
    <i name="e_0_energy">    -16.48620707 </i>
   </energy>
  </scstep>
  <scstep>
   <time name="dav">    1.60    1.60</time>
   <time name="total">    3.26    3.28</time>
   <energy>
    <i name="e_fr_energy">    -16.48710793 </i>
    <i name="e_wo_entrp">    -16.48440857 </i>
    <i name="e_0_energy">    -16.48620814 </i>
   </energy>
  </scstep>
  <scstep>
   <time name="dav">    1.60    1.60</time>
   <time name="total">    3.16    3.18</time>
   <energy>
    <i name="alphaZ">    125.96128122 </i>
    <i name="ewald">  -1197.88957170 </i>
    <i name="hartreedc">   -184.77520411 </i>
    <i name="XCdc">      8.69750829 </i>
    <i name="pawpsdc">   1472.81150381 </i>
    <i name="pawaedc">  -1491.26081119 </i>
    <i name="eentropy">     -0.00270001 </i>
    <i name="bandstr">     61.39413283 </i>
    <i name="atom">   1188.57675298 </i>
    <i name="e_fr_energy">    -16.48710789 </i>
    <i name="e_wo_entrp">    -16.48440787 </i>
    <i name="e_0_energy">    -16.48620788 </i>
   </energy>
  </scstep>
  <structure>
   <crystal>
    <varray name="basis" >
     <v>       2.79981400      -0.00000000       0.00000000 </v>
     <v>       0.00000000       2.79981400       0.00000000 </v>
     <v>      -0.00000000      -0.00000000       2.79981400 </v>
    </varray>
    <i name="volume">     21.94762560 </i>
    <varray name="rec_basis" >
     <v>       0.35716658      -0.00000000       0.00000000 </v>
     <v>       0.00000000       0.35716658       0.00000000 </v>
     <v>      -0.00000000      -0.00000000       0.35716658 </v>
    </varray>
   </crystal>
   <varray name="positions" >
    <v>      -0.00000000      -0.00000000       0.00000000 </v>
    <v>       0.50000000       0.50000000       0.50000000 </v>
   </varray>
  </structure>
  <varray name="forces" >
   <v>       0.00000000       0.00000000       0.00000000 </v>
   <v>      -0.00000000      -0.00000000      -0.00000000 </v>
  </varray>
  <varray name="stress" >
   <v>      66.96872934       0.00000000      -0.00000000 </v>
   <v>       0.00000000      66.96872934       0.00000000 </v>
   <v>       0.00000000       0.00000000      66.96872934 </v>
  </varray>
  <energy>
   <i name="e_fr_energy">    -16.48710789 </i>
   <i name="e_wo_entrp">    -16.48440787 </i>
   <i name="e_0_energy">    -16.48620788 </i>
  </energy>
  <time name="totalsc">   44.78   45.43</time>
 </calculation>
 <calculation>
  <scstep>
   <time name="dav">    2.47    2.47</time>
   <time name="total">    4.12    4.13</time>
   <energy>
    <i name="alphaZ">    122.02616883 </i>
    <i name="ewald">  -1185.28308427 </i>
    <i name="hartreedc">   -182.83105537 </i>
    <i name="XCdc">      8.09415259 </i>
    <i name="pawpsdc">   1472.81685730 </i>
    <i name="pawaedc">  -1491.26569710 </i>
    <i name="eentropy">     -0.00150229 </i>
    <i name="bandstr">     51.20066732 </i>
    <i name="atom">   1188.57675298 </i>
    <i name="e_fr_energy">    -16.66674001 </i>
    <i name="e_wo_entrp">    -16.66523772 </i>
    <i name="e_0_energy">    -16.66623925 </i>
   </energy>
  </scstep>
  <scstep>
   <time name="dav">    2.49    2.49</time>
   <time name="total">    4.14    4.16</time>
   <energy>
    <i name="e_fr_energy">    -16.51919938 </i>
    <i name="e_wo_entrp">    -16.51700160 </i>
    <i name="e_0_energy">    -16.51846679 </i>
   </energy>
  </scstep>
  <scstep>
   <time name="dav">    2.63    2.63</time>
   <time name="total">    4.28    4.31</time>
   <energy>
    <i name="e_fr_energy">    -16.50455411 </i>
    <i name="e_wo_entrp">    -16.50191380 </i>
    <i name="e_0_energy">    -16.50367401 </i>
   </energy>
  </scstep>
  <scstep>
   <time name="dav">    2.92    2.92</time>
   <time name="total">    4.57    4.59</time>
   <energy>
    <i name="e_fr_energy">    -16.50282015 </i>
    <i name="e_wo_entrp">    -16.50012696 </i>
    <i name="e_0_energy">    -16.50192242 </i>
   </energy>
  </scstep>
  <scstep>
   <time name="dav">    2.54    2.54</time>
   <time name="total">    4.21    4.23</time>
   <energy>
    <i name="e_fr_energy">    -16.50142983 </i>
    <i name="e_wo_entrp">    -16.49881827 </i>
    <i name="e_0_energy">    -16.50055931 </i>
   </energy>
  </scstep>
  <scstep>
   <time name="dav">    2.41    2.41</time>
   <time name="total">    4.06    4.08</time>
   <energy>
    <i name="e_fr_energy">    -16.50145390 </i>
    <i name="e_wo_entrp">    -16.49884861 </i>
    <i name="e_0_energy">    -16.50058547 </i>
   </energy>
  </scstep>
  <scstep>
   <time name="dav">    2.38    2.38</time>
   <time name="total">    4.03    4.05</time>
   <energy>
    <i name="e_fr_energy">    -16.50145957 </i>
    <i name="e_wo_entrp">    -16.49885159 </i>
    <i name="e_0_energy">    -16.50059025 </i>
   </energy>
  </scstep>
  <scstep>
   <time name="dav">    1.77    1.77</time>
   <time name="total">    3.42    3.44</time>
   <energy>
    <i name="e_fr_energy">    -16.50146259 </i>
    <i name="e_wo_entrp">    -16.49885469 </i>
    <i name="e_0_energy">    -16.50059329 </i>
   </energy>
  </scstep>
  <scstep>
   <time name="dav">    1.60    1.60</time>
   <time name="total">    3.16    3.18</time>
   <energy>
    <i name="alphaZ">    122.02616883 </i>
    <i name="ewald">  -1185.28308427 </i>
    <i name="hartreedc">   -189.62226348 </i>
    <i name="XCdc">      8.61293773 </i>
    <i name="pawpsdc">   1442.38541266 </i>
    <i name="pawaedc">  -1460.61237075 </i>
    <i name="eentropy">     -0.00260815 </i>
    <i name="bandstr">     57.41759178 </i>
    <i name="atom">   1188.57675298 </i>
    <i name="e_fr_energy">    -16.50146267 </i>
    <i name="e_wo_entrp">    -16.49885452 </i>
    <i name="e_0_energy">    -16.50059328 </i>
   </energy>
  </scstep>
  <structure>
   <crystal>
    <varray name="basis" >
     <v>       2.82959239      -0.00000000       0.00000000 </v>
     <v>       0.00000000       2.82959239       0.00000000 </v>
     <v>      -0.00000000      -0.00000000       2.82959239 </v>
    </varray>
    <i name="volume">     22.65539488 </i>
    <varray name="rec_basis" >
     <v>       0.35340779      -0.00000000       0.00000000 </v>
     <v>       0.00000000       0.35340779       0.00000000 </v>
     <v>      -0.00000000      -0.00000000       0.35340779 </v>
    </varray>
   </crystal>
   <varray name="positions" >
    <v>      -0.00000000      -0.00000000       0.00000000 </v>
    <v>       0.50000000       0.50000000       0.50000000 </v>
   </varray>
  </structure>
  <varray name="forces" >
   <v>       0.00000000       0.00000000       0.00000000 </v>
   <v>      -0.00000000      -0.00000000      -0.00000000 </v>
  </varray>
  <varray name="stress" >
   <v>       0.12271600      -0.00000000       0.00000000 </v>
   <v>      -0.00000000       0.12271600       0.00000000 </v>
   <v>       0.00000000      -0.00000000       0.12271600 </v>
  </varray>
  <energy>
   <i name="e_fr_energy">    -16.50146267 </i>
   <i name="e_wo_entrp">    -16.49885452 </i>
   <i name="e_0_energy">    -16.50059328 </i>
  </energy>
  <time name="totalsc">   41.18   42.41</time>
  <eigenvalues>
   <array>
    <dimension dim="1">band</dimension>
    <dimension dim="2">kpoint</dimension>
    <dimension dim="3">spin</dimension>
    <field>eigene</field>
    <field>occ</field>
    <set>
     <set comment="spin 1">
      <set comment="kpoint 1">
       <r>   -2.5934    1.0000 </r>
       <r>    0.9971    1.0000 </r>
       <r>    0.9971    1.0000 </r>
       <r>    3.5539    1.0000 </r>
       <r>    3.5539    1.0000 </r>
       <r>    3.5539    1.0000 </r>
       <r>    4.7694    1.0000 </r>
       <r>    4.7694    1.0000 </r>
       <r>    5.9843    0.0673 </r>
       <r>    5.9843    0.0673 </r>
       <r>    5.9843    0.0673 </r>
       <r>   15.8122    0.0000 </r>
       <r>   15.8122    0.0000 </r>
       <r>   15.8122    0.0000 </r>
       <r>   21.5641    0.0000 </r>
       <r>   21.5641    0.0000 </r>
       <r>   26.6830    0.0000 </r>
       <r>   30.9087    0.0000 </r>
       <r>   30.9087    0.0000 </r>
       <r>   30.9087    0.0000 </r>
      </set>
      <set comment="kpoint 2">
       <r>   -2.5008    1.0000 </r>
       <r>    1.0366    1.0000 </r>
       <r>    1.0384    1.0000 </r>
       <r>    3.5531    1.0000 </r>
       <r>    3.5531    1.0000 </r>
       <r>    3.5793    1.0000 </r>
       <r>    4.7280    1.0000 </r>
       <r>    4.7859    1.0000 </r>
       <r>    5.9058    0.3056 </r>
       <r>    5.9058    0.3056 </r>
       <r>    5.9567    0.1347 </r>
       <r>   15.1422    0.0000 </r>
       <r>   15.9881    0.0000 </r>
       <r>   15.9881    0.0000 </r>
       <r>   21.5908    0.0000 </r>
       <r>   22.0708    0.0000 </r>
       <r>   26.9832    0.0000 </r>
       <r>   30.2783    0.0000 </r>
       <r>   30.8289    0.0000 </r>
       <r>   30.8289    0.0000 </r>
      </set>
      <set comment="kpoint 3">
       <r>   -2.2266    1.0000 </r>
       <r>    1.1539    1.0000 </r>
       <r>    1.1547    1.0000 </r>
       <r>    3.5534    1.0000 </r>
       <r>    3.5534    1.0000 </r>
       <r>    3.6546    1.0000 </r>
       <r>    4.6054    1.0000 </r>
       <r>    4.8339    1.0000 </r>
       <r>    5.6896    1.0005 </r>
       <r>    5.6896    1.0005 </r>
       <r>    5.8752    0.4295 </r>
       <r>   13.6694    0.0000 </r>
       <r>   16.4953    0.0000 </r>
       <r>   16.4953    0.0000 </r>
       <r>   21.6724    0.0000 </r>
       <r>   22.9369    0.0000 </r>
       <r>   27.9930    0.0000 </r>
       <r>   29.0155    0.0000 </r>
       <r>   30.4732    0.0000 </r>
       <r>   30.4732    0.0000 </r>
      </set>
      <set comment="kpoint 4">
       <r>   -1.7827    1.0000 </r>
       <r>    1.3227    1.0000 </r>
       <r>    1.3446    1.0000 </r>
       <r>    3.5621    1.0000 </r>
       <r>    3.5621    1.0000 </r>
       <r>    3.7768    1.0000 </r>
       <r>    4.4064    1.0000 </r>
       <r>    4.9115    1.0000 </r>
       <r>    5.3824    1.0019 </r>
       <r>    5.3824    1.0019 </r>
       <r>    5.7432    0.9090 </r>
       <r>   11.9792    0.0000 </r>
       <r>   17.2838    0.0000 </r>
       <r>   17.2838    0.0000 </r>
       <r>   21.8113    0.0000 </r>
       <r>   23.5730    0.0000 </r>
       <r>   27.6921    0.0000 </r>
       <r>   29.6367    0.0000 </r>
       <r>   29.6367    0.0000 </r>
       <r>   29.7719    0.0000 </r>
      </set>
      <set comment="kpoint 5">
       <r>   -1.1914    1.0000 </r>
       <r>    1.5020    1.0000 </r>
       <r>    1.6018    1.0000 </r>
       <r>    3.5899    1.0000 </r>
       <r>    3.5899    1.0000 </r>
       <r>    3.9413    1.0000 </r>
       <r>    4.1390    1.0000 </r>
       <r>    5.0184    1.0000 </r>
       <r>    5.0357    1.0000 </r>
       <r>    5.0357    1.0000 </r>
       <r>    5.5679    1.0297 </r>
       <r>   10.3093   -0.0000 </r>
       <r>   18.2979    0.0000 </r>
       <r>   18.2979    0.0000 </r>
       <r>   22.0197    0.0000 </r>
       <r>   23.9913    0.0000 </r>
       <r>   26.4767    0.0000 </r>
       <r>   28.3634    0.0000 </r>
       <r>   28.3634    0.0000 </r>
       <r>   30.1640    0.0000 </r>
      </set>
      <set comment="kpoint 6">
       <r>   -0.4918    1.0000 </r>
       <r>    1.6323    1.0000 </r>
       <r>    1.9156    1.0000 </r>
       <r>    3.6488    1.0000 </r>
       <r>    3.6488    1.0000 </r>
       <r>    3.8148    1.0000 </r>
       <r>    4.1416    1.0000 </r>
       <r>    4.6913    1.0000 </r>
       <r>    4.6913    1.0000 </r>
       <r>    5.1672    1.0000 </r>
       <r>    5.3572    1.0011 </r>
       <r>    8.7737   -0.0000 </r>
       <r>   19.4883    0.0000 </r>
       <r>   19.4883    0.0000 </r>
       <r>   22.3062    0.0000 </r>
       <r>   24.3684    0.0000 </r>
       <r>   25.4129    0.0000 </r>
       <r>   26.8694    0.0000 </r>
       <r>   26.8694    0.0000 </r>
       <r>   28.6644    0.0000 </r>
      </set>
      <set comment="kpoint 7">
       <r>    0.2494    1.0000 </r>
       <r>    1.6314    1.0000 </r>
       <r>    2.2732    1.0000 </r>
       <r>    3.4486    1.0000 </r>
       <r>    3.7503    1.0000 </r>
       <r>    3.7503    1.0000 </r>
       <r>    4.3697    1.0000 </r>
       <r>    4.3779    1.0000 </r>
       <r>    4.3779    1.0000 </r>
       <r>    5.1210    1.0000 </r>
       <r>    5.3964    1.0026 </r>
       <r>    7.4613   -0.0000 </r>
       <r>   20.8160    0.0000 </r>
       <r>   20.8160    0.0000 </r>
       <r>   22.6845    0.0000 </r>
       <r>   24.5115    0.0000 </r>
       <r>   24.8301    0.0000 </r>
       <r>   25.3148    0.0000 </r>
       <r>   25.3148    0.0000 </r>
       <r>   27.3646    0.0000 </r>
      </set>
      <set comment="kpoint 8">
       <r>    0.9256    1.0000 </r>
       <r>    1.4091    1.0000 </r>
       <r>    2.6595    1.0000 </r>
       <r>    3.0574    1.0000 </r>
       <r>    3.9032    1.0000 </r>
       <r>    3.9032    1.0000 </r>
       <r>    4.1127    1.0000 </r>
       <r>    4.1127    1.0000 </r>
       <r>    4.6160    1.0000 </r>
       <r>    4.8703    1.0000 </r>
       <r>    5.7880    0.7785 </r>
       <r>    6.4545   -0.0001 </r>
       <r>   22.2495    0.0000 </r>
       <r>   22.2495    0.0000 </r>
       <r>   23.1601    0.0000 </r>
       <r>   23.7567    0.0000 </r>
       <r>   23.7567    0.0000 </r>
       <r>   23.7632    0.0000 </r>
       <r>   25.4553    0.0000 </r>
       <r>   26.2935    0.0000 </r>
      </set>
      <set comment="kpoint 9">
       <r>   -2.4089    1.0000 </r>
       <r>    1.0754    1.0000 </r>
       <r>    1.0798    1.0000 </r>
       <r>    3.5035    1.0000 </r>
       <r>    3.5499    1.0000 </r>
       <r>    3.6533    1.0000 </r>
       <r>    4.7198    1.0000 </r>
       <r>    4.7736    1.0000 </r>
       <r>    5.7658    0.8491 </r>
       <r>    5.8271    0.6305 </r>
       <r>    5.9959    0.0446 </r>
       <r>   15.1603    0.0000 </r>
       <r>   15.4566    0.0000 </r>
       <r>   16.1586    0.0000 </r>
       <r>   21.8495    0.0000 </r>
       <r>   22.3811    0.0000 </r>
       <r>   27.2582    0.0000 </r>
       <r>   29.7192    0.0000 </r>
       <r>   30.6354    0.0000 </r>
       <r>   30.7799    0.0000 </r>
      </set>
      <set comment="kpoint 10">
       <r>   -2.1369    1.0000 </r>
       <r>    1.1872    1.0000 </r>
       <r>    1.1993    1.0000 </r>
       <r>    3.4639    1.0000 </r>
       <r>    3.5429    1.0000 </r>
       <r>    3.7676    1.0000 </r>
       <r>    4.6190    1.0000 </r>
       <r>    4.8129    1.0000 </r>
       <r>    5.5116    1.0171 </r>
       <r>    5.6121    1.0355 </r>
       <r>    5.9667    0.1081 </r>
       <r>   13.7877    0.0000 </r>
       <r>   15.8187    0.0000 </r>
       <r>   16.6515    0.0000 </r>
       <r>   22.0164    0.0000 </r>
       <r>   23.2734    0.0000 </r>
       <r>   28.2001    0.0000 </r>
       <r>   28.4465    0.0000 </r>
       <r>   30.1832    0.0000 </r>
       <r>   30.5026    0.0000 </r>
      </set>
      <set comment="kpoint 11">
       <r>   -1.6972    1.0000 </r>
       <r>    1.3571    1.0000 </r>
       <r>    1.3837    1.0000 </r>
       <r>    3.4465    1.0000 </r>
       <r>    3.5384    1.0000 </r>
       <r>    3.9145    1.0000 </r>
       <r>    4.4411    1.0000 </r>
       <r>    4.8918    1.0000 </r>
       <r>    5.1922    1.0000 </r>
       <r>    5.3095    1.0004 </r>
       <r>    5.8660    0.4681 </r>
       <r>   12.0944    0.0000 </r>
       <r>   16.5419    0.0000 </r>
       <r>   17.4224    0.0000 </r>
       <r>   22.1947    0.0000 </r>
       <r>   24.0009    0.0000 </r>
       <r>   27.0540    0.0000 </r>
       <r>   29.2971    0.0000 </r>
       <r>   29.7230    0.0000 </r>
       <r>   29.9098    0.0000 </r>
      </set>
      <set comment="kpoint 12">
       <r>   -1.1129    1.0000 </r>
       <r>    1.5380    1.0000 </r>
       <r>    1.6314    1.0000 </r>
       <r>    3.4568    1.0000 </r>
       <r>    3.5384    1.0000 </r>
       <r>    4.0940    1.0000 </r>
       <r>    4.2132    1.0000 </r>
       <r>    4.8457    1.0000 </r>
       <r>    4.9741    1.0000 </r>
       <r>    5.0006    1.0000 </r>
       <r>    5.7092    0.9749 </r>
       <r>   10.4177   -0.0000 </r>
       <r>   17.4611    0.0000 </r>
       <r>   18.4186    0.0000 </r>
       <r>   22.4439    0.0000 </r>
       <r>   24.5054    0.0000 </r>
       <r>   25.7134    0.0000 </r>
       <r>   28.0891    0.0000 </r>
       <r>   28.4553    0.0000 </r>
       <r>   31.2298    0.0000 </r>
      </set>
      <set comment="kpoint 13">
       <r>   -0.4240    1.0000 </r>
       <r>    1.6657    1.0000 </r>
       <r>    1.9343    1.0000 </r>
       <r>    3.5035    1.0000 </r>
       <r>    3.5094    1.0000 </r>
       <r>    3.9924    1.0000 </r>
       <r>    4.3028    1.0000 </r>
       <r>    4.5066    1.0000 </r>
       <r>    4.6521    1.0000 </r>
       <r>    5.1513    1.0000 </r>
       <r>    5.5100    1.0168 </r>
       <r>    8.8705   -0.0000 </r>
       <r>   18.5149    0.0000 </r>
       <r>   19.5932    0.0000 </r>
       <r>   22.7873    0.0000 </r>
       <r>   24.4511    0.0000 </r>
       <r>   24.9721    0.0000 </r>
       <r>   26.8118    0.0000 </r>
       <r>   26.9532    0.0000 </r>
       <r>   29.7479    0.0000 </r>
      </set>
      <set comment="kpoint 14">
       <r>    0.3020    1.0000 </r>
       <r>    1.6592    1.0000 </r>
       <r>    2.2779    1.0000 </r>
       <r>    3.3314    1.0000 </r>
       <r>    3.5956    1.0000 </r>
       <r>    3.9200    1.0000 </r>
       <r>    4.2003    1.0000 </r>
       <r>    4.3767    1.0000 </r>
       <r>    4.5350    1.0000 </r>
       <r>    5.2812    1.0002 </r>
       <r>    5.3872    1.0022 </r>
       <r>    7.5374   -0.0000 </r>
       <r>   19.6557    0.0000 </r>
       <r>   20.9084    0.0000 </r>
       <r>   23.2368    0.0000 </r>
       <r>   23.2485    0.0000 </r>
       <r>   25.3918    0.0000 </r>
       <r>   25.5374    0.0000 </r>
       <r>   25.6325    0.0000 </r>
       <r>   28.3990    0.0000 </r>
      </set>
      <set comment="kpoint 15">
       <r>    0.9614    1.0000 </r>
       <r>    1.4351    1.0000 </r>
       <r>    2.6444    1.0000 </r>
       <r>    3.0101    1.0000 </r>
       <r>    3.7405    1.0000 </r>
       <r>    3.9424    1.0000 </r>
       <r>    4.0048    1.0000 </r>
       <r>    4.1620    1.0000 </r>
       <r>    4.7823    1.0000 </r>
       <r>    5.0347    1.0000 </r>
       <r>    5.7989    0.7399 </r>
       <r>    6.4989   -0.0000 </r>
       <r>   20.8399    0.0000 </r>
       <r>   22.0402    0.0000 </r>
       <r>   22.3302    0.0000 </r>
       <r>   23.8351    0.0000 </r>
       <r>   23.8498    0.0000 </r>
       <r>   24.6394    0.0000 </r>
       <r>   26.2786    0.0000 </r>
       <r>   27.2330    0.0000 </r>
      </set>
      <set comment="kpoint 16">
       <r>   -1.8722    1.0000 </r>
       <r>    1.2830    1.0000 </r>
       <r>    1.3276    1.0000 </r>
       <r>    3.3629    1.0000 </r>
       <r>    3.5168    1.0000 </r>
       <r>    3.9408    1.0000 </r>
       <r>    4.6197    1.0000 </r>
       <r>    4.7872    1.0000 </r>
       <r>    5.2043    1.0000 </r>
       <r>    5.4030    1.0030 </r>
       <r>    6.0287   -0.0020 </r>
       <r>   13.7705    0.0000 </r>
       <r>   14.7465    0.0000 </r>
       <r>   17.1076    0.0000 </r>
       <r>   22.3536    0.0000 </r>
       <r>   24.2693    0.0000 </r>
       <r>   27.1325    0.0000 </r>
       <r>   28.9333    0.0000 </r>
       <r>   29.6662    0.0000 </r>
       <r>   30.4782    0.0000 </r>
      </set>
      <set comment="kpoint 17">
       <r>   -1.4462    1.0000 </r>
       <r>    1.4283    1.0000 </r>
       <r>    1.5225    1.0000 </r>
       <r>    3.2898    1.0000 </r>
       <r>    3.4856    1.0000 </r>
       <r>    4.1385    1.0000 </r>
       <r>    4.5211    1.0000 </r>
       <r>    4.8423    1.0000 </r>
       <r>    4.8544    1.0000 </r>
       <r>    5.1177    1.0000 </r>
       <r>    6.0090    0.0231 </r>
       <r>   12.3548    0.0000 </r>
       <r>   15.1004    0.0000 </r>
       <r>   17.8300    0.0000 </r>
       <r>   22.5741    0.0000 </r>
       <r>   25.2682    0.0000 </r>
       <r>   25.6423    0.0000 </r>
       <r>   28.8528    0.0000 </r>
       <r>   29.9608    0.0000 </r>
       <r>   30.3909    0.0000 </r>
      </set>
      <set comment="kpoint 18">
       <r>   -0.8847    1.0000 </r>
       <r>    1.5904    1.0000 </r>
       <r>    1.7646    1.0000 </r>
       <r>    3.2533    1.0000 </r>
       <r>    3.4508    1.0000 </r>
       <r>    4.3571    1.0000 </r>
       <r>    4.3697    1.0000 </r>
       <r>    4.4974    1.0000 </r>
       <r>    4.8185    1.0000 </r>
       <r>    4.9504    1.0000 </r>
       <r>    5.9153    0.2698 </r>
       <r>   10.6912   -0.0000 </r>
       <r>   15.8935    0.0000 </r>
       <r>   18.7763    0.0000 </r>
       <r>   22.8159    0.0000 </r>
       <r>   24.1740    0.0000 </r>
       <r>   26.0072    0.0000 </r>
       <r>   27.7935    0.0000 </r>
       <r>   28.7274    0.0000 </r>
       <r>   32.5021    0.0000 </r>
      </set>
      <set comment="kpoint 19">
       <r>   -0.2321    1.0000 </r>
       <r>    1.7044    1.0000 </r>
       <r>    2.0428    1.0000 </r>
       <r>    3.2617    1.0000 </r>
       <r>    3.3837    1.0000 </r>
       <r>    4.1609    1.0000 </r>
       <r>    4.2386    1.0000 </r>
       <r>    4.5610    1.0000 </r>
       <r>    4.5928    1.0000 </r>
       <r>    5.1042    1.0000 </r>
       <r>    5.7621    0.8597 </r>
       <r>    9.1225   -0.0000 </r>
       <r>   16.8358    0.0000 </r>
       <r>   19.9058    0.0000 </r>
       <r>   22.7729    0.0000 </r>
       <r>   23.1265    0.0000 </r>
       <r>   26.6553    0.0000 </r>
       <r>   26.6829    0.0000 </r>
       <r>   27.1996    0.0000 </r>
       <r>   31.6546    0.0000 </r>
      </set>
      <set comment="kpoint 20">
       <r>    0.4413    1.0000 </r>
       <r>    1.6863    1.0000 </r>
       <r>    2.3499    1.0000 </r>
       <r>    3.2287    1.0000 </r>
       <r>    3.3226    1.0000 </r>
       <r>    3.8653    1.0000 </r>
       <r>    4.1930    1.0000 </r>
       <r>    4.3821    1.0000 </r>
       <r>    4.8400    1.0000 </r>
       <r>    5.3593    1.0012 </r>
       <r>    5.5646    1.0290 </r>
       <r>    7.7402   -0.0000 </r>
       <r>   17.8770    0.0000 </r>
       <r>   21.1837    0.0000 </r>
       <r>   21.4434    0.0000 </r>
       <r>   23.5413    0.0000 </r>
       <r>   25.6176    0.0000 </r>
       <r>   25.6577    0.0000 </r>
       <r>   27.3639    0.0000 </r>
       <r>   30.3721    0.0000 </r>
      </set>
      <set comment="kpoint 21">
       <r>    1.0397    1.0000 </r>
       <r>    1.4701    1.0000 </r>
       <r>    2.6700    1.0000 </r>
       <r>    2.9763    1.0000 </r>
       <r>    3.4423    1.0000 </r>
       <r>    3.6236    1.0000 </r>
       <r>    4.2230    1.0000 </r>
       <r>    4.2815    1.0000 </r>
       <r>    5.0913    1.0000 </r>
       <r>    5.3365    1.0007 </r>
       <r>    5.8307    0.6160 </r>
       <r>    6.6219   -0.0000 </r>
       <r>   18.9939    0.0000 </r>
       <r>   20.1835    0.0000 </r>
       <r>   22.5778    0.0000 </r>
       <r>   24.0686    0.0000 </r>
       <r>   24.0836    0.0000 </r>
       <r>   24.7870    0.0000 </r>
       <r>   28.2072    0.0000 </r>
       <r>   29.2127    0.0000 </r>
      </set>
      <set comment="kpoint 22">
       <r>   -1.0466    1.0000 </r>
       <r>    1.5253    1.0000 </r>
       <r>    1.7394    1.0000 </r>
       <r>    3.1604    1.0000 </r>
       <r>    3.4357    1.0000 </r>
       <r>    4.3836    1.0000 </r>
       <r>    4.4863    1.0000 </r>
       <r>    4.5755    1.0000 </r>
       <r>    4.8124    1.0000 </r>
       <r>    4.8696    1.0000 </r>
       <r>    6.0772   -0.0323 </r>
       <r>   12.1988    0.0000 </r>
       <r>   14.1112    0.0000 </r>
       <r>   18.4854    0.0000 </r>
       <r>   22.7910    0.0000 </r>
       <r>   24.0688    0.0000 </r>
       <r>   26.7153    0.0000 </r>
       <r>   28.2309    0.0000 </r>
       <r>   30.1422    0.0000 </r>
       <r>   31.4112    0.0000 </r>
      </set>
      <set comment="kpoint 23">
       <r>   -0.5309    1.0000 </r>
       <r>    1.6213    1.0000 </r>
       <r>    2.0060    1.0000 </r>
       <r>    3.0723    1.0000 </r>
       <r>    3.4054    1.0000 </r>
       <r>    4.1253    1.0000 </r>
       <r>    4.5301    1.0000 </r>
       <r>    4.6355    1.0000 </r>
       <r>    4.6400    1.0000 </r>
       <r>    4.8825    1.0000 </r>
       <r>    6.0639   -0.0278 </r>
       <r>   10.9343   -0.0000 </r>
       <r>   14.4174    0.0000 </r>
       <r>   19.3591    0.0000 </r>
       <r>   22.5307    0.0000 </r>
       <r>   23.0030    0.0000 </r>
       <r>   27.3863    0.0000 </r>
       <r>   27.8590    0.0000 </r>
       <r>   29.1708    0.0000 </r>
       <r>   31.4378    0.0000 </r>
      </set>
      <set comment="kpoint 24">
       <r>    0.0476    1.0000 </r>
       <r>    1.6699    1.0000 </r>
       <r>    2.2953    1.0000 </r>
       <r>    3.0351    1.0000 </r>
       <r>    3.3765    1.0000 </r>
       <r>    3.7961    1.0000 </r>
       <r>    4.4680    1.0000 </r>
       <r>    4.4736    1.0000 </r>
       <r>    4.9012    1.0000 </r>
       <r>    5.0295    1.0000 </r>
       <r>    5.9773    0.0826 </r>
       <r>    9.4171   -0.0000 </r>
       <r>   15.2085    0.0000 </r>
       <r>   20.4199    0.0000 </r>
       <r>   21.0624    0.0000 </r>
       <r>   23.2743    0.0000 </r>
       <r>   26.4461    0.0000 </r>
       <r>   27.5831    0.0000 </r>
       <r>   28.7441    0.0000 </r>
       <r>   32.0999    0.0000 </r>
      </set>
      <set comment="kpoint 25">
       <r>    0.6140    1.0000 </r>
       <r>    1.6177    1.0000 </r>
       <r>    2.5873    1.0000 </r>
       <r>    3.0567    1.0000 </r>
       <r>    3.2908    1.0000 </r>
       <r>    3.5161    1.0000 </r>
       <r>    4.4106    1.0000 </r>
       <r>    4.4556    1.0000 </r>
       <r>    5.1602    1.0000 </r>
       <r>    5.3112    1.0004 </r>
       <r>    5.8300    0.6189 </r>
       <r>    8.0002   -0.0000 </r>
       <r>   16.1685    0.0000 </r>
       <r>   19.6874    0.0000 </r>
       <r>   21.6381    0.0000 </r>
       <r>   23.6417    0.0000 </r>
       <r>   25.5456    0.0000 </r>
       <r>   25.9810    0.0000 </r>
       <r>   29.5683    0.0000 </r>
       <r>   32.3725    0.0000 </r>
      </set>
      <set comment="kpoint 26">
       <r>    1.0902    1.0000 </r>
       <r>    1.4284    1.0000 </r>
       <r>    2.8669    1.0000 </r>
       <r>    3.1128    1.0000 </r>
       <r>    3.1429    1.0000 </r>
       <r>    3.2964    1.0000 </r>
       <r>    4.4229    1.0000 </r>
       <r>    4.4520    1.0000 </r>
       <r>    5.4087    1.0033 </r>
       <r>    5.6358    1.0332 </r>
       <r>    5.8783    0.4163 </r>
       <r>    6.7926   -0.0000 </r>
       <r>   17.2401    0.0000 </r>
       <r>   18.4141    0.0000 </r>
       <r>   22.9844    0.0000 </r>
       <r>   24.1278    0.0000 </r>
       <r>   24.4424    0.0000 </r>
       <r>   24.7637    0.0000 </r>
       <r>   30.4404    0.0000 </r>
       <r>   31.3925    0.0000 </r>
      </set>
      <set comment="kpoint 27">
       <r>   -0.0959    1.0000 </r>
       <r>    1.6233    1.0000 </r>
       <r>    2.3122    1.0000 </r>
       <r>    2.9344    1.0000 </r>
       <r>    3.4414    1.0000 </r>
       <r>    3.7702    1.0000 </r>
       <r>    4.4931    1.0000 </r>
       <r>    4.6327    1.0000 </r>
       <r>    4.8494    1.0000 </r>
       <r>    4.9250    1.0000 </r>
       <r>    6.1333   -0.0327 </r>
       <r>   10.6284   -0.0000 </r>
       <r>   13.6787    0.0000 </r>
       <r>   20.1493    0.0000 </r>
       <r>   20.9338    0.0000 </r>
       <r>   23.1780    0.0000 </r>
       <r>   26.7954    0.0000 </r>
       <r>   29.5474    0.0000 </r>
       <r>   29.6286    0.0000 </r>
       <r>   29.8532    0.0000 </r>
      </set>
      <set comment="kpoint 28">
       <r>    0.3552    1.0000 </r>
       <r>    1.5773    1.0000 </r>
       <r>    2.6450    1.0000 </r>
       <r>    2.8513    1.0000 </r>
       <r>    3.4552    1.0000 </r>
       <r>    3.5451    1.0000 </r>
       <r>    4.4362    1.0000 </r>
       <r>    4.6497    1.0000 </r>
       <r>    4.9404    1.0000 </r>
       <r>    5.2022    1.0000 </r>
       <r>    6.1220   -0.0343 </r>
       <r>    9.5323   -0.0000 </r>
       <r>   13.9506    0.0000 </r>
       <r>   19.4366    0.0000 </r>
       <r>   21.1249    0.0000 </r>
       <r>   23.4024    0.0000 </r>
       <r>   26.0778    0.0000 </r>
       <r>   28.0302    0.0000 </r>
       <r>   30.5248    0.0000 </r>
       <r>   30.8480    0.0000 </r>
      </set>
      <set comment="kpoint 29">
       <r>    0.7552    1.0000 </r>
       <r>    1.4715    1.0000 </r>
       <r>    2.8316    1.0000 </r>
       <r>    2.9699    1.0000 </r>
       <r>    3.1962    1.0000 </r>
       <r>    3.5942    1.0000 </r>
       <r>    4.4695    1.0000 </r>
       <r>    4.6691    1.0000 </r>
       <r>    5.2409    1.0001 </r>
       <r>    5.4625    1.0085 </r>
       <r>    6.0378   -0.0109 </r>
       <r>    8.2046   -0.0000 </r>
       <r>   14.7053    0.0000 </r>
       <r>   18.0540    0.0000 </r>
       <r>   22.2613    0.0000 </r>
       <r>   23.7124    0.0000 </r>
       <r>   25.3433    0.0000 </r>
       <r>   26.4407    0.0000 </r>
       <r>   31.3901    0.0000 </r>
       <r>   31.8411    0.0000 </r>
      </set>
      <set comment="kpoint 30">
       <r>    1.0698    1.0000 </r>
       <r>    1.3039    1.0000 </r>
       <r>    2.8813    1.0000 </r>
       <r>    3.0032    1.0000 </r>
       <r>    3.2594    1.0000 </r>
       <r>    3.4845    1.0000 </r>
       <r>    4.5567    1.0000 </r>
       <r>    4.6404    1.0000 </r>
       <r>    5.6959    0.9932 </r>
       <r>    5.8918    0.3609 </r>
       <r>    5.9284    0.2231 </r>
       <r>    6.9573   -0.0000 </r>
       <r>   15.6765    0.0000 </r>
       <r>   16.7977    0.0000 </r>
       <r>   23.5395    0.0000 </r>
       <r>   24.1339    0.0000 </r>
       <r>   24.6792    0.0000 </r>
       <r>   24.9395    0.0000 </r>
       <r>   32.3721    0.0000 </r>
       <r>   32.6514    0.0000 </r>
      </set>
      <set comment="kpoint 31">
       <r>    0.6277    1.0000 </r>
       <r>    1.4494    1.0000 </r>
       <r>    2.7243    1.0000 </r>
       <r>    3.0380    1.0000 </r>
       <r>    3.1608    1.0000 </r>
       <r>    3.8925    1.0000 </r>
       <r>    4.4666    1.0000 </r>
       <r>    4.7608    1.0000 </r>
       <r>    4.8928    1.0000 </r>
       <r>    5.4819    1.0115 </r>
       <r>    6.1873   -0.0210 </r>
       <r>    9.1270   -0.0000 </r>
       <r>   13.4270    0.0000 </r>
       <r>   17.9332    0.0000 </r>
       <r>   22.0062    0.0000 </r>
       <r>   23.5698    0.0000 </r>
       <r>   25.5951    0.0000 </r>
       <r>   28.0111    0.0000 </r>
       <r>   29.6277    0.0000 </r>
       <r>   32.7191    0.0000 </r>
      </set>
      <set comment="kpoint 32">
       <r>    0.8391    1.0000 </r>
       <r>    1.3047    1.0000 </r>
       <r>    2.6639    1.0000 </r>
       <r>    2.9274    1.0000 </r>
       <r>    3.4270    1.0000 </r>
       <r>    4.1441    1.0000 </r>
       <r>    4.5546    1.0000 </r>
       <r>    4.8140    1.0000 </r>
       <r>    5.1475    1.0000 </r>
       <r>    5.7298    0.9385 </r>
       <r>    6.1729   -0.0243 </r>
       <r>    8.1781   -0.0000 </r>
       <r>   13.6823    0.0000 </r>
       <r>   16.5789    0.0000 </r>
       <r>   23.0445    0.0000 </r>
       <r>   23.8062    0.0000 </r>
       <r>   25.0650    0.0000 </r>
       <r>   26.8651    0.0000 </r>
       <r>   30.0883    0.0000 </r>
       <r>   33.2098    0.0000 </r>
      </set>
      <set comment="kpoint 33">
       <r>    1.0063    1.0000 </r>
       <r>    1.1565    1.0000 </r>
       <r>    2.6762    1.0000 </r>
       <r>    2.7643    1.0000 </r>
       <r>    3.7716    1.0000 </r>
       <r>    4.0373    1.0000 </r>
       <r>    4.6701    1.0000 </r>
       <r>    4.7707    1.0000 </r>
       <r>    5.9345    0.2024 </r>
       <r>    5.9613    0.1220 </r>
       <r>    6.0857   -0.0341 </r>
       <r>    7.0380   -0.0000 </r>
       <r>   14.4031    0.0000 </r>
       <r>   15.3922    0.0000 </r>
       <r>   24.1349    0.0000 </r>
       <r>   24.2219    0.0000 </r>
       <r>   24.5605    0.0000 </r>
       <r>   25.5132    0.0000 </r>
       <r>   30.9779    0.0000 </r>
       <r>   32.0312    0.0000 </r>
      </set>
      <set comment="kpoint 34">
       <r>    0.8909    1.0000 </r>
       <r>    1.1521    1.0000 </r>
       <r>    2.5641    1.0000 </r>
       <r>    2.7232    1.0000 </r>
       <r>    3.8934    1.0000 </r>
       <r>    4.6553    1.0000 </r>
       <r>    4.6731    1.0000 </r>
       <r>    4.9328    1.0000 </r>
       <r>    5.1823    1.0000 </r>
       <r>    5.9496    0.1549 </r>
       <r>    6.2296   -0.0124 </r>
       <r>    7.7437   -0.0000 </r>
       <r>   13.2995    0.0000 </r>
       <r>   15.3009    0.0000 </r>
       <r>   23.9484    0.0000 </r>
       <r>   23.9652    0.0000 </r>
       <r>   24.7444    0.0000 </r>
       <r>   26.8319    0.0000 </r>
       <r>   29.4858    0.0000 </r>
       <r>   31.9176    0.0000 </r>
      </set>
      <set comment="kpoint 35">
       <r>    0.9471    1.0000 </r>
       <r>    1.0314    1.0000 </r>
       <r>    2.5392    1.0000 </r>
       <r>    2.5924    1.0000 </r>
       <r>    4.3084    1.0000 </r>
       <r>    4.6117    1.0000 </r>
       <r>    4.7577    1.0000 </r>
       <r>    4.8529    1.0000 </r>
       <r>    5.9920    0.0518 </r>
       <r>    6.1120   -0.0352 </r>
       <r>    6.2076   -0.0166 </r>
       <r>    6.9397   -0.0000 </r>
       <r>   13.5522    0.0000 </r>
       <r>   14.2667    0.0000 </r>
       <r>   24.1552    0.0000 </r>
       <r>   24.4277    0.0000 </r>
       <r>   24.9914    0.0000 </r>
       <r>   26.0420    0.0000 </r>
       <r>   29.8881    0.0000 </r>
       <r>   30.7852    0.0000 </r>
      </set>
      <set comment="kpoint 36">
       <r>    0.9238    1.0000 </r>
       <r>    0.9510    1.0000 </r>
       <r>    2.4778    1.0000 </r>
       <r>    2.4956    1.0000 </r>
       <r>    4.7576    1.0000 </r>
       <r>    4.8154    1.0000 </r>
       <r>    4.8262    1.0000 </r>
       <r>    4.9570    1.0000 </r>
       <r>    6.1910   -0.0202 </r>
       <r>    6.2199   -0.0141 </r>
       <r>    6.2528   -0.0087 </r>
       <r>    6.6126   -0.0000 </r>
       <r>   13.2489    0.0000 </r>
       <r>   13.5145    0.0000 </r>
       <r>   24.2104    0.0000 </r>
       <r>   24.3042    0.0000 </r>
       <r>   25.7470    0.0000 </r>
       <r>   26.2038    0.0000 </r>
       <r>   29.4168    0.0000 </r>
       <r>   29.8232    0.0000 </r>
      </set>
      <set comment="kpoint 37">
       <r>   -2.3176    1.0000 </r>
       <r>    1.1174    1.0000 </r>
       <r>    1.1174    1.0000 </r>
       <r>    3.4988    1.0000 </r>
       <r>    3.4988    1.0000 </r>
       <r>    3.7281    1.0000 </r>
       <r>    4.7383    1.0000 </r>
       <r>    4.7383    1.0000 </r>
       <r>    5.5800    1.0321 </r>
       <r>    5.9174    0.2619 </r>
       <r>    5.9174    0.2619 </r>
       <r>   15.3243    0.0000 </r>
       <r>   15.3243    0.0000 </r>
       <r>   15.7597    0.0000 </r>
       <r>   22.4163    0.0000 </r>
       <r>   22.4163    0.0000 </r>
       <r>   27.5132    0.0000 </r>
       <r>   29.6224    0.0000 </r>
       <r>   29.6224    0.0000 </r>
       <r>   31.1581    0.0000 </r>
      </set>
      <set comment="kpoint 38">
       <r>   -2.0478    1.0000 </r>
       <r>    1.2288    1.0000 </r>
       <r>    1.2355    1.0000 </r>
       <r>    3.4388    1.0000 </r>
       <r>    3.4861    1.0000 </r>
       <r>    3.8622    1.0000 </r>
       <r>    4.6348    1.0000 </r>
       <r>    4.7913    1.0000 </r>
       <r>    5.2897    1.0002 </r>
       <r>    5.7022    0.9850 </r>
       <r>    5.9388    0.1883 </r>
       <r>   13.9103    0.0000 </r>
       <r>   15.7939    0.0000 </r>
       <r>   16.1293    0.0000 </r>
       <r>   22.5424    0.0000 </r>
       <r>   23.4569    0.0000 </r>
       <r>   28.2125    0.0000 </r>
       <r>   28.3963    0.0000 </r>
       <r>   29.2000    0.0000 </r>
       <r>   31.1061    0.0000 </r>
      </set>
      <set comment="kpoint 39">
       <r>   -1.6119    1.0000 </r>
       <r>    1.4052    1.0000 </r>
       <r>    1.4094    1.0000 </r>
       <r>    3.4044    1.0000 </r>
       <r>    3.4688    1.0000 </r>
       <r>    4.0282    1.0000 </r>
       <r>    4.4714    1.0000 </r>
       <r>    4.8740    1.0000 </r>
       <r>    4.9529    1.0000 </r>
       <r>    5.3984    1.0027 </r>
       <r>    5.8779    0.4180 </r>
       <r>   12.2117    0.0000 </r>
       <r>   16.5137    0.0000 </r>
       <r>   16.8244    0.0000 </r>
       <r>   22.7553    0.0000 </r>
       <r>   24.2716    0.0000 </r>
       <r>   26.7756    0.0000 </r>
       <r>   28.2566    0.0000 </r>
       <r>   30.0393    0.0000 </r>
       <r>   30.5633    0.0000 </r>
      </set>
      <set comment="kpoint 40">
       <r>   -1.0341    1.0000 </r>
       <r>    1.5839    1.0000 </r>
       <r>    1.6517    1.0000 </r>
       <r>    3.4065    1.0000 </r>
       <r>    3.4447    1.0000 </r>
       <r>    4.2237    1.0000 </r>
       <r>    4.2682    1.0000 </r>
       <r>    4.6088    1.0000 </r>
       <r>    4.9844    1.0000 </r>
       <r>    5.0585    1.0000 </r>
       <r>    5.7502    0.8918 </r>
       <r>   10.5292   -0.0000 </r>
       <r>   17.4178    0.0000 </r>
       <r>   17.7241    0.0000 </r>
       <r>   23.0762    0.0000 </r>
       <r>   24.8295    0.0000 </r>
       <r>   25.4129    0.0000 </r>
       <r>   26.9188    0.0000 </r>
       <r>   29.5509    0.0000 </r>
       <r>   31.5487    0.0000 </r>
      </set>
      <set comment="kpoint 41">
       <r>   -0.3553    1.0000 </r>
       <r>    1.7078    1.0000 </r>
       <r>    1.9448    1.0000 </r>
       <r>    3.3876    1.0000 </r>
       <r>    3.4537    1.0000 </r>
       <r>    4.0741    1.0000 </r>
       <r>    4.2949    1.0000 </r>
       <r>    4.4435    1.0000 </r>
       <r>    4.7256    1.0000 </r>
       <r>    5.1378    1.0000 </r>
       <r>    5.5728    1.0307 </r>
       <r>    8.9735   -0.0000 </r>
       <r>   18.4465    0.0000 </r>
       <r>   18.7782    0.0000 </r>
       <r>   23.5279    0.0000 </r>
       <r>   24.1461    0.0000 </r>
       <r>   25.3290    0.0000 </r>
       <r>   25.4455    0.0000 </r>
       <r>   28.3140    0.0000 </r>
       <r>   30.1128    0.0000 </r>
      </set>
      <set comment="kpoint 42">
       <r>    0.3565    1.0000 </r>
       <r>    1.6945    1.0000 </r>
       <r>    2.2741    1.0000 </r>
       <r>    3.2306    1.0000 </r>
       <r>    3.5491    1.0000 </r>
       <r>    3.9811    1.0000 </r>
       <r>    4.0383    1.0000 </r>
       <r>    4.4299    1.0000 </r>
       <r>    4.6754    1.0000 </r>
       <r>    5.3619    1.0013 </r>
       <r>    5.3854    1.0021 </r>
       <r>    7.6250   -0.0000 </r>
       <r>   19.5458    0.0000 </r>
       <r>   19.9474    0.0000 </r>
       <r>   22.9567    0.0000 </r>
       <r>   23.9700    0.0000 </r>
       <r>   24.1354    0.0000 </r>
       <r>   25.9143    0.0000 </r>
       <r>   27.0616    0.0000 </r>
       <r>   28.7828    0.0000 </r>
      </set>
      <set comment="kpoint 43">
       <r>    1.0006    1.0000 </r>
       <r>    1.4667    1.0000 </r>
       <r>    2.6201    1.0000 </r>
       <r>    2.9548    1.0000 </r>
       <r>    3.6829    1.0000 </r>
       <r>    3.8422    1.0000 </r>
       <r>    4.0331    1.0000 </r>
       <r>    4.1927    1.0000 </r>
       <r>    4.9058    1.0000 </r>
       <r>    5.1350    1.0000 </r>
       <r>    5.8254    0.6375 </r>
       <r>    6.5603   -0.0000 </r>
       <r>   20.6742    0.0000 </r>
       <r>   21.2104    0.0000 </r>
       <r>   21.8111    0.0000 </r>
       <r>   22.5554    0.0000 </r>
       <r>   24.9246    0.0000 </r>
       <r>   25.9093    0.0000 </r>
       <r>   26.6673    0.0000 </r>
       <r>   27.6242    0.0000 </r>
      </set>
      <set comment="kpoint 44">
       <r>   -1.7847    1.0000 </r>
       <r>    1.3278    1.0000 </r>
       <r>    1.3595    1.0000 </r>
       <r>    3.3504    1.0000 </r>
       <r>    3.4418    1.0000 </r>
       <r>    4.0394    1.0000 </r>
       <r>    4.6411    1.0000 </r>
       <r>    4.7653    1.0000 </r>
       <r>    4.9606    1.0000 </r>
       <r>    5.5766    1.0314 </r>
       <r>    5.9499    0.1543 </r>
       <r>   13.9244    0.0000 </r>
       <r>   14.7944    0.0000 </r>
       <r>   16.4270    0.0000 </r>
       <r>   23.0770    0.0000 </r>
       <r>   24.3239    0.0000 </r>
       <r>   27.1049    0.0000 </r>
       <r>   28.4936    0.0000 </r>
       <r>   29.0926    0.0000 </r>
       <r>   31.3078    0.0000 </r>
      </set>
      <set comment="kpoint 45">
       <r>   -1.3616    1.0000 </r>
       <r>    1.4769    1.0000 </r>
       <r>    1.5479    1.0000 </r>
       <r>    3.2717    1.0000 </r>
       <r>    3.4024    1.0000 </r>
       <r>    4.2479    1.0000 </r>
       <r>    4.5438    1.0000 </r>
       <r>    4.6051    1.0000 </r>
       <r>    4.8283    1.0000 </r>
       <r>    5.3001    1.0003 </r>
       <r>    5.9423    0.1773 </r>
       <r>   12.4838    0.0000 </r>
       <r>   15.1668    0.0000 </r>
       <r>   17.0740    0.0000 </r>
       <r>   23.3732    0.0000 </r>
       <r>   25.3528    0.0000 </r>
       <r>   25.6285    0.0000 </r>
       <r>   27.6736    0.0000 </r>
       <r>   30.4907    0.0000 </r>
       <r>   30.9362    0.0000 </r>
      </set>
      <set comment="kpoint 46">
       <r>   -0.8053    1.0000 </r>
       <r>    1.6464    1.0000 </r>
       <r>    1.7761    1.0000 </r>
       <r>    3.2293    1.0000 </r>
       <r>    3.3594    1.0000 </r>
       <r>    4.2640    1.0000 </r>
       <r>    4.3963    1.0000 </r>
       <r>    4.4824    1.0000 </r>
       <r>    4.9391    1.0000 </r>
       <r>    4.9865    1.0000 </r>
       <r>    5.8671    0.4635 </r>
       <r>   10.8130   -0.0000 </r>
       <r>   15.9575    0.0000 </r>
       <r>   17.9186    0.0000 </r>
       <r>   23.7155    0.0000 </r>
       <r>   24.1694    0.0000 </r>
       <r>   26.1109    0.0000 </r>
       <r>   26.4584    0.0000 </r>
       <r>   29.9638    0.0000 </r>
       <r>   31.5014    0.0000 </r>
      </set>
      <set comment="kpoint 47">
       <r>   -0.1607    1.0000 </r>
       <r>    1.7645    1.0000 </r>
       <r>    2.0362    1.0000 </r>
       <r>    3.2072    1.0000 </r>
       <r>    3.3219    1.0000 </r>
       <r>    3.9737    1.0000 </r>
       <r>    4.2644    1.0000 </r>
       <r>    4.6930    1.0000 </r>
       <r>    4.7221    1.0000 </r>
       <r>    5.1009    1.0000 </r>
       <r>    5.7306    0.9368 </r>
       <r>    9.2415   -0.0000 </r>
       <r>   16.8918    0.0000 </r>
       <r>   18.9105    0.0000 </r>
       <r>   22.7798    0.0000 </r>
       <r>   24.1686    0.0000 </r>
       <r>   25.0898    0.0000 </r>
       <r>   26.7523    0.0000 </r>
       <r>   28.7815    0.0000 </r>
[...]
       </set>
       <set comment="band 16">
        <r>  0.0000  0.0826  0.0000  0.0826  0.0000  0.1078  0.0000  0.1078  0.0014 </r>
        <r>  0.0000  0.0826  0.0000  0.0826  0.0000  0.1078  0.0000  0.1078  0.0014 </r>
       </set>
       <set comment="band 17">
        <r>  0.2235  0.0009  0.1386  0.0009  0.0238  0.0008  0.0076  0.0008  0.0000 </r>
        <r>  0.2235  0.0009  0.1386  0.0009  0.0238  0.0008  0.0076  0.0008  0.0000 </r>
       </set>
       <set comment="band 18">
        <r>  0.1365  0.0311  0.1007  0.0311  0.0238  0.0304  0.0039  0.0304  0.0000 </r>
        <r>  0.1365  0.0311  0.1007  0.0311  0.0238  0.0304  0.0039  0.0304  0.0000 </r>
       </set>
       <set comment="band 19">
        <r>  0.0005  0.0000  0.0046  0.0000  0.0029  0.0701  0.0238  0.0701  0.0000 </r>
        <r>  0.0005  0.0000  0.0046  0.0000  0.0029  0.0701  0.0238  0.0701  0.0000 </r>
       </set>
       <set comment="band 20">
        <r>  0.0000  0.0000  0.0000  0.0000  0.0000  0.0764  0.0000  0.0764  0.0009 </r>
        <r>  0.0000  0.0000  0.0000  0.0000  0.0000  0.0764  0.0000  0.0764  0.0009 </r>
       </set>
      </set>
      <set comment="kpoint 117">
       <set comment="band 1">
        <r>  0.0197  0.0075  0.0075  0.0075  0.1390  0.1390  0.0000  0.1390  0.0000 </r>
        <r>  0.0197  0.0075  0.0075  0.0075  0.1390  0.1390  0.0000  0.1390  0.0000 </r>
       </set>
       <set comment="band 2">
        <r>  0.0480  0.0419  0.0419  0.0419  0.0812  0.0811  0.0000  0.0811  0.0000 </r>
        <r>  0.0480  0.0419  0.0419  0.0419  0.0812  0.0811  0.0000  0.0811  0.0000 </r>
       </set>
       <set comment="band 3">
        <r>  0.0000  0.0070  0.0305  0.0082  0.2629  0.0711  0.0160  0.0607  0.0000 </r>
        <r>  0.0000  0.0070  0.0305  0.0082  0.2629  0.0711  0.0160  0.0607  0.0000 </r>
       </set>
       <set comment="band 4">
        <r>  0.0000  0.0235  0.0000  0.0223  0.0001  0.1921  0.0000  0.2025  0.0160 </r>
        <r>  0.0000  0.0235  0.0000  0.0223  0.0001  0.1921  0.0000  0.2025  0.0160 </r>
       </set>
       <set comment="band 5">
        <r>  0.0000  0.0160  0.0659  0.0170  0.1994  0.0513  0.0391  0.0484  0.0000 </r>
        <r>  0.0000  0.0160  0.0659  0.0170  0.1994  0.0513  0.0391  0.0484  0.0000 </r>
       </set>
       <set comment="band 6">
        <r>  0.0000  0.0499  0.0000  0.0490  0.0000  0.1481  0.0000  0.1510  0.0391 </r>
        <r>  0.0000  0.0499  0.0000  0.0490  0.0000  0.1481  0.0000  0.1510  0.0391 </r>
       </set>
       <set comment="band 7">
        <r>  0.0000  0.0001  0.0003  0.0001  0.0368  0.0069  0.4333  0.0119  0.0027 </r>
        <r>  0.0000  0.0001  0.0003  0.0001  0.0368  0.0069  0.4333  0.0119  0.0027 </r>
       </set>
       <set comment="band 8">
        <r>  0.0000  0.0002  0.0000  0.0003  0.0002  0.0302  0.0027  0.0252  0.4333 </r>
        <r>  0.0000  0.0002  0.0000  0.0003  0.0002  0.0302  0.0027  0.0252  0.4333 </r>
       </set>
       <set comment="band 9">
        <r>  0.0000  0.0000  0.0000  0.0000  0.0141  0.0026  0.4679  0.0046  0.0033 </r>
        <r>  0.0000  0.0000  0.0000  0.0000  0.0141  0.0026  0.4679  0.0046  0.0033 </r>
       </set>
       <set comment="band 10">
        <r>  0.0000  0.0000  0.0000  0.0000  0.0001  0.0116  0.0033  0.0096  0.4679 </r>
        <r>  0.0000  0.0000  0.0000  0.0000  0.0001  0.0116  0.0033  0.0096  0.4679 </r>
       </set>
       <set comment="band 11">
        <r>  0.0387  0.0361  0.0361  0.0361  0.0997  0.0997  0.0000  0.0997  0.0000 </r>
        <r>  0.0387  0.0361  0.0361  0.0361  0.0997  0.0997  0.0000  0.0997  0.0000 </r>
       </set>
       <set comment="band 12">
        <r>  0.0000  0.0296  0.1228  0.0318  0.1407  0.0365  0.0256  0.0339  0.0000 </r>
        <r>  0.0000  0.0296  0.1228  0.0318  0.1407  0.0365  0.0256  0.0339  0.0000 </r>
       </set>
       <set comment="band 13">
        <r>  0.0000  0.0932  0.0000  0.0909  0.0000  0.1043  0.0000  0.1069  0.0256 </r>
        <r>  0.0000  0.0932  0.0000  0.0909  0.0000  0.1043  0.0000  0.1069  0.0256 </r>
       </set>
       <set comment="band 14">
        <r>  0.2775  0.0033  0.0033  0.0033  0.0429  0.0429  0.0000  0.0429  0.0000 </r>
        <r>  0.2775  0.0033  0.0033  0.0033  0.0429  0.0429  0.0000  0.0429  0.0000 </r>
       </set>
       <set comment="band 15">
        <r>  0.0000  0.0255  0.1148  0.0321  0.1409  0.0394  0.0140  0.0313  0.0000 </r>
        <r>  0.0000  0.0255  0.1148  0.0321  0.1409  0.0394  0.0140  0.0313  0.0000 </r>
       </set>
       <set comment="band 16">
        <r>  0.0000  0.0894  0.0001  0.0828  0.0002  0.1016  0.0000  0.1098  0.0140 </r>
        <r>  0.0000  0.0894  0.0001  0.0828  0.0002  0.1016  0.0000  0.1098  0.0140 </r>
       </set>
       <set comment="band 17">
        <r>  0.3111  0.0300  0.0300  0.0300  0.0000  0.0000  0.0000  0.0000  0.0000 </r>
        <r>  0.3111  0.0300  0.0300  0.0300  0.0000  0.0000  0.0000  0.0000  0.0000 </r>
       </set>
       <set comment="band 18">
        <r>  0.0942  0.0586  0.0586  0.0586  0.0379  0.0379  0.0000  0.0379  0.0000 </r>
        <r>  0.0942  0.0586  0.0586  0.0586  0.0379  0.0379  0.0000  0.0379  0.0000 </r>
       </set>
       <set comment="band 19">
        <r>  0.0000  0.0105  0.0002  0.0081  0.0005  0.0221  0.0012  0.0289  0.0930 </r>
        <r>  0.0000  0.0105  0.0002  0.0081  0.0005  0.0221  0.0012  0.0289  0.0930 </r>
       </set>
       <set comment="band 20">
        <r>  0.0000  0.0020  0.0123  0.0044  0.0338  0.0122  0.0930  0.0054  0.0012 </r>
        <r>  0.0000  0.0020  0.0123  0.0044  0.0338  0.0122  0.0930  0.0054  0.0012 </r>
       </set>
      </set>
      <set comment="kpoint 118">
       <set comment="band 1">
        <r>  0.0167  0.0175  0.0175  0.0018  0.1569  0.0838  0.0009  0.1568  0.0027 </r>
        <r>  0.0167  0.0175  0.0175  0.0018  0.1569  0.0838  0.0009  0.1568  0.0027 </r>
       </set>
       <set comment="band 2">
        <r>  0.0189  0.0302  0.0302  0.0000  0.1584  0.0428  0.0019  0.1582  0.0056 </r>
        <r>  0.0189  0.0302  0.0302  0.0000  0.1584  0.0428  0.0019  0.1582  0.0056 </r>
       </set>
       <set comment="band 3">
        <r>  0.0000  0.0308  0.0308  0.0000  0.1835  0.0000  0.0162  0.1837  0.0054 </r>
        <r>  0.0000  0.0308  0.0308  0.0000  0.1835  0.0000  0.0162  0.1837  0.0054 </r>
       </set>
       <set comment="band 4">
        <r>  0.0000  0.0397  0.0397  0.0000  0.1678  0.0000  0.0217  0.1678  0.0072 </r>
        <r>  0.0000  0.0397  0.0397  0.0000  0.1678  0.0000  0.0217  0.1678  0.0072 </r>
       </set>
       <set comment="band 5">
        <r>  0.0099  0.0097  0.0097  0.0807  0.0044  0.3183  0.0000  0.0044  0.0000 </r>
        <r>  0.0099  0.0097  0.0097  0.0807  0.0044  0.3183  0.0000  0.0044  0.0000 </r>
       </set>
       <set comment="band 6">
        <r>  0.0021  0.0138  0.0138  0.0792  0.0198  0.2757  0.0030  0.0198  0.0091 </r>
        <r>  0.0021  0.0138  0.0138  0.0792  0.0198  0.2757  0.0030  0.0198  0.0091 </r>
       </set>
       <set comment="band 7">
        <r>  0.0000  0.0001  0.0001  0.0000  0.0201  0.0000  0.3393  0.0201  0.1125 </r>
        <r>  0.0000  0.0001  0.0001  0.0000  0.0201  0.0000  0.3393  0.0201  0.1125 </r>
       </set>
       <set comment="band 8">
        <r>  0.0000  0.0000  0.0000  0.0000  0.0147  0.0000  0.3477  0.0146  0.1153 </r>
        <r>  0.0000  0.0000  0.0000  0.0000  0.0147  0.0000  0.3477  0.0146  0.1153 </r>
       </set>
       <set comment="band 9">
        <r>  0.0001  0.0000  0.0000  0.0001  0.0073  0.0087  0.1169  0.0073  0.3526 </r>
        <r>  0.0001  0.0000  0.0000  0.0001  0.0073  0.0087  0.1169  0.0073  0.3526 </r>
       </set>
       <set comment="band 10">
        <r>  0.0001  0.0000  0.0000  0.0000  0.0052  0.0003  0.1201  0.0052  0.3623 </r>
        <r>  0.0001  0.0000  0.0000  0.0000  0.0052  0.0003  0.1201  0.0052  0.3623 </r>
       </set>
       <set comment="band 11">
        <r>  0.0346  0.0348  0.0348  0.0608  0.0805  0.1080  0.0006  0.0805  0.0017 </r>
        <r>  0.0346  0.0348  0.0348  0.0608  0.0805  0.1080  0.0006  0.0805  0.0017 </r>
       </set>
       <set comment="band 12">
        <r>  0.0182  0.0337  0.0337  0.0930  0.0605  0.1164  0.0026  0.0605  0.0079 </r>
        <r>  0.0182  0.0337  0.0337  0.0930  0.0605  0.1164  0.0026  0.0605  0.0079 </r>
       </set>
       <set comment="band 13">
        <r>  0.0000  0.0918  0.0918  0.0000  0.1055  0.0000  0.0152  0.1055  0.0051 </r>
        <r>  0.0000  0.0918  0.0918  0.0000  0.1055  0.0000  0.0152  0.1055  0.0051 </r>
       </set>
       <set comment="band 14">
        <r>  0.0000  0.0897  0.0897  0.0000  0.1057  0.0000  0.0125  0.1057  0.0042 </r>
        <r>  0.0000  0.0897  0.0897  0.0000  0.1057  0.0000  0.0125  0.1057  0.0042 </r>
       </set>
       <set comment="band 15">
        <r>  0.2327  0.0008  0.0008  0.0438  0.0306  0.0710  0.0000  0.0306  0.0000 </r>
        <r>  0.2327  0.0008  0.0008  0.0438  0.0306  0.0710  0.0000  0.0306  0.0000 </r>
       </set>
       <set comment="band 16">
        <r>  0.1378  0.0025  0.0025  0.1019  0.0305  0.0943  0.0005  0.0305  0.0016 </r>
        <r>  0.1378  0.0025  0.0025  0.1019  0.0305  0.0943  0.0005  0.0305  0.0016 </r>
       </set>
       <set comment="band 17">
        <r>  0.1978  0.0587  0.0587  0.0106  0.0160  0.0345  0.0006  0.0160  0.0017 </r>
        <r>  0.1978  0.0587  0.0587  0.0106  0.0160  0.0345  0.0006  0.0160  0.0017 </r>
       </set>
       <set comment="band 18">
        <r>  0.1272  0.0607  0.0607  0.0377  0.0298  0.0418  0.0002  0.0298  0.0005 </r>
        <r>  0.1272  0.0607  0.0607  0.0377  0.0298  0.0418  0.0002  0.0298  0.0005 </r>
       </set>
       <set comment="band 19">
        <r>  0.0000  0.0060  0.0060  0.0000  0.0302  0.0000  0.0454  0.0302  0.0151 </r>
        <r>  0.0000  0.0060  0.0060  0.0000  0.0302  0.0000  0.0454  0.0302  0.0151 </r>
       </set>
       <set comment="band 20">
        <r>  0.0000  0.0021  0.0021  0.0000  0.0237  0.0000  0.0168  0.0237  0.0056 </r>
        <r>  0.0000  0.0021  0.0021  0.0000  0.0237  0.0000  0.0168  0.0237  0.0056 </r>
       </set>
      </set>
      <set comment="kpoint 119">
       <set comment="band 1">
        <r>  0.0112  0.0057  0.0387  0.0057  0.2374  0.0730  0.0070  0.0730  0.0000 </r>
        <r>  0.0112  0.0057  0.0387  0.0057  0.2374  0.0730  0.0070  0.0730  0.0000 </r>
       </set>
       <set comment="band 2">
        <r>  0.0119  0.0005  0.0685  0.0005  0.3479  0.0000  0.0152  0.0000  0.0000 </r>
        <r>  0.0119  0.0005  0.0685  0.0005  0.3479  0.0000  0.0152  0.0000  0.0000 </r>
       </set>
       <set comment="band 3">
        <r>  0.0000  0.0245  0.0000  0.0245  0.0000  0.2028  0.0000  0.2027  0.0019 </r>
        <r>  0.0000  0.0245  0.0000  0.0245  0.0000  0.2028  0.0000  0.2027  0.0019 </r>
       </set>
       <set comment="band 4">
        <r>  0.0008  0.0190  0.0302  0.0190  0.1110  0.1288  0.0114  0.1288  0.0000 </r>
        <r>  0.0008  0.0190  0.0302  0.0190  0.1110  0.1288  0.0114  0.1288  0.0000 </r>
       </set>
       <set comment="band 5">
        <r>  0.0036  0.0535  0.0003  0.0535  0.0011  0.1618  0.0008  0.1618  0.0000 </r>
        <r>  0.0036  0.0535  0.0003  0.0535  0.0011  0.1618  0.0008  0.1618  0.0000 </r>
       </set>
       <set comment="band 6">
        <r>  0.0000  0.0540  0.0000  0.0540  0.0000  0.1622  0.0000  0.1622  0.0047 </r>
        <r>  0.0000  0.0540  0.0000  0.0540  0.0000  0.1622  0.0000  0.1622  0.0047 </r>
       </set>
       <set comment="band 7">
        <r>  0.0001  0.0000  0.0001  0.0000  0.0239  0.0010  0.4668  0.0010  0.0000 </r>
        <r>  0.0001  0.0000  0.0001  0.0000  0.0239  0.0010  0.4668  0.0010  0.0000 </r>
       </set>
       <set comment="band 8">
        <r>  0.0001  0.0000  0.0001  0.0000  0.0214  0.0004  0.4705  0.0004  0.0000 </r>
        <r>  0.0001  0.0000  0.0001  0.0000  0.0214  0.0004  0.4705  0.0004  0.0000 </r>
       </set>
       <set comment="band 9">
        <r>  0.0000  0.0000  0.0000  0.0000  0.0000  0.0034  0.0000  0.0034  0.4865 </r>
        <r>  0.0000  0.0000  0.0000  0.0000  0.0000  0.0034  0.0000  0.0034  0.4865 </r>
       </set>
       <set comment="band 10">
        <r>  0.0000  0.0000  0.0000  0.0000  0.0000  0.0013  0.0000  0.0013  0.4910 </r>
        <r>  0.0000  0.0000  0.0000  0.0000  0.0000  0.0013  0.0000  0.0013  0.4910 </r>
       </set>
       <set comment="band 11">
        <r>  0.0236  0.0661  0.0210  0.0661  0.0455  0.1021  0.0006  0.1021  0.0000 </r>
        <r>  0.0236  0.0661  0.0210  0.0661  0.0455  0.1021  0.0006  0.1021  0.0000 </r>
       </set>
       <set comment="band 12">
        <r>  0.0000  0.0902  0.0000  0.0902  0.0000  0.1179  0.0000  0.1179  0.0032 </r>
        <r>  0.0000  0.0902  0.0000  0.0902  0.0000  0.1179  0.0000  0.1179  0.0032 </r>
       </set>
       <set comment="band 13">
        <r>  0.0656  0.0069  0.1184  0.0069  0.2017  0.0047  0.0120  0.0047  0.0000 </r>
        <r>  0.0656  0.0069  0.1184  0.0069  0.2017  0.0047  0.0120  0.0047  0.0000 </r>
       </set>
       <set comment="band 14">
        <r>  0.0623  0.0226  0.0931  0.0226  0.1658  0.0193  0.0099  0.0193  0.0000 </r>
        <r>  0.0623  0.0226  0.0931  0.0226  0.1658  0.0193  0.0099  0.0193  0.0000 </r>
       </set>
       <set comment="band 15">
        <r>  0.1372  0.0495  0.0056  0.0495  0.0010  0.0804  0.0007  0.0804  0.0000 </r>
        <r>  0.1372  0.0495  0.0056  0.0495  0.0010  0.0804  0.0007  0.0804  0.0000 </r>
       </set>
       <set comment="band 16">
        <r>  0.0000  0.0870  0.0000  0.0870  0.0000  0.1107  0.0000  0.1107  0.0016 </r>
        <r>  0.0000  0.0870  0.0000  0.0870  0.0000  0.1107  0.0000  0.1107  0.0016 </r>
       </set>
       <set comment="band 17">
        <r>  0.3005  0.0018  0.0759  0.0018  0.0180  0.0003  0.0018  0.0003  0.0000 </r>
        <r>  0.3005  0.0018  0.0759  0.0018  0.0180  0.0003  0.0018  0.0003  0.0000 </r>
       </set>
       <set comment="band 18">
        <r>  0.1863  0.0312  0.0663  0.0312  0.0245  0.0269  0.0009  0.0269  0.0000 </r>
        <r>  0.1863  0.0312  0.0663  0.0312  0.0245  0.0269  0.0009  0.0269  0.0000 </r>
       </set>
       <set comment="band 19">
        <r>  0.0001  0.0006  0.0043  0.0006  0.0085  0.0372  0.0238  0.0372  0.0000 </r>
        <r>  0.0001  0.0006  0.0043  0.0006  0.0085  0.0372  0.0238  0.0372  0.0000 </r>
       </set>
       <set comment="band 20">
        <r>  0.0000  0.0003  0.0000  0.0003  0.0000  0.0395  0.0000  0.0395  0.0012 </r>
        <r>  0.0000  0.0003  0.0000  0.0003  0.0000  0.0395  0.0000  0.0395  0.0012 </r>
       </set>
      </set>
      <set comment="kpoint 120">
       <set comment="band 1">
        <r>  0.0033  0.0189  0.0189  0.0189  0.1310  0.1308  0.0000  0.1308  0.0000 </r>
        <r>  0.0033  0.0189  0.0189  0.0189  0.1310  0.1308  0.0000  0.1308  0.0000 </r>
       </set>
       <set comment="band 2">
        <r>  0.0000  0.0100  0.0442  0.0121  0.2543  0.0698  0.0025  0.0574  0.0000 </r>
        <r>  0.0000  0.0100  0.0442  0.0121  0.2543  0.0698  0.0025  0.0574  0.0000 </r>
       </set>
       <set comment="band 3">
        <r>  0.0000  0.0342  0.0000  0.0321  0.0002  0.1845  0.0000  0.1969  0.0025 </r>
        <r>  0.0000  0.0342  0.0000  0.0321  0.0002  0.1845  0.0000  0.1969  0.0025 </r>
       </set>
       <set comment="band 4">
        <r>  0.0000  0.0130  0.0572  0.0157  0.2362  0.0648  0.0034  0.0537  0.0000 </r>
        <r>  0.0000  0.0130  0.0572  0.0157  0.2362  0.0648  0.0034  0.0537  0.0000 </r>
       </set>
       <set comment="band 5">
        <r>  0.0000  0.0443  0.0000  0.0416  0.0002  0.1717  0.0000  0.1828  0.0034 </r>
        <r>  0.0000  0.0443  0.0000  0.0416  0.0002  0.1717  0.0000  0.1828  0.0034 </r>
       </set>
       <set comment="band 6">
        <r>  0.0045  0.0320  0.0319  0.0320  0.1129  0.1132  0.0000  0.1132  0.0000 </r>
        <r>  0.0045  0.0320  0.0319  0.0320  0.1129  0.1132  0.0000  0.1132  0.0000 </r>
       </set>
       <set comment="band 7">
        <r>  0.0000  0.0000  0.0000  0.0000  0.0032  0.0006  0.4851  0.0011  0.0036 </r>
        <r>  0.0000  0.0000  0.0000  0.0000  0.0032  0.0006  0.4851  0.0011  0.0036 </r>
       </set>
       <set comment="band 8">
        <r>  0.0000  0.0000  0.0000  0.0000  0.0000  0.0026  0.0036  0.0022  0.4851 </r>
        <r>  0.0000  0.0000  0.0000  0.0000  0.0000  0.0026  0.0036  0.0022  0.4851 </r>
       </set>
       <set comment="band 9">
        <r>  0.0000  0.0000  0.0000  0.0000  0.0023  0.0004  0.4865  0.0008  0.0036 </r>
        <r>  0.0000  0.0000  0.0000  0.0000  0.0023  0.0004  0.4865  0.0008  0.0036 </r>
       </set>
       <set comment="band 10">
        <r>  0.0000  0.0000  0.0000  0.0000  0.0000  0.0019  0.0036  0.0016  0.4865 </r>
        <r>  0.0000  0.0000  0.0000  0.0000  0.0000  0.0019  0.0036  0.0016  0.4865 </r>
       </set>
       <set comment="band 11">
        <r>  0.0207  0.0543  0.0543  0.0543  0.0788  0.0788  0.0000  0.0788  0.0000 </r>
        <r>  0.0207  0.0543  0.0543  0.0543  0.0788  0.0788  0.0000  0.0788  0.0000 </r>
       </set>
       <set comment="band 12">
        <r>  0.0000  0.0257  0.1212  0.0353  0.1523  0.0444  0.0024  0.0323  0.0000 </r>
        <r>  0.0000  0.0257  0.1212  0.0353  0.1523  0.0444  0.0024  0.0323  0.0000 </r>
       </set>
       <set comment="band 13">
        <r>  0.0000  0.0958  0.0003  0.0862  0.0003  0.1082  0.0000  0.1203  0.0024 </r>
        <r>  0.0000  0.0958  0.0003  0.0862  0.0003  0.1082  0.0000  0.1203  0.0024 </r>
       </set>
       <set comment="band 14">
        <r>  0.0000  0.0247  0.1196  0.0356  0.1493  0.0444  0.0019  0.0308  0.0000 </r>
        <r>  0.0000  0.0247  0.1196  0.0356  0.1493  0.0444  0.0019  0.0308  0.0000 </r>
       </set>
       <set comment="band 15">
        <r>  0.0000  0.0952  0.0003  0.0843  0.0004  0.1053  0.0000  0.1189  0.0019 </r>
        <r>  0.0000  0.0952  0.0003  0.0843  0.0004  0.1053  0.0000  0.1189  0.0019 </r>
       </set>
       <set comment="band 16">
        <r>  0.1147  0.0368  0.0367  0.0368  0.0616  0.0616  0.0000  0.0616  0.0000 </r>
        <r>  0.1147  0.0368  0.0367  0.0368  0.0616  0.0616  0.0000  0.0616  0.0000 </r>
       </set>
       <set comment="band 17">
        <r>  0.3800  0.0073  0.0073  0.0073  0.0009  0.0009  0.0000  0.0009  0.0000 </r>
        <r>  0.3800  0.0073  0.0073  0.0073  0.0009  0.0009  0.0000  0.0009  0.0000 </r>
       </set>
       <set comment="band 18">
        <r>  0.2870  0.0234  0.0234  0.0234  0.0146  0.0146  0.0000  0.0146  0.0000 </r>
        <r>  0.2870  0.0234  0.0234  0.0234  0.0146  0.0146  0.0000  0.0146  0.0000 </r>
       </set>
       <set comment="band 19">
        <r>  0.0000  0.0009  0.0047  0.0015  0.0299  0.0093  0.0170  0.0060  0.0001 </r>
        <r>  0.0000  0.0009  0.0047  0.0015  0.0299  0.0093  0.0170  0.0060  0.0001 </r>
       </set>
       <set comment="band 20">
        <r>  0.0000  0.0024  0.0000  0.0020  0.0001  0.0133  0.0001  0.0154  0.0108 </r>
        <r>  0.0000  0.0024  0.0000  0.0020  0.0001  0.0133  0.0001  0.0154  0.0108 </r>
       </set>
      </set>
     </set>
    </set>
   </array>
  </projected>
 </calculation>
 <structure name="finalpos" >
  <crystal>
   <varray name="basis" >
    <v>       2.82959239      -0.00000000       0.00000000 </v>
    <v>       0.00000000       2.82959239       0.00000000 </v>
    <v>      -0.00000000      -0.00000000       2.82959239 </v>
   </varray>
   <i name="volume">     22.65539488 </i>
   <varray name="rec_basis" >
    <v>       0.35340779      -0.00000000       0.00000000 </v>
    <v>       0.00000000       0.35340779       0.00000000 </v>
    <v>      -0.00000000      -0.00000000       0.35340779 </v>
   </varray>
  </crystal>
  <varray name="positions" >
   <v>      -0.00000000      -0.00000000       0.00000000 </v>
   <v>       0.50000000       0.50000000       0.50000000 </v>
  </varray>
 </structure>
</modeling>
