 running on    4 total cores
 distrk:  each k-point on    4 cores,    1 groups
 distr:  one band on    1 cores,    4 groups
 vasp.6.2.0 18Jan21 (build Aug 12 2022 13:00:08) complex                        
  
 POSCAR found type information on POSCAR Fe
 POSCAR found :  1 types and       2 ions
 scaLAPACK will be used
 LDA part: xc-table for Pade appr. of Perdew
 POSCAR, INCAR and KPOINTS ok, starting setup
 FFT: planning ...
 WAVECAR not read
 entering main loop
       N       E                     dE             d eps       ncg     rms          rms(c)
DAV:   1     0.577728797903E+02    0.57773E+02   -0.54857E+03 10624   0.713E+02
DAV:   2    -0.138784297790E+02   -0.71651E+02   -0.63748E+02  9820   0.157E+02
DAV:   3    -0.160717514086E+02   -0.21933E+01   -0.21625E+01 10932   0.346E+01
DAV:   4    -0.160865653336E+02   -0.14814E-01   -0.14812E-01 10248   0.269E+00
DAV:   5    -0.160867393929E+02   -0.17406E-03   -0.17406E-03 10800   0.281E-01    0.195E+01
DAV:   6    -0.165725454925E+02   -0.48581E+00   -0.50726E+00 10564   0.416E+01    0.598E+00
DAV:   7    -0.165135370585E+02    0.59008E-01   -0.36466E-01 11308   0.887E+00    0.427E+00
DAV:   8    -0.164962472467E+02    0.17290E-01   -0.10432E-02 12252   0.108E+00    0.160E+00
DAV:   9    -0.164851430000E+02    0.11104E-01   -0.30156E-03 13928   0.941E-01    0.430E-01
DAV:  10    -0.164847511759E+02    0.39182E-03   -0.18073E-03 11372   0.652E-01    0.637E-02
DAV:  11    -0.164847835592E+02   -0.32383E-04   -0.71889E-05 11248   0.678E-02    0.452E-02
DAV:  12    -0.164847740510E+02    0.95082E-05   -0.25801E-06  9984   0.126E-02    0.183E-02
DAV:  13    -0.164847750343E+02   -0.98329E-06   -0.10210E-06  7764   0.931E-03
   1 F= -.16484775E+02 E0= -.16483854E+02  d E =-.164848E+02  mag=     4.4663
 curvature:   0.00 expect dE= 0.000E+00 dE for cont linesearch  0.000E+00
 trial: gam= 0.00000 g(F)=  0.467E-61 g(S)=  0.606E-01 ort = 0.000E+00 (trialstep = 0.100E+01)
 search vector abs. value=  0.606E-01
 bond charge predicted
       N       E                     dE             d eps       ncg     rms          rms(c)
DAV:   1    -0.171996866630E+02   -0.71491E+00   -0.66536E+00 10548   0.413E+01    0.798E+00
DAV:   2    -0.165340583258E+02    0.66563E+00   -0.12262E+00 10512   0.239E+01    0.640E+00
DAV:   3    -0.164996534911E+02    0.34405E-01   -0.89610E-02 11332   0.527E+00    0.228E+00
DAV:   4    -0.164926501969E+02    0.70033E-02   -0.46870E-03 11832   0.717E-01    0.525E-01
DAV:   5    -0.164870031067E+02    0.56471E-02   -0.37313E-03 11872   0.467E-01    0.884E-02
DAV:   6    -0.164871029980E+02   -0.99891E-04   -0.26580E-04 10620   0.172E-01    0.478E-02
DAV:   7    -0.164871115804E+02   -0.85824E-05   -0.14541E-05 10076   0.427E-02    0.227E-02
DAV:   8    -0.164871091125E+02    0.24679E-05   -0.12984E-06  8044   0.145E-02    0.103E-02
DAV:   9    -0.164871079328E+02    0.11797E-05   -0.39059E-07  5024   0.950E-03    0.361E-03
DAV:  10    -0.164871078861E+02    0.46700E-07   -0.66330E-08  4980   0.277E-03
   2 F= -.16487108E+02 E0= -.16486208E+02  d E =-.233285E-02  mag=     4.2592
 trial-energy change:   -0.002333  1 .order    0.000064   -0.060645    0.060773
 step:   0.5290(harm=  0.4995)  dis= 0.00000  next Energy=   -16.501170 (dE=-0.164E-01)
 bond charge predicted
       N       E                     dE             d eps       ncg     rms          rms(c)
DAV:   1    -0.166667400116E+02   -0.17963E+00   -0.15123E+00 10472   0.205E+01    0.395E+00
DAV:   2    -0.165191993840E+02    0.14754E+00   -0.39863E-01 10560   0.121E+01    0.359E+00
DAV:   3    -0.165045541103E+02    0.14645E-01   -0.27347E-02 11288   0.311E+00    0.108E+00
DAV:   4    -0.165028201473E+02    0.17340E-02   -0.18580E-03 12736   0.507E-01    0.316E-01
DAV:   5    -0.165014298260E+02    0.13903E-02   -0.10151E-03 10788   0.266E-01    0.542E-02
DAV:   6    -0.165014538951E+02   -0.24069E-04   -0.34721E-05 10148   0.474E-02    0.227E-02
DAV:   7    -0.165014595720E+02   -0.56769E-05   -0.33449E-06 10004   0.172E-02    0.140E-02
DAV:   8    -0.165014625895E+02   -0.30175E-05   -0.55030E-07  6100   0.768E-03    0.337E-03
DAV:   9    -0.165014626681E+02   -0.78602E-07   -0.80129E-08  4936   0.249E-03
   3 F= -.16501463E+02 E0= -.16500593E+02  d E =-.166876E-01  mag=     4.3543
 curvature:  -0.25 expect dE=-0.542E-07 dE for cont linesearch -0.542E-07
 trial: gam= 0.00000 g(F)=  0.165E-61 g(S)=  0.218E-06 ort =-0.115E-03 (trialstep = 0.906E+00)
 search vector abs. value=  0.218E-06
 reached required accuracy - stopping structural energy minimisation
 writing wavefunctions
