   1   1   0   0
  0.1386300E+02  0.2621157E-09  0.2621157E-09  0.2621157E-09  0.5000000E-15
  1.000000000000000E-004
  CAR 
 unknown system                          
     35.81441081     -6.23007739  301      9.73001573      1.00000000
     -6.230  0.0000E+00  0.0000E+00
     -6.090  0.0000E+00  0.0000E+00
     -5.950  0.0000E+00  0.0000E+00
     -5.810  0.0000E+00  0.0000E+00
     -5.669  0.0000E+00  0.0000E+00
     -5.529  0.0000E+00  0.0000E+00
     -5.389  0.0000E+00  0.0000E+00
     -5.249  0.0000E+00  0.0000E+00
     -5.109  0.0000E+00  0.0000E+00
     -4.969  0.0000E+00  0.0000E+00
     -4.829  0.0000E+00  0.0000E+00
     -4.688  0.0000E+00  0.0000E+00
     -4.548  0.8597E-14  0.1205E-14
     -4.408  0.1140E-05  0.1598E-06
     -4.268  0.1800E-03  0.2538E-04
     -4.128  0.1463E-04  0.2743E-04
     -3.988  0.2235E-03  0.5876E-04
     -3.848  0.2116E-02  0.3553E-03
     -3.707  0.9366E-05  0.3567E-03
     -3.567  0.5503E-03  0.4338E-03
     -3.427  0.6241E-03  0.5213E-03
     -3.287  0.1242E-04  0.5230E-03
     -3.147  0.4121E-02  0.1100E-02
     -3.007  0.5653E-03  0.1180E-02
     -2.867  0.1513E-03  0.1201E-02
     -2.726  0.2181E-02  0.1507E-02
     -2.586  0.1707E-04  0.1509E-02
     -2.446  0.1918E-02  0.1778E-02
     -2.306  0.2779E-02  0.2167E-02
     -2.166  0.3537E-05  0.2168E-02
     -2.026  0.1344E-02  0.2356E-02
     -1.885  0.2188E-03  0.2387E-02
     -1.745  0.5650E-03  0.2466E-02
     -1.605  0.8756E-02  0.3693E-02
     -1.465  0.7489E-04  0.3704E-02
     -1.325  0.4863E-03  0.3772E-02
     -1.185  0.6881E-03  0.3868E-02
     -1.045  0.1791E-04  0.3871E-02
     -0.904  0.6163E-02  0.4735E-02
     -0.764  0.8666E-03  0.4856E-02
     -0.624  0.3712E-03  0.4908E-02
     -0.484  0.4302E-02  0.5511E-02
     -0.344  0.2532E-04  0.5514E-02
     -0.204  0.2338E-02  0.5842E-02
     -0.064  0.2360E-02  0.6173E-02
      0.077  0.2614E-04  0.6176E-02
      0.217  0.4309E-02  0.6780E-02
      0.357  0.3635E-03  0.6831E-02
      0.497  0.1976E-02  0.7108E-02
      0.637  0.1209E-01  0.8803E-02
      0.777  0.2767E-04  0.8807E-02
      0.917  0.5294E-13  0.8807E-02
      1.058  0.6969E-11  0.8807E-02
      1.198  0.1754E-03  0.8831E-02
      1.338  0.8940E-02  0.1008E-01
      1.478  0.2812E-03  0.1012E-01
      1.618  0.7795E-03  0.1023E-01
      1.758  0.1569E-02  0.1045E-01
      1.899  0.1556E-04  0.1045E-01
      2.039  0.7906E-02  0.1156E-01
      2.179  0.1476E-02  0.1177E-01
      2.319  0.4872E-03  0.1184E-01
      2.459  0.5356E-02  0.1259E-01
      2.599  0.3042E-04  0.1259E-01
      2.739  0.8110E-02  0.1373E-01
      2.880  0.5983E-02  0.1457E-01
      3.020  0.7859E-04  0.1458E-01
      3.160  0.4467E-02  0.1520E-01
      3.300  0.3744E-02  0.1573E-01
      3.440  0.1107E-02  0.1588E-01
      3.580  0.2101E-04  0.1589E-01
      3.720  0.4275E-02  0.1649E-01
      3.861  0.4561E-02  0.1713E-01
      4.001  0.2429E-02  0.1747E-01
      4.141  0.2808E-02  0.1786E-01
      4.281  0.1169E-04  0.1786E-01
      4.421  0.4092E-02  0.1844E-01
      4.561  0.1693E-02  0.1867E-01
      4.701  0.1426E-02  0.1887E-01
      4.842  0.4058E-02  0.1944E-01
      4.982  0.6468E-02  0.2035E-01
      5.122  0.3285E-02  0.2081E-01
      5.262  0.2762E-02  0.2119E-01
      5.402  0.5453E-02  0.2196E-01
      5.542  0.4389E-02  0.2257E-01
      5.683  0.3711E-02  0.2309E-01
      5.823  0.6911E-02  0.2406E-01
      5.963  0.2889E-02  0.2447E-01
      6.103  0.8413E-02  0.2565E-01
      6.243  0.3964E-04  0.2565E-01
      6.383  0.3880E-02  0.2620E-01
      6.523  0.8119E-03  0.2631E-01
      6.664  0.2171E-08  0.2631E-01
      6.804  0.1233E-05  0.2631E-01
      6.944  0.3242E-02  0.2676E-01
      7.084  0.6701E-02  0.2770E-01
      7.224  0.7118E-02  0.2870E-01
      7.364  0.2744E-02  0.2909E-01
      7.504  0.2583E-02  0.2945E-01
      7.645  0.7127E-03  0.2955E-01
      7.785  0.6885E-02  0.3051E-01
      7.925  0.5873E-02  0.3134E-01
      8.065  0.6141E-02  0.3220E-01
      8.205  0.5584E-02  0.3298E-01
      8.345  0.3623E-02  0.3349E-01
      8.485  0.1646E-02  0.3372E-01
      8.626  0.3265E-03  0.3376E-01
      8.766  0.6847E-02  0.3472E-01
      8.906  0.4502E-02  0.3535E-01
      9.046  0.4535E-02  0.3599E-01
      9.186  0.6518E-02  0.3690E-01
      9.326  0.1250E-01  0.3865E-01
      9.467  0.9360E-04  0.3867E-01
      9.607  0.6474E-02  0.3957E-01
      9.747  0.3868E-02  0.4012E-01
      9.887  0.1320E-02  0.4030E-01
     10.027  0.8075E-03  0.4041E-01
     10.167  0.7372E-02  0.4145E-01
     10.307  0.5705E-02  0.4225E-01
     10.448  0.4436E-03  0.4231E-01
     10.588  0.4416E-02  0.4293E-01
     10.728  0.4984E-04  0.4294E-01
     10.868  0.6210E-02  0.4381E-01
     11.008  0.5513E-02  0.4458E-01
     11.148  0.2398E-04  0.4458E-01
     11.288  0.7063E-02  0.4557E-01
     11.429  0.6991E-02  0.4655E-01
     11.569  0.2025E-02  0.4684E-01
     11.709  0.8658E-02  0.4805E-01
     11.849  0.9298E-02  0.4935E-01
     11.989  0.7635E-03  0.4946E-01
     12.129  0.3952E-02  0.5001E-01
     12.269  0.5549E-02  0.5079E-01
     12.410  0.4594E-02  0.5143E-01
     12.550  0.5118E-02  0.5215E-01
     12.690  0.3528E-02  0.5265E-01
     12.830  0.1442E-02  0.5285E-01
     12.970  0.8924E-02  0.5410E-01
     13.110  0.1392E-02  0.5429E-01
     13.251  0.7257E-02  0.5531E-01
     13.391  0.4466E-02  0.5594E-01
     13.531  0.2456E-02  0.5628E-01
     13.671  0.1076E-01  0.5779E-01
     13.811  0.2764E-03  0.5783E-01
     13.951  0.1585E-02  0.5805E-01
     14.091  0.1613E-02  0.5828E-01
     14.232  0.9904E-02  0.5966E-01
     14.372  0.1250E-01  0.6142E-01
     14.512  0.6836E-04  0.6143E-01
     14.652  0.3648E-05  0.6143E-01
     14.792  0.3699E-02  0.6195E-01
     14.932  0.4415E-02  0.6256E-01
     15.072  0.5491E-02  0.6333E-01
     15.213  0.4867E-03  0.6340E-01
     15.353  0.3192E-02  0.6385E-01
     15.493  0.1734E-01  0.6628E-01
     15.633  0.9800E-02  0.6765E-01
     15.773  0.1385E-02  0.6785E-01
     15.913  0.4902E-03  0.6792E-01
     16.054  0.9202E-02  0.6920E-01
     16.194  0.9836E-02  0.7058E-01
     16.334  0.1071E-01  0.7208E-01
     16.474  0.4966E-02  0.7278E-01
     16.614  0.2697E-04  0.7278E-01
     16.754  0.1494E-03  0.7281E-01
     16.894  0.4480E-02  0.7343E-01
     17.035  0.5737E-02  0.7424E-01
     17.175  0.5566E-02  0.7502E-01
     17.315  0.1750E-01  0.7747E-01
     17.455  0.3672E-02  0.7799E-01
     17.595  0.2410E-02  0.7832E-01
     17.735  0.3602E-02  0.7883E-01
     17.875  0.2911E-02  0.7924E-01
     18.016  0.1098E-01  0.8078E-01
     18.156  0.8321E-02  0.8194E-01
     18.296  0.4826E-02  0.8262E-01
     18.436  0.1484E-02  0.8283E-01
     18.576  0.1660E-03  0.8285E-01
     18.716  0.5269E-02  0.8359E-01
     18.856  0.1624E-02  0.8381E-01
     18.997  0.1319E-02  0.8400E-01
     19.137  0.8811E-02  0.8523E-01
     19.277  0.5587E-02  0.8602E-01
     19.417  0.1889E-02  0.8628E-01
     19.557  0.3449E-04  0.8629E-01
     19.697  0.4364E-02  0.8690E-01
     19.838  0.1567E-02  0.8712E-01
     19.978  0.1493E-01  0.8921E-01
     20.118  0.5633E-02  0.9000E-01
     20.258  0.1009E-01  0.9141E-01
     20.398  0.4263E-02  0.9201E-01
     20.538  0.1058E-01  0.9349E-01
     20.678  0.2379E-03  0.9353E-01
     20.819  0.4747E-02  0.9419E-01
     20.959  0.2560E-02  0.9455E-01
     21.099  0.9762E-02  0.9592E-01
     21.239  0.8866E-02  0.9716E-01
     21.379  0.9400E-02  0.9848E-01
     21.519  0.7470E-02  0.9953E-01
     21.659  0.5658E-02  0.1003E+00
     21.800  0.5994E-02  0.1012E+00
     21.940  0.5100E-02  0.1019E+00
     22.080  0.1292E-01  0.1037E+00
     22.220  0.9696E-02  0.1050E+00
     22.360  0.2966E-02  0.1055E+00
     22.500  0.3756E-02  0.1060E+00
     22.640  0.4242E-02  0.1066E+00
     22.781  0.1096E-01  0.1081E+00
     22.921  0.3304E-02  0.1086E+00
     23.061  0.7363E-02  0.1096E+00
     23.201  0.1045E-01  0.1111E+00
     23.341  0.6311E-02  0.1120E+00
     23.481  0.2674E-05  0.1120E+00
     23.622  0.1534E-04  0.1120E+00
     23.762  0.1471E-02  0.1122E+00
     23.902  0.3297E-02  0.1126E+00
     24.042  0.1482E-02  0.1128E+00
     24.182  0.2998E-02  0.1133E+00
     24.322  0.5897E-02  0.1141E+00
     24.462  0.7839E-02  0.1152E+00
     24.603  0.1560E-01  0.1174E+00
     24.743  0.1223E-01  0.1191E+00
     24.883  0.1189E-01  0.1208E+00
     25.023  0.9547E-02  0.1221E+00
     25.163  0.1151E-01  0.1237E+00
     25.303  0.1593E-02  0.1239E+00
     25.443  0.1328E-02  0.1241E+00
     25.584  0.1334E-01  0.1260E+00
     25.724  0.1390E-02  0.1262E+00
     25.864  0.8542E-02  0.1274E+00
     26.004  0.1730E-03  0.1274E+00
     26.144  0.4602E-02  0.1280E+00
     26.284  0.3751E-02  0.1286E+00
     26.424  0.1010E-01  0.1300E+00
     26.565  0.2361E-02  0.1303E+00
     26.705  0.1182E-02  0.1305E+00
     26.845  0.3224E-02  0.1309E+00
     26.985  0.8649E-02  0.1321E+00
     27.125  0.5033E-02  0.1328E+00
     27.265  0.5245E-02  0.1336E+00
     27.406  0.8357E-02  0.1348E+00
     27.546  0.2606E-03  0.1348E+00
     27.686  0.9189E-02  0.1361E+00
     27.826  0.7377E-02  0.1371E+00
     27.966  0.1383E-01  0.1391E+00
     28.106  0.8540E-02  0.1402E+00
     28.246  0.9281E-02  0.1416E+00
     28.387  0.8828E-02  0.1428E+00
     28.527  0.4938E-02  0.1435E+00
     28.667  0.6095E-02  0.1443E+00
     28.807  0.9288E-02  0.1456E+00
     28.947  0.7225E-02  0.1466E+00
     29.087  0.9146E-03  0.1468E+00
     29.227  0.1159E-02  0.1469E+00
     29.368  0.4698E-02  0.1476E+00
     29.508  0.1133E-01  0.1492E+00
     29.648  0.7942E-02  0.1503E+00
     29.788  0.5176E-02  0.1510E+00
     29.928  0.5003E-02  0.1517E+00
     30.068  0.4612E-02  0.1524E+00
     30.208  0.5955E-02  0.1532E+00
     30.349  0.6036E-02  0.1541E+00
     30.489  0.6010E-02  0.1549E+00
     30.629  0.6011E-02  0.1557E+00
     30.769  0.3017E-02  0.1562E+00
     30.909  0.3462E-02  0.1566E+00
     31.049  0.1119E-01  0.1582E+00
     31.190  0.5925E-02  0.1590E+00
     31.330  0.1347E-02  0.1592E+00
     31.470  0.1406E-07  0.1592E+00
     31.610  0.0000E+00  0.1592E+00
     31.750  0.0000E+00  0.1592E+00
     31.890  0.0000E+00  0.1592E+00
     32.030  0.0000E+00  0.1592E+00
     32.171  0.0000E+00  0.1592E+00
     32.311  0.1336E-12  0.1592E+00
     32.451  0.1210E-04  0.1592E+00
     32.591  0.1458E-02  0.1594E+00
     32.731  0.9632E-04  0.1595E+00
     32.871  0.2870E-10  0.1595E+00
     33.011  0.0000E+00  0.1595E+00
     33.152  0.1063E-08  0.1595E+00
     33.292  0.2456E-03  0.1595E+00
     33.432  0.9280E-03  0.1596E+00
     33.572  0.7443E-04  0.1596E+00
     33.712  0.1092E-02  0.1598E+00
     33.852  0.1259E-03  0.1598E+00
     33.992  0.1440E-02  0.1600E+00
     34.133  0.9123E-05  0.1600E+00
     34.273  0.6878E-13  0.1600E+00
     34.413  0.0000E+00  0.1600E+00
     34.553  0.0000E+00  0.1600E+00
     34.693  0.0000E+00  0.1600E+00
     34.833  0.0000E+00  0.1600E+00
     34.974  0.0000E+00  0.1600E+00
     35.114  0.0000E+00  0.1600E+00
     35.254  0.0000E+00  0.1600E+00
     35.394  0.0000E+00  0.1600E+00
     35.534  0.0000E+00  0.1600E+00
     35.674  0.0000E+00  0.1600E+00
     35.814  0.0000E+00  0.1600E+00
