    1    1  100    1
  0.1386300E+02  0.2621157E-09  0.2621157E-09  0.2621157E-09  0.5000000E-15
  1.000000000000000E-004
  CAR 
 unknown system                          
      4     35      8
 
  0.0000000E+00  0.0000000E+00  0.0000000E+00  0.1371742E-02
    1       -4.318964   1.000000
    2       21.270848   0.000000
    3       21.270848   0.000000
    4       21.270848   0.000000
    5       22.455763   0.000000
    6       22.455763   0.000000
    7       22.455763   0.000000
    8       26.130856   0.000000
 
  0.1111111E+00  0.0000000E+00  0.0000000E+00  0.1646091E-01
    1       -3.941400   1.000000
    2       17.974303   0.000000
    3       19.235223   0.000000
    4       20.762479   0.000000
    5       21.379620   0.000000
    6       23.215559   0.000000
    7       24.986457   0.000000
    8       25.115124   0.000000
 
  0.2222222E+00  0.0000000E+00  0.0000000E+00  0.1646091E-01
    1       -2.812821   1.000000
    2       13.305530   0.000000
    3       17.344564   0.000000
    4       19.643025   0.000000
    5       19.643973   0.000000
    6       21.714678   0.000000
    7       26.359774   0.000000
    8       26.368532   0.000000
 
  0.3333333E+00  0.0000000E+00  0.0000000E+00  0.1646091E-01
    1       -0.945826   1.000000
    2        8.847922   1.000000
    3       16.076760   0.000000
    4       18.307765   0.000000
    5       18.628311   0.000000
    6       20.485959   0.000000
    7       27.730918   0.000000
    8       28.313267   0.000000
 
  0.4444444E+00  0.0000000E+00  0.0000000E+00  0.1646091E-01
    1        1.633603   1.000000
    2        4.936049   1.000000
    3       15.442926   0.000000
    4       17.611347   0.000000
    5       18.067819   0.000000
    6       19.835530   0.000000
    7       29.603430   0.000000
    8       30.332836   0.000000
 
  0.1111111E+00  0.1111111E+00  0.0000000E+00  0.3292181E-01
    1       -3.188301   1.000000
    2       15.611640   0.000000
    3       16.127753   0.000000
    4       18.701746   0.000000
    5       21.934967   0.000000
    6       23.169634   0.000000
    7       24.949723   0.000000
    8       26.261726   0.000000
 
  0.2222222E+00  0.1111111E+00 -0.2081668E-16  0.6584362E-01
    1       -1.690402   1.000000
    2       11.267551   0.000000
    3       14.240410   0.000000
    4       17.227396   0.000000
    5       21.117138   0.000000
    6       22.938556   0.000000
    7       25.516596   0.000000
    8       28.688461   0.000000
 
  0.3333333E+00  0.1111111E+00 -0.2081668E-16  0.6584362E-01
    1        0.534821   1.000000
    2        7.078838   1.000000
    3       13.225804   0.000000
    4       16.281394   0.000000
    5       20.244533   0.000000
    6       22.660372   0.000000
    7       26.867089   0.000000
    8       30.485297   0.000000
 
  0.4444444E+00  0.1111111E+00  0.0000000E+00  0.3292181E-01
    1        3.274537   1.000000
    2        3.672731   1.000000
    3       12.886860   0.000000
    4       15.958867   0.000000
    5       19.931933   0.000000
    6       22.482977   0.000000
    7       28.896634   0.000000
    8       29.251653   0.000000
 
  0.2222222E+00  0.2222222E+00  0.0000000E+00  0.3292181E-01
    1        0.166435   1.000000
    2        9.726316   0.541668
    3       10.060655   0.000000
    4       16.003577   0.000000
    5       22.225146   0.000000
    6       23.093075   0.000000
    7       28.070817   0.000000
    8       28.551277   0.000000
 
  0.3333333E+00  0.2222222E+00  0.5551115E-16  0.6584362E-01
    1        2.732040   1.000000
    2        6.007919   1.000000
    3        9.201326   1.000000
    4       15.368371   0.000000
    5       22.046551   0.000000
    6       24.596812   0.000000
    7       27.308964   0.000000
    8       29.429099   0.000000
 
  0.3333333E+00  0.3333333E+00 -0.2775558E-16  0.1097394E-01
    1        5.306823   1.000000
    2        5.815123   1.000000
    3        5.815124   1.000000
    4       15.054932   0.000000
    5       23.704031   0.000000
    6       25.146270   0.000000
    7       25.146270   0.000000
    8       32.536473   0.000000
 
  0.1111111E+00  0.1111111E+00  0.1111111E+00  0.1097394E-01
    1       -2.063872   1.000000
    2       13.503003   0.000000
    3       14.278639   0.000000
    4       14.278639   0.000000
    5       24.534226   0.000000
    6       24.534226   0.000000
    7       26.553566   0.000000
    8       26.553566   0.000000
 
  0.2222222E+00  0.1111111E+00  0.1111111E+00  0.3292181E-01
    1       -0.203496   1.000000
    2        9.541667   1.000000
    3       12.448616   0.000000
    4       12.939142   0.000000
    5       24.528546   0.000000
    6       24.850175   0.000000
    7       28.343823   0.000000
    8       28.403576   0.000000
 
  0.3333333E+00  0.1111111E+00  0.1111111E+00  0.3292181E-01
    1        2.367445   1.000000
    2        5.655160   1.000000
    3       11.755987   0.000000
    4       12.251609   0.000000
    5       24.278521   0.000000
    6       24.445308   0.000000
    7       30.082154   0.000000
    8       30.641800   0.000000
 
 -0.1111111E+00  0.1111111E+00  0.1111111E+00  0.8230453E-02
    1       -3.564471   1.000000
    2       17.473752   0.000000
    3       17.473753   0.000000
    4       18.939690   0.000000
    5       21.517128   0.000000
    6       23.185141   0.000000
    7       24.627827   0.000000
    8       24.627827   0.000000
 
  0.2222222E+00  0.2222222E+00  0.1111111E+00  0.3292181E-01
    1        2.005518   1.000000
    2        8.331762   1.000000
    3        8.677969   1.000000
    4       11.690780   0.000000
    5       26.071875   0.000000
    6       27.052547   0.000000
    7       29.521548   0.000000
    8       29.834467   0.000000
 
  0.3333333E+00  0.2222222E+00  0.1111111E+00  0.3292181E-01
    1        4.730756   1.000000
    2        5.108925   1.000000
    3        8.163973   1.000000
    4       11.343896   0.000000
    5       26.363510   0.000000
    6       27.888931   0.000000
    7       29.750495   0.000000
    8       31.053353   0.000000
 
 -0.2222222E+00  0.2222222E+00  0.1111111E+00  0.3292181E-01
    1       -2.437879   1.000000
    2       13.565226   0.000000
    3       15.557530   0.000000
    4       17.936985   0.000000
    5       20.435368   0.000000
    6       22.066697   0.000000
    7       24.696398   0.000000
    8       27.878982   0.000000
 
 -0.3333333E+00  0.3333333E+00  0.1111111E+00  0.3292181E-01
    1       -0.574231   1.000000
    2        9.184411   1.000000
    3       14.242700   0.000000
    4       16.819828   0.000000
    5       20.814725   0.000000
    6       21.095206   0.000000
    7       24.428448   0.000000
    8       30.077253   0.000000
 
 -0.2222222E+00  0.3333333E+00  0.1111111E+00  0.3292181E-01
    1       -0.945286   1.000000
    2       11.735078   0.000000
    3       12.024706   0.000000
    4       17.741674   0.000000
    5       19.262577   0.000000
    6       21.644324   0.000000
    7       27.167063   0.000000
    8       27.620197   0.000000
 
 -0.4444444E+00  0.4444444E+00  0.1111111E+00  0.3292181E-01
    1        2.000457   1.000000
    2        5.292206   1.000000
    3       13.579527   0.000000
    4       16.177614   0.000000
    5       20.154966   0.000000
    6       21.492707   0.000000
    7       25.530138   0.000000
    8       28.025683   0.000000
 
 -0.3333333E+00  0.4444444E+00  0.1111111E+00  0.6584362E-01
    1        1.271398   1.000000
    2        7.770222   1.000000
    3       10.854681   0.000000
    4       17.271455   0.000000
    5       19.937368   0.000000
    6       21.345899   0.000000
    7       25.771967   0.000000
    8       28.201546   0.000000
 
 -0.4444444E+00 -0.4444444E+00  0.1111111E+00  0.3292181E-01
    1        4.009504   1.000000
    2        4.380815   1.000000
    3       10.505828   0.000000
    4       16.992503   0.000000
    5       19.996170   0.000000
    6       22.732707   0.000000
    7       23.884796   0.000000
    8       27.780266   0.000000
 
 -0.3333333E+00 -0.4444444E+00  0.1111111E+00  0.3292181E-01
    1        3.818144   1.000000
    2        6.926320   1.000000
    3        7.212323   1.000000
    4       18.125555   0.000000
    5       20.455515   0.000000
    6       21.013732   0.000000
    7       23.224312   0.000000
    8       31.169615   0.000000
 
  0.2222222E+00  0.2222222E+00  0.2222222E+00  0.1097394E-01
    1        4.542664   1.000000
    2        7.494385   1.000000
    3        7.975986   1.000000
    4        7.975986   1.000000
    5       29.611450   0.000000
    6       29.611450   0.000000
    7       30.907238   0.000000
    8       30.907238   0.000000
 
 -0.2222222E+00  0.2222222E+00  0.2222222E+00  0.8230453E-02
    1       -1.317209   1.000000
    2       13.606726   0.000000
    3       13.606727   0.000000
    4       15.563617   0.000000
    5       17.027937   0.000000
    6       25.380364   0.000000
    7       26.862330   0.000000
    8       26.862330   0.000000
 
 -0.3333333E+00  0.3333333E+00  0.2222222E+00  0.3292181E-01
    1        0.535986   1.000000
    2       10.145547   0.000000
    3       12.270702   0.000000
    4       14.763904   0.000000
    5       17.066886   0.000000
    6       24.784386   0.000000
    7       25.113624   0.000000
    8       27.877926   0.000000
 
 -0.4444444E+00  0.4444444E+00  0.2222222E+00  0.3292181E-01
    1        3.094938   1.000000
    2        6.349925   1.000000
    3       11.597842   0.000000
    4       14.130738   0.000000
    5       19.087094   0.000000
    6       22.168642   0.000000
    7       24.169891   0.000000
    8       27.611325   0.000000
 
 -0.3333333E+00  0.4444444E+00  0.2222222E+00  0.3292181E-01
    1        2.733965   1.000000
    2        8.987810   1.000000
    3        9.223236   1.000000
    4       15.430849   0.000000
    5       16.384577   0.000000
    6       21.801825   0.000000
    7       25.025799   0.000000
    8       30.285533   0.000000
 
 -0.4444444E+00 -0.4444444E+00  0.2222222E+00  0.3292181E-01
    1        5.456945   1.000000
    2        5.783826   1.000000
    3        8.763281   1.000000
    4       15.445791   0.000000
    5       18.168700   0.000000
    6       19.057991   0.000000
    7       24.761947   0.000000
    8       30.930069   0.000000
 
 -0.3333333E+00  0.3333333E+00  0.3333333E+00  0.8230453E-02
    1        2.370076   1.000000
    2       10.924071   0.000000
    3       10.924071   0.000000
    4       12.959992   0.000000
    5       13.986169   0.000000
    6       21.533717   0.000000
    7       28.944694   0.000000
    8       29.978667   0.000000
 
 -0.4444444E+00  0.4444444E+00  0.3333333E+00  0.3292181E-01
    1        4.894722   1.000000
    2        8.047400   1.000000
    3       10.247372   0.000000
    4       12.666292   0.000000
    5       14.948928   0.000000
    6       17.964992   0.000000
    7       28.805878   0.000000
    8       30.952437   0.000000
 
 -0.4444444E+00 -0.4444444E+00  0.3333333E+00  0.1097394E-01
    1        7.451225   1.000000
    2        7.812015   1.000000
    3        7.812016   1.000000
    4       13.855270   0.000000
    5       14.922196   0.000000
    6       14.922196   0.000000
    7       29.367932   0.000000
    8       33.903298   0.000000
 
 -0.4444444E+00  0.4444444E+00  0.4444444E+00  0.8230453E-02
    1        7.327273   1.000000
    2        9.569020   0.999997
    3        9.569020   0.999997
    4       11.528822   0.000000
    5       12.456866   0.000000
    6       14.311990   0.000000
    7       33.320367   0.000000
    8       33.626260   0.000000
