<?xml version="1.0" encoding="ISO-8859-1"?>
<modeling>
 <generator>
  <i name="program" type="string">vasp </i>
  <i name="version" type="string">6.2.0  </i>
  <i name="subversion" type="string">18Jan21 (build Aug 12 2022 13:00:08) complex                          parallel </i>
  <i name="platform" type="string">LinuxIFC </i>
  <i name="date" type="string">2024 11 03 </i>
  <i name="time" type="string">21:51:27 </i>
 </generator>
 <incar>
  <i type="int" name="ISTART">     0</i>
  <i type="string" name="PREC">Accurate      (Accurate strictly avoids</i>
  <i type="logical" name="ADDGRID"> T  </i>
  <i type="int" name="ISPIN">     1</i>
  <i type="int" name="NELM">    90</i>
  <i type="int" name="NELMIN">     6</i>
  <i type="int" name="IBRION">     2</i>
  <i name="EDIFF">      0.00000100</i>
  <i name="EDIFFG">     -0.00200000</i>
  <i type="int" name="NSW">   100</i>
  <i type="int" name="ISIF">     3</i>
  <i type="int" name="ISYM">     2</i>
  <i name="ENCUT">    350.00000000</i>
  <i type="logical" name="LREAL"> F  </i>
  <i type="int" name="ISMEAR">     0</i>
  <i name="SIGMA">      0.05000000</i>
  <i type="logical" name="LWAVE"> F  </i>
  <i type="logical" name="LCHARG"> F  </i>
  <i type="logical" name="LASPH"> T  </i>
 </incar>
 <primitive_cell>
  <structure name="primitive_cell" >
   <crystal>
    <varray name="basis" >
     <v>       1.51332563       1.51332563       1.51332563 </v>
     <v>       1.51332563      -1.51332563      -1.51332563 </v>
     <v>      -1.51332563       1.51332563      -1.51332563 </v>
    </varray>
    <i name="volume">     13.86299778 </i>
    <varray name="rec_basis" >
     <v>       0.33039816       0.33039816       0.00000000 </v>
     <v>       0.33039816       0.00000000      -0.33039816 </v>
     <v>       0.00000000       0.33039816      -0.33039816 </v>
    </varray>
   </crystal>
   <varray name="positions" >
    <v>       0.00000000       0.00000000       0.00000000 </v>
   </varray>
  </structure>
  <varray name="primitive_index" >
   <v type="int" >        1 </v>
  </varray>
 </primitive_cell>
 <kpoints>
  <generation param="Monkhorst-Pack">
   <v type="int" name="divisions">       9        9        9 </v>
   <v name="usershift">      0.00000000       0.00000000       0.00000000 </v>
   <v name="genvec1">      0.11111111       0.00000000       0.00000000 </v>
   <v name="genvec2">      0.00000000       0.11111111       0.00000000 </v>
   <v name="genvec3">      0.00000000       0.00000000       0.11111111 </v>
   <v name="shift">      0.00000000       0.00000000       0.00000000 </v>
  </generation>
  <varray name="kpointlist" >
   <v>       0.00000000       0.00000000       0.00000000 </v>
   <v>       0.11111111       0.00000000       0.00000000 </v>
   <v>       0.22222222       0.00000000       0.00000000 </v>
   <v>       0.33333333       0.00000000       0.00000000 </v>
   <v>       0.44444444       0.00000000       0.00000000 </v>
   <v>       0.11111111       0.11111111       0.00000000 </v>
   <v>       0.22222222       0.11111111      -0.00000000 </v>
   <v>       0.33333333       0.11111111      -0.00000000 </v>
   <v>       0.44444444       0.11111111       0.00000000 </v>
   <v>       0.22222222       0.22222222       0.00000000 </v>
   <v>       0.33333333       0.22222222       0.00000000 </v>
   <v>       0.33333333       0.33333333      -0.00000000 </v>
   <v>       0.11111111       0.11111111       0.11111111 </v>
   <v>       0.22222222       0.11111111       0.11111111 </v>
   <v>       0.33333333       0.11111111       0.11111111 </v>
   <v>      -0.11111111       0.11111111       0.11111111 </v>
   <v>       0.22222222       0.22222222       0.11111111 </v>
   <v>       0.33333333       0.22222222       0.11111111 </v>
   <v>      -0.22222222       0.22222222       0.11111111 </v>
   <v>      -0.33333333       0.33333333       0.11111111 </v>
   <v>      -0.22222222       0.33333333       0.11111111 </v>
   <v>      -0.44444444       0.44444444       0.11111111 </v>
   <v>      -0.33333333       0.44444444       0.11111111 </v>
   <v>      -0.44444444      -0.44444444       0.11111111 </v>
   <v>      -0.33333333      -0.44444444       0.11111111 </v>
   <v>       0.22222222       0.22222222       0.22222222 </v>
   <v>      -0.22222222       0.22222222       0.22222222 </v>
   <v>      -0.33333333       0.33333333       0.22222222 </v>
   <v>      -0.44444444       0.44444444       0.22222222 </v>
   <v>      -0.33333333       0.44444444       0.22222222 </v>
   <v>      -0.44444444      -0.44444444       0.22222222 </v>
   <v>      -0.33333333       0.33333333       0.33333333 </v>
   <v>      -0.44444444       0.44444444       0.33333333 </v>
   <v>      -0.44444444      -0.44444444       0.33333333 </v>
   <v>      -0.44444444       0.44444444       0.44444444 </v>
  </varray>
  <varray name="weights" >
   <v>       0.00137174 </v>
   <v>       0.01646091 </v>
   <v>       0.01646091 </v>
   <v>       0.01646091 </v>
   <v>       0.01646091 </v>
   <v>       0.03292181 </v>
   <v>       0.06584362 </v>
   <v>       0.06584362 </v>
   <v>       0.03292181 </v>
   <v>       0.03292181 </v>
   <v>       0.06584362 </v>
   <v>       0.01097394 </v>
   <v>       0.01097394 </v>
   <v>       0.03292181 </v>
   <v>       0.03292181 </v>
   <v>       0.00823045 </v>
   <v>       0.03292181 </v>
   <v>       0.03292181 </v>
   <v>       0.03292181 </v>
   <v>       0.03292181 </v>
   <v>       0.03292181 </v>
   <v>       0.03292181 </v>
   <v>       0.06584362 </v>
   <v>       0.03292181 </v>
   <v>       0.03292181 </v>
   <v>       0.01097394 </v>
   <v>       0.00823045 </v>
   <v>       0.03292181 </v>
   <v>       0.03292181 </v>
   <v>       0.03292181 </v>
   <v>       0.03292181 </v>
   <v>       0.00823045 </v>
   <v>       0.03292181 </v>
   <v>       0.01097394 </v>
   <v>       0.00823045 </v>
  </varray>
 </kpoints>
 <parameters>
  <separator name="general" >
   <i type="string" name="SYSTEM">unknown system</i>
   <i type="logical" name="LCOMPAT"> F  </i>
  </separator>
  <separator name="electronic" >
   <i type="string" name="PREC">accura</i>
   <i name="ENMAX">    350.00000000</i>
   <i name="ENAUG">    322.06900000</i>
   <i name="EDIFF">      0.00000100</i>
   <i type="int" name="IALGO">    38</i>
   <i type="int" name="IWAVPR">    11</i>
   <i type="int" name="NBANDS">     8</i>
   <i type="int" name="NBANDSLOW">    -1</i>
   <i type="int" name="NBANDSHIGH">    -1</i>
   <i name="NELECT">      4.00000000</i>
   <i type="int" name="TURBO">     0</i>
   <i type="int" name="IRESTART">     0</i>
   <i type="int" name="NREBOOT">     0</i>
   <i type="int" name="NMIN">     0</i>
   <i name="EREF">      0.00000000</i>
   <separator name="electronic smearing" >
    <i type="int" name="ISMEAR">     0</i>
    <i name="SIGMA">      0.05000000</i>
    <i name="KSPACING">      0.50000000</i>
    <i type="logical" name="KGAMMA"> T  </i>
    <i type="logical" name="KBLOWUP"> T  </i>
   </separator>
   <separator name="electronic projectors" >
    <i type="logical" name="LREAL"> F  </i>
    <v name="ROPT">      0.00000000</v>
    <i type="int" name="LMAXPAW">  -100</i>
    <i type="int" name="LMAXMIX">     2</i>
    <i type="logical" name="NLSPLINE"> F  </i>
   </separator>
   <separator name="electronic startup" >
    <i type="int" name="ISTART">     0</i>
    <i type="int" name="ICHARG">     2</i>
    <i type="int" name="INIWAV">     1</i>
   </separator>
   <separator name="electronic spin" >
    <i type="int" name="ISPIN">     1</i>
    <i type="logical" name="LNONCOLLINEAR"> F  </i>
    <v name="MAGMOM">      1.00000000</v>
    <i name="NUPDOWN">     -1.00000000</i>
    <i type="logical" name="LSORBIT"> F  </i>
    <v name="SAXIS">      0.00000000      0.00000000      1.00000000</v>
    <i type="logical" name="LSPIRAL"> F  </i>
    <v name="QSPIRAL">      0.00000000      0.00000000      0.00000000</v>
    <i type="logical" name="LZEROZ"> F  </i>
   </separator>
   <separator name="electronic exchange-correlation" >
    <i type="logical" name="LASPH"> T  </i>
    <i type="logical" name="LMETAGGA"> F  </i>
   </separator>
   <separator name="electronic convergence" >
    <i type="int" name="NELM">    90</i>
    <i type="int" name="NELMDL">    -5</i>
    <i type="int" name="NELMIN">     6</i>
    <i name="ENINI">    350.00000000</i>
    <separator name="electronic convergence detail" >
     <i type="logical" name="LDIAG"> T  </i>
     <i type="logical" name="LSUBROT"> F  </i>
     <i name="WEIMIN">      0.00100000</i>
     <i name="EBREAK">      0.00000003</i>
     <i name="DEPER">      0.30000000</i>
     <i type="int" name="NRMM">     4</i>
     <i name="TIME">      0.40000000</i>
    </separator>
   </separator>
   <separator name="electronic mixer" >
    <i name="AMIX">      0.40000000</i>
    <i name="BMIX">      1.00000000</i>
    <i name="AMIN">      0.10000000</i>
    <i name="AMIX_MAG">      1.60000000</i>
    <i name="BMIX_MAG">      1.00000000</i>
    <separator name="electronic mixer details" >
     <i type="int" name="IMIX">     4</i>
     <i type="logical" name="MIXFIRST"> F  </i>
     <i type="int" name="MAXMIX">   -45</i>
     <i name="WC">    100.00000000</i>
     <i type="int" name="INIMIX">     1</i>
     <i type="int" name="MIXPRE">     1</i>
     <i type="int" name="MREMOVE">     5</i>
    </separator>
   </separator>
   <separator name="electronic dipolcorrection" >
    <i type="logical" name="LDIPOL"> F  </i>
    <i type="logical" name="LMONO"> F  </i>
    <i type="int" name="IDIPOL">     0</i>
    <i name="EPSILON">      1.00000000</i>
    <v name="DIPOL">   -100.00000000   -100.00000000   -100.00000000</v>
    <i name="EFIELD">      0.00000000</i>
   </separator>
  </separator>
  <separator name="grids" >
   <i type="int" name="NGX">    16</i>
   <i type="int" name="NGY">    16</i>
   <i type="int" name="NGZ">    16</i>
   <i type="int" name="NGXF">    32</i>
   <i type="int" name="NGYF">    32</i>
   <i type="int" name="NGZF">    32</i>
   <i type="logical" name="ADDGRID"> T  </i>
  </separator>
  <separator name="ionic" >
   <i type="int" name="NSW">   100</i>
   <i type="int" name="IBRION">     2</i>
   <i type="int" name="MDALGO">     0</i>
   <i type="int" name="ISIF">     3</i>
   <i name="PSTRESS">      0.00000000</i>
   <i name="EDIFFG">     -0.00200000</i>
   <i type="int" name="NFREE">     1</i>
   <i name="POTIM">      0.50000000</i>
   <i name="SMASS">     -3.00000000</i>
   <i name="SCALEE">      1.00000000</i>
  </separator>
  <separator name="ionic md" >
   <i name="TEBEG">      0.00010000</i>
   <i name="TEEND">      0.00010000</i>
   <i type="int" name="NBLOCK">     1</i>
   <i type="int" name="KBLOCK">   100</i>
   <i type="int" name="NPACO">   256</i>
   <i name="APACO">     16.00000000</i>
  </separator>
  <separator name="symmetry" >
   <i type="int" name="ISYM">     2</i>
   <i name="SYMPREC">      0.00001000</i>
  </separator>
  <separator name="dos" >
   <i type="int" name="LORBIT">     0</i>
   <v name="RWIGS">     -1.00000000</v>
   <i type="int" name="NEDOS">   301</i>
   <i name="EMIN">     10.00000000</i>
   <i name="EMAX">    -10.00000000</i>
   <i name="EFERMI">      0.00000000</i>
  </separator>
  <separator name="writing" >
   <i type="int" name="NWRITE">     2</i>
   <i type="logical" name="LWAVE"> F  </i>
   <i type="logical" name="LDOWNSAMPLE"> F  </i>
   <i type="logical" name="LCHARG"> F  </i>
   <i type="logical" name="LPARD"> F  </i>
   <i type="logical" name="LVTOT"> F  </i>
   <i type="logical" name="LVHAR"> F  </i>
   <i type="logical" name="LELF"> F  </i>
   <i type="logical" name="LOPTICS"> F  </i>
   <v name="STM">      0.00000000      0.00000000      0.00000000      0.00000000      0.00000000      0.00000000      0.00000000</v>
  </separator>
  <separator name="performance" >
   <i type="int" name="NPAR">     4</i>
   <i type="int" name="NSIM">     4</i>
   <i type="int" name="NBLK">    -1</i>
   <i type="logical" name="LPLANE"> T  </i>
   <i type="logical" name="LSCALAPACK"> T  </i>
   <i type="logical" name="LSCAAWARE"> F  </i>
   <i type="logical" name="LSCALU"> F  </i>
   <i type="logical" name="LASYNC"> F  </i>
   <i type="logical" name="LORBITALREAL"> F  </i>
  </separator>
  <separator name="miscellaneous" >
   <i type="int" name="IDIOT">     3</i>
   <i type="int" name="PHON_NSTRUCT">    -1</i>
   <i type="logical" name="LMUSIC"> F  </i>
   <v name="POMASS">     28.08500000</v>
   <v name="DARWINR">      0.00000000</v>
   <v name="DARWINV">      1.00000000</v>
   <i type="logical" name="LCORR"> T  </i>
  </separator>
  <i type="logical" name="GGA_COMPAT"> T  </i>
  <i type="logical" name="LBERRY"> F  </i>
  <i type="int" name="ICORELEVEL">     0</i>
  <i type="logical" name="LDAU"> F  </i>
  <i type="int" name="I_CONSTRAINED_M">     0</i>
  <separator name="electronic exchange-correlation" >
   <i type="string" name="GGA">--</i>
   <i type="int" name="VOSKOWN">     0</i>
   <i type="logical" name="LHFCALC"> F  </i>
   <i type="string" name="PRECFOCK"></i>
   <i type="logical" name="LSYMGRAD"> F  </i>
   <i type="logical" name="LHFONE"> F  </i>
   <i type="logical" name="LRHFCALC"> F  </i>
   <i type="logical" name="LTHOMAS"> F  </i>
   <i type="logical" name="LMODELHF"> F  </i>
   <i type="logical" name="LFOCKACE"> F  </i>
   <i name="ENCUT4O">     -1.00000000</i>
   <i type="int" name="EXXOEP">     0</i>
   <i type="int" name="FOURORBIT">     0</i>
   <i name="AEXX">      0.00000000</i>
   <i name="HFALPHA">      0.00000000</i>
   <i name="MCALPHA">      0.00000000</i>
   <i name="ALDAX">      1.00000000</i>
   <i name="AGGAX">      1.00000000</i>
   <i name="ALDAC">      1.00000000</i>
   <i name="AGGAC">      1.00000000</i>
   <i type="int" name="NKREDX">     1</i>
   <i type="int" name="NKREDY">     1</i>
   <i type="int" name="NKREDZ">     1</i>
   <i type="logical" name="SHIFTRED"> F  </i>
   <i type="logical" name="ODDONLY"> F  </i>
   <i type="logical" name="EVENONLY"> F  </i>
   <i type="int" name="LMAXFOCK">     0</i>
   <i type="int" name="NMAXFOCKAE">     0</i>
   <i type="logical" name="LFOCKAEDFT"> F  </i>
   <i name="HFSCREEN">      0.00000000</i>
   <i name="HFSCREENC">      0.00000000</i>
   <i type="int" name="NBANDSGWLOW">     0</i>
  </separator>
  <separator name="vdW DFT" >
   <i type="logical" name="LUSE_VDW"> F  </i>
   <i name="Zab_VDW">     -0.84910000</i>
   <i name="PARAM1">      0.12340000</i>
   <i name="PARAM2">      1.00000000</i>
   <i name="PARAM3">      0.00000000</i>
  </separator>
  <separator name="model GW" >
   <i type="int" name="MODEL_GW">     0</i>
   <i name="MODEL_EPS0">      8.31779867</i>
   <i name="MODEL_ALPHA">      1.00000000</i>
  </separator>
  <separator name="linear response parameters" >
   <i type="logical" name="LEPSILON"> F  </i>
   <i type="logical" name="LRPA"> F  </i>
   <i type="logical" name="LNABLA"> F  </i>
   <i type="logical" name="LVEL"> F  </i>
   <i type="int" name="KINTER">     0</i>
   <i name="CSHIFT">      0.10000000</i>
   <i name="OMEGAMAX">     -1.00000000</i>
   <i name="DEG_THRESHOLD">      0.00200000</i>
   <i name="RTIME">     -0.10000000</i>
   <i name="WPLASMAI">      0.00000000</i>
   <v name="DFIELD">      0.00000000      0.00000000      0.00000000</v>
   <v name="WPLASMA">      0.00000000      0.00000000      0.00000000      0.00000000      0.00000000      0.00000000      0.00000000      0.00000000      0.00000000</v>
  </separator>
  <separator name="orbital magnetization" >
   <i type="logical" name="NUCIND"> F  </i>
   <v name="MAGPOS">      0.00000000      0.00000000      0.00000000</v>
   <i type="logical" name="LNICSALL"> T  </i>
   <i type="logical" name="ORBITALMAG"> F  </i>
   <i type="logical" name="LMAGBLOCH"> F  </i>
   <i type="logical" name="LCHIMAG"> F  </i>
   <i type="logical" name="LGAUGE"> T  </i>
   <i type="int" name="MAGATOM">     0</i>
   <v name="MAGDIPOL">      0.00000000      0.00000000      0.00000000</v>
   <v name="AVECCONST">      0.00000000      0.00000000      0.00000000</v>
  </separator>
  <separator name="response functions" >
   <i type="logical" name="LFINITE_TEMPERATURE"> F  </i>
   <i type="logical" name="LADDER"> F  </i>
   <i type="logical" name="LRPAFORCE"> F  </i>
   <i type="logical" name="LFXC"> F  </i>
   <i type="logical" name="LHARTREE"> T  </i>
   <i type="int" name="IBSE">     0</i>
   <v type="int" name="KPOINT">    -1     0     0     0</v>
   <i type="logical" name="LTCTC"> F  </i>
   <i type="logical" name="LTCTE"> F  </i>
   <i type="logical" name="LTETE"> F  </i>
   <i type="logical" name="LTRIPLET"> F  </i>
   <i type="logical" name="LFXCEPS"> F  </i>
   <i type="logical" name="LFXHEG"> F  </i>
   <i type="int" name="NATURALO">     2</i>
   <i type="logical" name="LHOLEGF"> F  </i>
   <i type="logical" name="L2ORDER"> F  </i>
   <i type="logical" name="LDMP1"> F  </i>
   <i type="logical" name="LMP2LT"> F  </i>
   <i type="logical" name="LSMP2LT"> F  </i>
   <i type="logical" name="LGWLF"> F  </i>
   <i name="ENCUTGW">     -2.00000000</i>
   <i name="ENCUTGWSOFT">     -2.00000000</i>
   <i name="ENCUTLF">     -1.00000000</i>
   <i type="logical" name="LESF_SPLINES"> F  </i>
   <i type="int" name="LMAXMP2">    -1</i>
   <i name="SCISSOR">      0.00000000</i>
   <i type="int" name="NOMEGA">     0</i>
   <i type="int" name="NOMEGAR">     0</i>
   <i type="int" name="NBANDSGW">    -1</i>
   <i type="int" name="NBANDSO">    -1</i>
   <i type="int" name="NBANDSV">    -1</i>
   <i type="int" name="NELM">    90</i>
   <i type="int" name="NELMHF">     1</i>
   <i type="int" name="DIM">     3</i>
   <i type="int" name="IESPILON">     4</i>
   <i type="int" name="ANTIRES">     0</i>
   <i name="OMEGAMAX">    -30.00000000</i>
   <i name="OMEGAMIN">    -30.00000000</i>
   <i name="OMEGATL">   -200.00000000</i>
   <i type="int" name="OMEGAGRID">     0</i>
   <i name="CSHIFT">     -0.10000000</i>
   <i type="logical" name="LSELFENERGY"> F  </i>
   <i type="logical" name="LSPECTRAL"> F  </i>
   <i type="logical" name="LSPECTRALGW"> F  </i>
   <i type="logical" name="LSINGLES"> F  </i>
   <i type="logical" name="LFERMIGW"> F  </i>
   <i type="logical" name="ODDONLYGW"> F  </i>
   <i type="logical" name="EVENONLYGW"> F  </i>
   <i type="int" name="NKREDLFX">     1</i>
   <i type="int" name="NKREDLFY">     1</i>
   <i type="int" name="NKREDLFZ">     1</i>
   <i type="int" name="MAXMEM">  2800</i>
   <i type="int" name="TELESCOPE">     0</i>
   <i type="int" name="NTAUPAR">    -1</i>
   <i type="int" name="NOMEGAPAR">    -1</i>
   <i name="DAMP_NEWTON">      0.80000001</i>
   <i name="LAMBDA">      1.00000000</i>
  </separator>
  <separator name="External order field" >
   <i name="OFIELD_KAPPA">      0.00000000</i>
   <v name="OFIELD_K">      0.00000000      0.00000000      0.00000000</v>
   <i name="OFIELD_Q6_NEAR">      0.00000000</i>
   <i name="OFIELD_Q6_FAR">      0.00000000</i>
   <i name="OFIELD_A">      0.00000000</i>
  </separator>
 </parameters>
 <atominfo>
  <atoms>       1 </atoms>
  <types>       1 </types>
  <array name="atoms" >
   <dimension dim="1">ion</dimension>
   <field type="string">element</field>
   <field type="int">atomtype</field>
   <set>
    <rc><c>Si</c><c>   1</c></rc>
   </set>
  </array>
  <array name="atomtypes" >
   <dimension dim="1">type</dimension>
   <field type="int">atomspertype</field>
   <field type="string">element</field>
   <field>mass</field>
   <field>valence</field>
   <field type="string">pseudopotential</field>
   <set>
    <rc><c>   1</c><c>Si</c><c>     28.08500000</c><c>      4.00000000</c><c>  PAW_PBE Si 05Jan2001                  </c></rc>
   </set>
  </array>
 </atominfo>
 <structure name="initialpos" >
  <crystal>
   <varray name="basis" >
    <v>       1.51332563       1.51332563       1.51332563 </v>
    <v>       1.51332563      -1.51332563      -1.51332563 </v>
    <v>      -1.51332563       1.51332563      -1.51332563 </v>
   </varray>
   <i name="volume">     13.86299778 </i>
   <varray name="rec_basis" >
    <v>       0.33039816       0.33039816       0.00000000 </v>
    <v>       0.33039816       0.00000000      -0.33039816 </v>
    <v>       0.00000000       0.33039816      -0.33039816 </v>
   </varray>
  </crystal>
  <varray name="positions" >
   <v>       0.00000000       0.00000000       0.00000000 </v>
  </varray>
 </structure>
 <calculation>
  <scstep>
   <time name="dav">    0.10    0.10</time>
   <time name="total">    0.27    0.28</time>
   <energy>
    <i name="alphaZ">      2.42827211 </i>
    <i name="ewald">   -138.51397499 </i>
    <i name="hartreedc">     -0.48179554 </i>
    <i name="XCdc">     -8.69332224 </i>
    <i name="pawpsdc">     88.12379961 </i>
    <i name="pawaedc">    -70.53051779 </i>
    <i name="eentropy">     -0.00014561 </i>
    <i name="bandstr">     21.27292453 </i>
    <i name="atom">    103.06562707 </i>
    <i name="e_fr_energy">     -3.32913284 </i>
    <i name="e_wo_entrp">     -3.32898724 </i>
    <i name="e_0_energy">     -3.32906004 </i>
   </energy>
  </scstep>
  <scstep>
   <time name="dav">    0.15    0.16</time>
   <time name="total">    0.16    0.16</time>
   <energy>
    <i name="e_fr_energy">     -4.92362966 </i>
    <i name="e_wo_entrp">     -4.92266970 </i>
    <i name="e_0_energy">     -4.92314968 </i>
   </energy>
  </scstep>
  <scstep>
   <time name="dav">    0.10    0.11</time>
   <time name="total">    0.10    0.12</time>
   <energy>
    <i name="e_fr_energy">     -4.93022272 </i>
    <i name="e_wo_entrp">     -4.92925224 </i>
    <i name="e_0_energy">     -4.92973748 </i>
   </energy>
  </scstep>
  <scstep>
   <time name="dav">    0.16    0.17</time>
   <time name="total">    0.16    0.17</time>
   <energy>
    <i name="e_fr_energy">     -4.93022710 </i>
    <i name="e_wo_entrp">     -4.92925660 </i>
    <i name="e_0_energy">     -4.92974185 </i>
   </energy>
  </scstep>
  <scstep>
   <time name="dav">    0.10    0.11</time>
   <time name="total">    0.12    0.12</time>
   <energy>
    <i name="e_fr_energy">     -4.93022710 </i>
    <i name="e_wo_entrp">     -4.92925660 </i>
    <i name="e_0_energy">     -4.92974185 </i>
   </energy>
  </scstep>
  <scstep>
   <time name="dav">    0.10    0.10</time>
   <time name="total">    0.28    0.29</time>
   <energy>
    <i name="e_fr_energy">     -4.91895339 </i>
    <i name="e_wo_entrp">     -4.91801621 </i>
    <i name="e_0_energy">     -4.91848480 </i>
   </energy>
  </scstep>
  <scstep>
   <time name="dav">    0.10    0.10</time>
   <time name="total">    0.29    0.30</time>
   <energy>
    <i name="e_fr_energy">     -4.91249461 </i>
    <i name="e_wo_entrp">     -4.91156940 </i>
    <i name="e_0_energy">     -4.91203201 </i>
   </energy>
  </scstep>
  <scstep>
   <time name="dav">    0.13    0.13</time>
   <time name="total">    0.32    0.33</time>
   <energy>
    <i name="e_fr_energy">     -4.91247299 </i>
    <i name="e_wo_entrp">     -4.91154787 </i>
    <i name="e_0_energy">     -4.91201043 </i>
   </energy>
  </scstep>
  <scstep>
   <time name="dav">    0.11    0.11</time>
   <time name="total">    0.28    0.29</time>
   <energy>
    <i name="alphaZ">      2.42827211 </i>
    <i name="ewald">   -138.51397499 </i>
    <i name="hartreedc">     -0.35649696 </i>
    <i name="XCdc">     -8.62378495 </i>
    <i name="pawpsdc">    335.80390281 </i>
    <i name="pawaedc">   -318.23884860 </i>
    <i name="eentropy">     -0.00092510 </i>
    <i name="bandstr">     19.52375509 </i>
    <i name="atom">    103.06562707 </i>
    <i name="e_fr_energy">     -4.91247354 </i>
    <i name="e_wo_entrp">     -4.91154844 </i>
    <i name="e_0_energy">     -4.91201099 </i>
   </energy>
  </scstep>
  <structure>
   <crystal>
    <varray name="basis" >
     <v>       1.51332563       1.51332563       1.51332563 </v>
     <v>       1.51332563      -1.51332563      -1.51332563 </v>
     <v>      -1.51332563       1.51332563      -1.51332563 </v>
    </varray>
    <i name="volume">     13.86299778 </i>
    <varray name="rec_basis" >
     <v>       0.33039816       0.33039816       0.00000000 </v>
     <v>       0.33039816       0.00000000      -0.33039816 </v>
     <v>       0.00000000       0.33039816      -0.33039816 </v>
    </varray>
   </crystal>
   <varray name="positions" >
    <v>       0.00000000       0.00000000       0.00000000 </v>
   </varray>
  </structure>
  <varray name="forces" >
   <v>       0.00000000      -0.00000000      -0.00000000 </v>
  </varray>
  <varray name="stress" >
   <v>      60.52672495       0.00000000      -0.00000000 </v>
   <v>       0.00000000      60.52672495       0.00000000 </v>
   <v>      -0.00000000      -0.00000000      60.52672495 </v>
  </varray>
  <energy>
   <i name="e_fr_energy">     -4.91247354 </i>
   <i name="e_wo_entrp">     -4.91154844 </i>
   <i name="e_0_energy">     -4.91201099 </i>
  </energy>
  <time name="totalsc">    2.56    2.71</time>
 </calculation>
 <calculation>
  <scstep>
   <time name="dav">    0.09    0.09</time>
   <time name="total">    0.28    0.28</time>
   <energy>
    <i name="alphaZ">      2.25314187 </i>
    <i name="ewald">   -135.10061368 </i>
    <i name="hartreedc">     -0.34769420 </i>
    <i name="XCdc">     -8.81967623 </i>
    <i name="pawpsdc">    335.90196542 </i>
    <i name="pawaedc">   -318.33656384 </i>
    <i name="eentropy">     -0.00092961 </i>
    <i name="bandstr">     16.45041185 </i>
    <i name="atom">    103.06562707 </i>
    <i name="e_fr_energy">     -4.93433135 </i>
    <i name="e_wo_entrp">     -4.93340174 </i>
    <i name="e_0_energy">     -4.93386654 </i>
   </energy>
  </scstep>
  <scstep>
   <time name="dav">    0.10    0.10</time>
   <time name="total">    0.29    0.30</time>
   <energy>
    <i name="e_fr_energy">     -4.92825770 </i>
    <i name="e_wo_entrp">     -4.92733008 </i>
    <i name="e_0_energy">     -4.92779389 </i>
   </energy>
  </scstep>
  <scstep>
   <time name="dav">    0.10    0.10</time>
   <time name="total">    0.28    0.29</time>
   <energy>
    <i name="e_fr_energy">     -4.92467466 </i>
    <i name="e_wo_entrp">     -4.92374892 </i>
    <i name="e_0_energy">     -4.92421179 </i>
   </energy>
  </scstep>
  <scstep>
   <time name="dav">    0.12    0.12</time>
   <time name="total">    0.30    0.31</time>
   <energy>
    <i name="e_fr_energy">     -4.92467152 </i>
    <i name="e_wo_entrp">     -4.92374578 </i>
    <i name="e_0_energy">     -4.92420865 </i>
   </energy>
  </scstep>
  <scstep>
   <time name="dav">    0.11    0.11</time>
   <time name="total">    0.29    0.31</time>
   <energy>
    <i name="e_fr_energy">     -4.92465813 </i>
    <i name="e_wo_entrp">     -4.92373242 </i>
    <i name="e_0_energy">     -4.92419527 </i>
   </energy>
  </scstep>
  <scstep>
   <time name="dav">    0.06    0.06</time>
   <time name="total">    0.23    0.25</time>
   <energy>
    <i name="alphaZ">      2.25314187 </i>
    <i name="ewald">   -135.10061368 </i>
    <i name="hartreedc">     -0.46500571 </i>
    <i name="XCdc">     -8.84275252 </i>
    <i name="pawpsdc">    285.85983416 </i>
    <i name="pawaedc">   -268.27755088 </i>
    <i name="eentropy">     -0.00092571 </i>
    <i name="bandstr">     16.58358683 </i>
    <i name="atom">    103.06562707 </i>
    <i name="e_fr_energy">     -4.92465857 </i>
    <i name="e_wo_entrp">     -4.92373286 </i>
    <i name="e_0_energy">     -4.92419572 </i>
   </energy>
  </scstep>
  <structure>
   <crystal>
    <varray name="basis" >
     <v>       1.55156030       1.55156030       1.55156030 </v>
     <v>       1.55156030      -1.55156030      -1.55156030 </v>
     <v>      -1.55156030       1.55156030      -1.55156030 </v>
    </varray>
    <i name="volume">     14.94052870 </i>
    <varray name="rec_basis" >
     <v>       0.32225625       0.32225625       0.00000000 </v>
     <v>       0.32225625       0.00000000      -0.32225625 </v>
     <v>       0.00000000       0.32225625      -0.32225625 </v>
    </varray>
   </crystal>
   <varray name="positions" >
    <v>       0.00000000       0.00000000       0.00000000 </v>
   </varray>
  </structure>
  <varray name="forces" >
   <v>      -0.00000000       0.00000000       0.00000000 </v>
  </varray>
  <varray name="stress" >
   <v>     -19.07502529       0.00000000       0.00000000 </v>
   <v>      -0.00000000     -19.07502529       0.00000000 </v>
   <v>      -0.00000000       0.00000000     -19.07502529 </v>
  </varray>
  <energy>
   <i name="e_fr_energy">     -4.92465857 </i>
   <i name="e_wo_entrp">     -4.92373286 </i>
   <i name="e_0_energy">     -4.92419572 </i>
  </energy>
  <time name="totalsc">    2.26    2.39</time>
 </calculation>
 <calculation>
  <scstep>
   <time name="dav">    0.09    0.10</time>
   <time name="total">    0.28    0.28</time>
   <energy>
    <i name="alphaZ">      2.29944438 </i>
    <i name="ewald">   -136.01979370 </i>
    <i name="hartreedc">     -0.46815587 </i>
    <i name="XCdc">     -8.79099745 </i>
    <i name="pawpsdc">    285.56674888 </i>
    <i name="pawaedc">   -267.98447691 </i>
    <i name="eentropy">     -0.00092365 </i>
    <i name="bandstr">     17.40530907 </i>
    <i name="atom">    103.06562707 </i>
    <i name="e_fr_energy">     -4.92721818 </i>
    <i name="e_wo_entrp">     -4.92629453 </i>
    <i name="e_0_energy">     -4.92675636 </i>
   </energy>
  </scstep>
  <scstep>
   <time name="dav">    0.10    0.11</time>
   <time name="total">    0.29    0.30</time>
   <energy>
    <i name="e_fr_energy">     -4.92674817 </i>
    <i name="e_wo_entrp">     -4.92582452 </i>
    <i name="e_0_energy">     -4.92628635 </i>
   </energy>
  </scstep>
  <scstep>
   <time name="dav">    0.10    0.10</time>
   <time name="total">    0.29    0.29</time>
   <energy>
    <i name="e_fr_energy">     -4.92647524 </i>
    <i name="e_wo_entrp">     -4.92555159 </i>
    <i name="e_0_energy">     -4.92601342 </i>
   </energy>
  </scstep>
  <scstep>
   <time name="dav">    0.11    0.11</time>
   <time name="total">    0.30    0.30</time>
   <energy>
    <i name="e_fr_energy">     -4.92647528 </i>
    <i name="e_wo_entrp">     -4.92555162 </i>
    <i name="e_0_energy">     -4.92601345 </i>
   </energy>
  </scstep>
  <scstep>
   <time name="dav">    0.07    0.07</time>
   <time name="total">    0.25    0.27</time>
   <energy>
    <i name="e_fr_energy">     -4.92647606 </i>
    <i name="e_wo_entrp">     -4.92555241 </i>
    <i name="e_0_energy">     -4.92601423 </i>
   </energy>
  </scstep>
  <scstep>
   <time name="dav">    0.06    0.06</time>
   <time name="total">    0.23    0.24</time>
   <energy>
    <i name="alphaZ">      2.29944438 </i>
    <i name="ewald">   -136.01979370 </i>
    <i name="hartreedc">     -0.43215456 </i>
    <i name="XCdc">     -8.78429032 </i>
    <i name="pawpsdc">    297.78587811 </i>
    <i name="pawaedc">   -280.20790344 </i>
    <i name="eentropy">     -0.00092365 </i>
    <i name="bandstr">     17.36764024 </i>
    <i name="atom">    103.06562707 </i>
    <i name="e_fr_energy">     -4.92647586 </i>
    <i name="e_wo_entrp">     -4.92555221 </i>
    <i name="e_0_energy">     -4.92601404 </i>
   </energy>
  </scstep>
  <structure>
   <crystal>
    <varray name="basis" >
     <v>       1.54107533       1.54107533       1.54107533 </v>
     <v>       1.54107533      -1.54107533      -1.54107533 </v>
     <v>      -1.54107533       1.54107533      -1.54107533 </v>
    </varray>
    <i name="volume">     14.63968041 </i>
    <varray name="rec_basis" >
     <v>       0.32444877       0.32444877       0.00000000 </v>
     <v>       0.32444877       0.00000000      -0.32444877 </v>
     <v>       0.00000000       0.32444877      -0.32444877 </v>
    </varray>
   </crystal>
   <varray name="positions" >
    <v>       0.00000000       0.00000000       0.00000000 </v>
   </varray>
  </structure>
  <varray name="forces" >
   <v>      -0.00000000       0.00000000       0.00000000 </v>
  </varray>
  <varray name="stress" >
   <v>       0.13503509      -0.00000000      -0.00000000 </v>
   <v>      -0.00000000       0.13503509       0.00000000 </v>
   <v>       0.00000000       0.00000000       0.13503509 </v>
  </varray>
  <energy>
   <i name="e_fr_energy">     -4.92647586 </i>
   <i name="e_wo_entrp">     -4.92555221 </i>
   <i name="e_0_energy">     -4.92601404 </i>
  </energy>
  <time name="totalsc">    2.20    2.33</time>
  <eigenvalues>
   <array>
    <dimension dim="1">band</dimension>
    <dimension dim="2">kpoint</dimension>
    <dimension dim="3">spin</dimension>
    <field>eigene</field>
    <field>occ</field>
    <set>
     <set comment="spin 1">
      <set comment="kpoint 1">
       <r>   -4.3190    1.0000 </r>
       <r>   21.2708    0.0000 </r>
       <r>   21.2708    0.0000 </r>
       <r>   21.2708    0.0000 </r>
       <r>   22.4558    0.0000 </r>
       <r>   22.4558    0.0000 </r>
       <r>   22.4558    0.0000 </r>
       <r>   26.1309    0.0000 </r>
      </set>
      <set comment="kpoint 2">
       <r>   -3.9414    1.0000 </r>
       <r>   17.9743    0.0000 </r>
       <r>   19.2352    0.0000 </r>
       <r>   20.7625    0.0000 </r>
       <r>   21.3796    0.0000 </r>
       <r>   23.2156    0.0000 </r>
       <r>   24.9865    0.0000 </r>
       <r>   25.1151    0.0000 </r>
      </set>
      <set comment="kpoint 3">
       <r>   -2.8128    1.0000 </r>
       <r>   13.3055    0.0000 </r>
       <r>   17.3446    0.0000 </r>
       <r>   19.6430    0.0000 </r>
       <r>   19.6440    0.0000 </r>
       <r>   21.7147    0.0000 </r>
       <r>   26.3598    0.0000 </r>
       <r>   26.3685    0.0000 </r>
      </set>
      <set comment="kpoint 4">
       <r>   -0.9458    1.0000 </r>
       <r>    8.8479    1.0000 </r>
       <r>   16.0768    0.0000 </r>
       <r>   18.3078    0.0000 </r>
       <r>   18.6283    0.0000 </r>
       <r>   20.4860    0.0000 </r>
       <r>   27.7309    0.0000 </r>
       <r>   28.3133    0.0000 </r>
      </set>
      <set comment="kpoint 5">
       <r>    1.6336    1.0000 </r>
       <r>    4.9360    1.0000 </r>
       <r>   15.4429    0.0000 </r>
       <r>   17.6113    0.0000 </r>
       <r>   18.0678    0.0000 </r>
       <r>   19.8355    0.0000 </r>
       <r>   29.6034    0.0000 </r>
       <r>   30.3328    0.0000 </r>
      </set>
      <set comment="kpoint 6">
       <r>   -3.1883    1.0000 </r>
       <r>   15.6116    0.0000 </r>
       <r>   16.1278    0.0000 </r>
       <r>   18.7017    0.0000 </r>
       <r>   21.9350    0.0000 </r>
       <r>   23.1696    0.0000 </r>
       <r>   24.9497    0.0000 </r>
       <r>   26.2617    0.0000 </r>
      </set>
      <set comment="kpoint 7">
       <r>   -1.6904    1.0000 </r>
       <r>   11.2676    0.0000 </r>
       <r>   14.2404    0.0000 </r>
       <r>   17.2274    0.0000 </r>
       <r>   21.1171    0.0000 </r>
       <r>   22.9386    0.0000 </r>
       <r>   25.5166    0.0000 </r>
       <r>   28.6885    0.0000 </r>
      </set>
      <set comment="kpoint 8">
       <r>    0.5348    1.0000 </r>
       <r>    7.0788    1.0000 </r>
       <r>   13.2258    0.0000 </r>
       <r>   16.2814    0.0000 </r>
       <r>   20.2445    0.0000 </r>
       <r>   22.6604    0.0000 </r>
       <r>   26.8671    0.0000 </r>
       <r>   30.4853    0.0000 </r>
      </set>
      <set comment="kpoint 9">
       <r>    3.2745    1.0000 </r>
       <r>    3.6727    1.0000 </r>
       <r>   12.8869    0.0000 </r>
       <r>   15.9589    0.0000 </r>
       <r>   19.9319    0.0000 </r>
       <r>   22.4830    0.0000 </r>
       <r>   28.8966    0.0000 </r>
       <r>   29.2517    0.0000 </r>
      </set>
      <set comment="kpoint 10">
       <r>    0.1664    1.0000 </r>
       <r>    9.7263    0.5417 </r>
       <r>   10.0607    0.0000 </r>
       <r>   16.0036    0.0000 </r>
       <r>   22.2251    0.0000 </r>
       <r>   23.0931    0.0000 </r>
       <r>   28.0708    0.0000 </r>
       <r>   28.5513    0.0000 </r>
      </set>
      <set comment="kpoint 11">
       <r>    2.7320    1.0000 </r>
       <r>    6.0079    1.0000 </r>
       <r>    9.2013    1.0000 </r>
       <r>   15.3684    0.0000 </r>
       <r>   22.0466    0.0000 </r>
       <r>   24.5968    0.0000 </r>
       <r>   27.3090    0.0000 </r>
       <r>   29.4291    0.0000 </r>
      </set>
      <set comment="kpoint 12">
       <r>    5.3068    1.0000 </r>
       <r>    5.8151    1.0000 </r>
       <r>    5.8151    1.0000 </r>
       <r>   15.0549    0.0000 </r>
       <r>   23.7040    0.0000 </r>
       <r>   25.1463    0.0000 </r>
       <r>   25.1463    0.0000 </r>
       <r>   32.5365    0.0000 </r>
      </set>
      <set comment="kpoint 13">
       <r>   -2.0639    1.0000 </r>
       <r>   13.5030    0.0000 </r>
       <r>   14.2786    0.0000 </r>
       <r>   14.2786    0.0000 </r>
       <r>   24.5342    0.0000 </r>
       <r>   24.5342    0.0000 </r>
       <r>   26.5536    0.0000 </r>
       <r>   26.5536    0.0000 </r>
      </set>
      <set comment="kpoint 14">
       <r>   -0.2035    1.0000 </r>
       <r>    9.5417    1.0000 </r>
       <r>   12.4486    0.0000 </r>
       <r>   12.9391    0.0000 </r>
       <r>   24.5285    0.0000 </r>
       <r>   24.8502    0.0000 </r>
       <r>   28.3438    0.0000 </r>
       <r>   28.4036    0.0000 </r>
      </set>
      <set comment="kpoint 15">
       <r>    2.3674    1.0000 </r>
       <r>    5.6552    1.0000 </r>
       <r>   11.7560    0.0000 </r>
       <r>   12.2516    0.0000 </r>
       <r>   24.2785    0.0000 </r>
       <r>   24.4453    0.0000 </r>
       <r>   30.0822    0.0000 </r>
       <r>   30.6418    0.0000 </r>
      </set>
      <set comment="kpoint 16">
       <r>   -3.5645    1.0000 </r>
       <r>   17.4738    0.0000 </r>
       <r>   17.4738    0.0000 </r>
       <r>   18.9397    0.0000 </r>
       <r>   21.5171    0.0000 </r>
       <r>   23.1851    0.0000 </r>
       <r>   24.6278    0.0000 </r>
       <r>   24.6278    0.0000 </r>
      </set>
      <set comment="kpoint 17">
       <r>    2.0055    1.0000 </r>
       <r>    8.3318    1.0000 </r>
       <r>    8.6780    1.0000 </r>
       <r>   11.6908    0.0000 </r>
       <r>   26.0719    0.0000 </r>
       <r>   27.0525    0.0000 </r>
       <r>   29.5215    0.0000 </r>
       <r>   29.8345    0.0000 </r>
      </set>
      <set comment="kpoint 18">
       <r>    4.7308    1.0000 </r>
       <r>    5.1089    1.0000 </r>
       <r>    8.1640    1.0000 </r>
       <r>   11.3439    0.0000 </r>
       <r>   26.3635    0.0000 </r>
       <r>   27.8889    0.0000 </r>
       <r>   29.7505    0.0000 </r>
       <r>   31.0534    0.0000 </r>
      </set>
      <set comment="kpoint 19">
       <r>   -2.4379    1.0000 </r>
       <r>   13.5652    0.0000 </r>
       <r>   15.5575    0.0000 </r>
       <r>   17.9370    0.0000 </r>
       <r>   20.4354    0.0000 </r>
       <r>   22.0667    0.0000 </r>
       <r>   24.6964    0.0000 </r>
       <r>   27.8790    0.0000 </r>
      </set>
      <set comment="kpoint 20">
       <r>   -0.5742    1.0000 </r>
       <r>    9.1844    1.0000 </r>
       <r>   14.2427    0.0000 </r>
       <r>   16.8198    0.0000 </r>
       <r>   20.8147    0.0000 </r>
       <r>   21.0952    0.0000 </r>
       <r>   24.4284    0.0000 </r>
       <r>   30.0773    0.0000 </r>
      </set>
      <set comment="kpoint 21">
       <r>   -0.9453    1.0000 </r>
       <r>   11.7351    0.0000 </r>
       <r>   12.0247    0.0000 </r>
       <r>   17.7417    0.0000 </r>
       <r>   19.2626    0.0000 </r>
       <r>   21.6443    0.0000 </r>
       <r>   27.1671    0.0000 </r>
       <r>   27.6202    0.0000 </r>
      </set>
      <set comment="kpoint 22">
       <r>    2.0005    1.0000 </r>
       <r>    5.2922    1.0000 </r>
       <r>   13.5795    0.0000 </r>
       <r>   16.1776    0.0000 </r>
       <r>   20.1550    0.0000 </r>
       <r>   21.4927    0.0000 </r>
       <r>   25.5301    0.0000 </r>
       <r>   28.0257    0.0000 </r>
      </set>
      <set comment="kpoint 23">
       <r>    1.2714    1.0000 </r>
       <r>    7.7702    1.0000 </r>
       <r>   10.8547    0.0000 </r>
       <r>   17.2715    0.0000 </r>
       <r>   19.9374    0.0000 </r>
       <r>   21.3459    0.0000 </r>
       <r>   25.7720    0.0000 </r>
       <r>   28.2015    0.0000 </r>
      </set>
      <set comment="kpoint 24">
       <r>    4.0095    1.0000 </r>
       <r>    4.3808    1.0000 </r>
       <r>   10.5058    0.0000 </r>
       <r>   16.9925    0.0000 </r>
       <r>   19.9962    0.0000 </r>
       <r>   22.7327    0.0000 </r>
       <r>   23.8848    0.0000 </r>
       <r>   27.7803    0.0000 </r>
      </set>
      <set comment="kpoint 25">
       <r>    3.8181    1.0000 </r>
       <r>    6.9263    1.0000 </r>
       <r>    7.2123    1.0000 </r>
       <r>   18.1256    0.0000 </r>
       <r>   20.4555    0.0000 </r>
       <r>   21.0137    0.0000 </r>
       <r>   23.2243    0.0000 </r>
       <r>   31.1696    0.0000 </r>
      </set>
      <set comment="kpoint 26">
       <r>    4.5427    1.0000 </r>
       <r>    7.4944    1.0000 </r>
       <r>    7.9760    1.0000 </r>
       <r>    7.9760    1.0000 </r>
       <r>   29.6115    0.0000 </r>
       <r>   29.6115    0.0000 </r>
       <r>   30.9072    0.0000 </r>
       <r>   30.9072    0.0000 </r>
      </set>
      <set comment="kpoint 27">
       <r>   -1.3172    1.0000 </r>
       <r>   13.6067    0.0000 </r>
       <r>   13.6067    0.0000 </r>
       <r>   15.5636    0.0000 </r>
       <r>   17.0279    0.0000 </r>
       <r>   25.3804    0.0000 </r>
       <r>   26.8623    0.0000 </r>
       <r>   26.8623    0.0000 </r>
      </set>
      <set comment="kpoint 28">
       <r>    0.5360    1.0000 </r>
       <r>   10.1455    0.0000 </r>
       <r>   12.2707    0.0000 </r>
       <r>   14.7639    0.0000 </r>
       <r>   17.0669    0.0000 </r>
       <r>   24.7844    0.0000 </r>
       <r>   25.1136    0.0000 </r>
       <r>   27.8779    0.0000 </r>
      </set>
      <set comment="kpoint 29">
       <r>    3.0949    1.0000 </r>
       <r>    6.3499    1.0000 </r>
       <r>   11.5978    0.0000 </r>
       <r>   14.1307    0.0000 </r>
       <r>   19.0871    0.0000 </r>
       <r>   22.1686    0.0000 </r>
       <r>   24.1699    0.0000 </r>
       <r>   27.6113    0.0000 </r>
      </set>
      <set comment="kpoint 30">
       <r>    2.7340    1.0000 </r>
       <r>    8.9878    1.0000 </r>
       <r>    9.2232    1.0000 </r>
       <r>   15.4308    0.0000 </r>
       <r>   16.3846    0.0000 </r>
       <r>   21.8018    0.0000 </r>
       <r>   25.0258    0.0000 </r>
       <r>   30.2855    0.0000 </r>
      </set>
      <set comment="kpoint 31">
       <r>    5.4569    1.0000 </r>
       <r>    5.7838    1.0000 </r>
       <r>    8.7633    1.0000 </r>
       <r>   15.4458    0.0000 </r>
       <r>   18.1687    0.0000 </r>
       <r>   19.0580    0.0000 </r>
       <r>   24.7619    0.0000 </r>
       <r>   30.9301    0.0000 </r>
      </set>
      <set comment="kpoint 32">
       <r>    2.3701    1.0000 </r>
       <r>   10.9241    0.0000 </r>
       <r>   10.9241    0.0000 </r>
       <r>   12.9600    0.0000 </r>
       <r>   13.9862    0.0000 </r>
       <r>   21.5337    0.0000 </r>
       <r>   28.9447    0.0000 </r>
       <r>   29.9787    0.0000 </r>
      </set>
      <set comment="kpoint 33">
       <r>    4.8947    1.0000 </r>
       <r>    8.0474    1.0000 </r>
       <r>   10.2474    0.0000 </r>
       <r>   12.6663    0.0000 </r>
       <r>   14.9489    0.0000 </r>
       <r>   17.9650    0.0000 </r>
       <r>   28.8059    0.0000 </r>
       <r>   30.9524    0.0000 </r>
      </set>
      <set comment="kpoint 34">
       <r>    7.4512    1.0000 </r>
       <r>    7.8120    1.0000 </r>
       <r>    7.8120    1.0000 </r>
       <r>   13.8553    0.0000 </r>
       <r>   14.9222    0.0000 </r>
       <r>   14.9222    0.0000 </r>
       <r>   29.3679    0.0000 </r>
       <r>   33.9033    0.0000 </r>
      </set>
      <set comment="kpoint 35">
       <r>    7.3273    1.0000 </r>
       <r>    9.5690    1.0000 </r>
       <r>    9.5690    1.0000 </r>
       <r>   11.5288    0.0000 </r>
       <r>   12.4569    0.0000 </r>
       <r>   14.3120    0.0000 </r>
       <r>   33.3204    0.0000 </r>
       <r>   33.6263    0.0000 </r>
      </set>
     </set>
    </set>
   </array>
  </eigenvalues>
  <separator name="orbital magnetization" >
   <v name="MAGDIPOLOUT">      0.00000000      0.00000000      0.00000000</v>
  </separator>
  <dos>
   <i name="efermi">      9.73001573 </i>
   <total>
    <array>
     <dimension dim="1">gridpoints</dimension>
     <dimension dim="2">spin</dimension>
     <field>energy</field>
     <field>total</field>
     <field>integrated</field>
     <set>
      <set comment="spin 1">
       <r>    -6.2301     0.0000     0.0000 </r>
       <r>    -6.0899     0.0000     0.0000 </r>
       <r>    -5.9498     0.0000     0.0000 </r>
       <r>    -5.8096     0.0000     0.0000 </r>
       <r>    -5.6695     0.0000     0.0000 </r>
       <r>    -5.5293     0.0000     0.0000 </r>
       <r>    -5.3892     0.0000     0.0000 </r>
       <r>    -5.2490     0.0000     0.0000 </r>
       <r>    -5.1089     0.0000     0.0000 </r>
       <r>    -4.9687     0.0000     0.0000 </r>
       <r>    -4.8286     0.0000     0.0000 </r>
       <r>    -4.6884     0.0000     0.0000 </r>
       <r>    -4.5483     0.0000     0.0000 </r>
       <r>    -4.4081     0.0001     0.0000 </r>
       <r>    -4.2680     0.0180     0.0025 </r>
       <r>    -4.1279     0.0015     0.0027 </r>
       <r>    -3.9877     0.0224     0.0059 </r>
       <r>    -3.8476     0.2116     0.0355 </r>
       <r>    -3.7074     0.0009     0.0357 </r>
       <r>    -3.5673     0.0550     0.0434 </r>
       <r>    -3.4271     0.0624     0.0521 </r>
       <r>    -3.2870     0.0012     0.0523 </r>
       <r>    -3.1468     0.4121     0.1100 </r>
       <r>    -3.0067     0.0565     0.1180 </r>
       <r>    -2.8665     0.0151     0.1201 </r>
       <r>    -2.7264     0.2181     0.1507 </r>
       <r>    -2.5862     0.0017     0.1509 </r>
       <r>    -2.4461     0.1918     0.1778 </r>
       <r>    -2.3059     0.2779     0.2167 </r>
       <r>    -2.1658     0.0004     0.2168 </r>
       <r>    -2.0256     0.1344     0.2356 </r>
       <r>    -1.8855     0.0219     0.2387 </r>
       <r>    -1.7453     0.0565     0.2466 </r>
       <r>    -1.6052     0.8756     0.3693 </r>
       <r>    -1.4650     0.0075     0.3704 </r>
       <r>    -1.3249     0.0486     0.3772 </r>
       <r>    -1.1847     0.0688     0.3868 </r>
       <r>    -1.0446     0.0018     0.3871 </r>
       <r>    -0.9044     0.6163     0.4735 </r>
       <r>    -0.7643     0.0867     0.4856 </r>
       <r>    -0.6241     0.0371     0.4908 </r>
       <r>    -0.4840     0.4302     0.5511 </r>
       <r>    -0.3438     0.0025     0.5514 </r>
       <r>    -0.2037     0.2338     0.5842 </r>
       <r>    -0.0636     0.2360     0.6173 </r>
       <r>     0.0766     0.0026     0.6176 </r>
       <r>     0.2167     0.4309     0.6780 </r>
       <r>     0.3569     0.0364     0.6831 </r>
       <r>     0.4970     0.1976     0.7108 </r>
       <r>     0.6372     1.2091     0.8803 </r>
       <r>     0.7773     0.0028     0.8807 </r>
       <r>     0.9175     0.0000     0.8807 </r>
       <r>     1.0576     0.0000     0.8807 </r>
       <r>     1.1978     0.0175     0.8831 </r>
       <r>     1.3379     0.8940     1.0084 </r>
       <r>     1.4781     0.0281     1.0123 </r>
       <r>     1.6182     0.0779     1.0233 </r>
       <r>     1.7584     0.1569     1.0453 </r>
       <r>     1.8985     0.0016     1.0455 </r>
       <r>     2.0387     0.7906     1.1563 </r>
       <r>     2.1788     0.1476     1.1770 </r>
       <r>     2.3190     0.0487     1.1838 </r>
       <r>     2.4591     0.5356     1.2588 </r>
       <r>     2.5993     0.0030     1.2593 </r>
       <r>     2.7394     0.8110     1.3729 </r>
       <r>     2.8796     0.5983     1.4568 </r>
       <r>     3.0197     0.0079     1.4579 </r>
       <r>     3.1599     0.4467     1.5205 </r>
       <r>     3.3000     0.3744     1.5730 </r>
       <r>     3.4402     0.1107     1.5885 </r>
       <r>     3.5803     0.0021     1.5888 </r>
       <r>     3.7205     0.4275     1.6487 </r>
       <r>     3.8606     0.4561     1.7126 </r>
       <r>     4.0007     0.2429     1.7466 </r>
       <r>     4.1409     0.2808     1.7860 </r>
       <r>     4.2810     0.0012     1.7862 </r>
       <r>     4.4212     0.4092     1.8435 </r>
       <r>     4.5613     0.1693     1.8672 </r>
       <r>     4.7015     0.1426     1.8872 </r>
       <r>     4.8416     0.4058     1.9441 </r>
       <r>     4.9818     0.6468     2.0347 </r>
       <r>     5.1219     0.3285     2.0808 </r>
       <r>     5.2621     0.2762     2.1195 </r>
       <r>     5.4022     0.5453     2.1959 </r>
       <r>     5.5424     0.4389     2.2574 </r>
       <r>     5.6825     0.3711     2.3094 </r>
       <r>     5.8227     0.6911     2.4063 </r>
       <r>     5.9628     0.2889     2.4468 </r>
       <r>     6.1030     0.8413     2.5647 </r>
       <r>     6.2431     0.0040     2.5652 </r>
       <r>     6.3833     0.3880     2.6196 </r>
       <r>     6.5234     0.0812     2.6310 </r>
       <r>     6.6636     0.0000     2.6310 </r>
       <r>     6.8037     0.0001     2.6310 </r>
       <r>     6.9439     0.3242     2.6764 </r>
       <r>     7.0840     0.6701     2.7704 </r>
       <r>     7.2242     0.7118     2.8701 </r>
       <r>     7.3643     0.2744     2.9086 </r>
       <r>     7.5045     0.2583     2.9448 </r>
       <r>     7.6446     0.0713     2.9548 </r>
       <r>     7.7848     0.6885     3.0512 </r>
       <r>     7.9249     0.5873     3.1336 </r>
       <r>     8.0650     0.6141     3.2196 </r>
       <r>     8.2052     0.5584     3.2979 </r>
       <r>     8.3453     0.3623     3.3487 </r>
       <r>     8.4855     0.1646     3.3717 </r>
       <r>     8.6256     0.0326     3.3763 </r>
       <r>     8.7658     0.6847     3.4723 </r>
       <r>     8.9059     0.4502     3.5354 </r>
       <r>     9.0461     0.4535     3.5989 </r>
       <r>     9.1862     0.6518     3.6903 </r>
       <r>     9.3264     1.2497     3.8654 </r>
       <r>     9.4665     0.0094     3.8667 </r>
       <r>     9.6067     0.6474     3.9575 </r>
       <r>     9.7468     0.3868     4.0117 </r>
       <r>     9.8870     0.1320     4.0302 </r>
       <r>    10.0271     0.0807     4.0415 </r>
       <r>    10.1673     0.7372     4.1448 </r>
       <r>    10.3074     0.5705     4.2248 </r>
       <r>    10.4476     0.0444     4.2310 </r>
       <r>    10.5877     0.4416     4.2929 </r>
       <r>    10.7279     0.0050     4.2936 </r>
       <r>    10.8680     0.6210     4.3806 </r>
       <r>    11.0082     0.5513     4.4579 </r>
       <r>    11.1483     0.0024     4.4582 </r>
       <r>    11.2885     0.7063     4.5572 </r>
       <r>    11.4286     0.6991     4.6552 </r>
       <r>    11.5688     0.2025     4.6836 </r>
       <r>    11.7089     0.8658     4.8049 </r>
       <r>    11.8491     0.9298     4.9352 </r>
       <r>    11.9892     0.0763     4.9459 </r>
       <r>    12.1293     0.3952     5.0013 </r>
       <r>    12.2695     0.5549     5.0791 </r>
       <r>    12.4096     0.4594     5.1435 </r>
       <r>    12.5498     0.5118     5.2152 </r>
       <r>    12.6899     0.3528     5.2646 </r>
       <r>    12.8301     0.1442     5.2848 </r>
       <r>    12.9702     0.8924     5.4099 </r>
       <r>    13.1104     0.1392     5.4294 </r>
       <r>    13.2505     0.7257     5.5311 </r>
       <r>    13.3907     0.4466     5.5937 </r>
       <r>    13.5308     0.2456     5.6281 </r>
       <r>    13.6710     1.0763     5.7790 </r>
       <r>    13.8111     0.0276     5.7828 </r>
       <r>    13.9513     0.1585     5.8051 </r>
       <r>    14.0914     0.1613     5.8277 </r>
       <r>    14.2316     0.9904     5.9665 </r>
       <r>    14.3717     1.2503     6.1417 </r>
       <r>    14.5119     0.0068     6.1427 </r>
       <r>    14.6520     0.0004     6.1427 </r>
       <r>    14.7922     0.3699     6.1945 </r>
       <r>    14.9323     0.4415     6.2564 </r>
       <r>    15.0725     0.5491     6.3334 </r>
       <r>    15.2126     0.0487     6.3402 </r>
       <r>    15.3528     0.3192     6.3849 </r>
       <r>    15.4929     1.7335     6.6279 </r>
       <r>    15.6331     0.9800     6.7652 </r>
       <r>    15.7732     0.1385     6.7846 </r>
       <r>    15.9134     0.0490     6.7915 </r>
       <r>    16.0535     0.9202     6.9205 </r>
       <r>    16.1936     0.9836     7.0583 </r>
       <r>    16.3338     1.0715     7.2085 </r>
       <r>    16.4739     0.4966     7.2781 </r>
       <r>    16.6141     0.0027     7.2785 </r>
       <r>    16.7542     0.0149     7.2806 </r>
       <r>    16.8944     0.4480     7.3433 </r>
       <r>    17.0345     0.5737     7.4237 </r>
       <r>    17.1747     0.5566     7.5017 </r>
       <r>    17.3148     1.7505     7.7471 </r>
       <r>    17.4550     0.3672     7.7985 </r>
       <r>    17.5951     0.2410     7.8323 </r>
       <r>    17.7353     0.3602     7.8828 </r>
       <r>    17.8754     0.2911     7.9236 </r>
       <r>    18.0156     1.0984     8.0775 </r>
       <r>    18.1557     0.8321     8.1941 </r>
       <r>    18.2959     0.4826     8.2618 </r>
       <r>    18.4360     0.1484     8.2826 </r>
       <r>    18.5762     0.0166     8.2849 </r>
       <r>    18.7163     0.5269     8.3587 </r>
       <r>    18.8565     0.1624     8.3815 </r>
       <r>    18.9966     0.1319     8.4000 </r>
       <r>    19.1368     0.8811     8.5235 </r>
       <r>    19.2769     0.5587     8.6018 </r>
       <r>    19.4171     0.1889     8.6283 </r>
       <r>    19.5572     0.0034     8.6287 </r>
       <r>    19.6974     0.4364     8.6899 </r>
       <r>    19.8375     0.1567     8.7119 </r>
       <r>    19.9777     1.4931     8.9211 </r>
       <r>    20.1178     0.5633     9.0001 </r>
       <r>    20.2580     1.0088     9.1414 </r>
       <r>    20.3981     0.4263     9.2012 </r>
       <r>    20.5382     1.0582     9.3495 </r>
       <r>    20.6784     0.0238     9.3528 </r>
       <r>    20.8185     0.4747     9.4194 </r>
       <r>    20.9587     0.2560     9.4552 </r>
       <r>    21.0988     0.9762     9.5921 </r>
       <r>    21.2390     0.8866     9.7163 </r>
       <r>    21.3791     0.9400     9.8481 </r>
       <r>    21.5193     0.7470     9.9527 </r>
       <r>    21.6594     0.5658    10.0320 </r>
       <r>    21.7996     0.5994    10.1160 </r>
       <r>    21.9397     0.5100    10.1875 </r>
       <r>    22.0799     1.2917    10.3685 </r>
       <r>    22.2200     0.9696    10.5044 </r>
       <r>    22.3602     0.2966    10.5460 </r>
       <r>    22.5003     0.3756    10.5986 </r>
       <r>    22.6405     0.4242    10.6581 </r>
       <r>    22.7806     1.0964    10.8117 </r>
       <r>    22.9208     0.3304    10.8580 </r>
       <r>    23.0609     0.7363    10.9612 </r>
       <r>    23.2011     1.0449    11.1077 </r>
       <r>    23.3412     0.6311    11.1961 </r>
       <r>    23.4814     0.0003    11.1962 </r>
       <r>    23.6215     0.0015    11.1964 </r>
       <r>    23.7617     0.1471    11.2170 </r>
       <r>    23.9018     0.3297    11.2632 </r>
       <r>    24.0420     0.1482    11.2840 </r>
       <r>    24.1821     0.2998    11.3260 </r>
       <r>    24.3223     0.5897    11.4086 </r>
       <r>    24.4624     0.7839    11.5185 </r>
       <r>    24.6025     1.5599    11.7371 </r>
       <r>    24.7427     1.2226    11.9084 </r>
       <r>    24.8828     1.1893    12.0751 </r>
       <r>    25.0230     0.9547    12.2089 </r>
       <r>    25.1631     1.1509    12.3702 </r>
       <r>    25.3033     0.1593    12.3926 </r>
       <r>    25.4434     0.1328    12.4112 </r>
       <r>    25.5836     1.3344    12.5982 </r>
       <r>    25.7237     0.1390    12.6177 </r>
       <r>    25.8639     0.8542    12.7374 </r>
       <r>    26.0040     0.0173    12.7398 </r>
       <r>    26.1442     0.4602    12.8043 </r>
       <r>    26.2843     0.3751    12.8569 </r>
       <r>    26.4245     1.0095    12.9984 </r>
       <r>    26.5646     0.2361    13.0315 </r>
       <r>    26.7048     0.1182    13.0480 </r>
       <r>    26.8449     0.3224    13.0932 </r>
       <r>    26.9851     0.8649    13.2144 </r>
       <r>    27.1252     0.5033    13.2849 </r>
       <r>    27.2654     0.5245    13.3585 </r>
       <r>    27.4055     0.8357    13.4756 </r>
       <r>    27.5457     0.0261    13.4792 </r>
       <r>    27.6858     0.9189    13.6080 </r>
       <r>    27.8260     0.7377    13.7114 </r>
       <r>    27.9661     1.3834    13.9053 </r>
       <r>    28.1063     0.8540    14.0250 </r>
       <r>    28.2464     0.9281    14.1550 </r>
       <r>    28.3866     0.8828    14.2788 </r>
       <r>    28.5267     0.4938    14.3480 </r>
       <r>    28.6668     0.6095    14.4334 </r>
       <r>    28.8070     0.9288    14.5636 </r>
       <r>    28.9471     0.7225    14.6648 </r>
       <r>    29.0873     0.0915    14.6776 </r>
       <r>    29.2274     0.1159    14.6939 </r>
       <r>    29.3676     0.4698    14.7597 </r>
       <r>    29.5077     1.1329    14.9185 </r>
       <r>    29.6479     0.7942    15.0298 </r>
       <r>    29.7880     0.5176    15.1024 </r>
       <r>    29.9282     0.5003    15.1725 </r>
       <r>    30.0683     0.4612    15.2371 </r>
       <r>    30.2085     0.5955    15.3206 </r>
       <r>    30.3486     0.6036    15.4052 </r>
       <r>    30.4888     0.6010    15.4894 </r>
       <r>    30.6289     0.6011    15.5736 </r>
       <r>    30.7691     0.3017    15.6159 </r>
       <r>    30.9092     0.3462    15.6644 </r>
       <r>    31.0494     1.1191    15.8213 </r>
       <r>    31.1895     0.5925    15.9043 </r>
       <r>    31.3297     0.1347    15.9232 </r>
       <r>    31.4698     0.0000    15.9232 </r>
       <r>    31.6100     0.0000    15.9232 </r>
       <r>    31.7501     0.0000    15.9232 </r>
       <r>    31.8903     0.0000    15.9232 </r>
       <r>    32.0304     0.0000    15.9232 </r>
       <r>    32.1706     0.0000    15.9232 </r>
       <r>    32.3107     0.0000    15.9232 </r>
       <r>    32.4509     0.0012    15.9234 </r>
       <r>    32.5910     0.1458    15.9438 </r>
       <r>    32.7311     0.0096    15.9451 </r>
       <r>    32.8713     0.0000    15.9451 </r>
       <r>    33.0114     0.0000    15.9451 </r>
       <r>    33.1516     0.0000    15.9451 </r>
       <r>    33.2917     0.0246    15.9486 </r>
       <r>    33.4319     0.0928    15.9616 </r>
       <r>    33.5720     0.0074    15.9626 </r>
       <r>    33.7122     0.1092    15.9779 </r>
       <r>    33.8523     0.0126    15.9797 </r>
       <r>    33.9925     0.1440    15.9999 </r>
       <r>    34.1326     0.0009    16.0000 </r>
       <r>    34.2728     0.0000    16.0000 </r>
       <r>    34.4129     0.0000    16.0000 </r>
       <r>    34.5531     0.0000    16.0000 </r>
       <r>    34.6932     0.0000    16.0000 </r>
       <r>    34.8334     0.0000    16.0000 </r>
       <r>    34.9735     0.0000    16.0000 </r>
       <r>    35.1137     0.0000    16.0000 </r>
       <r>    35.2538     0.0000    16.0000 </r>
       <r>    35.3940     0.0000    16.0000 </r>
       <r>    35.5341     0.0000    16.0000 </r>
       <r>    35.6743     0.0000    16.0000 </r>
       <r>    35.8144     0.0000    16.0000 </r>
      </set>
     </set>
    </array>
   </total>
  </dos>
 </calculation>
 <structure name="finalpos" >
  <crystal>
   <varray name="basis" >
    <v>       1.54107533       1.54107533       1.54107533 </v>
    <v>       1.54107533      -1.54107533      -1.54107533 </v>
    <v>      -1.54107533       1.54107533      -1.54107533 </v>
   </varray>
   <i name="volume">     14.63968041 </i>
   <varray name="rec_basis" >
    <v>       0.32444877       0.32444877       0.00000000 </v>
    <v>       0.32444877       0.00000000      -0.32444877 </v>
    <v>       0.00000000       0.32444877      -0.32444877 </v>
   </varray>
  </crystal>
  <varray name="positions" >
   <v>       0.00000000       0.00000000       0.00000000 </v>
  </varray>
 </structure>
</modeling>
