   2   2   0   0
  0.2016476E+02  0.3849278E-09  0.3849279E-09  0.3849278E-09  0.5000000E-15
  1.000000000000000E-004
  CAR 
 unknown system                          
     16.55542335     -7.27161271  301      5.83449812      1.00000000
     -7.272  0.0000E+00  0.0000E+00
     -7.192  0.0000E+00  0.0000E+00
     -7.113  0.0000E+00  0.0000E+00
     -7.033  0.0000E+00  0.0000E+00
     -6.954  0.0000E+00  0.0000E+00
     -6.874  0.0000E+00  0.0000E+00
     -6.795  0.0000E+00  0.0000E+00
     -6.716  0.0000E+00  0.0000E+00
     -6.636  0.0000E+00  0.0000E+00
     -6.557  0.0000E+00  0.0000E+00
     -6.477  0.1048E-19  0.8327E-21
     -6.398  0.1061E-12  0.8430E-14
     -6.319  0.9290E-08  0.7378E-09
     -6.239  0.9666E-05  0.7684E-06
     -6.160  0.2788E-03  0.2291E-04
     -6.080  0.9293E-03  0.9672E-04
     -6.001  0.1386E-02  0.2068E-03
     -5.921  0.1734E-02  0.3445E-03
     -5.842  0.2001E-02  0.5034E-03
     -5.763  0.2227E-02  0.6803E-03
     -5.683  0.2539E-02  0.8820E-03
     -5.604  0.2649E-02  0.1092E-02
     -5.524  0.2993E-02  0.1330E-02
     -5.445  0.2972E-02  0.1566E-02
     -5.365  0.3427E-02  0.1838E-02
     -5.286  0.3407E-02  0.2109E-02
     -5.207  0.3626E-02  0.2397E-02
     -5.127  0.3976E-02  0.2713E-02
     -5.048  0.3792E-02  0.3014E-02
     -4.968  0.4401E-02  0.3363E-02
     -4.889  0.4347E-02  0.3709E-02
     -4.809  0.4451E-02  0.4062E-02
     -4.730  0.4781E-02  0.4442E-02
     -4.651  0.5096E-02  0.4847E-02
     -4.571  0.4830E-02  0.5230E-02
     -4.492  0.5513E-02  0.5668E-02
     -4.412  0.5641E-02  0.6116E-02
     -4.333  0.5647E-02  0.6565E-02
     -4.254  0.6042E-02  0.7045E-02
     -4.174  0.6421E-02  0.7555E-02
     -4.095  0.6946E-02  0.8106E-02
     -4.015  0.6614E-02  0.8632E-02
     -3.936  0.8251E-02  0.9287E-02
     -3.856  0.8913E-02  0.9995E-02
     -3.777  0.9007E-02  0.1071E-01
     -3.698  0.7986E-02  0.1134E-01
     -3.618  0.8796E-02  0.1204E-01
     -3.539  0.8353E-02  0.1271E-01
     -3.459  0.7345E-02  0.1329E-01
     -3.380  0.7262E-02  0.1387E-01
     -3.300  0.7601E-02  0.1447E-01
     -3.221  0.6835E-02  0.1501E-01
     -3.142  0.6896E-02  0.1556E-01
     -3.062  0.6086E-02  0.1604E-01
     -2.983  0.5469E-02  0.1648E-01
     -2.903  0.6636E-02  0.1701E-01
     -2.824  0.5954E-02  0.1748E-01
     -2.744  0.4123E-02  0.1781E-01
     -2.665  0.4051E-02  0.1813E-01
     -2.586  0.6136E-02  0.1862E-01
     -2.506  0.4233E-02  0.1895E-01
     -2.427  0.2869E-02  0.1918E-01
     -2.347  0.2405E-02  0.1937E-01
     -2.268  0.4167E-02  0.1970E-01
     -2.189  0.2435E-02  0.1989E-01
     -2.109  0.1138E-02  0.1998E-01
     -2.030  0.1903E-03  0.2000E-01
     -1.950  0.3425E-03  0.2003E-01
     -1.871  0.2422E-02  0.2022E-01
     -1.791  0.3056E-02  0.2046E-01
     -1.712  0.1794E-02  0.2060E-01
     -1.633  0.1646E-02  0.2074E-01
     -1.553  0.3405E-02  0.2101E-01
     -1.474  0.7119E-02  0.2157E-01
     -1.394  0.3804E-02  0.2187E-01
     -1.315  0.3228E-02  0.2213E-01
     -1.235  0.6108E-02  0.2262E-01
     -1.156  0.1244E-01  0.2360E-01
     -1.077  0.1576E-01  0.2486E-01
     -0.997  0.1394E-01  0.2596E-01
     -0.918  0.1057E-01  0.2680E-01
     -0.838  0.9700E-02  0.2757E-01
     -0.759  0.8723E-02  0.2827E-01
     -0.679  0.8380E-02  0.2893E-01
     -0.600  0.5757E-02  0.2939E-01
     -0.521  0.6942E-02  0.2994E-01
     -0.441  0.5320E-02  0.3036E-01
     -0.362  0.6921E-02  0.3091E-01
     -0.282  0.5388E-02  0.3134E-01
     -0.203  0.4337E-02  0.3168E-01
     -0.124  0.5810E-02  0.3215E-01
     -0.044  0.3318E-02  0.3241E-01
      0.035  0.5077E-02  0.3281E-01
      0.115  0.5344E-02  0.3324E-01
      0.194  0.2340E-02  0.3342E-01
      0.274  0.4664E-02  0.3379E-01
      0.353  0.3851E-02  0.3410E-01
      0.432  0.2406E-02  0.3429E-01
      0.512  0.4277E-02  0.3463E-01
      0.591  0.3948E-02  0.3494E-01
      0.671  0.1651E-02  0.3507E-01
      0.750  0.3114E-02  0.3532E-01
      0.830  0.3793E-02  0.3562E-01
      0.909  0.1985E-02  0.3578E-01
      0.988  0.2251E-02  0.3596E-01
      1.068  0.3768E-02  0.3626E-01
      1.147  0.1690E-02  0.3639E-01
      1.227  0.1523E-02  0.3651E-01
      1.306  0.3382E-02  0.3678E-01
      1.386  0.4966E-02  0.3718E-01
      1.465  0.6664E-02  0.3771E-01
      1.544  0.8630E-02  0.3839E-01
      1.624  0.1325E-01  0.3944E-01
      1.703  0.1165E-01  0.4037E-01
      1.783  0.1090E-01  0.4123E-01
      1.862  0.1240E-01  0.4222E-01
      1.942  0.1000E-01  0.4301E-01
      2.021  0.1019E-01  0.4382E-01
      2.100  0.1055E-01  0.4466E-01
      2.180  0.1027E-01  0.4548E-01
      2.259  0.1093E-01  0.4634E-01
      2.339  0.1051E-01  0.4718E-01
      2.418  0.1105E-01  0.4806E-01
      2.497  0.1128E-01  0.4895E-01
      2.577  0.1175E-01  0.4989E-01
      2.656  0.1177E-01  0.5082E-01
      2.736  0.1357E-01  0.5190E-01
      2.815  0.1329E-01  0.5295E-01
      2.895  0.1547E-01  0.5418E-01
      2.974  0.1568E-01  0.5543E-01
      3.053  0.1476E-01  0.5660E-01
      3.133  0.1525E-01  0.5781E-01
      3.212  0.1455E-01  0.5897E-01
      3.292  0.1469E-01  0.6013E-01
      3.371  0.1402E-01  0.6125E-01
      3.451  0.1431E-01  0.6238E-01
      3.530  0.1299E-01  0.6342E-01
      3.609  0.1500E-01  0.6461E-01
      3.689  0.1240E-01  0.6559E-01
      3.768  0.1275E-01  0.6660E-01
      3.848  0.1419E-01  0.6773E-01
      3.927  0.1192E-01  0.6868E-01
      4.007  0.1203E-01  0.6963E-01
      4.086  0.1368E-01  0.7072E-01
      4.165  0.1110E-01  0.7160E-01
      4.245  0.1161E-01  0.7252E-01
      4.324  0.1301E-01  0.7356E-01
      4.404  0.1049E-01  0.7439E-01
      4.483  0.1035E-01  0.7521E-01
      4.562  0.1001E-01  0.7601E-01
      4.642  0.6304E-02  0.7651E-01
      4.721  0.7233E-02  0.7708E-01
      4.801  0.5875E-02  0.7755E-01
      4.880  0.5107E-02  0.7796E-01
      4.960  0.5029E-02  0.7835E-01
      5.039  0.3715E-02  0.7865E-01
      5.118  0.3922E-02  0.7896E-01
      5.198  0.3356E-02  0.7923E-01
      5.277  0.2610E-02  0.7943E-01
      5.357  0.2473E-02  0.7963E-01
      5.436  0.1971E-02  0.7979E-01
      5.516  0.1471E-02  0.7990E-01
      5.595  0.9588E-03  0.7998E-01
      5.674  0.2347E-03  0.8000E-01
      5.754  0.6162E-05  0.8000E-01
      5.833  0.3251E-08  0.8000E-01
      5.913  0.1670E-13  0.8000E-01
      5.992  0.1300E-17  0.8000E-01
      6.072  0.5618E-11  0.8000E-01
      6.151  0.1929E-06  0.8000E-01
      6.230  0.6917E-04  0.8001E-01
      6.310  0.6008E-03  0.8005E-01
      6.389  0.1329E-02  0.8016E-01
      6.469  0.2397E-02  0.8035E-01
      6.548  0.2421E-02  0.8054E-01
      6.627  0.3906E-02  0.8085E-01
      6.707  0.3845E-02  0.8116E-01
      6.786  0.4077E-02  0.8148E-01
      6.866  0.4650E-02  0.8185E-01
      6.945  0.5785E-02  0.8231E-01
      7.025  0.5852E-02  0.8277E-01
      7.104  0.5314E-02  0.8320E-01
      7.183  0.7239E-02  0.8377E-01
      7.263  0.7984E-02  0.8441E-01
      7.342  0.8376E-02  0.8507E-01
      7.422  0.9346E-02  0.8581E-01
      7.501  0.9462E-02  0.8656E-01
      7.581  0.1082E-01  0.8742E-01
      7.660  0.1200E-01  0.8838E-01
      7.739  0.1414E-01  0.8950E-01
      7.819  0.1418E-01  0.9063E-01
      7.898  0.1625E-01  0.9192E-01
      7.978  0.1697E-01  0.9326E-01
      8.057  0.1539E-01  0.9449E-01
      8.137  0.1520E-01  0.9569E-01
      8.216  0.1456E-01  0.9685E-01
      8.295  0.1218E-01  0.9782E-01
      8.375  0.1228E-01  0.9879E-01
      8.454  0.1198E-01  0.9974E-01
      8.534  0.1130E-01  0.1006E+00
      8.613  0.1035E-01  0.1015E+00
      8.693  0.1096E-01  0.1023E+00
      8.772  0.9701E-02  0.1031E+00
      8.851  0.1492E-01  0.1043E+00
      8.931  0.2248E-01  0.1061E+00
      9.010  0.2368E-01  0.1080E+00
      9.090  0.1930E-01  0.1095E+00
      9.169  0.1794E-01  0.1109E+00
      9.248  0.1626E-01  0.1122E+00
      9.328  0.1556E-01  0.1134E+00
      9.407  0.1763E-01  0.1148E+00
      9.487  0.1811E-01  0.1163E+00
      9.566  0.1416E-01  0.1174E+00
      9.646  0.1288E-01  0.1184E+00
      9.725  0.1084E-01  0.1193E+00
      9.804  0.1317E-01  0.1203E+00
      9.884  0.1356E-01  0.1214E+00
      9.963  0.1171E-01  0.1223E+00
     10.043  0.1156E-01  0.1233E+00
     10.122  0.1200E-01  0.1242E+00
     10.202  0.1400E-01  0.1253E+00
     10.281  0.1517E-01  0.1265E+00
     10.360  0.1347E-01  0.1276E+00
     10.440  0.1168E-01  0.1285E+00
     10.519  0.1301E-01  0.1296E+00
     10.599  0.1139E-01  0.1305E+00
     10.678  0.1369E-01  0.1316E+00
     10.758  0.1094E-01  0.1324E+00
     10.837  0.1292E-01  0.1334E+00
     10.916  0.1173E-01  0.1344E+00
     10.996  0.1059E-01  0.1352E+00
     11.075  0.1315E-01  0.1363E+00
     11.155  0.1163E-01  0.1372E+00
     11.234  0.1158E-01  0.1381E+00
     11.313  0.1139E-01  0.1390E+00
     11.393  0.8751E-02  0.1397E+00
     11.472  0.1129E-01  0.1406E+00
     11.552  0.1200E-01  0.1416E+00
     11.631  0.1118E-01  0.1424E+00
     11.711  0.9126E-02  0.1432E+00
     11.790  0.9203E-02  0.1439E+00
     11.869  0.9457E-02  0.1447E+00
     11.949  0.1007E-01  0.1455E+00
     12.028  0.1063E-01  0.1463E+00
     12.108  0.8915E-02  0.1470E+00
     12.187  0.9003E-02  0.1477E+00
     12.267  0.9594E-02  0.1485E+00
     12.346  0.7224E-02  0.1491E+00
     12.425  0.9207E-02  0.1498E+00
     12.505  0.1020E-01  0.1506E+00
     12.584  0.7816E-02  0.1512E+00
     12.664  0.6430E-02  0.1517E+00
     12.743  0.5632E-02  0.1522E+00
     12.823  0.6986E-02  0.1527E+00
     12.902  0.7637E-02  0.1533E+00
     12.981  0.7228E-02  0.1539E+00
     13.061  0.5628E-02  0.1544E+00
     13.140  0.4258E-02  0.1547E+00
     13.220  0.4028E-02  0.1550E+00
     13.299  0.5901E-02  0.1555E+00
     13.378  0.6136E-02  0.1560E+00
     13.458  0.9248E-02  0.1567E+00
     13.537  0.4080E-02  0.1570E+00
     13.617  0.2959E-02  0.1573E+00
     13.696  0.4023E-02  0.1576E+00
     13.776  0.4446E-02  0.1579E+00
     13.855  0.3019E-02  0.1582E+00
     13.934  0.2904E-02  0.1584E+00
     14.014  0.1495E-02  0.1585E+00
     14.093  0.1001E-02  0.1586E+00
     14.173  0.1579E-02  0.1587E+00
     14.252  0.2694E-02  0.1589E+00
     14.332  0.2268E-02  0.1591E+00
     14.411  0.1500E-02  0.1592E+00
     14.490  0.3020E-03  0.1593E+00
     14.570  0.1109E-02  0.1594E+00
     14.649  0.1118E-02  0.1594E+00
     14.729  0.1899E-02  0.1596E+00
     14.808  0.1075E-02  0.1597E+00
     14.888  0.5530E-03  0.1597E+00
     14.967  0.1319E-03  0.1597E+00
     15.046  0.6672E-03  0.1598E+00
     15.126  0.1101E-02  0.1599E+00
     15.205  0.5924E-03  0.1599E+00
     15.285  0.1997E-03  0.1599E+00
     15.364  0.1807E-03  0.1600E+00
     15.443  0.3120E-03  0.1600E+00
     15.523  0.2455E-03  0.1600E+00
     15.602  0.1812E-04  0.1600E+00
     15.682  0.2393E-07  0.1600E+00
     15.761  0.3048E-12  0.1600E+00
     15.841  0.4194E-19  0.1600E+00
     15.920  0.0000E+00  0.1600E+00
     15.999  0.0000E+00  0.1600E+00
     16.079  0.0000E+00  0.1600E+00
     16.158  0.0000E+00  0.1600E+00
     16.238  0.0000E+00  0.1600E+00
     16.317  0.0000E+00  0.1600E+00
     16.397  0.0000E+00  0.1600E+00
     16.476  0.0000E+00  0.1600E+00
     16.555  0.0000E+00  0.1600E+00
