    2    2  100    1
  0.2016476E+02  0.3849278E-09  0.3849279E-09  0.3849278E-09  0.5000000E-15
  1.000000000000000E-004
  CAR 
 unknown system                          
      8    770      8
 
  0.2500000E-01  0.2500000E-01  0.2500000E-01  0.2500000E-03
    1       -6.188566   1.000000
    2        5.525763   1.000000
    3        5.609666   1.000000
    4        5.609669   1.000000
    5        8.201630   0.000000
    6        8.201637   0.000000
    7        8.204033   0.000000
    8        8.825022   0.000000
 
  0.7500000E-01  0.2500000E-01  0.2500000E-01  0.7500000E-03
    1       -6.145590   1.000000
    2        5.122709   1.000000
    3        5.446212   1.000000
    4        5.590783   1.000000
    5        8.245076   0.000000
    6        8.256182   0.000000
    7        8.344363   0.000000
    8        9.166212   0.000000
 
  0.1250000E+00  0.2500000E-01  0.2500000E-01  0.7500000E-03
    1       -6.038586   1.000000
    2        4.321715   1.000000
    3        5.258030   1.000000
    4        5.475991   1.000000
    5        8.173338   0.000000
    6        8.425296   0.000000
    7        8.590640   0.000000
    8        9.905244   0.000000
 
  0.1750000E+00  0.2500000E-01  0.2500000E-01  0.7500000E-03
    1       -5.868874   1.000000
    2        3.409983   1.000000
    3        5.055585   1.000000
    4        5.305449   1.000000
    5        7.999098   0.000000
    6        8.672719   0.000000
    7        8.875325   0.000000
    8       10.763599   0.000000
 
  0.2250000E+00  0.2500000E-01  0.2500000E-01  0.7500000E-03
    1       -5.638858   1.000000
    2        2.485810   1.000000
    3        4.862564   1.000000
    4        5.117153   1.000000
    5        7.802805   0.000000
    6        8.901833   0.000000
    7        9.106495   0.000000
    8       11.610698   0.000000
 
  0.2750000E+00  0.2500000E-01  0.2500000E-01  0.7500000E-03
    1       -5.352948   1.000000
    2        1.589961   1.000000
    3        4.693874   1.000000
    4        4.935048   1.000000
    5        7.614542   0.000000
    6        9.044067   0.000000
    7        9.223700   0.000000
    8       12.363616   0.000000
 
  0.3250000E+00  0.2500000E-01  0.2500000E-01  0.7500000E-03
    1       -5.019121   1.000000
    2        0.747652   1.000000
    3        4.557384   1.000000
    4        4.772879   1.000000
    5        7.450450   0.000000
    6        9.084428   0.000000
    7        9.224648   0.000000
    8       12.980323   0.000000
 
  0.3750000E+00  0.2500000E-01  0.2500000E-01  0.7500000E-03
    1       -4.653225   1.000000
    2       -0.015860   1.000000
    3        4.456875   1.000000
    4        4.637813   1.000000
    5        7.319185   0.000000
    6        9.059852   0.000000
    7        9.155543   0.000000
    8       13.380709   0.000000
 
  0.4250000E+00  0.2500000E-01  0.2500000E-01  0.7500000E-03
    1       -4.289086   1.000000
    2       -0.661229   1.000000
    3        4.393764   1.000000
    4        4.533775   1.000000
    5        7.225319   0.000000
    6        9.019047   0.000000
    7        9.067929   0.000000
    8       13.425049   0.000000
 
  0.4750000E+00  0.2500000E-01  0.2500000E-01  0.7500000E-03
    1       -4.001041   1.000000
    2       -1.111008   1.000000
    3        4.368203   1.000000
    4        4.463102   1.000000
    5        7.171401   0.000000
    6        8.996035   0.000000
    7        8.996697   0.000000
    8       13.377234   0.000000
 
 -0.4750000E+00  0.2500000E-01  0.2500000E-01  0.7500000E-03
    1       -3.912829   1.000000
    2       -1.239775   1.000000
    3        4.379591   1.000000
    4        4.427300   1.000000
    5        7.158011   0.000000
    6        8.959624   0.000000
    7        9.007510   0.000000
    8       13.359648   0.000000
 
 -0.4250000E+00  0.2500000E-01  0.2500000E-01  0.7500000E-03
    1       -4.081490   1.000000
    2       -0.990082   1.000000
    3        4.427017   1.000000
    4        4.427526   1.000000
    5        7.185696   0.000000
    6        8.961505   0.000000
    7        9.056891   0.000000
    8       13.386914   0.000000
 
 -0.3750000E+00  0.2500000E-01  0.2500000E-01  0.7500000E-03
    1       -4.406798   1.000000
    2       -0.462965   1.000000
    3        4.464613   1.000000
    4        4.509213   1.000000
    5        7.253597   0.000000
    6        8.994585   0.000000
    7        9.135320   0.000000
    8       13.400743   0.000000
 
 -0.3250000E+00  0.2500000E-01  0.2500000E-01  0.7500000E-03
    1       -4.777190   1.000000
    2        0.227866   1.000000
    3        4.538947   1.000000
    4        4.624557   1.000000
    5        7.360705   0.000000
    6        9.036709   0.000000
    7        9.220058   0.000000
    8       13.108952   0.000000
 
 -0.2750000E+00  0.2500000E-01  0.2500000E-01  0.7500000E-03
    1       -5.134942   1.000000
    2        1.020972   1.000000
    3        4.649980   1.000000
    4        4.770391   1.000000
    5        7.503756   0.000000
    6        9.047184   0.000000
    7        9.270727   0.000000
    8       12.578679   0.000000
 
 -0.2250000E+00  0.2500000E-01  0.2500000E-01  0.7500000E-03
    1       -5.454052   1.000000
    2        1.883772   1.000000
    3        4.795559   1.000000
    4        4.942003   1.000000
    5        7.677077   0.000000
    6        8.975740   0.000000
    7        9.235380   0.000000
    8       12.042446   0.000000
 
 -0.1750000E+00  0.2500000E-01  0.2500000E-01  0.7500000E-03
    1       -5.721985   1.000000
    2        2.792540   1.000000
    3        4.970626   1.000000
    4        5.130486   1.000000
    5        7.869332   0.000000
    6        8.798140   0.000000
    7        9.080693   0.000000
    8       11.318729   0.000000
 
 -0.1250000E+00  0.2500000E-01  0.2500000E-01  0.7500000E-03
    1       -5.932282   1.000000
    2        3.719322   1.000000
    3        5.164913   1.000000
    4        5.319057   1.000000
    5        8.059030   0.000000
    6        8.554405   0.000000
    7        8.829124   0.000000
    8       10.466478   0.000000
 
 -0.7500000E-01  0.2500000E-01  0.2500000E-01  0.7500000E-03
    1       -6.081291   1.000000
    2        4.613420   1.000000
    3        5.359468   1.000000
    4        5.478357   1.000000
    5        8.188934   0.000000
    6        8.347205   0.000000
    7        8.548075   0.000000
    8        9.624457   0.000000
 
 -0.2500000E-01  0.2500000E-01  0.2500000E-01  0.7500000E-03
    1       -6.167064   1.000000
    2        5.344920   1.000000
    3        5.522165   1.000000
    4        5.565322   1.000000
    5        8.150611   0.000000
    6        8.294583   0.000000
    7        8.315416   0.000000
    8        8.981633   0.000000
 
  0.7500000E-01  0.7500000E-01  0.2500000E-01  0.7500000E-03
    1       -6.124077   1.000000
    2        5.079861   1.000000
    3        5.367097   1.000000
    4        5.424992   1.000000
    5        8.052543   0.000000
    6        8.477163   0.000000
    7        8.523283   0.000000
    8        9.242939   0.000000
 
  0.1250000E+00  0.7500000E-01  0.2500000E-01  0.1500000E-02
    1       -6.038368   1.000000
    2        4.514463   1.000000
    3        5.093437   1.000000
    4        5.363771   1.000000
    5        8.030831   0.000000
    6        8.597989   0.000000
    7        8.768693   0.000000
    8        9.772506   0.000000
 
  0.1750000E+00  0.7500000E-01  0.2500000E-01  0.1500000E-02
    1       -5.889467   1.000000
    2        3.676027   1.000000
    3        4.859073   1.000000
    4        5.244337   1.000000
    5        8.114746   0.000000
    6        8.562726   0.000000
    7        9.082033   0.000000
    8       10.491596   0.000000
 
  0.2250000E+00  0.7500000E-01  0.2500000E-01  0.1500000E-02
    1       -5.679322   1.000000
    2        2.776244   1.000000
    3        4.650673   1.000000
    4        5.068286   1.000000
    5        8.088353   0.000000
    6        8.656806   0.000000
    7        9.349576   0.000000
    8       11.072434   0.000000
 
  0.2750000E+00  0.7500000E-01  0.2500000E-01  0.1500000E-02
    1       -5.411577   1.000000
    2        1.883009   1.000000
    3        4.472581   1.000000
    4        4.874699   1.000000
    5        7.949539   0.000000
    6        8.822171   0.000000
    7        9.502491   0.000000
    8       11.438605   0.000000
 
  0.3250000E+00  0.7500000E-01  0.2500000E-01  0.1500000E-02
    1       -5.092637   1.000000
    2        1.029844   1.000000
    3        4.328738   1.000000
    4        4.690081   1.000000
    5        7.796540   0.000000
    6        8.916115   0.000000
    7        9.523047   0.000000
    8       11.838998   0.000000
 
  0.3750000E+00  0.7500000E-01  0.2500000E-01  0.1500000E-02
    1       -4.734984   1.000000
    2        0.242856   1.000000
    3        4.218805   1.000000
    4        4.532003   1.000000
    5        7.662758   0.000000
    6        8.928775   0.000000
    7        9.451936   0.000000
    8       12.384953   0.000000
 
  0.4250000E+00  0.7500000E-01  0.2500000E-01  0.1500000E-02
    1       -4.364487   1.000000
    2       -0.444303   1.000000
    3        4.137375   1.000000
    4        4.414732   1.000000
    5        7.560175   0.000000
    6        8.907169   0.000000
    7        9.345671   0.000000
    8       12.997666   0.000000
 
  0.4750000E+00  0.7500000E-01  0.2500000E-01  0.1500000E-02
    1       -4.038791   1.000000
    2       -0.969638   1.000000
    3        4.075850   1.000000
    4        4.351409   1.000000
    5        7.494137   0.000000
    6        8.891517   0.000000
    7        9.247318   0.000000
    8       13.411694   0.000000
 
 -0.4750000E+00  0.7500000E-01  0.2500000E-01  0.1500000E-02
    1       -3.869769   1.000000
    2       -1.218772   1.000000
    3        4.031092   1.000000
    4        4.347394   1.000000
    5        7.467146   0.000000
    6        8.900456   0.000000
    7        9.184271   0.000000
    8       13.515620   0.000000
 
 -0.4250000E+00  0.7500000E-01  0.2500000E-01  0.1500000E-02
    1       -3.958369   1.000000
    2       -1.089921   1.000000
    3        4.009588   1.000000
    4        4.396794   1.000000
    5        7.479948   0.000000
    6        8.932853   0.000000
    7        9.173665   0.000000
    8       13.514859   0.000000
 
 -0.3750000E+00  0.7500000E-01  0.2500000E-01  0.1500000E-02
    1       -4.246986   1.000000
    2       -0.641105   1.000000
    3        4.019863   1.000000
    4        4.490636   1.000000
    5        7.532335   0.000000
    6        8.975069   0.000000
    7        9.221364   0.000000
    8       13.354813   0.000000
 
 -0.3250000E+00  0.7500000E-01  0.2500000E-01  0.1500000E-02
    1       -4.611336   1.000000
    2        0.001385   1.000000
    3        4.067689   1.000000
    4        4.621441   1.000000
    5        7.622945   0.000000
    6        9.010929   0.000000
    7        9.308532   0.000000
    8       12.849342   0.000000
 
 -0.2750000E+00  0.7500000E-01  0.2500000E-01  0.1500000E-02
    1       -4.977162   1.000000
    2        0.759606   1.000000
    3        4.156270   1.000000
    4        4.782324   1.000000
    5        7.748904   0.000000
    6        9.014706   0.000000
    7        9.389424   0.000000
    8       12.268187   0.000000
 
 -0.2250000E+00  0.7500000E-01  0.2500000E-01  0.1500000E-02
    1       -5.310781   1.000000
    2        1.592994   1.000000
    3        4.286935   1.000000
    4        4.965039   1.000000
    5        7.904143   0.000000
    6        8.944151   0.000000
    7        9.399403   0.000000
    8       11.790788   0.000000
 
 -0.1750000E+00  0.7500000E-01  0.2500000E-01  0.1500000E-02
    1       -5.596462   1.000000
    2        2.473616   1.000000
    3        4.459552   1.000000
    4        5.156899   1.000000
    5        8.076112   0.000000
    6        8.775482   0.000000
    7        9.277052   0.000000
    8       11.360207   0.000000
 
 -0.1250000E+00  0.7500000E-01  0.2500000E-01  0.1500000E-02
    1       -5.826254   1.000000
    2        3.368968   1.000000
    3        4.673682   1.000000
    4        5.336968   1.000000
    5        8.230586   0.000000
    6        8.561232   0.000000
    7        9.018726   0.000000
    8       10.789365   0.000000
 
 -0.7500000E-01  0.7500000E-01  0.2500000E-01  0.1500000E-02
    1       -5.995799   1.000000
    2        4.213890   1.000000
    3        4.937211   1.000000
    4        5.471761   1.000000
    5        8.231560   0.000000
    6        8.486180   0.000000
    7        8.697871   0.000000
    8       10.086017   0.000000
 
 -0.2500000E-01  0.7500000E-01  0.2500000E-01  0.1500000E-02
    1       -6.102666   1.000000
    2        4.836905   1.000000
    3        5.291573   1.000000
    4        5.523162   1.000000
    5        8.160645   0.000000
    6        8.395851   0.000000
    7        8.502156   0.000000
    8        9.453350   0.000000
 
  0.1250000E+00  0.1250000E+00  0.2500000E-01  0.7500000E-03
    1       -5.973955   1.000000
    2        4.392061   1.000000
    3        4.950713   1.000000
    4        4.992155   1.000000
    5        7.757552   0.000000
    6        9.046785   0.000000
    7        9.121751   0.000000
    8        9.827761   0.000000
 
  0.1750000E+00  0.1250000E+00  0.2500000E-01  0.1500000E-02
    1       -5.846044   1.000000
    2        3.801058   1.000000
    3        4.642955   1.000000
    4        4.898777   1.000000
    5        7.701967   0.000000
    6        9.177019   0.000000
    7        9.444265   0.000000
    8       10.213446   0.000000
 
  0.2250000E+00  0.1250000E+00  0.2500000E-01  0.1500000E-02
    1       -5.656223   1.000000
    2        2.998713   1.000000
    3        4.398654   1.000000
    4        4.759943   1.000000
    5        7.812499   0.000000
    6        9.109359   0.000000
    7        9.756403   0.000000
    8       10.472561   0.000000
 
  0.2750000E+00  0.1250000E+00  0.2500000E-01  0.1500000E-02
    1       -5.407450   1.000000
    2        2.147599   1.000000
    3        4.194105   1.000000
    4        4.574031   1.000000
    5        7.940027   0.000000
    6        9.073939   0.000000
    7        9.960179   0.000000
    8       10.560349   0.000000
 
  0.3250000E+00  0.1250000E+00  0.2500000E-01  0.1500000E-02
    1       -5.104896   1.000000
    2        1.308489   1.000000
    3        4.017946   1.000000
    4        4.387965   1.000000
    5        7.972356   0.000000
    6        9.083387   0.000000
    7       10.017981   0.000000
    8       10.766075   0.000000
 
  0.3750000E+00  0.1250000E+00  0.2500000E-01  0.1500000E-02
    1       -4.758403   1.000000
    2        0.515992   1.000000
    3        3.859375   1.000000
    4        4.239276   1.000000
    5        7.927555   0.000000
    6        9.066007   0.000000
    7        9.960277   0.000000
    8       11.214182   0.000000
 
  0.4250000E+00  0.1250000E+00  0.2500000E-01  0.1500000E-02
    1       -4.387796   1.000000
    2       -0.196848   1.000000
    3        3.711218   1.000000
    4        4.150279   1.000000
    5        7.866297   0.000000
    6        9.017847   0.000000
    7        9.844032   0.000000
    8       11.861241   0.000000
 
  0.4750000E+00  0.1250000E+00  0.2500000E-01  0.1500000E-02
    1       -4.037024   1.000000
    2       -0.778783   1.000000
    3        3.577981   1.000000
    4        4.124554   1.000000
    5        7.823469   0.000000
    6        8.974606   0.000000
    7        9.717517   0.000000
    8       12.616993   0.000000
 
 -0.4750000E+00  0.1250000E+00  0.2500000E-01  0.1500000E-02
    1       -3.799903   1.000000
    2       -1.131868   1.000000
    3        3.470422   1.000000
    4        4.155632   1.000000
    5        7.813855   0.000000
    6        8.959449   0.000000
    7        9.611431   0.000000
    8       13.360410   0.000000
 
 -0.4250000E+00  0.1250000E+00  0.2500000E-01  0.1500000E-02
    1       -3.801130   1.000000
    2       -1.129658   1.000000
    3        3.397803   1.000000
    4        4.236005   1.000000
    5        7.841413   0.000000
    6        8.980085   0.000000
    7        9.541970   0.000000
    8       13.745596   0.000000
 
 -0.3750000E+00  0.1250000E+00  0.2500000E-01  0.1500000E-02
    1       -4.039784   1.000000
    2       -0.773222   1.000000
    3        3.366800   1.000000
    4        4.359042   1.000000
    5        7.905632   0.000000
    6        9.031701   0.000000
    7        9.515431   0.000000
    8       13.362414   0.000000
 
 -0.3250000E+00  0.1250000E+00  0.2500000E-01  0.1500000E-02
    1       -4.390909   1.000000
    2       -0.189761   1.000000
    3        3.382418   1.000000
    4        4.517946   1.000000
    5        8.003257   0.000000
    6        9.092768   0.000000
    7        9.528624   0.000000
    8       12.670575   0.000000
 
 -0.2750000E+00  0.1250000E+00  0.2500000E-01  0.1500000E-02
    1       -4.761307   1.000000
    2        0.522353   1.000000
    3        3.449307   1.000000
    4        4.704537   1.000000
    5        8.129297   0.000000
    6        9.119079   0.000000
    7        9.562499   0.000000
    8       12.020193   0.000000
 
 -0.2250000E+00  0.1250000E+00  0.2500000E-01  0.1500000E-02
    1       -5.107394   1.000000
    2        1.309151   1.000000
    3        3.573175   1.000000
    4        4.907539   1.000000
    5        8.276389   0.000000
    6        9.053571   0.000000
    7        9.561714   0.000000
    8       11.518965   0.000000
 
 -0.1750000E+00  0.1250000E+00  0.2500000E-01  0.1500000E-02
    1       -5.409488   1.000000
    2        2.128652   1.000000
    3        3.765699   1.000000
    4        5.109884   1.000000
    5        8.427874   0.000000
    6        8.873133   0.000000
    7        9.431627   0.000000
    8       11.207886   0.000000
 
 -0.1250000E+00  0.1250000E+00  0.2500000E-01  0.1500000E-02
    1       -5.657793   1.000000
    2        2.918125   1.000000
    3        4.058422   1.000000
    4        5.284767   1.000000
    5        8.517560   0.000000
    6        8.659758   0.000000
    7        9.152822   0.000000
    8       10.998268   0.000000
 
 -0.7500000E-01  0.1250000E+00  0.2500000E-01  0.1500000E-02
    1       -5.847153   1.000000
    2        3.562568   1.000000
    3        4.514261   1.000000
    4        5.394233   1.000000
    5        8.356104   0.000000
    6        8.572620   0.000000
    7        8.912785   0.000000
    8       10.668188   0.000000
 
 -0.2500000E-01  0.1250000E+00  0.2500000E-01  0.1500000E-02
    1       -5.974616   1.000000
    2        4.004945   1.000000
    3        5.073362   1.000000
    4        5.406339   1.000000
    5        8.180297   0.000000
    6        8.440530   0.000000
    7        8.794412   0.000000
    8       10.221560   0.000000
 
  0.1750000E+00  0.1750000E+00  0.2500000E-01  0.7500000E-03
    1       -5.739048   1.000000
    2        3.590266   1.000000
    3        4.496997   1.000000
    4        4.512418   1.000000
    5        7.401167   0.000000
    6        9.699881   0.000000
    7        9.857335   0.000000
    8       10.013456   0.000000
 
  0.2250000E+00  0.1750000E+00  0.2500000E-01  0.1500000E-02
    1       -5.569744   1.000000
    2        3.026331   1.000000
    3        4.189782   1.000000
    4        4.393658   1.000000
    5        7.344798   0.000000
    6        9.597856   0.000000
    7       10.192532   0.000000
    8       10.222270   0.000000
 
  0.2750000E+00  0.1750000E+00  0.2500000E-01  0.1500000E-02
    1       -5.340471   1.000000
    2        2.299018   1.000000
    3        3.932663   1.000000
    4        4.233106   1.000000
    5        7.471786   0.000000
    6        9.477540   0.000000
    7       10.196253   0.000000
    8       10.502038   0.000000
 
  0.3250000E+00  0.1750000E+00  0.2500000E-01  0.1500000E-02
    1       -5.055426   1.000000
    2        1.524397   1.000000
    3        3.696248   1.000000
    4        4.063323   1.000000
    5        7.625129   0.000000
    6        9.557283   0.000000
    7       10.100651   0.000000
    8       10.629717   0.000000
 
  0.3750000E+00  0.1750000E+00  0.2500000E-01  0.1500000E-02
    1       -4.722374   1.000000
    2        0.760332   1.000000
    3        3.464054   1.000000
    4        3.935644   1.000000
    5        7.696888   0.000000
    6        9.744499   0.000000
    7       10.151973   0.000000
    8       10.612902   0.000000
 
  0.4250000E+00  0.1750000E+00  0.2500000E-01  0.1500000E-02
    1       -4.356535   1.000000
    2        0.047546   1.000000
    3        3.241666   1.000000
    4        3.868286   1.000000
    5        7.706359   0.000000
    6        9.692038   0.000000
    7       10.490960   0.000000
    8       10.701847   0.000000
 
  0.4750000E+00  0.1750000E+00  0.2500000E-01  0.1500000E-02
    1       -3.991132   1.000000
    2       -0.566688   1.000000
    3        3.043200   1.000000
    4        3.860063   1.000000
    5        7.710932   0.000000
    6        9.589912   0.000000
    7       10.362358   0.000000
    8       11.453921   0.000000
 
 -0.4750000E+00  0.1750000E+00  0.2500000E-01  0.1500000E-02
    1       -3.700942   1.000000
    2       -0.999877   1.000000
    3        2.880327   1.000000
    4        3.906225   1.000000
    5        7.744910   0.000000
    6        9.507659   0.000000
    7       10.233180   0.000000
    8       12.318970   0.000000
 
 -0.4250000E+00  0.1750000E+00  0.2500000E-01  0.1500000E-02
    1       -3.614789   1.000000
    2       -1.119469   1.000000
    3        2.761364   1.000000
    4        4.001938   1.000000
    5        7.820955   0.000000
    6        9.456327   0.000000
    7       10.130468   0.000000
    8       13.235163   0.000000
 
 -0.3750000E+00  0.1750000E+00  0.2500000E-01  0.1500000E-02
    1       -3.790600   1.000000
    2       -0.867248   1.000000
    3        2.692993   1.000000
    4        4.141900   1.000000
    5        7.940040   0.000000
    6        9.436042   0.000000
    7       10.061124   0.000000
    8       13.354173   0.000000
 
 -0.3250000E+00  0.1750000E+00  0.2500000E-01  0.1500000E-02
    1       -4.120362   1.000000
    2       -0.354659   1.000000
    3        2.681949   1.000000
    4        4.319533   1.000000
    5        8.095780   0.000000
    6        9.435379   0.000000
    7       10.020262   0.000000
    8       12.553394   0.000000
 
 -0.2750000E+00  0.1750000E+00  0.2500000E-01  0.1500000E-02
    1       -4.491161   1.000000
    2        0.296043   1.000000
    3        2.737660   1.000000
    4        4.525620   1.000000
    5        8.275729   0.000000
    6        9.417866   0.000000
    7        9.989086   0.000000
    8       11.847946   0.000000
 
 -0.2250000E+00  0.1750000E+00  0.2500000E-01  0.1500000E-02
    1       -4.847228   1.000000
    2        1.007568   1.000000
    3        2.877928   1.000000
    4        4.746735   1.000000
    5        8.461469   0.000000
    6        9.311528   0.000000
    7        9.922884   0.000000
    8       11.316420   0.000000
 
 -0.1750000E+00  0.1750000E+00  0.2500000E-01  0.1500000E-02
    1       -5.163871   1.000000
    2        1.706330   1.000000
    3        3.142283   1.000000
    4        4.962180   1.000000
    5        8.619700   0.000000
    6        9.071307   0.000000
    7        9.726570   0.000000
    8       11.059481   0.000000
 
 -0.1250000E+00  0.1750000E+00  0.2500000E-01  0.1500000E-02
    1       -5.429312   1.000000
    2        2.296571   1.000000
    3        3.595020   1.000000
    4        5.140467   1.000000
    5        8.628323   0.000000
    6        8.812459   0.000000
    7        9.422779   0.000000
    8       11.065772   0.000000
 
 -0.7500000E-01  0.1750000E+00  0.2500000E-01  0.1500000E-02
    1       -5.637329   1.000000
    2        2.738091   1.000000
    3        4.227001   1.000000
    4        5.240539   1.000000
    5        8.323181   0.000000
    6        8.706860   0.000000
    7        9.226409   0.000000
    8       11.124136   0.000000
 
 -0.2500000E-01  0.1750000E+00  0.2500000E-01  0.1500000E-02
    1       -5.784502   1.000000
    2        3.093490   1.000000
    3        4.864252   1.000000
    4        5.234058   1.000000
    5        8.030028   0.000000
    6        8.656986   0.000000
    7        9.078438   0.000000
    8       11.018544   0.000000
 
  0.2250000E+00  0.2250000E+00  0.2500000E-01  0.7500000E-03
    1       -5.420791   1.000000
    2        2.737664   1.000000
    3        4.062801   1.000000
    4        4.067058   1.000000
    5        7.047519   0.000000
    6        9.320448   0.000000
    7       10.635743   0.000000
    8       10.665516   0.000000
 
  0.2750000E+00  0.2250000E+00  0.2500000E-01  0.1500000E-02
    1       -5.211228   1.000000
    2        2.210497   1.000000
    3        3.773720   1.000000
    4        3.933286   1.000000
    5        7.010912   0.000000
    6        9.028256   0.000000
    7       10.859633   0.000000
    8       11.057681   0.000000
 
  0.3250000E+00  0.2250000E+00  0.2500000E-01  0.1500000E-02
    1       -4.944449   1.000000
    2        1.570514   1.000000
    3        3.478899   1.000000
    4        3.779591   1.000000
    5        7.157007   0.000000
    6        8.920694   0.000000
    7       10.847708   0.000000
    8       11.291843   0.000000
 
  0.3750000E+00  0.2250000E+00  0.2500000E-01  0.1500000E-02
    1       -4.626549   1.000000
    2        0.891444   1.000000
    3        3.166968   1.000000
    4        3.661423   1.000000
    5        7.308524   0.000000
    6        9.102038   0.000000
    7       10.736839   0.000000
    8       11.345251   0.000000
 
  0.4250000E+00  0.2250000E+00  0.2500000E-01  0.1500000E-02
    1       -4.269226   1.000000
    2        0.222891   1.000000
    3        2.863097   1.000000
    4        3.599505   1.000000
    5        7.377584   0.000000
    6        9.591664   0.000000
    7       10.598285   0.000000
    8       11.272220   0.000000
 
  0.4750000E+00  0.2250000E+00  0.2500000E-01  0.1500000E-02
    1       -3.897507   1.000000
    2       -0.386980   1.000000
    3        2.591396   1.000000
    4        3.594299   1.000000
    5        7.411047   0.000000
    6       10.273548   0.000000
    7       10.488856   0.000000
    8       11.142482   0.000000
 
 -0.4750000E+00  0.2250000E+00  0.2500000E-01  0.1500000E-02
    1       -3.568992   1.000000
    2       -0.866359   1.000000
    3        2.366128   1.000000
    4        3.643198   1.000000
    5        7.463705   0.000000
    6       10.319661   0.000000
    7       10.998409   0.000000
    8       11.175576   0.000000
 
 -0.4250000E+00  0.2250000E+00  0.2500000E-01  0.1500000E-02
    1       -3.402836   1.000000
    2       -1.088965   1.000000
    3        2.196368   1.000000
    4        3.742823   1.000000
    5        7.559385   0.000000
    6       10.222835   0.000000
    7       10.879780   0.000000
    8       12.108336   0.000000
 
 -0.3750000E+00  0.2250000E+00  0.2500000E-01  0.1500000E-02
    1       -3.506195   1.000000
    2       -0.946386   1.000000
    3        2.090399   1.000000
    4        3.888866   1.000000
    5        7.704457   0.000000
    6       10.145822   0.000000
    7       10.782778   0.000000
    8       13.072960   0.000000
 
 -0.3250000E+00  0.2250000E+00  0.2500000E-01  0.1500000E-02
    1       -3.806503   1.000000
    2       -0.517545   1.000000
    3        2.059259   1.000000
    4        4.075107   1.000000
    5        7.894447   0.000000
    6       10.078222   0.000000
    7       10.703234   0.000000
    8       12.490323   0.000000
 
 -0.2750000E+00  0.2250000E+00  0.2500000E-01  0.1500000E-02
    1       -4.173137   1.000000
    2        0.048011   1.000000
    3        2.122956   1.000000
    4        4.292295   1.000000
    5        8.116625   0.000000
    6        9.975800   0.000000
    7       10.615326   0.000000
    8       11.759545   0.000000
 
 -0.2250000E+00  0.2250000E+00  0.2500000E-01  0.1500000E-02
    1       -4.535982   1.000000
    2        0.637276   1.000000
    3        2.321457   1.000000
    4        4.526263   1.000000
    5        8.344669   0.000000
    6        9.749495   0.000000
    7       10.444612   0.000000
    8       11.245158   0.000000
 
 -0.1750000E+00  0.2250000E+00  0.2500000E-01  0.1500000E-02
    1       -4.864619   1.000000
    2        1.152199   1.000000
    3        2.713980   1.000000
    4        4.754745   1.000000
    5        8.521008   0.000000
    6        9.387312   0.000000
    7       10.066843   0.000000
    8       11.105590   0.000000
 
 -0.1250000E+00  0.2250000E+00  0.2500000E-01  0.1500000E-02
    1       -5.145003   1.000000
    2        1.549917   1.000000
    3        3.311042   1.000000
    4        4.943923   1.000000
    5        8.492650   0.000000
    6        9.067577   0.000000
    7        9.656148   0.000000
    8       11.231719   0.000000
 
 -0.7500000E-01  0.2250000E+00  0.2500000E-01  0.1500000E-02
    1       -5.369923   1.000000
    2        1.875647   1.000000
    3        4.018964   1.000000
    4        5.050283   1.000000
    5        8.170883   0.000000
    6        8.910569   0.000000
    7        9.428010   0.000000
    8       11.461946   0.000000
 
 -0.2500000E-01  0.2250000E+00  0.2500000E-01  0.1500000E-02
    1       -5.535309   1.000000
    2        2.181459   1.000000
    3        4.677310   1.000000
    4        5.044061   1.000000
    5        7.844344   0.000000
    6        8.868003   0.000000
    7        9.275750   0.000000
    8       11.677322   0.000000
 
  0.2750000E+00  0.2750000E+00  0.2500000E-01  0.7500000E-03
    1       -5.021155   1.000000
    2        1.864488   1.000000
    3        3.669209   1.000000
    4        3.687128   1.000000
    5        6.736543   0.000000
    6        8.598425   0.000000
    7       11.487055   0.000000
    8       11.516530   0.000000
 