       N       E                     dE             d eps       ncg     rms          rms(c)
DAV:   1     0.133948804458E+01    0.13395E+01   -0.25733E+03 12440   0.579E+02
DAV:   2    -0.108850642971E+02   -0.12225E+02   -0.11677E+02 19232   0.660E+01
DAV:   3    -0.110209361590E+02   -0.13587E+00   -0.13587E+00 15912   0.881E+00
DAV:   4    -0.110214606825E+02   -0.52452E-03   -0.52452E-03 19736   0.566E-01
DAV:   5    -0.110214611179E+02   -0.43543E-06   -0.43563E-06 16216   0.131E-02    0.486E+00
DAV:   6    -0.108999565818E+02    0.12150E+00   -0.80036E-02 14768   0.147E+00    0.297E+00
DAV:   7    -0.108444122321E+02    0.55544E-01   -0.15200E-01 15896   0.216E+00    0.186E-01
DAV:   8    -0.108454696487E+02   -0.10574E-02   -0.38023E-03 14168   0.459E-01    0.741E-02
DAV:   9    -0.108456635367E+02   -0.19389E-03   -0.19116E-04 18704   0.107E-01    0.571E-02
DAV:  10    -0.108456883811E+02   -0.24844E-04   -0.29071E-05 14568   0.402E-02    0.939E-03
DAV:  11    -0.108456880913E+02    0.28983E-06   -0.59481E-07 17360   0.528E-03
   1 F= -.10845688E+02 E0= -.10845688E+02  d E =-.108457E+02
       N       E                     dE             d eps       ncg     rms          rms(c)
DAV:   1    -0.108494685135E+02   -0.37801E-02   -0.10420E-01 15688   0.181E+00    0.302E-01
DAV:   2    -0.108477020306E+02    0.17665E-02   -0.14726E-03 17008   0.254E-01    0.183E-01
DAV:   3    -0.108467718544E+02    0.93018E-03   -0.19217E-03 14536   0.221E-01    0.603E-02
DAV:   4    -0.108467718278E+02    0.26601E-07   -0.19470E-05 17952   0.394E-02    0.539E-02
DAV:   5    -0.108467654471E+02    0.63807E-05   -0.50534E-06 14472   0.164E-02    0.130E-02
DAV:   6    -0.108467656248E+02   -0.17764E-06   -0.53390E-08  8536   0.217E-03
   2 F= -.10846766E+02 E0= -.10846766E+02  d E =-.107753E-02
       N       E                     dE             d eps       ncg     rms          rms(c)
DAV:   1    -0.108481012105E+02   -0.13358E-02   -0.17505E-02 15544   0.747E-01    0.127E-01
DAV:   2    -0.108478097816E+02    0.29143E-03   -0.24394E-04 17104   0.103E-01    0.758E-02
DAV:   3    -0.108476625489E+02    0.14723E-03   -0.32027E-04 14520   0.905E-02    0.250E-02
DAV:   4    -0.108476631586E+02   -0.60968E-06   -0.32373E-06 17504   0.161E-02    0.225E-02
DAV:   5    -0.108476649227E+02   -0.17641E-05   -0.82284E-07 13352   0.670E-03    0.595E-03
DAV:   6    -0.108476648561E+02    0.66583E-07   -0.10469E-08  6808   0.952E-04
   3 F= -.10847665E+02 E0= -.10847665E+02  d E =-.197676E-02
