 vasp.6.2.0 18Jan21 (build Aug 12 2022 13:00:08) complex                        
  
 executed on             LinuxIFC date 2024.11.03  22:06:01
 running on    4 total cores
 distrk:  each k-point on    4 cores,    1 groups
 distr:  one band on NCORE=   1 cores,    4 groups


--------------------------------------------------------------------------------------------------------


 INCAR:
   ISTART = 0            (Read existing wavefunction, if there)
   ISPIN = 1            (Non-Spin polarised DFT)
   LREAL = .FALSE.       (Projection operators: automatic)
   LWAVE = .FALSE.        (Write WAVECAR or not)
   LCHARG = .FALSE.        (Write CHGCAR or not)
   ADDGRID = .TRUE.        (Increase grid, helps GGA convergence)
   LASPH = .TRUE.        (Give more accurate total energies and band structure calculations)
   PREC = Accurate      (Accurate strictly avoids any aliasing or wrap around errors)
   ENCUT = 350          (Cut-off energy for plane wave basis set, in eV)
   ISMEAR = 0            (Gaussian smearing, metals:1)
   SIGMA = 0.05         (Smearing value in eV, metals:0.2)
   NELM = 90           (Max electronic SCF steps)
   NELMIN = 6            (Min electronic SCF steps)
   EDIFF = 1E-06        (SCF energy convergence, in eV)
   NSW = 100          (Max ionic steps)
   IBRION = 2            (Algorithm: 0-MD, 1-Quasi-New, 2-CG)
   ISIF = 3            (Stress/relaxation: 2-Ions, 3-Shape/Ions/V, 4-Shape/Ions)
   EDIFFG = -2E-03        (Ionic convergence, eV/AA)
   ISYM = 2              (Symmetry: 0\=none, 2\=GGA, 3\=hybrids)

 POTCAR:    PAW_PBE Si 05Jan2001                  
 POTCAR:    PAW_PBE Si 05Jan2001                  
   VRHFIN =Si: s2p2                                                                                 
   LEXCH  = PE                                                                                      
   EATOM  =   103.0669 eV,    7.5752 Ry                                                             
                                                                                                    
   TITEL  = PAW_PBE Si 05Jan2001                                                                    
   LULTRA =        F    use ultrasoft PP ?                                                          
   IUNSCR =        1    unscreen: 0-lin 1-nonlin 2-no                                               
   RPACOR =    1.500    partial core radius                                                         
   POMASS =   28.085; ZVAL   =    4.000    mass and valenz                                          
   RCORE  =    1.900    outmost cutoff radius                                                       
   RWIGS  =    2.480; RWIGS  =    1.312    wigner-seitz radius (au A)                               
   ENMAX  =  245.345; ENMIN  =  184.009 eV                                                          
   ICORE  =        2    local potential                                                             
   LCOR   =        T    correct aug charges                                                         
   LPAW   =        T    paw PP                                                                      
   EAUG   =  322.069                                                                                
   DEXC   =    0.000                                                                                
   RMAX   =    1.950    core radius for proj-oper                                                   
   RAUG   =    1.300    factor for augmentation sphere                                              
   RDEP   =    1.993    radius for radial grids                                                     
   RDEPT  =    1.837    core radius for aug-charge                                                  
                                                                                                    
   Atomic configuration                                                                             
    6 entries                                                                                       
     n  l   j            E        occ.                                                              
     1  0  0.50     -1785.8828   2.0000                                                             
     2  0  0.50      -139.4969   2.0000                                                             
     2  1  1.50       -95.5546   6.0000                                                             
     3  0  0.50       -10.8127   2.0000                                                             
     3  1  0.50        -4.0811   2.0000                                                             
     3  2  1.50        -4.0817   0.0000                                                             
   Description                                                                                      
     l       E           TYP  RCUT    TYP  RCUT                                                     
     0    -10.8127223     23  1.900                                                                 
     0     -7.6451159     23  1.900                                                                 
     1     -4.0811372     23  1.900                                                                 
     1      2.4879257     23  1.900                                                                 
     2     -4.0817478      7  1.900                                                                 
  local pseudopotential read in
  partial core-charges read in
  partial kinetic energy density read in
  atomic valenz-charges read in
  non local Contribution for L=           0  read in
    real space projection operators read in
  non local Contribution for L=           0  read in
    real space projection operators read in
  non local Contribution for L=           1  read in
    real space projection operators read in
  non local Contribution for L=           1  read in
    real space projection operators read in
    PAW grid and wavefunctions read in
 
   number of l-projection  operators is LMAX  =           4
   number of lm-projection operators is LMMAX =           8
 
  PAW_PBE Si 05Jan2001                  :
 energy of atom  1       EATOM= -103.0669
 kinetic energy error for atom=    0.0013 (will be added to EATOM!!)
 
 
 POSCAR: Si2
  positions in direct lattice
  No initial velocities read in
 exchange correlation table for  LEXCH =        8
   RHO(1)=    0.500       N(1)  =     2000
   RHO(2)=  100.500       N(2)  =     4000
 


--------------------------------------------------------------------------------------------------------


 ion  position               nearest neighbor table
   1  0.875  0.875  0.875-   2 2.36   2 2.36   2 2.36   2 2.36
   2  0.125  0.125  0.125-   1 2.36   1 2.36   1 2.36   1 2.36
 
  LATTYP: Found a face centered cubic cell.
 ALAT       =     5.4437031493
  
  Lattice vectors:
  
 A1 = (   3.3335730000,   0.0000000000,   1.9246390000)
 A2 = (   1.1111910000,   3.1429240000,   1.9246390000)
 A3 = (   0.0000000000,   0.0000000000,   3.8492780000)


Analysis of symmetry for initial positions (statically):
=====================================================================
 Subroutine PRICEL returns:
 Original cell was already a primitive cell.
 

 Routine SETGRP: Setting up the symmetry group for a 
 face centered cubic supercell.


 Subroutine GETGRP returns: Found 48 space group operations
 (whereof 12 operations were pure point group operations)
 out of a pool of 48 trial point group operations.


The static configuration has the point symmetry D_3d.
 The point group associated with its full space group is O_h .


Analysis of symmetry for dynamics (positions and initial velocities):
=====================================================================
 Subroutine PRICEL returns:
 Original cell was already a primitive cell.
 

 Routine SETGRP: Setting up the symmetry group for a 
 face centered cubic supercell.


 Subroutine GETGRP returns: Found 48 space group operations
 (whereof 12 operations were pure point group operations)
 out of a pool of 48 trial point group operations.


The dynamic configuration has the point symmetry D_3d.
 The point group associated with its full space group is O_h .


 Subroutine INISYM returns: Found 48 space group operations
 (whereof 12 operations are pure point group operations),
 and found     1 'primitive' translations


----------------------------------------------------------------------------------------

                                     Primitive cell                                     

  volume of cell :      40.3295

  direct lattice vectors                    reciprocal lattice vectors
     3.333573000  0.000000000  1.924639000     0.299978432 -0.106058350  0.000000000
     1.111191000  3.142924000  1.924639000     0.000000000  0.318175050  0.000000000
     0.000000000  0.000000000  3.849278000    -0.149989216 -0.106058350  0.259788979

  length of vectors
     3.849278403  3.849279412  3.849278000     0.318175161  0.318175050  0.318175190

  position of ions in fractional coordinates (direct lattice)
     0.875000000  0.875000000  0.875000000
     0.125000000  0.125000000  0.125000000

  ion indices of the primitive-cell ions
   primitive index   ion index
                 1           1
                 2           2

----------------------------------------------------------------------------------------

 
 
 KPOINTS: Automatic                               

Automatic generation of k-mesh.
 Grid dimensions read from file:
 generate k-points for:   20   20   20

 Generating k-lattice:

  Cartesian coordinates                     Fractional coordinates (reciprocal lattice)
     0.014998922 -0.005302917  0.000000000     0.050000000  0.000000000  0.000000000
     0.000000000  0.015908752  0.000000000     0.000000000  0.050000000  0.000000000
    -0.007499461 -0.005302917  0.012989449     0.000000000  0.000000000  0.050000000

  Length of vectors
     0.015908758  0.015908752  0.015908760

  Shift w.r.t. Gamma in fractional coordinates (k-lattice)
     0.500000000  0.500000000  0.500000000

 
 Subroutine IBZKPT returns following result:
 ===========================================
 
 Found    770 irreducible k-points:
 
 Following reciprocal coordinates:
            Coordinates               Weight
  0.025000  0.025000  0.025000      8.000000
  0.075000  0.025000  0.025000     24.000000
  0.125000  0.025000  0.025000     24.000000
  0.175000  0.025000  0.025000     24.000000
  0.225000  0.025000  0.025000     24.000000
  0.275000  0.025000  0.025000     24.000000
  0.325000  0.025000  0.025000     24.000000
  0.375000  0.025000  0.025000     24.000000
  0.425000  0.025000  0.025000     24.000000
  0.475000  0.025000  0.025000     24.000000
 -0.475000  0.025000  0.025000     24.000000
 -0.425000  0.025000  0.025000     24.000000
 -0.375000  0.025000  0.025000     24.000000
 -0.325000  0.025000  0.025000     24.000000
 -0.275000  0.025000  0.025000     24.000000
 -0.225000  0.025000  0.025000     24.000000
 -0.175000  0.025000  0.025000     24.000000
 -0.125000  0.025000  0.025000     24.000000
 -0.075000  0.025000  0.025000     24.000000
 -0.025000  0.025000  0.025000     24.000000
  0.075000  0.075000  0.025000     24.000000
  0.125000  0.075000  0.025000     48.000000
  0.175000  0.075000  0.025000     48.000000
  0.225000  0.075000  0.025000     48.000000
  0.275000  0.075000  0.025000     48.000000
  0.325000  0.075000  0.025000     48.000000
  0.375000  0.075000  0.025000     48.000000
  0.425000  0.075000  0.025000     48.000000
  0.475000  0.075000  0.025000     48.000000
 -0.475000  0.075000  0.025000     48.000000
 -0.425000  0.075000  0.025000     48.000000
 -0.375000  0.075000  0.025000     48.000000
 -0.325000  0.075000  0.025000     48.000000
 -0.275000  0.075000  0.025000     48.000000
 -0.225000  0.075000  0.025000     48.000000
 -0.175000  0.075000  0.025000     48.000000
 -0.125000  0.075000  0.025000     48.000000
 -0.075000  0.075000  0.025000     48.000000
 -0.025000  0.075000  0.025000     48.000000
  0.125000  0.125000  0.025000     24.000000
  0.175000  0.125000  0.025000     48.000000
  0.225000  0.125000  0.025000     48.000000
  0.275000  0.125000  0.025000     48.000000
  0.325000  0.125000  0.025000     48.000000
  0.375000  0.125000  0.025000     48.000000
  0.425000  0.125000  0.025000     48.000000
  0.475000  0.125000  0.025000     48.000000
 -0.475000  0.125000  0.025000     48.000000
 -0.425000  0.125000  0.025000     48.000000
 -0.375000  0.125000  0.025000     48.000000
 -0.325000  0.125000  0.025000     48.000000
 -0.275000  0.125000  0.025000     48.000000
 -0.225000  0.125000  0.025000     48.000000
 -0.175000  0.125000  0.025000     48.000000
 -0.125000  0.125000  0.025000     48.000000
 -0.075000  0.125000  0.025000     48.000000
 -0.025000  0.125000  0.025000     48.000000
  0.175000  0.175000  0.025000     24.000000
  0.225000  0.175000  0.025000     48.000000
  0.275000  0.175000  0.025000     48.000000
  0.325000  0.175000  0.025000     48.000000
  0.375000  0.175000  0.025000     48.000000
  0.425000  0.175000  0.025000     48.000000
  0.475000  0.175000  0.025000     48.000000
 -0.475000  0.175000  0.025000     48.000000
 -0.425000  0.175000  0.025000     48.000000
 -0.375000  0.175000  0.025000     48.000000
 -0.325000  0.175000  0.025000     48.000000
 -0.275000  0.175000  0.025000     48.000000
 -0.225000  0.175000  0.025000     48.000000
 -0.175000  0.175000  0.025000     48.000000
 -0.125000  0.175000  0.025000     48.000000
 -0.075000  0.175000  0.025000     48.000000
 -0.025000  0.175000  0.025000     48.000000
  0.225000  0.225000  0.025000     24.000000
  0.275000  0.225000  0.025000     48.000000
  0.325000  0.225000  0.025000     48.000000
  0.375000  0.225000  0.025000     48.000000
  0.425000  0.225000  0.025000     48.000000
  0.475000  0.225000  0.025000     48.000000
 -0.475000  0.225000  0.025000     48.000000
 -0.425000  0.225000  0.025000     48.000000
 -0.375000  0.225000  0.025000     48.000000
 -0.325000  0.225000  0.025000     48.000000
 -0.275000  0.225000  0.025000     48.000000
 -0.225000  0.225000  0.025000     48.000000
 -0.175000  0.225000  0.025000     48.000000
 -0.125000  0.225000  0.025000     48.000000
 -0.075000  0.225000  0.025000     48.000000
 -0.025000  0.225000  0.025000     48.000000
  0.275000  0.275000  0.025000     24.000000
  0.325000  0.275000  0.025000     48.000000
  0.375000  0.275000  0.025000     48.000000
  0.425000  0.275000  0.025000     48.000000
  0.475000  0.275000  0.025000     48.000000
 -0.475000  0.275000  0.025000     48.000000
 -0.425000  0.275000  0.025000     48.000000
 -0.375000  0.275000  0.025000     48.000000
 -0.325000  0.275000  0.025000     48.000000
 -0.275000  0.275000  0.025000     48.000000
 -0.225000  0.275000  0.025000     48.000000
 -0.175000  0.275000  0.025000     48.000000
 -0.125000  0.275000  0.025000     48.000000
 -0.075000  0.275000  0.025000     48.000000
 -0.025000  0.275000  0.025000     48.000000
  0.325000  0.325000  0.025000     24.000000
  0.375000  0.325000  0.025000     48.000000
  0.425000  0.325000  0.025000     48.000000
  0.475000  0.325000  0.025000     48.000000
 -0.475000  0.325000  0.025000     48.000000
 -0.425000  0.325000  0.025000     48.000000
 -0.375000  0.325000  0.025000     48.000000
 -0.325000  0.325000  0.025000     48.000000
 -0.275000  0.325000  0.025000     48.000000
 -0.225000  0.325000  0.025000     48.000000
 -0.175000  0.325000  0.025000     48.000000
 -0.125000  0.325000  0.025000     48.000000
 -0.075000  0.325000  0.025000     48.000000
 -0.025000  0.325000  0.025000     48.000000
  0.375000  0.375000  0.025000     24.000000
  0.425000  0.375000  0.025000     48.000000
  0.475000  0.375000  0.025000     48.000000
 -0.475000  0.375000  0.025000     48.000000
 -0.425000  0.375000  0.025000     48.000000
 -0.375000  0.375000  0.025000     48.000000
 -0.325000  0.375000  0.025000     48.000000
 -0.275000  0.375000  0.025000     48.000000
 -0.225000  0.375000  0.025000     48.000000
 -0.175000  0.375000  0.025000     48.000000
 -0.125000  0.375000  0.025000     48.000000
 -0.075000  0.375000  0.025000     48.000000
 -0.025000  0.375000  0.025000     48.000000
  0.425000  0.425000  0.025000     24.000000
  0.475000  0.425000  0.025000     48.000000
 -0.475000  0.425000  0.025000     48.000000
 -0.425000  0.425000  0.025000     48.000000
 -0.375000  0.425000  0.025000     48.000000
 -0.325000  0.425000  0.025000     48.000000
 -0.275000  0.425000  0.025000     48.000000
 -0.225000  0.425000  0.025000     48.000000
 -0.175000  0.425000  0.025000     48.000000
 -0.125000  0.425000  0.025000     48.000000
 -0.075000  0.425000  0.025000     48.000000
 -0.025000  0.425000  0.025000     48.000000
  0.475000  0.475000  0.025000     24.000000
 -0.475000  0.475000  0.025000     48.000000
 -0.425000  0.475000  0.025000     48.000000
 -0.375000  0.475000  0.025000     48.000000
 -0.325000  0.475000  0.025000     48.000000
 -0.275000  0.475000  0.025000     48.000000
 -0.225000  0.475000  0.025000     48.000000
 -0.175000  0.475000  0.025000     48.000000
 -0.125000  0.475000  0.025000     48.000000
 -0.075000  0.475000  0.025000     48.000000
 -0.025000  0.475000  0.025000     48.000000
 -0.475000 -0.475000  0.025000     24.000000
 -0.425000 -0.475000  0.025000     48.000000
 -0.375000 -0.475000  0.025000     48.000000
 -0.325000 -0.475000  0.025000     48.000000
 -0.275000 -0.475000  0.025000     48.000000
 -0.225000 -0.475000  0.025000     48.000000
 -0.175000 -0.475000  0.025000     48.000000
 -0.125000 -0.475000  0.025000     48.000000
 -0.075000 -0.475000  0.025000     48.000000
 -0.425000 -0.425000  0.025000     24.000000
 -0.375000 -0.425000  0.025000     48.000000
 -0.325000 -0.425000  0.025000     48.000000
 -0.275000 -0.425000  0.025000     48.000000
 -0.225000 -0.425000  0.025000     48.000000
 -0.175000 -0.425000  0.025000     48.000000
 -0.125000 -0.425000  0.025000     48.000000
 -0.075000 -0.425000  0.025000     48.000000
 -0.375000 -0.375000  0.025000     24.000000
 -0.325000 -0.375000  0.025000     48.000000
 -0.275000 -0.375000  0.025000     48.000000
 -0.225000 -0.375000  0.025000     48.000000
 -0.175000 -0.375000  0.025000     48.000000
 -0.125000 -0.375000  0.025000     48.000000
 -0.075000 -0.375000  0.025000     48.000000
 -0.325000 -0.325000  0.025000     24.000000
 -0.275000 -0.325000  0.025000     48.000000
 -0.225000 -0.325000  0.025000     48.000000
 -0.175000 -0.325000  0.025000     48.000000
 -0.125000 -0.325000  0.025000     48.000000
 -0.075000 -0.325000  0.025000     48.000000
 -0.275000 -0.275000  0.025000     24.000000
 -0.225000 -0.275000  0.025000     48.000000
 -0.175000 -0.275000  0.025000     48.000000
 -0.125000 -0.275000  0.025000     48.000000
 -0.075000 -0.275000  0.025000     48.000000
 -0.225000 -0.225000  0.025000     24.000000
 -0.175000 -0.225000  0.025000     48.000000
 -0.125000 -0.225000  0.025000     48.000000
 -0.075000 -0.225000  0.025000     48.000000
 -0.175000 -0.175000  0.025000     24.000000
 -0.125000 -0.175000  0.025000     48.000000
 -0.075000 -0.175000  0.025000     48.000000
 -0.125000 -0.125000  0.025000     24.000000
 -0.075000 -0.125000  0.025000     48.000000
 -0.075000 -0.075000  0.025000     24.000000
  0.075000  0.075000  0.075000      8.000000
  0.125000  0.075000  0.075000     24.000000
  0.175000  0.075000  0.075000     24.000000
  0.225000  0.075000  0.075000     24.000000
  0.275000  0.075000  0.075000     24.000000
  0.325000  0.075000  0.075000     24.000000
  0.375000  0.075000  0.075000     24.000000
  0.425000  0.075000  0.075000     24.000000
  0.475000  0.075000  0.075000     24.000000
 -0.475000  0.075000  0.075000     24.000000
 -0.425000  0.075000  0.075000     24.000000
 -0.375000  0.075000  0.075000     24.000000
 -0.325000  0.075000  0.075000     24.000000
 -0.275000  0.075000  0.075000     24.000000
 -0.225000  0.075000  0.075000     24.000000
 -0.175000  0.075000  0.075000     24.000000
 -0.125000  0.075000  0.075000     24.000000
 -0.075000  0.075000  0.075000     24.000000
  0.125000  0.125000  0.075000     24.000000
  0.175000  0.125000  0.075000     48.000000
  0.225000  0.125000  0.075000     48.000000
  0.275000  0.125000  0.075000     48.000000
  0.325000  0.125000  0.075000     48.000000
  0.375000  0.125000  0.075000     48.000000
  0.425000  0.125000  0.075000     48.000000
  0.475000  0.125000  0.075000     48.000000
 -0.475000  0.125000  0.075000     48.000000
 -0.425000  0.125000  0.075000     48.000000
 -0.375000  0.125000  0.075000     48.000000
 -0.325000  0.125000  0.075000     48.000000
 -0.275000  0.125000  0.075000     48.000000
 -0.225000  0.125000  0.075000     48.000000
 -0.175000  0.125000  0.075000     48.000000
 -0.125000  0.125000  0.075000     48.000000
 -0.075000  0.125000  0.075000     48.000000
  0.175000  0.175000  0.075000     24.000000
  0.225000  0.175000  0.075000     48.000000
  0.275000  0.175000  0.075000     48.000000
  0.325000  0.175000  0.075000     48.000000
  0.375000  0.175000  0.075000     48.000000
  0.425000  0.175000  0.075000     48.000000
  0.475000  0.175000  0.075000     48.000000
 -0.475000  0.175000  0.075000     48.000000
 -0.425000  0.175000  0.075000     48.000000
 -0.375000  0.175000  0.075000     48.000000
 -0.325000  0.175000  0.075000     48.000000
 -0.275000  0.175000  0.075000     48.000000
 -0.225000  0.175000  0.075000     48.000000
 -0.175000  0.175000  0.075000     48.000000
 -0.125000  0.175000  0.075000     48.000000
 -0.075000  0.175000  0.075000     48.000000
  0.225000  0.225000  0.075000     24.000000
  0.275000  0.225000  0.075000     48.000000
  0.325000  0.225000  0.075000     48.000000
  0.375000  0.225000  0.075000     48.000000
  0.425000  0.225000  0.075000     48.000000
  0.475000  0.225000  0.075000     48.000000
 -0.475000  0.225000  0.075000     48.000000
 -0.425000  0.225000  0.075000     48.000000
 -0.375000  0.225000  0.075000     48.000000
 -0.325000  0.225000  0.075000     48.000000
 -0.275000  0.225000  0.075000     48.000000
 -0.225000  0.225000  0.075000     48.000000
 -0.175000  0.225000  0.075000     48.000000
 -0.125000  0.225000  0.075000     48.000000
 -0.075000  0.225000  0.075000     48.000000
  0.275000  0.275000  0.075000     24.000000
  0.325000  0.275000  0.075000     48.000000
  0.375000  0.275000  0.075000     48.000000
  0.425000  0.275000  0.075000     48.000000
  0.475000  0.275000  0.075000     48.000000
 -0.475000  0.275000  0.075000     48.000000
 -0.425000  0.275000  0.075000     48.000000
 -0.375000  0.275000  0.075000     48.000000
 -0.325000  0.275000  0.075000     48.000000
 -0.275000  0.275000  0.075000     48.000000
 -0.225000  0.275000  0.075000     48.000000
 -0.175000  0.275000  0.075000     48.000000
 -0.125000  0.275000  0.075000     48.000000
 -0.075000  0.275000  0.075000     48.000000
  0.325000  0.325000  0.075000     24.000000
  0.375000  0.325000  0.075000     48.000000
  0.425000  0.325000  0.075000     48.000000
  0.475000  0.325000  0.075000     48.000000
 -0.475000  0.325000  0.075000     48.000000
 -0.425000  0.325000  0.075000     48.000000
 -0.375000  0.325000  0.075000     48.000000
 -0.325000  0.325000  0.075000     48.000000
 -0.275000  0.325000  0.075000     48.000000
 -0.225000  0.325000  0.075000     48.000000
 -0.175000  0.325000  0.075000     48.000000
 -0.125000  0.325000  0.075000     48.000000
 -0.075000  0.325000  0.075000     48.000000
  0.375000  0.375000  0.075000     24.000000
  0.425000  0.375000  0.075000     48.000000
  0.475000  0.375000  0.075000     48.000000
 -0.475000  0.375000  0.075000     48.000000
 -0.425000  0.375000  0.075000     48.000000
 -0.375000  0.375000  0.075000     48.000000
 -0.325000  0.375000  0.075000     48.000000
 -0.275000  0.375000  0.075000     48.000000
 -0.225000  0.375000  0.075000     48.000000
 -0.175000  0.375000  0.075000     48.000000
 -0.125000  0.375000  0.075000     48.000000
 -0.075000  0.375000  0.075000     48.000000
  0.425000  0.425000  0.075000     24.000000
  0.475000  0.425000  0.075000     48.000000
 -0.475000  0.425000  0.075000     48.000000
 -0.425000  0.425000  0.075000     48.000000
 -0.375000  0.425000  0.075000     48.000000
 -0.325000  0.425000  0.075000     48.000000
 -0.275000  0.425000  0.075000     48.000000
 -0.225000  0.425000  0.075000     48.000000
 -0.175000  0.425000  0.075000     48.000000
 -0.125000  0.425000  0.075000     48.000000
 -0.075000  0.425000  0.075000     48.000000
  0.475000  0.475000  0.075000     24.000000
 -0.475000  0.475000  0.075000     48.000000
 -0.425000  0.475000  0.075000     48.000000
 -0.375000  0.475000  0.075000     48.000000
 -0.325000  0.475000  0.075000     48.000000
 -0.275000  0.475000  0.075000     48.000000
 -0.225000  0.475000  0.075000     48.000000
 -0.175000  0.475000  0.075000     48.000000
 -0.125000  0.475000  0.075000     48.000000
 -0.075000  0.475000  0.075000     48.000000
 -0.475000 -0.475000  0.075000     24.000000
 -0.425000 -0.475000  0.075000     48.000000
 -0.375000 -0.475000  0.075000     48.000000
 -0.325000 -0.475000  0.075000     48.000000
 -0.275000 -0.475000  0.075000     48.000000
 -0.225000 -0.475000  0.075000     48.000000
 -0.175000 -0.475000  0.075000     48.000000
 -0.125000 -0.475000  0.075000     48.000000
 -0.425000 -0.425000  0.075000     24.000000
 -0.375000 -0.425000  0.075000     48.000000
 -0.325000 -0.425000  0.075000     48.000000
 -0.275000 -0.425000  0.075000     48.000000
 -0.225000 -0.425000  0.075000     48.000000
 -0.175000 -0.425000  0.075000     48.000000
 -0.125000 -0.425000  0.075000     48.000000
 -0.375000 -0.375000  0.075000     24.000000
 -0.325000 -0.375000  0.075000     48.000000
 -0.275000 -0.375000  0.075000     48.000000
 -0.225000 -0.375000  0.075000     48.000000
 -0.175000 -0.375000  0.075000     48.000000
 -0.125000 -0.375000  0.075000     48.000000
 -0.325000 -0.325000  0.075000     24.000000
 -0.275000 -0.325000  0.075000     48.000000
 -0.225000 -0.325000  0.075000     48.000000
 -0.175000 -0.325000  0.075000     48.000000
 -0.125000 -0.325000  0.075000     48.000000
 -0.275000 -0.275000  0.075000     24.000000
 -0.225000 -0.275000  0.075000     48.000000
 -0.175000 -0.275000  0.075000     48.000000
 -0.125000 -0.275000  0.075000     48.000000
 -0.225000 -0.225000  0.075000     24.000000
 -0.175000 -0.225000  0.075000     48.000000
 -0.125000 -0.225000  0.075000     48.000000
 -0.175000 -0.175000  0.075000     24.000000
 -0.125000 -0.175000  0.075000     48.000000
 -0.125000 -0.125000  0.075000     24.000000
  0.125000  0.125000  0.125000      8.000000
  0.175000  0.125000  0.125000     24.000000
  0.225000  0.125000  0.125000     24.000000
  0.275000  0.125000  0.125000     24.000000
  0.325000  0.125000  0.125000     24.000000
  0.375000  0.125000  0.125000     24.000000
  0.425000  0.125000  0.125000     24.000000
  0.475000  0.125000  0.125000     24.000000
 -0.475000  0.125000  0.125000     24.000000
 -0.425000  0.125000  0.125000     24.000000
 -0.375000  0.125000  0.125000     24.000000
 -0.325000  0.125000  0.125000     24.000000
 -0.275000  0.125000  0.125000     24.000000
 -0.225000  0.125000  0.125000     24.000000
 -0.175000  0.125000  0.125000     24.000000
 -0.125000  0.125000  0.125000     24.000000
  0.175000  0.175000  0.125000     24.000000
  0.225000  0.175000  0.125000     48.000000
  0.275000  0.175000  0.125000     48.000000
  0.325000  0.175000  0.125000     48.000000
  0.375000  0.175000  0.125000     48.000000
  0.425000  0.175000  0.125000     48.000000
  0.475000  0.175000  0.125000     48.000000
 -0.475000  0.175000  0.125000     48.000000
 -0.425000  0.175000  0.125000     48.000000
 -0.375000  0.175000  0.125000     48.000000
 -0.325000  0.175000  0.125000     48.000000
 -0.275000  0.175000  0.125000     48.000000
 -0.225000  0.175000  0.125000     48.000000
 -0.175000  0.175000  0.125000     48.000000
 -0.125000  0.175000  0.125000     48.000000
  0.225000  0.225000  0.125000     24.000000
  0.275000  0.225000  0.125000     48.000000
  0.325000  0.225000  0.125000     48.000000
  0.375000  0.225000  0.125000     48.000000
  0.425000  0.225000  0.125000     48.000000
  0.475000  0.225000  0.125000     48.000000
 -0.475000  0.225000  0.125000     48.000000
 -0.425000  0.225000  0.125000     48.000000
 -0.375000  0.225000  0.125000     48.000000
 -0.325000  0.225000  0.125000     48.000000
 -0.275000  0.225000  0.125000     48.000000
 -0.225000  0.225000  0.125000     48.000000
 -0.175000  0.225000  0.125000     48.000000
 -0.125000  0.225000  0.125000     48.000000
  0.275000  0.275000  0.125000     24.000000
  0.325000  0.275000  0.125000     48.000000
  0.375000  0.275000  0.125000     48.000000
  0.425000  0.275000  0.125000     48.000000
  0.475000  0.275000  0.125000     48.000000
 -0.475000  0.275000  0.125000     48.000000
 -0.425000  0.275000  0.125000     48.000000
 -0.375000  0.275000  0.125000     48.000000
 -0.325000  0.275000  0.125000     48.000000
 -0.275000  0.275000  0.125000     48.000000
 -0.225000  0.275000  0.125000     48.000000
 -0.175000  0.275000  0.125000     48.000000
 -0.125000  0.275000  0.125000     48.000000
  0.325000  0.325000  0.125000     24.000000
  0.375000  0.325000  0.125000     48.000000
  0.425000  0.325000  0.125000     48.000000
  0.475000  0.325000  0.125000     48.000000
 -0.475000  0.325000  0.125000     48.000000
 -0.425000  0.325000  0.125000     48.000000
 -0.375000  0.325000  0.125000     48.000000
 -0.325000  0.325000  0.125000     48.000000
 -0.275000  0.325000  0.125000     48.000000
 -0.225000  0.325000  0.125000     48.000000
 -0.175000  0.325000  0.125000     48.000000
 -0.125000  0.325000  0.125000     48.000000
  0.375000  0.375000  0.125000     24.000000
  0.425000  0.375000  0.125000     48.000000
  0.475000  0.375000  0.125000     48.000000
 -0.475000  0.375000  0.125000     48.000000
 -0.425000  0.375000  0.125000     48.000000
 -0.375000  0.375000  0.125000     48.000000
 -0.325000  0.375000  0.125000     48.000000
 -0.275000  0.375000  0.125000     48.000000
 -0.225000  0.375000  0.125000     48.000000
 -0.175000  0.375000  0.125000     48.000000
 -0.125000  0.375000  0.125000     48.000000
  0.425000  0.425000  0.125000     24.000000
  0.475000  0.425000  0.125000     48.000000
 -0.475000  0.425000  0.125000     48.000000
 -0.425000  0.425000  0.125000     48.000000
 -0.375000  0.425000  0.125000     48.000000
 -0.325000  0.425000  0.125000     48.000000
 -0.275000  0.425000  0.125000     48.000000
 -0.225000  0.425000  0.125000     48.000000
 -0.175000  0.425000  0.125000     48.000000
 -0.125000  0.425000  0.125000     48.000000
  0.475000  0.475000  0.125000     24.000000
 -0.475000  0.475000  0.125000     48.000000
 -0.425000  0.475000  0.125000     48.000000
 -0.375000  0.475000  0.125000     48.000000
 -0.325000  0.475000  0.125000     48.000000
 -0.275000  0.475000  0.125000     48.000000
 -0.225000  0.475000  0.125000     48.000000
 -0.175000  0.475000  0.125000     48.000000
 -0.125000  0.475000  0.125000     48.000000
 -0.475000 -0.475000  0.125000     24.000000
 -0.425000 -0.475000  0.125000     48.000000
 -0.375000 -0.475000  0.125000     48.000000
 -0.325000 -0.475000  0.125000     48.000000
 -0.275000 -0.475000  0.125000     48.000000
 -0.225000 -0.475000  0.125000     48.000000
 -0.175000 -0.475000  0.125000     48.000000
 -0.425000 -0.425000  0.125000     24.000000
 -0.375000 -0.425000  0.125000     48.000000
 -0.325000 -0.425000  0.125000     48.000000
 -0.275000 -0.425000  0.125000     48.000000
 -0.225000 -0.425000  0.125000     48.000000
 -0.175000 -0.425000  0.125000     48.000000
 -0.375000 -0.375000  0.125000     24.000000
 -0.325000 -0.375000  0.125000     48.000000
 -0.275000 -0.375000  0.125000     48.000000
 -0.225000 -0.375000  0.125000     48.000000
 -0.175000 -0.375000  0.125000     48.000000
 -0.325000 -0.325000  0.125000     24.000000
 -0.275000 -0.325000  0.125000     48.000000
 -0.225000 -0.325000  0.125000     48.000000
 -0.175000 -0.325000  0.125000     48.000000
 -0.275000 -0.275000  0.125000     24.000000
 -0.225000 -0.275000  0.125000     48.000000
 -0.175000 -0.275000  0.125000     48.000000
 -0.225000 -0.225000  0.125000     24.000000
 -0.175000 -0.225000  0.125000     48.000000
 -0.175000 -0.175000  0.125000     24.000000
  0.175000  0.175000  0.175000      8.000000
  0.225000  0.175000  0.175000     24.000000
  0.275000  0.175000  0.175000     24.000000
  0.325000  0.175000  0.175000     24.000000
  0.375000  0.175000  0.175000     24.000000
  0.425000  0.175000  0.175000     24.000000
  0.475000  0.175000  0.175000     24.000000
 -0.475000  0.175000  0.175000     24.000000
 -0.425000  0.175000  0.175000     24.000000
 -0.375000  0.175000  0.175000     24.000000
 -0.325000  0.175000  0.175000     24.000000
 -0.275000  0.175000  0.175000     24.000000
 -0.225000  0.175000  0.175000     24.000000
 -0.175000  0.175000  0.175000     24.000000
  0.225000  0.225000  0.175000     24.000000
  0.275000  0.225000  0.175000     48.000000
  0.325000  0.225000  0.175000     48.000000
  0.375000  0.225000  0.175000     48.000000
  0.425000  0.225000  0.175000     48.000000
  0.475000  0.225000  0.175000     48.000000
 -0.475000  0.225000  0.175000     48.000000
 -0.425000  0.225000  0.175000     48.000000
 -0.375000  0.225000  0.175000     48.000000
 -0.325000  0.225000  0.175000     48.000000
 -0.275000  0.225000  0.175000     48.000000
 -0.225000  0.225000  0.175000     48.000000
 -0.175000  0.225000  0.175000     48.000000
  0.275000  0.275000  0.175000     24.000000
  0.325000  0.275000  0.175000     48.000000
  0.375000  0.275000  0.175000     48.000000
  0.425000  0.275000  0.175000     48.000000
  0.475000  0.275000  0.175000     48.000000
 -0.475000  0.275000  0.175000     48.000000
 -0.425000  0.275000  0.175000     48.000000
 -0.375000  0.275000  0.175000     48.000000
 -0.325000  0.275000  0.175000     48.000000
 -0.275000  0.275000  0.175000     48.000000
 -0.225000  0.275000  0.175000     48.000000
 -0.175000  0.275000  0.175000     48.000000
  0.325000  0.325000  0.175000     24.000000
  0.375000  0.325000  0.175000     48.000000
  0.425000  0.325000  0.175000     48.000000
  0.475000  0.325000  0.175000     48.000000
 -0.475000  0.325000  0.175000     48.000000
 -0.425000  0.325000  0.175000     48.000000
 -0.375000  0.325000  0.175000     48.000000
 -0.325000  0.325000  0.175000     48.000000
 -0.275000  0.325000  0.175000     48.000000
 -0.225000  0.325000  0.175000     48.000000
 -0.175000  0.325000  0.175000     48.000000
  0.375000  0.375000  0.175000     24.000000
  0.425000  0.375000  0.175000     48.000000
  0.475000  0.375000  0.175000     48.000000
 -0.475000  0.375000  0.175000     48.000000
 -0.425000  0.375000  0.175000     48.000000
 -0.375000  0.375000  0.175000     48.000000
 -0.325000  0.375000  0.175000     48.000000
 -0.275000  0.375000  0.175000     48.000000
 -0.225000  0.375000  0.175000     48.000000
 -0.175000  0.375000  0.175000     48.000000
  0.425000  0.425000  0.175000     24.000000
  0.475000  0.425000  0.175000     48.000000
 -0.475000  0.425000  0.175000     48.000000
 -0.425000  0.425000  0.175000     48.000000
 -0.375000  0.425000  0.175000     48.000000
 -0.325000  0.425000  0.175000     48.000000
 -0.275000  0.425000  0.175000     48.000000
 -0.225000  0.425000  0.175000     48.000000
 -0.175000  0.425000  0.175000     48.000000
  0.475000  0.475000  0.175000     24.000000
 -0.475000  0.475000  0.175000     48.000000
 -0.425000  0.475000  0.175000     48.000000
 -0.375000  0.475000  0.175000     48.000000
 -0.325000  0.475000  0.175000     48.000000
 -0.275000  0.475000  0.175000     48.000000
 -0.225000  0.475000  0.175000     48.000000
 -0.175000  0.475000  0.175000     48.000000
 -0.475000 -0.475000  0.175000     24.000000
 -0.425000 -0.475000  0.175000     48.000000
 -0.375000 -0.475000  0.175000     48.000000
 -0.325000 -0.475000  0.175000     48.000000
 -0.275000 -0.475000  0.175000     48.000000
 -0.225000 -0.475000  0.175000     48.000000
 -0.425000 -0.425000  0.175000     24.000000
 -0.375000 -0.425000  0.175000     48.000000
 -0.325000 -0.425000  0.175000     48.000000
 -0.275000 -0.425000  0.175000     48.000000
 -0.225000 -0.425000  0.175000     48.000000
 -0.375000 -0.375000  0.175000     24.000000
 -0.325000 -0.375000  0.175000     48.000000
 -0.275000 -0.375000  0.175000     48.000000
 -0.225000 -0.375000  0.175000     48.000000
 -0.325000 -0.325000  0.175000     24.000000
 -0.275000 -0.325000  0.175000     48.000000
 -0.225000 -0.325000  0.175000     48.000000
 -0.275000 -0.275000  0.175000     24.000000
 -0.225000 -0.275000  0.175000     48.000000
 -0.225000 -0.225000  0.175000     24.000000
  0.225000  0.225000  0.225000      8.000000
  0.275000  0.225000  0.225000     24.000000
  0.325000  0.225000  0.225000     24.000000
  0.375000  0.225000  0.225000     24.000000
  0.425000  0.225000  0.225000     24.000000
  0.475000  0.225000  0.225000     24.000000
 -0.475000  0.225000  0.225000     24.000000
 -0.425000  0.225000  0.225000     24.000000
 -0.375000  0.225000  0.225000     24.000000
 -0.325000  0.225000  0.225000     24.000000
 -0.275000  0.225000  0.225000     24.000000
 -0.225000  0.225000  0.225000     24.000000
  0.275000  0.275000  0.225000     24.000000
  0.325000  0.275000  0.225000     48.000000
  0.375000  0.275000  0.225000     48.000000
  0.425000  0.275000  0.225000     48.000000
  0.475000  0.275000  0.225000     48.000000
 -0.475000  0.275000  0.225000     48.000000
 -0.425000  0.275000  0.225000     48.000000
 -0.375000  0.275000  0.225000     48.000000
 -0.325000  0.275000  0.225000     48.000000
 -0.275000  0.275000  0.225000     48.000000
 -0.225000  0.275000  0.225000     48.000000
  0.325000  0.325000  0.225000     24.000000
  0.375000  0.325000  0.225000     48.000000
  0.425000  0.325000  0.225000     48.000000
  0.475000  0.325000  0.225000     48.000000
 -0.475000  0.325000  0.225000     48.000000
 -0.425000  0.325000  0.225000     48.000000
 -0.375000  0.325000  0.225000     48.000000
 -0.325000  0.325000  0.225000     48.000000
 -0.275000  0.325000  0.225000     48.000000
 -0.225000  0.325000  0.225000     48.000000
  0.375000  0.375000  0.225000     24.000000
  0.425000  0.375000  0.225000     48.000000
  0.475000  0.375000  0.225000     48.000000
 -0.475000  0.375000  0.225000     48.000000
 -0.425000  0.375000  0.225000     48.000000
 -0.375000  0.375000  0.225000     48.000000
 -0.325000  0.375000  0.225000     48.000000
 -0.275000  0.375000  0.225000     48.000000
 -0.225000  0.375000  0.225000     48.000000
  0.425000  0.425000  0.225000     24.000000
  0.475000  0.425000  0.225000     48.000000
 -0.475000  0.425000  0.225000     48.000000
 -0.425000  0.425000  0.225000     48.000000
 -0.375000  0.425000  0.225000     48.000000
 -0.325000  0.425000  0.225000     48.000000
 -0.275000  0.425000  0.225000     48.000000
 -0.225000  0.425000  0.225000     48.000000
  0.475000  0.475000  0.225000     24.000000
 -0.475000  0.475000  0.225000     48.000000
 -0.425000  0.475000  0.225000     48.000000
 -0.375000  0.475000  0.225000     48.000000
 -0.325000  0.475000  0.225000     48.000000
 -0.275000  0.475000  0.225000     48.000000
 -0.225000  0.475000  0.225000     48.000000
 -0.475000 -0.475000  0.225000     24.000000
 -0.425000 -0.475000  0.225000     48.000000
 -0.375000 -0.475000  0.225000     48.000000
 -0.325000 -0.475000  0.225000     48.000000
 -0.275000 -0.475000  0.225000     48.000000
 -0.425000 -0.425000  0.225000     24.000000
 -0.375000 -0.425000  0.225000     48.000000
 -0.325000 -0.425000  0.225000     48.000000
 -0.275000 -0.425000  0.225000     48.000000
 -0.375000 -0.375000  0.225000     24.000000
 -0.325000 -0.375000  0.225000     48.000000
 -0.275000 -0.375000  0.225000     48.000000
 -0.325000 -0.325000  0.225000     24.000000
 -0.275000 -0.325000  0.225000     48.000000
 -0.275000 -0.275000  0.225000     24.000000
  0.275000  0.275000  0.275000      8.000000
  0.325000  0.275000  0.275000     24.000000
  0.375000  0.275000  0.275000     24.000000
  0.425000  0.275000  0.275000     24.000000
  0.475000  0.275000  0.275000     24.000000
 -0.475000  0.275000  0.275000     24.000000
 -0.425000  0.275000  0.275000     24.000000
 -0.375000  0.275000  0.275000     24.000000
 -0.325000  0.275000  0.275000     24.000000
 -0.275000  0.275000  0.275000     24.000000
  0.325000  0.325000  0.275000     24.000000
  0.375000  0.325000  0.275000     48.000000
  0.425000  0.325000  0.275000     48.000000
  0.475000  0.325000  0.275000     48.000000
 -0.475000  0.325000  0.275000     48.000000
 -0.425000  0.325000  0.275000     48.000000
 -0.375000  0.325000  0.275000     48.000000
 -0.325000  0.325000  0.275000     48.000000
 -0.275000  0.325000  0.275000     48.000000
  0.375000  0.375000  0.275000     24.000000
  0.425000  0.375000  0.275000     48.000000
  0.475000  0.375000  0.275000     48.000000
 -0.475000  0.375000  0.275000     48.000000
 -0.425000  0.375000  0.275000     48.000000
 -0.375000  0.375000  0.275000     48.000000
 -0.325000  0.375000  0.275000     48.000000
 -0.275000  0.375000  0.275000     48.000000
  0.425000  0.425000  0.275000     24.000000
  0.475000  0.425000  0.275000     48.000000
 -0.475000  0.425000  0.275000     48.000000
 -0.425000  0.425000  0.275000     48.000000
 -0.375000  0.425000  0.275000     48.000000
 -0.325000  0.425000  0.275000     48.000000
 -0.275000  0.425000  0.275000     48.000000
  0.475000  0.475000  0.275000     24.000000
 -0.475000  0.475000  0.275000     48.000000
 -0.425000  0.475000  0.275000     48.000000
 -0.375000  0.475000  0.275000     48.000000
 -0.325000  0.475000  0.275000     48.000000
 -0.275000  0.475000  0.275000     48.000000
 -0.475000 -0.475000  0.275000     24.000000
 -0.425000 -0.475000  0.275000     48.000000
 -0.375000 -0.475000  0.275000     48.000000
 -0.325000 -0.475000  0.275000     48.000000
 -0.425000 -0.425000  0.275000     24.000000
 -0.375000 -0.425000  0.275000     48.000000
 -0.325000 -0.425000  0.275000     48.000000
 -0.375000 -0.375000  0.275000     24.000000
 -0.325000 -0.375000  0.275000     48.000000
 -0.325000 -0.325000  0.275000     24.000000
  0.325000  0.325000  0.325000      8.000000
  0.375000  0.325000  0.325000     24.000000
  0.425000  0.325000  0.325000     24.000000
  0.475000  0.325000  0.325000     24.000000
 -0.475000  0.325000  0.325000     24.000000
 -0.425000  0.325000  0.325000     24.000000
 -0.375000  0.325000  0.325000     24.000000
 -0.325000  0.325000  0.325000     24.000000
  0.375000  0.375000  0.325000     24.000000
  0.425000  0.375000  0.325000     48.000000
  0.475000  0.375000  0.325000     48.000000
 -0.475000  0.375000  0.325000     48.000000
 -0.425000  0.375000  0.325000     48.000000
 -0.375000  0.375000  0.325000     48.000000
 -0.325000  0.375000  0.325000     48.000000
  0.425000  0.425000  0.325000     24.000000
  0.475000  0.425000  0.325000     48.000000
 -0.475000  0.425000  0.325000     48.000000
 -0.425000  0.425000  0.325000     48.000000
 -0.375000  0.425000  0.325000     48.000000
 -0.325000  0.425000  0.325000     48.000000
  0.475000  0.475000  0.325000     24.000000
 -0.475000  0.475000  0.325000     48.000000
 -0.425000  0.475000  0.325000     48.000000
 -0.375000  0.475000  0.325000     48.000000
 -0.325000  0.475000  0.325000     48.000000
 -0.475000 -0.475000  0.325000     24.000000
 -0.425000 -0.475000  0.325000     48.000000
 -0.375000 -0.475000  0.325000     48.000000
 -0.425000 -0.425000  0.325000     24.000000
 -0.375000 -0.425000  0.325000     48.000000
 -0.375000 -0.375000  0.325000     24.000000
  0.375000  0.375000  0.375000      8.000000
  0.425000  0.375000  0.375000     24.000000
  0.475000  0.375000  0.375000     24.000000
 -0.475000  0.375000  0.375000     24.000000
 -0.425000  0.375000  0.375000     24.000000
 -0.375000  0.375000  0.375000     24.000000
  0.425000  0.425000  0.375000     24.000000
  0.475000  0.425000  0.375000     48.000000
 -0.475000  0.425000  0.375000     48.000000
 -0.425000  0.425000  0.375000     48.000000
 -0.375000  0.425000  0.375000     48.000000
  0.475000  0.475000  0.375000     24.000000
 -0.475000  0.475000  0.375000     48.000000
 -0.425000  0.475000  0.375000     48.000000
 -0.375000  0.475000  0.375000     48.000000
 -0.475000 -0.475000  0.375000     24.000000
 -0.425000 -0.475000  0.375000     48.000000
 -0.425000 -0.425000  0.375000     24.000000
  0.425000  0.425000  0.425000      8.000000
  0.475000  0.425000  0.425000     24.000000
 -0.475000  0.425000  0.425000     24.000000
 -0.425000  0.425000  0.425000     24.000000
  0.475000  0.475000  0.425000     24.000000
 -0.475000  0.475000  0.425000     48.000000
 -0.425000  0.475000  0.425000     48.000000
 -0.475000 -0.475000  0.425000     24.000000
  0.475000  0.475000  0.475000      8.000000
 -0.475000  0.475000  0.475000     24.000000
 
 Following cartesian coordinates:
            Coordinates               Weight
  0.003750  0.002651  0.006495      8.000000
  0.018749 -0.002651  0.006495     24.000000
  0.033748 -0.007954  0.006495     24.000000
  0.048746 -0.013257  0.006495     24.000000
  0.063745 -0.018560  0.006495     24.000000
  0.078744 -0.023863  0.006495     24.000000
  0.093743 -0.029166  0.006495     24.000000
  0.108742 -0.034469  0.006495     24.000000
  0.123741 -0.039772  0.006495     24.000000
  0.138740 -0.045075  0.006495     24.000000
 -0.146239  0.055681  0.006495     24.000000
 -0.131241  0.050378  0.006495     24.000000
 -0.116242  0.045075  0.006495     24.000000
 -0.101243  0.039772  0.006495     24.000000
 -0.086244  0.034469  0.006495     24.000000
 -0.071245  0.029166  0.006495     24.000000
 -0.056246  0.023863  0.006495     24.000000
 -0.041247  0.018560  0.006495     24.000000
 -0.026248  0.013257  0.006495     24.000000
 -0.011249  0.007954  0.006495     24.000000
  0.018749  0.013257  0.006495     24.000000
  0.033748  0.007954  0.006495     48.000000
  0.048746  0.002651  0.006495     48.000000
  0.063745 -0.002651  0.006495     48.000000
  0.078744 -0.007954  0.006495     48.000000
  0.093743 -0.013257  0.006495     48.000000
  0.108742 -0.018560  0.006495     48.000000
  0.123741 -0.023863  0.006495     48.000000
  0.138740 -0.029166  0.006495     48.000000
 -0.146239  0.071589  0.006495     48.000000
 -0.131241  0.066286  0.006495     48.000000
 -0.116242  0.060984  0.006495     48.000000
 -0.101243  0.055681  0.006495     48.000000
 -0.086244  0.050378  0.006495     48.000000
 -0.071245  0.045075  0.006495     48.000000
 -0.056246  0.039772  0.006495     48.000000
 -0.041247  0.034469  0.006495     48.000000
 -0.026248  0.029166  0.006495     48.000000
 -0.011249  0.023863  0.006495     48.000000
  0.033748  0.023863  0.006495     24.000000
  0.048746  0.018560  0.006495     48.000000
  0.063745  0.013257  0.006495     48.000000
  0.078744  0.007954  0.006495     48.000000
  0.093743  0.002651  0.006495     48.000000
  0.108742 -0.002651  0.006495     48.000000
  0.123741 -0.007954  0.006495     48.000000
  0.138740 -0.013257  0.006495     48.000000
 -0.146239  0.087498  0.006495     48.000000
 -0.131241  0.082195  0.006495     48.000000
 -0.116242  0.076892  0.006495     48.000000
 -0.101243  0.071589  0.006495     48.000000
 -0.086244  0.066286  0.006495     48.000000
 -0.071245  0.060984  0.006495     48.000000
 -0.056246  0.055681  0.006495     48.000000
 -0.041247  0.050378  0.006495     48.000000
 -0.026248  0.045075  0.006495     48.000000
 -0.011249  0.039772  0.006495     48.000000
  0.048746  0.034469  0.006495     24.000000
  0.063745  0.029166  0.006495     48.000000
  0.078744  0.023863  0.006495     48.000000
  0.093743  0.018560  0.006495     48.000000
  0.108742  0.013257  0.006495     48.000000
  0.123741  0.007954  0.006495     48.000000
  0.138740  0.002651  0.006495     48.000000
 -0.146239  0.103407  0.006495     48.000000
 -0.131241  0.098104  0.006495     48.000000
 -0.116242  0.092801  0.006495     48.000000
 -0.101243  0.087498  0.006495     48.000000
 -0.086244  0.082195  0.006495     48.000000
 -0.071245  0.076892  0.006495     48.000000
 -0.056246  0.071589  0.006495     48.000000
 -0.041247  0.066286  0.006495     48.000000
 -0.026248  0.060984  0.006495     48.000000
 -0.011249  0.055681  0.006495     48.000000
  0.063745  0.045075  0.006495     24.000000
  0.078744  0.039772  0.006495     48.000000
  0.093743  0.034469  0.006495     48.000000
  0.108742  0.029166  0.006495     48.000000
  0.123741  0.023863  0.006495     48.000000
  0.138740  0.018560  0.006495     48.000000
 -0.146239  0.119316  0.006495     48.000000
 -0.131241  0.114013  0.006495     48.000000
 -0.116242  0.108710  0.006495     48.000000
 -0.101243  0.103407  0.006495     48.000000
 -0.086244  0.098104  0.006495     48.000000
 -0.071245  0.092801  0.006495     48.000000
 -0.056246  0.087498  0.006495     48.000000
 -0.041247  0.082195  0.006495     48.000000
 -0.026248  0.076892  0.006495     48.000000
 -0.011249  0.071589  0.006495     48.000000
  0.078744  0.055681  0.006495     24.000000
  0.093743  0.050378  0.006495     48.000000
  0.108742  0.045075  0.006495     48.000000
  0.123741  0.039772  0.006495     48.000000
  0.138740  0.034469  0.006495     48.000000
 -0.146239  0.135224  0.006495     48.000000
 -0.131241  0.129921  0.006495     48.000000
 -0.116242  0.124619  0.006495     48.000000
 -0.101243  0.119316  0.006495     48.000000
 -0.086244  0.114013  0.006495     48.000000
 -0.071245  0.108710  0.006495     48.000000
 -0.056246  0.103407  0.006495     48.000000
 -0.041247  0.098104  0.006495     48.000000
 -0.026248  0.092801  0.006495     48.000000
 -0.011249  0.087498  0.006495     48.000000
  0.093743  0.066286  0.006495     24.000000
  0.108742  0.060984  0.006495     48.000000
  0.123741  0.055681  0.006495     48.000000
  0.138740  0.050378  0.006495     48.000000
 -0.146239  0.151133  0.006495     48.000000
 -0.131241  0.145830  0.006495     48.000000
 -0.116242  0.140527  0.006495     48.000000
 -0.101243  0.135224  0.006495     48.000000
 -0.086244  0.129921  0.006495     48.000000
 -0.071245  0.124619  0.006495     48.000000
 -0.056246  0.119316  0.006495     48.000000
 -0.041247  0.114013  0.006495     48.000000
 -0.026248  0.108710  0.006495     48.000000
 -0.011249  0.103407  0.006495     48.000000
  0.108742  0.076892  0.006495     24.000000
  0.123741  0.071589  0.006495     48.000000
  0.138740  0.066286  0.006495     48.000000
 -0.146239  0.167042  0.006495     48.000000
 -0.131241  0.161739  0.006495     48.000000
 -0.116242  0.156436  0.006495     48.000000
 -0.101243  0.151133  0.006495     48.000000
 -0.086244  0.145830  0.006495     48.000000
 -0.071245  0.140527  0.006495     48.000000
 -0.056246  0.135224  0.006495     48.000000
 -0.041247  0.129921  0.006495     48.000000
 -0.026248  0.124619  0.006495     48.000000
 -0.011249  0.119316  0.006495     48.000000
  0.123741  0.087498  0.006495     24.000000
  0.138740  0.082195  0.006495     48.000000
 -0.146239  0.182951  0.006495     48.000000
 -0.131241  0.177648  0.006495     48.000000
 -0.116242  0.172345  0.006495     48.000000
 -0.101243  0.167042  0.006495     48.000000
 -0.086244  0.161739  0.006495     48.000000
 -0.071245  0.156436  0.006495     48.000000
 -0.056246  0.151133  0.006495     48.000000
 -0.041247  0.145830  0.006495     48.000000
 -0.026248  0.140527  0.006495     48.000000
 -0.011249  0.135224  0.006495     48.000000
  0.138740  0.098104  0.006495     24.000000
 -0.146239  0.198859  0.006495     48.000000
 -0.131241  0.193556  0.006495     48.000000
 -0.116242  0.188254  0.006495     48.000000
 -0.101243  0.182951  0.006495     48.000000
 -0.086244  0.177648  0.006495     48.000000
 -0.071245  0.172345  0.006495     48.000000
 -0.056246  0.167042  0.006495     48.000000
 -0.041247  0.161739  0.006495     48.000000
 -0.026248  0.156436  0.006495     48.000000
 -0.011249  0.151133  0.006495     48.000000
 -0.146239 -0.103407  0.006495     24.000000
 -0.131241 -0.108710  0.006495     48.000000
 -0.116242 -0.114013  0.006495     48.000000
 -0.101243 -0.119316  0.006495     48.000000
 -0.086244 -0.124619  0.006495     48.000000
 -0.071245 -0.129921  0.006495     48.000000
 -0.056246 -0.135224  0.006495     48.000000
 -0.041247 -0.140527  0.006495     48.000000
 -0.026248 -0.145830  0.006495     48.000000
 -0.131241 -0.092801  0.006495     24.000000
 -0.116242 -0.098104  0.006495     48.000000
 -0.101243 -0.103407  0.006495     48.000000
 -0.086244 -0.108710  0.006495     48.000000
 -0.071245 -0.114013  0.006495     48.000000
 -0.056246 -0.119316  0.006495     48.000000
 -0.041247 -0.124619  0.006495     48.000000
 -0.026248 -0.129921  0.006495     48.000000
 -0.116242 -0.082195  0.006495     24.000000
 -0.101243 -0.087498  0.006495     48.000000
 -0.086244 -0.092801  0.006495     48.000000
 -0.071245 -0.098104  0.006495     48.000000
 -0.056246 -0.103407  0.006495     48.000000
 -0.041247 -0.108710  0.006495     48.000000
 -0.026248 -0.114013  0.006495     48.000000
 -0.101243 -0.071589  0.006495     24.000000
 -0.086244 -0.076892  0.006495     48.000000
 -0.071245 -0.082195  0.006495     48.000000
 -0.056246 -0.087498  0.006495     48.000000
 -0.041247 -0.092801  0.006495     48.000000
 -0.026248 -0.098104  0.006495     48.000000
 -0.086244 -0.060984  0.006495     24.000000
 -0.071245 -0.066286  0.006495     48.000000
 -0.056246 -0.071589  0.006495     48.000000
 -0.041247 -0.076892  0.006495     48.000000
 -0.026248 -0.082195  0.006495     48.000000
 -0.071245 -0.050378  0.006495     24.000000
 -0.056246 -0.055681  0.006495     48.000000
 -0.041247 -0.060984  0.006495     48.000000
 -0.026248 -0.066286  0.006495     48.000000
 -0.056246 -0.039772  0.006495     24.000000
 -0.041247 -0.045075  0.006495     48.000000
 -0.026248 -0.050378  0.006495     48.000000
 -0.041247 -0.029166  0.006495     24.000000
 -0.026248 -0.034469  0.006495     48.000000
 -0.026248 -0.018560  0.006495     24.000000
  0.011249  0.007954  0.019484      8.000000
  0.026248  0.002651  0.019484     24.000000
  0.041247 -0.002651  0.019484     24.000000
  0.056246 -0.007954  0.019484     24.000000
  0.071245 -0.013257  0.019484     24.000000
  0.086244 -0.018560  0.019484     24.000000
  0.101243 -0.023863  0.019484     24.000000
  0.116242 -0.029166  0.019484     24.000000
  0.131241 -0.034469  0.019484     24.000000
 -0.153739  0.066286  0.019484     24.000000
 -0.138740  0.060984  0.019484     24.000000
 -0.123741  0.055681  0.019484     24.000000
 -0.108742  0.050378  0.019484     24.000000
 -0.093743  0.045075  0.019484     24.000000
 -0.078744  0.039772  0.019484     24.000000
 -0.063745  0.034469  0.019484     24.000000
 -0.048746  0.029166  0.019484     24.000000
 -0.033748  0.023863  0.019484     24.000000
  0.026248  0.018560  0.019484     24.000000
  0.041247  0.013257  0.019484     48.000000
  0.056246  0.007954  0.019484     48.000000
  0.071245  0.002651  0.019484     48.000000
  0.086244 -0.002651  0.019484     48.000000
  0.101243 -0.007954  0.019484     48.000000
  0.116242 -0.013257  0.019484     48.000000
  0.131241 -0.018560  0.019484     48.000000
 -0.153739  0.082195  0.019484     48.000000
 -0.138740  0.076892  0.019484     48.000000
 -0.123741  0.071589  0.019484     48.000000
 -0.108742  0.066286  0.019484     48.000000
 -0.093743  0.060984  0.019484     48.000000
 -0.078744  0.055681  0.019484     48.000000
 -0.063745  0.050378  0.019484     48.000000
 -0.048746  0.045075  0.019484     48.000000
 -0.033748  0.039772  0.019484     48.000000
  0.041247  0.029166  0.019484     24.000000
  0.056246  0.023863  0.019484     48.000000
  0.071245  0.018560  0.019484     48.000000
  0.086244  0.013257  0.019484     48.000000
  0.101243  0.007954  0.019484     48.000000
  0.116242  0.002651  0.019484     48.000000
  0.131241 -0.002651  0.019484     48.000000
 -0.153739  0.098104  0.019484     48.000000
 -0.138740  0.092801  0.019484     48.000000
 -0.123741  0.087498  0.019484     48.000000
 -0.108742  0.082195  0.019484     48.000000
 -0.093743  0.076892  0.019484     48.000000
 -0.078744  0.071589  0.019484     48.000000
 -0.063745  0.066286  0.019484     48.000000
 -0.048746  0.060984  0.019484     48.000000
 -0.033748  0.055681  0.019484     48.000000
  0.056246  0.039772  0.019484     24.000000
  0.071245  0.034469  0.019484     48.000000
  0.086244  0.029166  0.019484     48.000000
  0.101243  0.023863  0.019484     48.000000
  0.116242  0.018560  0.019484     48.000000
  0.131241  0.013257  0.019484     48.000000
 -0.153739  0.114013  0.019484     48.000000
 -0.138740  0.108710  0.019484     48.000000
 -0.123741  0.103407  0.019484     48.000000
 -0.108742  0.098104  0.019484     48.000000
 -0.093743  0.092801  0.019484     48.000000
 -0.078744  0.087498  0.019484     48.000000
 -0.063745  0.082195  0.019484     48.000000
 -0.048746  0.076892  0.019484     48.000000
 -0.033748  0.071589  0.019484     48.000000
  0.071245  0.050378  0.019484     24.000000
  0.086244  0.045075  0.019484     48.000000
  0.101243  0.039772  0.019484     48.000000
  0.116242  0.034469  0.019484     48.000000
  0.131241  0.029166  0.019484     48.000000
 -0.153739  0.129921  0.019484     48.000000
 -0.138740  0.124619  0.019484     48.000000
 -0.123741  0.119316  0.019484     48.000000
 -0.108742  0.114013  0.019484     48.000000
 -0.093743  0.108710  0.019484     48.000000
 -0.078744  0.103407  0.019484     48.000000
 -0.063745  0.098104  0.019484     48.000000
 -0.048746  0.092801  0.019484     48.000000
 -0.033748  0.087498  0.019484     48.000000
  0.086244  0.060984  0.019484     24.000000
  0.101243  0.055681  0.019484     48.000000
  0.116242  0.050378  0.019484     48.000000
  0.131241  0.045075  0.019484     48.000000
 -0.153739  0.145830  0.019484     48.000000
 -0.138740  0.140527  0.019484     48.000000
 -0.123741  0.135224  0.019484     48.000000
 -0.108742  0.129921  0.019484     48.000000
 -0.093743  0.124619  0.019484     48.000000
 -0.078744  0.119316  0.019484     48.000000
 -0.063745  0.114013  0.019484     48.000000
 -0.048746  0.108710  0.019484     48.000000
 -0.033748  0.103407  0.019484     48.000000
  0.101243  0.071589  0.019484     24.000000
  0.116242  0.066286  0.019484     48.000000
  0.131241  0.060984  0.019484     48.000000
 -0.153739  0.161739  0.019484     48.000000
 -0.138740  0.156436  0.019484     48.000000
 -0.123741  0.151133  0.019484     48.000000
 -0.108742  0.145830  0.019484     48.000000
 -0.093743  0.140527  0.019484     48.000000
 -0.078744  0.135224  0.019484     48.000000
 -0.063745  0.129921  0.019484     48.000000
 -0.048746  0.124619  0.019484     48.000000
 -0.033748  0.119316  0.019484     48.000000
  0.116242  0.082195  0.019484     24.000000
  0.131241  0.076892  0.019484     48.000000
 -0.153739  0.177648  0.019484     48.000000
 -0.138740  0.172345  0.019484     48.000000
 -0.123741  0.167042  0.019484     48.000000
 -0.108742  0.161739  0.019484     48.000000
 -0.093743  0.156436  0.019484     48.000000
 -0.078744  0.151133  0.019484     48.000000
 -0.063745  0.145830  0.019484     48.000000
 -0.048746  0.140527  0.019484     48.000000
 -0.033748  0.135224  0.019484     48.000000
  0.131241  0.092801  0.019484     24.000000
 -0.153739  0.193556  0.019484     48.000000
 -0.138740  0.188254  0.019484     48.000000
 -0.123741  0.182951  0.019484     48.000000
 -0.108742  0.177648  0.019484     48.000000
 -0.093743  0.172345  0.019484     48.000000
 -0.078744  0.167042  0.019484     48.000000
 -0.063745  0.161739  0.019484     48.000000
 -0.048746  0.156436  0.019484     48.000000
 -0.033748  0.151133  0.019484     48.000000
 -0.153739 -0.108710  0.019484     24.000000
 -0.138740 -0.114013  0.019484     48.000000
 -0.123741 -0.119316  0.019484     48.000000
 -0.108742 -0.124619  0.019484     48.000000
 -0.093743 -0.129921  0.019484     48.000000
 -0.078744 -0.135224  0.019484     48.000000
 -0.063745 -0.140527  0.019484     48.000000
 -0.048746 -0.145830  0.019484     48.000000
 -0.138740 -0.098104  0.019484     24.000000
 -0.123741 -0.103407  0.019484     48.000000
 -0.108742 -0.108710  0.019484     48.000000
 -0.093743 -0.114013  0.019484     48.000000
 -0.078744 -0.119316  0.019484     48.000000
 -0.063745 -0.124619  0.019484     48.000000
 -0.048746 -0.129921  0.019484     48.000000
 -0.123741 -0.087498  0.019484     24.000000
 -0.108742 -0.092801  0.019484     48.000000
 -0.093743 -0.098104  0.019484     48.000000
 -0.078744 -0.103407  0.019484     48.000000
 -0.063745 -0.108710  0.019484     48.000000
 -0.048746 -0.114013  0.019484     48.000000
 -0.108742 -0.076892  0.019484     24.000000
 -0.093743 -0.082195  0.019484     48.000000
 -0.078744 -0.087498  0.019484     48.000000
 -0.063745 -0.092801  0.019484     48.000000
 -0.048746 -0.098104  0.019484     48.000000
 -0.093743 -0.066286  0.019484     24.000000
 -0.078744 -0.071589  0.019484     48.000000
 -0.063745 -0.076892  0.019484     48.000000
 -0.048746 -0.082195  0.019484     48.000000
 -0.078744 -0.055681  0.019484     24.000000
 -0.063745 -0.060984  0.019484     48.000000
 -0.048746 -0.066286  0.019484     48.000000
 -0.063745 -0.045075  0.019484     24.000000
 -0.048746 -0.050378  0.019484     48.000000
 -0.048746 -0.034469  0.019484     24.000000
  0.018749  0.013257  0.032474      8.000000
  0.033748  0.007954  0.032474     24.000000
  0.048746  0.002651  0.032474     24.000000
  0.063745 -0.002651  0.032474     24.000000
  0.078744 -0.007954  0.032474     24.000000
  0.093743 -0.013257  0.032474     24.000000
  0.108742 -0.018560  0.032474     24.000000
  0.123741 -0.023863  0.032474     24.000000
 -0.161238  0.076892  0.032474     24.000000
 -0.146239  0.071589  0.032474     24.000000
 -0.131241  0.066286  0.032474     24.000000
 -0.116242  0.060984  0.032474     24.000000
 -0.101243  0.055681  0.032474     24.000000
 -0.086244  0.050378  0.032474     24.000000
 -0.071245  0.045075  0.032474     24.000000
 -0.056246  0.039772  0.032474     24.000000
  0.033748  0.023863  0.032474     24.000000
  0.048746  0.018560  0.032474     48.000000
  0.063745  0.013257  0.032474     48.000000
  0.078744  0.007954  0.032474     48.000000
  0.093743  0.002651  0.032474     48.000000
  0.108742 -0.002651  0.032474     48.000000
  0.123741 -0.007954  0.032474     48.000000
 -0.161238  0.092801  0.032474     48.000000
 -0.146239  0.087498  0.032474     48.000000
 -0.131241  0.082195  0.032474     48.000000
 -0.116242  0.076892  0.032474     48.000000
 -0.101243  0.071589  0.032474     48.000000
 -0.086244  0.066286  0.032474     48.000000
 -0.071245  0.060984  0.032474     48.000000
 -0.056246  0.055681  0.032474     48.000000
  0.048746  0.034469  0.032474     24.000000
  0.063745  0.029166  0.032474     48.000000
  0.078744  0.023863  0.032474     48.000000
  0.093743  0.018560  0.032474     48.000000
  0.108742  0.013257  0.032474     48.000000
  0.123741  0.007954  0.032474     48.000000
 -0.161238  0.108710  0.032474     48.000000
 -0.146239  0.103407  0.032474     48.000000
 -0.131241  0.098104  0.032474     48.000000
 -0.116242  0.092801  0.032474     48.000000
 -0.101243  0.087498  0.032474     48.000000
 -0.086244  0.082195  0.032474     48.000000
 -0.071245  0.076892  0.032474     48.000000
 -0.056246  0.071589  0.032474     48.000000
  0.063745  0.045075  0.032474     24.000000
  0.078744  0.039772  0.032474     48.000000
  0.093743  0.034469  0.032474     48.000000
  0.108742  0.029166  0.032474     48.000000
  0.123741  0.023863  0.032474     48.000000
 -0.161238  0.124619  0.032474     48.000000
 -0.146239  0.119316  0.032474     48.000000
 -0.131241  0.114013  0.032474     48.000000
 -0.116242  0.108710  0.032474     48.000000
 -0.101243  0.103407  0.032474     48.000000
 -0.086244  0.098104  0.032474     48.000000
 -0.071245  0.092801  0.032474     48.000000
 -0.056246  0.087498  0.032474     48.000000
  0.078744  0.055681  0.032474     24.000000
  0.093743  0.050378  0.032474     48.000000
  0.108742  0.045075  0.032474     48.000000
  0.123741  0.039772  0.032474     48.000000
 -0.161238  0.140527  0.032474     48.000000
 -0.146239  0.135224  0.032474     48.000000
 -0.131241  0.129921  0.032474     48.000000
 -0.116242  0.124619  0.032474     48.000000
 -0.101243  0.119316  0.032474     48.000000
 -0.086244  0.114013  0.032474     48.000000
 -0.071245  0.108710  0.032474     48.000000
 -0.056246  0.103407  0.032474     48.000000
  0.093743  0.066286  0.032474     24.000000
  0.108742  0.060984  0.032474     48.000000
  0.123741  0.055681  0.032474     48.000000
 -0.161238  0.156436  0.032474     48.000000
 -0.146239  0.151133  0.032474     48.000000
 -0.131241  0.145830  0.032474     48.000000
 -0.116242  0.140527  0.032474     48.000000
 -0.101243  0.135224  0.032474     48.000000
 -0.086244  0.129921  0.032474     48.000000
 -0.071245  0.124619  0.032474     48.000000
 -0.056246  0.119316  0.032474     48.000000
  0.108742  0.076892  0.032474     24.000000
  0.123741  0.071589  0.032474     48.000000
 -0.161238  0.172345  0.032474     48.000000
 -0.146239  0.167042  0.032474     48.000000
 -0.131241  0.161739  0.032474     48.000000
 -0.116242  0.156436  0.032474     48.000000
 -0.101243  0.151133  0.032474     48.000000
 -0.086244  0.145830  0.032474     48.000000
 -0.071245  0.140527  0.032474     48.000000
 -0.056246  0.135224  0.032474     48.000000
  0.123741  0.087498  0.032474     24.000000
 -0.161238  0.188254  0.032474     48.000000
 -0.146239  0.182951  0.032474     48.000000
 -0.131241  0.177648  0.032474     48.000000
 -0.116242  0.172345  0.032474     48.000000
 -0.101243  0.167042  0.032474     48.000000
 -0.086244  0.161739  0.032474     48.000000
 -0.071245  0.156436  0.032474     48.000000
 -0.056246  0.151133  0.032474     48.000000
 -0.161238 -0.114013  0.032474     24.000000
 -0.146239 -0.119316  0.032474     48.000000
 -0.131241 -0.124619  0.032474     48.000000
 -0.116242 -0.129921  0.032474     48.000000
 -0.101243 -0.135224  0.032474     48.000000
 -0.086244 -0.140527  0.032474     48.000000
 -0.071245 -0.145830  0.032474     48.000000
 -0.146239 -0.103407  0.032474     24.000000
 -0.131241 -0.108710  0.032474     48.000000
 -0.116242 -0.114013  0.032474     48.000000
 -0.101243 -0.119316  0.032474     48.000000
 -0.086244 -0.124619  0.032474     48.000000
 -0.071245 -0.129921  0.032474     48.000000
 -0.131241 -0.092801  0.032474     24.000000
 -0.116242 -0.098104  0.032474     48.000000
 -0.101243 -0.103407  0.032474     48.000000
 -0.086244 -0.108710  0.032474     48.000000
 -0.071245 -0.114013  0.032474     48.000000
 -0.116242 -0.082195  0.032474     24.000000
 -0.101243 -0.087498  0.032474     48.000000
 -0.086244 -0.092801  0.032474     48.000000
 -0.071245 -0.098104  0.032474     48.000000
 -0.101243 -0.071589  0.032474     24.000000
 -0.086244 -0.076892  0.032474     48.000000
 -0.071245 -0.082195  0.032474     48.000000
 -0.086244 -0.060984  0.032474     24.000000
 -0.071245 -0.066286  0.032474     48.000000
 -0.071245 -0.050378  0.032474     24.000000
  0.026248  0.018560  0.045463      8.000000
  0.041247  0.013257  0.045463     24.000000
  0.056246  0.007954  0.045463     24.000000
  0.071245  0.002651  0.045463     24.000000
  0.086244 -0.002651  0.045463     24.000000
  0.101243 -0.007954  0.045463     24.000000
  0.116242 -0.013257  0.045463     24.000000
 -0.168738  0.087498  0.045463     24.000000
 -0.153739  0.082195  0.045463     24.000000
 -0.138740  0.076892  0.045463     24.000000
 -0.123741  0.071589  0.045463     24.000000
 -0.108742  0.066286  0.045463     24.000000
 -0.093743  0.060984  0.045463     24.000000
 -0.078744  0.055681  0.045463     24.000000
  0.041247  0.029166  0.045463     24.000000
  0.056246  0.023863  0.045463     48.000000
  0.071245  0.018560  0.045463     48.000000
  0.086244  0.013257  0.045463     48.000000
  0.101243  0.007954  0.045463     48.000000
  0.116242  0.002651  0.045463     48.000000
 -0.168738  0.103407  0.045463     48.000000
 -0.153739  0.098104  0.045463     48.000000
 -0.138740  0.092801  0.045463     48.000000
 -0.123741  0.087498  0.045463     48.000000
 -0.108742  0.082195  0.045463     48.000000
 -0.093743  0.076892  0.045463     48.000000
 -0.078744  0.071589  0.045463     48.000000
  0.056246  0.039772  0.045463     24.000000
  0.071245  0.034469  0.045463     48.000000
  0.086244  0.029166  0.045463     48.000000
  0.101243  0.023863  0.045463     48.000000
  0.116242  0.018560  0.045463     48.000000
 -0.168738  0.119316  0.045463     48.000000
 -0.153739  0.114013  0.045463     48.000000
 -0.138740  0.108710  0.045463     48.000000
 -0.123741  0.103407  0.045463     48.000000
 -0.108742  0.098104  0.045463     48.000000
 -0.093743  0.092801  0.045463     48.000000
 -0.078744  0.087498  0.045463     48.000000
  0.071245  0.050378  0.045463     24.000000
  0.086244  0.045075  0.045463     48.000000
  0.101243  0.039772  0.045463     48.000000
  0.116242  0.034469  0.045463     48.000000
 -0.168738  0.135224  0.045463     48.000000
 -0.153739  0.129921  0.045463     48.000000
 -0.138740  0.124619  0.045463     48.000000
 -0.123741  0.119316  0.045463     48.000000
 -0.108742  0.114013  0.045463     48.000000
 -0.093743  0.108710  0.045463     48.000000
 -0.078744  0.103407  0.045463     48.000000
  0.086244  0.060984  0.045463     24.000000
  0.101243  0.055681  0.045463     48.000000
  0.116242  0.050378  0.045463     48.000000
 -0.168738  0.151133  0.045463     48.000000
 -0.153739  0.145830  0.045463     48.000000
 -0.138740  0.140527  0.045463     48.000000
 -0.123741  0.135224  0.045463     48.000000
 -0.108742  0.129921  0.045463     48.000000
 -0.093743  0.124619  0.045463     48.000000
 -0.078744  0.119316  0.045463     48.000000
  0.101243  0.071589  0.045463     24.000000
  0.116242  0.066286  0.045463     48.000000
 -0.168738  0.167042  0.045463     48.000000
 -0.153739  0.161739  0.045463     48.000000
 -0.138740  0.156436  0.045463     48.000000
 -0.123741  0.151133  0.045463     48.000000
 -0.108742  0.145830  0.045463     48.000000
 -0.093743  0.140527  0.045463     48.000000
 -0.078744  0.135224  0.045463     48.000000
  0.116242  0.082195  0.045463     24.000000
 -0.168738  0.182951  0.045463     48.000000
 -0.153739  0.177648  0.045463     48.000000
 -0.138740  0.172345  0.045463     48.000000
 -0.123741  0.167042  0.045463     48.000000
 -0.108742  0.161739  0.045463     48.000000
 -0.093743  0.156436  0.045463     48.000000
 -0.078744  0.151133  0.045463     48.000000
 -0.168738 -0.119316  0.045463     24.000000
 -0.153739 -0.124619  0.045463     48.000000
 -0.138740 -0.129921  0.045463     48.000000
 -0.123741 -0.135224  0.045463     48.000000
 -0.108742 -0.140527  0.045463     48.000000
 -0.093743 -0.145830  0.045463     48.000000
 -0.153739 -0.108710  0.045463     24.000000
 -0.138740 -0.114013  0.045463     48.000000
 -0.123741 -0.119316  0.045463     48.000000
 -0.108742 -0.124619  0.045463     48.000000
 -0.093743 -0.129921  0.045463     48.000000
 -0.138740 -0.098104  0.045463     24.000000
 -0.123741 -0.103407  0.045463     48.000000
 -0.108742 -0.108710  0.045463     48.000000
 -0.093743 -0.114013  0.045463     48.000000
 -0.123741 -0.087498  0.045463     24.000000
 -0.108742 -0.092801  0.045463     48.000000
 -0.093743 -0.098104  0.045463     48.000000
 -0.108742 -0.076892  0.045463     24.000000
 -0.093743 -0.082195  0.045463     48.000000
 -0.093743 -0.066286  0.045463     24.000000
  0.033748  0.023863  0.058453      8.000000
  0.048746  0.018560  0.058453     24.000000
  0.063745  0.013257  0.058453     24.000000
  0.078744  0.007954  0.058453     24.000000
  0.093743  0.002651  0.058453     24.000000
  0.108742 -0.002651  0.058453     24.000000
 -0.176237  0.098104  0.058453     24.000000
 -0.161238  0.092801  0.058453     24.000000
 -0.146239  0.087498  0.058453     24.000000
 -0.131241  0.082195  0.058453     24.000000
 -0.116242  0.076892  0.058453     24.000000
 -0.101243  0.071589  0.058453     24.000000
  0.048746  0.034469  0.058453     24.000000
  0.063745  0.029166  0.058453     48.000000
  0.078744  0.023863  0.058453     48.000000
  0.093743  0.018560  0.058453     48.000000
  0.108742  0.013257  0.058453     48.000000
 -0.176237  0.114013  0.058453     48.000000
 -0.161238  0.108710  0.058453     48.000000
 -0.146239  0.103407  0.058453     48.000000
 -0.131241  0.098104  0.058453     48.000000
 -0.116242  0.092801  0.058453     48.000000
 -0.101243  0.087498  0.058453     48.000000
  0.063745  0.045075  0.058453     24.000000
  0.078744  0.039772  0.058453     48.000000
  0.093743  0.034469  0.058453     48.000000
  0.108742  0.029166  0.058453     48.000000
 -0.176237  0.129921  0.058453     48.000000
 -0.161238  0.124619  0.058453     48.000000
 -0.146239  0.119316  0.058453     48.000000
 -0.131241  0.114013  0.058453     48.000000
 -0.116242  0.108710  0.058453     48.000000
 -0.101243  0.103407  0.058453     48.000000
  0.078744  0.055681  0.058453     24.000000
  0.093743  0.050378  0.058453     48.000000
  0.108742  0.045075  0.058453     48.000000
 -0.176237  0.145830  0.058453     48.000000
 -0.161238  0.140527  0.058453     48.000000
 -0.146239  0.135224  0.058453     48.000000
 -0.131241  0.129921  0.058453     48.000000
 -0.116242  0.124619  0.058453     48.000000
 -0.101243  0.119316  0.058453     48.000000
  0.093743  0.066286  0.058453     24.000000
  0.108742  0.060984  0.058453     48.000000
 -0.176237  0.161739  0.058453     48.000000
 -0.161238  0.156436  0.058453     48.000000
 -0.146239  0.151133  0.058453     48.000000
 -0.131241  0.145830  0.058453     48.000000
 -0.116242  0.140527  0.058453     48.000000
 -0.101243  0.135224  0.058453     48.000000
  0.108742  0.076892  0.058453     24.000000
 -0.176237  0.177648  0.058453     48.000000
 -0.161238  0.172345  0.058453     48.000000
 -0.146239  0.167042  0.058453     48.000000
 -0.131241  0.161739  0.058453     48.000000
 -0.116242  0.156436  0.058453     48.000000
 -0.101243  0.151133  0.058453     48.000000
 -0.176237 -0.124619  0.058453     24.000000
 -0.161238 -0.129921  0.058453     48.000000
 -0.146239 -0.135224  0.058453     48.000000
 -0.131241 -0.140527  0.058453     48.000000
 -0.116242 -0.145830  0.058453     48.000000
 -0.161238 -0.114013  0.058453     24.000000
 -0.146239 -0.119316  0.058453     48.000000
 -0.131241 -0.124619  0.058453     48.000000
 -0.116242 -0.129921  0.058453     48.000000
 -0.146239 -0.103407  0.058453     24.000000
 -0.131241 -0.108710  0.058453     48.000000
 -0.116242 -0.114013  0.058453     48.000000
 -0.131241 -0.092801  0.058453     24.000000
 -0.116242 -0.098104  0.058453     48.000000
 -0.116242 -0.082195  0.058453     24.000000
  0.041247  0.029166  0.071442      8.000000
  0.056246  0.023863  0.071442     24.000000
  0.071245  0.018560  0.071442     24.000000
  0.086244  0.013257  0.071442     24.000000
  0.101243  0.007954  0.071442     24.000000
 -0.183737  0.108710  0.071442     24.000000
 -0.168738  0.103407  0.071442     24.000000
 -0.153739  0.098104  0.071442     24.000000
 -0.138740  0.092801  0.071442     24.000000
 -0.123741  0.087498  0.071442     24.000000
  0.056246  0.039772  0.071442     24.000000
  0.071245  0.034469  0.071442     48.000000
  0.086244  0.029166  0.071442     48.000000
  0.101243  0.023863  0.071442     48.000000
 -0.183737  0.124619  0.071442     48.000000
 -0.168738  0.119316  0.071442     48.000000
 -0.153739  0.114013  0.071442     48.000000
 -0.138740  0.108710  0.071442     48.000000
 -0.123741  0.103407  0.071442     48.000000
  0.071245  0.050378  0.071442     24.000000
  0.086244  0.045075  0.071442     48.000000
  0.101243  0.039772  0.071442     48.000000
 -0.183737  0.140527  0.071442     48.000000
 -0.168738  0.135224  0.071442     48.000000
 -0.153739  0.129921  0.071442     48.000000
 -0.138740  0.124619  0.071442     48.000000
 -0.123741  0.119316  0.071442     48.000000
  0.086244  0.060984  0.071442     24.000000
  0.101243  0.055681  0.071442     48.000000
 -0.183737  0.156436  0.071442     48.000000
 -0.168738  0.151133  0.071442     48.000000
 -0.153739  0.145830  0.071442     48.000000
 -0.138740  0.140527  0.071442     48.000000
 -0.123741  0.135224  0.071442     48.000000
  0.101243  0.071589  0.071442     24.000000
 -0.183737  0.172345  0.071442     48.000000
 -0.168738  0.167042  0.071442     48.000000
 -0.153739  0.161739  0.071442     48.000000
 -0.138740  0.156436  0.071442     48.000000
 -0.123741  0.151133  0.071442     48.000000
 -0.183737 -0.129921  0.071442     24.000000
 -0.168738 -0.135224  0.071442     48.000000
 -0.153739 -0.140527  0.071442     48.000000
 -0.138740 -0.145830  0.071442     48.000000
 -0.168738 -0.119316  0.071442     24.000000
 -0.153739 -0.124619  0.071442     48.000000
 -0.138740 -0.129921  0.071442     48.000000
 -0.153739 -0.108710  0.071442     24.000000
 -0.138740 -0.114013  0.071442     48.000000
 -0.138740 -0.098104  0.071442     24.000000
  0.048746  0.034469  0.084431      8.000000
  0.063745  0.029166  0.084431     24.000000
  0.078744  0.023863  0.084431     24.000000
  0.093743  0.018560  0.084431     24.000000
 -0.191236  0.119316  0.084431     24.000000
 -0.176237  0.114013  0.084431     24.000000
 -0.161238  0.108710  0.084431     24.000000
 -0.146239  0.103407  0.084431     24.000000
  0.063745  0.045075  0.084431     24.000000
  0.078744  0.039772  0.084431     48.000000
  0.093743  0.034469  0.084431     48.000000
 -0.191236  0.135224  0.084431     48.000000
 -0.176237  0.129921  0.084431     48.000000
 -0.161238  0.124619  0.084431     48.000000
 -0.146239  0.119316  0.084431     48.000000
  0.078744  0.055681  0.084431     24.000000
  0.093743  0.050378  0.084431     48.000000
 -0.191236  0.151133  0.084431     48.000000
 -0.176237  0.145830  0.084431     48.000000
 -0.161238  0.140527  0.084431     48.000000
 -0.146239  0.135224  0.084431     48.000000
  0.093743  0.066286  0.084431     24.000000
 -0.191236  0.167042  0.084431     48.000000
 -0.176237  0.161739  0.084431     48.000000
 -0.161238  0.156436  0.084431     48.000000
 -0.146239  0.151133  0.084431     48.000000
 -0.191236 -0.135224  0.084431     24.000000
 -0.176237 -0.140527  0.084431     48.000000
 -0.161238 -0.145830  0.084431     48.000000
 -0.176237 -0.124619  0.084431     24.000000
 -0.161238 -0.129921  0.084431     48.000000
 -0.161238 -0.114013  0.084431     24.000000
  0.056246  0.039772  0.097421      8.000000
  0.071245  0.034469  0.097421     24.000000
  0.086244  0.029166  0.097421     24.000000
 -0.198736  0.129921  0.097421     24.000000
 -0.183737  0.124619  0.097421     24.000000
 -0.168738  0.119316  0.097421     24.000000
  0.071245  0.050378  0.097421     24.000000
  0.086244  0.045075  0.097421     48.000000
 -0.198736  0.145830  0.097421     48.000000
 -0.183737  0.140527  0.097421     48.000000
 -0.168738  0.135224  0.097421     48.000000
  0.086244  0.060984  0.097421     24.000000
 -0.198736  0.161739  0.097421     48.000000
 -0.183737  0.156436  0.097421     48.000000
 -0.168738  0.151133  0.097421     48.000000
 -0.198736 -0.140527  0.097421     24.000000
 -0.183737 -0.145830  0.097421     48.000000
 -0.183737 -0.129921  0.097421     24.000000
  0.063745  0.045075  0.110410      8.000000
  0.078744  0.039772  0.110410     24.000000
 -0.206235  0.140527  0.110410     24.000000
 -0.191236  0.135224  0.110410     24.000000
  0.078744  0.055681  0.110410     24.000000
 -0.206235  0.156436  0.110410     48.000000
 -0.191236  0.151133  0.110410     48.000000
 -0.206235 -0.145830  0.110410     24.000000
  0.071245  0.050378  0.123400      8.000000
 -0.213735  0.151133  0.123400     24.000000
 


--------------------------------------------------------------------------------------------------------




 Dimension of arrays:
   k-points           NKPTS =    770   k-points in BZ     NKDIM =    770   number of bands    NBANDS=      8
[...]
      8      12.4363      0.00000

 k-point   736 :      -0.3250    0.4750    0.3250
  band No.  band energies     occupation 
      1      -2.8991      2.00000
      2      -1.1985      2.00000
      3       1.6123      2.00000
      4       2.8452      2.00000
      5       8.7025      0.00000
      6       9.6286      0.00000
      7      11.4927      0.00000
      8      11.9197      0.00000

 k-point   737 :      -0.4750   -0.4750    0.3250
  band No.  band energies     occupation 
      1      -3.5514      2.00000
      2      -0.9789      2.00000
      3       2.4484      2.00000
      4       3.7504      2.00000
      5       7.5094      0.00000
      6      10.2327      0.00000
      7      10.6244      0.00000
      8      11.6762      0.00000

 k-point   738 :      -0.4250   -0.4750    0.3250
  band No.  band energies     occupation 
      1      -3.3544      2.00000
      2      -1.0532      2.00000
      3       2.1004      2.00000
      4       3.5756      2.00000
      5       7.6003      0.00000
      6      10.1661      0.00000
      7      11.3818      0.00000
      8      11.6082      0.00000

 k-point   739 :      -0.3750   -0.4750    0.3250
  band No.  band energies     occupation 
      1      -3.1350      2.00000
      2      -1.1138      2.00000
      3       1.7992      2.00000
      4       3.2411      2.00000
      5       8.0379      0.00000
      6       9.8968      0.00000
      7      11.5591      0.00000
      8      12.3740      0.00000

 k-point   740 :      -0.4250   -0.4250    0.3250
  band No.  band energies     occupation 
      1      -3.2171      2.00000
      2      -1.1055      2.00000
      3       1.8288      2.00000
      4       3.6144      2.00000
      5       7.3166      0.00000
      6      11.0229      0.00000
      7      11.2414      0.00000
      8      11.5695      0.00000

 k-point   741 :      -0.3750   -0.4250    0.3250
  band No.  band energies     occupation 
      1      -3.0673      2.00000
      2      -1.1369      2.00000
      3       1.5925      2.00000
      4       3.4446      2.00000
      5       7.4477      0.00000
      6      10.8467      0.00000
      7      11.4747      0.00000
      8      12.2196      0.00000

 k-point   742 :      -0.3750   -0.3750    0.3250
  band No.  band energies     occupation 
      1      -2.9977      2.00000
      2      -1.1418      2.00000
      3       1.4103      2.00000
      4       3.5367      2.00000
      5       7.2002      0.00000
      6      11.2523      0.00000
      7      11.8725      0.00000
      8      12.1409      0.00000

 k-point   743 :       0.3750    0.3750    0.3750
  band No.  band energies     occupation 
      1      -4.5361      2.00000
      2      -0.2501      2.00000
      3       4.5547      2.00000
      4       4.5547      2.00000
      5       7.2212      0.00000
      6       9.0788      0.00000
      7       9.0788      0.00000
      8      13.4639      0.00000

 k-point   744 :       0.4250    0.3750    0.3750
  band No.  band energies     occupation 
      1      -4.3859      2.00000
      2      -0.4529      2.00000
      3       4.1840      2.00000
      4       4.5758      2.00000
      5       7.4166      0.00000
      6       9.0620      0.00000
      7       9.1150      0.00000
      8      13.4122      0.00000

 k-point   745 :       0.4750    0.3750    0.3750
  band No.  band energies     occupation 
      1      -4.1848      2.00000
      2      -0.6120      2.00000
      3       3.5478      2.00000
      4       4.4704      2.00000
      5       7.8153      0.00000
      6       9.1277      0.00000
      7       9.2919      0.00000
      8      13.4373      0.00000

 k-point   746 :      -0.4750    0.3750    0.3750
  band No.  band energies     occupation 
      1      -3.9378      2.00000
      2      -0.7327      2.00000
      3       2.8571      2.00000
      4       4.2719      2.00000
      5       7.9538      0.00000
      6       9.4597      0.00000
      7       9.7352      0.00000
      8      13.4682      0.00000

 k-point   747 :      -0.4250    0.3750    0.3750
  band No.  band energies     occupation 
      1      -3.6511      2.00000
      2      -0.8335      2.00000
      3       2.2185      2.00000
      4       4.0269      2.00000
      5       7.7652      0.00000
      6      10.1709      0.00000
      7      10.3430      0.00000
      8      13.4329      0.00000

 k-point   748 :      -0.3750    0.3750    0.3750
  band No.  band energies     occupation 
      1      -3.3334      2.00000
      2      -0.9526      2.00000
      3       1.7106      2.00000
      4       3.7734      2.00000
      5       7.4807      0.00000
      6      11.0296      0.00000
      7      11.0702      0.00000
      8      12.5122      0.00000

 k-point   749 :       0.4250    0.4250    0.3750
  band No.  band energies     occupation 
      1      -4.2678      2.00000
      2      -0.6515      2.00000
      3       4.3309      2.00000
      4       4.3702      2.00000
      5       7.3953      0.00000
      6       8.9169      0.00000
      7       9.2292      0.00000
      8      13.2948      0.00000

 k-point   750 :       0.4750    0.4250    0.3750
  band No.  band energies     occupation 
      1      -4.1016      2.00000
      2      -0.8022      2.00000
      3       3.8151      2.00000
      4       4.3503      2.00000
      5       7.7037      0.00000
      6       8.8818      0.00000
      7       9.4029      0.00000
      8      13.2298      0.00000

 k-point   751 :      -0.4750    0.4250    0.3750
  band No.  band energies     occupation 
      1      -3.8921      2.00000
      2      -0.9051      2.00000
      3       3.1689      2.00000
      4       4.1977      2.00000
      5       8.0436      0.00000
      6       8.9030      0.00000
      7       9.8372      0.00000
      8      13.2082      0.00000

 k-point   752 :      -0.4250    0.4250    0.3750
  band No.  band energies     occupation 
      1      -3.6454      2.00000
      2      -0.9718      2.00000
      3       2.5286      2.00000
      4       3.9624      2.00000
      5       8.0025      0.00000
      6       9.3343      0.00000
      7      10.5012      0.00000
      8      13.1884      0.00000

 k-point   753 :      -0.3750    0.4250    0.3750
  band No.  band energies     occupation 
      1      -3.3681      2.00000
      2      -1.0313      2.00000
      3       1.9765      2.00000
      4       3.6994      2.00000
      5       7.7375      0.00000
      6      10.0571      0.00000
      7      11.3039      0.00000
      8      12.5666      0.00000

 k-point   754 :       0.4750    0.4750    0.3750
  band No.  band energies     occupation 
      1      -3.9744      2.00000
      2      -0.9426      2.00000
      3       3.7320      2.00000
      4       4.1804      2.00000
      5       7.7336      0.00000
      6       8.9293      0.00000
      7       9.5235      0.00000
      8      13.0534      0.00000

 k-point   755 :      -0.4750    0.4750    0.3750
  band No.  band energies     occupation 
      1      -3.8085      2.00000
      2      -1.0290      2.00000
      3       3.2635      2.00000
      4       4.0634      2.00000
      5       7.9525      0.00000
      6       8.9260      0.00000
      7       9.9033      0.00000
      8      12.9674      0.00000

 k-point   756 :      -0.4250    0.4750    0.3750
  band No.  band energies     occupation 
      1      -3.6099      2.00000
      2      -1.0676      2.00000
      3       2.7135      2.00000
      4       3.8349      2.00000
      5       8.3604      0.00000
      6       8.7512      0.00000
      7      10.6048      0.00000
      8      12.9266      0.00000

 k-point   757 :      -0.3750    0.4750    0.3750
  band No.  band energies     occupation 
      1      -3.3841      2.00000
      2      -1.0803      2.00000
      3       2.1979      2.00000
      4       3.5410      2.00000
      5       8.3260      0.00000
      6       9.1356      0.00000
      7      11.4549      0.00000
      8      12.6650      0.00000

 k-point   758 :      -0.4750   -0.4750    0.3750
  band No.  band energies     occupation 
      1      -3.6926      2.00000
      2      -1.0952      2.00000
      3       3.0110      2.00000
      4       4.0070      2.00000
      5       7.7606      0.00000
      6       9.4149      0.00000
      7       9.9457      0.00000
      8      12.8202      0.00000

 k-point   759 :      -0.4250   -0.4750    0.3750
  band No.  band energies     occupation 
      1      -3.5499      2.00000
      2      -1.1063      2.00000
      3       2.6055      2.00000
      4       3.8470      2.00000
      5       7.8833      0.00000
      6       9.4020      0.00000
      7      10.5567      0.00000
      8      12.7417      0.00000

 k-point   760 :      -0.4250   -0.4250    0.3750
  band No.  band energies     occupation 
      1      -3.4689      2.00000
      2      -1.0885      2.00000
      3       2.3018      2.00000
      4       3.8674      2.00000
      5       7.6132      0.00000
      6      10.1849      0.00000
      7      10.4750      0.00000
      8      12.6322      0.00000

 k-point   761 :       0.4250    0.4250    0.4250
  band No.  band energies     occupation 
      1      -4.1863      2.00000
      2      -0.8419      2.00000
      3       4.4840      2.00000
      4       4.4840      2.00000
      5       7.1394      0.00000
      6       9.0171      0.00000
      7       9.0171      0.00000
      8      13.3912      0.00000

 k-point   762 :       0.4750    0.4250    0.4250
  band No.  band energies     occupation 
      1      -4.0603      2.00000
      2      -0.9793      2.00000
      3       4.1628      2.00000
      4       4.4711      2.00000
      5       7.3512      0.00000
      6       9.0140      0.00000
      7       9.0550      0.00000
      8      13.4637      0.00000

 k-point   763 :      -0.4750    0.4250    0.4250
  band No.  band energies     occupation 
      1      -3.8951      2.00000
      2      -1.0598      2.00000
      3       3.5651      2.00000
      4       4.3364      2.00000
      5       7.7502      0.00000
      6       9.0213      0.00000
      7       9.3387      0.00000
      8      13.7058      0.00000

 k-point   764 :      -0.4250    0.4250    0.4250
  band No.  band energies     occupation 
      1      -3.6962      2.00000
      2      -1.0890      2.00000
      3       2.9080      2.00000
      4       4.1198      2.00000
      5       7.8369      0.00000
      6       9.4169      0.00000
      7       9.8277      0.00000
      8      13.6797      0.00000

 k-point   765 :       0.4750    0.4750    0.4250
  band No.  band energies     occupation 
      1      -3.9795      2.00000
      2      -1.1006      2.00000
      3       4.2381      2.00000
      4       4.3662      2.00000
      5       7.3406      0.00000
      6       8.9118      0.00000
      7       9.1376      0.00000
      8      13.4293      0.00000

 k-point   766 :      -0.4750    0.4750    0.4250
  band No.  band energies     occupation 
      1      -3.8646      2.00000
      2      -1.1583      2.00000
      3       3.7936      2.00000
      4       4.2922      2.00000
      5       7.6652      0.00000
      6       8.8590      0.00000
      7       9.3521      0.00000
      8      13.5809      0.00000

 k-point   767 :      -0.4250    0.4750    0.4250
  band No.  band energies     occupation 
      1      -3.7202      2.00000
      2      -1.1547      2.00000
      3       3.1997      2.00000
      4       4.1031      2.00000
      5       7.9814      0.00000
      6       8.8950      0.00000
      7       9.8511      0.00000
      8      13.6765      0.00000

 k-point   768 :      -0.4750   -0.4750    0.4250
  band No.  band energies     occupation 
      1      -3.8053      2.00000
      2      -1.1898      2.00000
      3       3.6275      2.00000
      4       4.2385      2.00000
      5       7.7227      0.00000
      6       8.9538      0.00000
      7       9.4149      0.00000
      8      13.5912      0.00000

 k-point   769 :       0.4750    0.4750    0.4750
  band No.  band energies     occupation 
      1      -3.9504      2.00000
      2      -1.1995      2.00000
      3       4.4485      2.00000
      4       4.4485      2.00000
      5       7.0984      0.00000
      6       8.9800      0.00000
      7       8.9800      0.00000
      8      13.3354      0.00000

 k-point   770 :      -0.4750    0.4750    0.4750
  band No.  band energies     occupation 
      1      -3.8913      2.00000
      2      -1.2291      2.00000
      3       4.1813      2.00000
      4       4.4005      2.00000
      5       7.3257      0.00000
      6       8.9431      0.00000
      7       9.0778      0.00000
      8      13.4483      0.00000


--------------------------------------------------------------------------------------------------------


 soft charge-density along one line, spin component           1
         0         1         2         3         4         5         6         7         8         9
 total charge-density along one line
 
 pseudopotential strength for first ion, spin component:           1
 18.437  25.722   0.000  -0.000   0.000   0.000  -0.000   0.000
 25.722  35.892   0.000  -0.000   0.000   0.000  -0.000   0.000
  0.000   0.000   4.181  -0.000  -0.000   7.791  -0.000  -0.000
 -0.000  -0.000  -0.000   4.181  -0.000  -0.000   7.791  -0.000
  0.000   0.000  -0.000  -0.000   4.181  -0.000  -0.000   7.791
  0.000   0.000   7.791  -0.000  -0.000  14.528  -0.000  -0.000
 -0.000  -0.000  -0.000   7.791  -0.000  -0.000  14.528  -0.000
  0.000   0.000  -0.000  -0.000   7.791  -0.000  -0.000  14.528
 total augmentation occupancy for first ion, spin component:           1
  5.531  -2.065   0.000   0.000   0.000   0.000  -0.000   0.000
 -2.065   0.887   0.000  -0.000   0.000  -0.000  -0.000  -0.000
 -0.000   0.000   2.942  -0.000   0.000  -0.663   0.000  -0.000
  0.000   0.000  -0.000   2.942  -0.000   0.000  -0.663   0.000
  0.000   0.000   0.000  -0.000   2.942  -0.000   0.000  -0.663
  0.000  -0.000  -0.663   0.000  -0.000   0.158  -0.000   0.000
 -0.000  -0.000   0.000  -0.663   0.000  -0.000   0.158  -0.000
  0.000  -0.000  -0.000   0.000  -0.663   0.000  -0.000   0.158


------------------------ aborting loop because EDIFF is reached ----------------------------------------


    CHARGE:  cpu time    0.3919: real time    0.3930
    FORLOC:  cpu time    0.0010: real time    0.0017
    FORNL :  cpu time    0.3279: real time    0.3280
    STRESS:  cpu time    4.6833: real time    4.6845
    FORCOR:  cpu time    0.0300: real time    0.0311
    FORHAR:  cpu time    0.0060: real time    0.0060
    MIXING:  cpu time    0.0010: real time    0.0012
    OFIELD:  cpu time    0.0010: real time    0.0002

  FORCE on cell =-STRESS in cart. coord.  units (eV):
  Direction    XX          YY          ZZ          XY          YZ          ZX
  --------------------------------------------------------------------------------------
  Alpha Z     3.29544     3.29544     3.29544
  Ewald     -75.66559   -75.66566   -75.66558     0.00001    -0.00000    -0.00000
  Hartree     5.05398     5.05398     5.05398     0.00000     0.00000     0.00000
  E(xc)     -25.25216   -25.25216   -25.25216    -0.00000    -0.00000    -0.00000
  Local     -29.52422   -29.52421   -29.52421    -0.00000     0.00001     0.00001
  n-local    75.15252    77.49504    79.81791    -1.11365    -1.39576     0.09766
  augment   -11.64880   -11.64880   -11.64881    -0.00000    -0.00001    -0.00001
  Kinetic    54.78577    56.26163    57.71662    -0.14662     0.53088    -1.15862
  Fock        0.00000     0.00000     0.00000     0.00000     0.00000     0.00000
  -------------------------------------------------------------------------------------
  Total       0.00179     0.00179     0.00179    -0.00000     0.00000     0.00000
  in kB       0.07028     0.07028     0.07028    -0.00000     0.00000     0.00000
  external pressure =        0.07 kB  Pullay stress =        0.00 kB


 VOLUME and BASIS-vectors are now :
 -----------------------------------------------------------------------------
  energy-cutoff  :      350.00
  volume of cell :       40.86
      direct lattice vectors                 reciprocal lattice vectors
     3.348133351 -0.000000000  1.933045419     0.298673886 -0.105597123 -0.000000000
     1.116044450  3.156651647  1.933045419     0.000000000  0.316791370  0.000000000
     0.000000000 -0.000000000  3.866090838    -0.149336943 -0.105597123  0.258659209

  length of vectors
     3.866091247  3.866092268  3.866090838     0.316791482  0.316791370  0.316791511


 FORCES acting on ions
    electron-ion (+dipol)            ewald-force                    non-local-force                 convergence-correction
 -----------------------------------------------------------------------------------------------
   0.525E-05 0.245E-04 0.591E-07   -.892E-05 -.418E-04 0.952E-14   -.542E-17 0.993E-17 0.278E-16   -.460E-07 -.323E-07 -.797E-07
   -.525E-05 -.245E-04 -.591E-07   0.892E-05 0.418E-04 -.950E-14   0.391E-17 -.993E-17 0.694E-17   0.460E-07 0.323E-07 0.797E-07
 -----------------------------------------------------------------------------------------------
   0.760E-13 -.395E-13 0.116E-12   -.323E-15 0.504E-16 0.149E-16   -.151E-17 0.200E-28 0.347E-16   -.278E-15 -.184E-15 -.182E-15
 
 
 POSITION                                       TOTAL-FORCE (eV/Angst)
 -----------------------------------------------------------------------------------
      3.90616      2.76207      6.76566        -0.000000      0.000000      0.000000
      0.55802      0.39458      0.96652         0.000000     -0.000000     -0.000000
 -----------------------------------------------------------------------------------
    total drift:                                0.000000     -0.000000      0.000000


--------------------------------------------------------------------------------------------------------



  FREE ENERGIE OF THE ION-ELECTRON SYSTEM (eV)
  ---------------------------------------------------
  free  energy   TOTEN  =       -10.84766486 eV

  energy  without entropy=      -10.84766486  energy(sigma->0) =      -10.84766486
 
 d Force = 0.0000000E+00[ 0.000E+00, 0.000E+00]  d Energy = 0.8992313E-03-0.899E-03
 d Force = 0.0000000E+00[ 0.000E+00, 0.000E+00]  d Ewald  = 0.6762874E+00-0.676E+00


--------------------------------------------------------------------------------------------------------


    POTLOK:  cpu time    0.2050: real time    0.2113


--------------------------------------------------------------------------------------------------------




--------------------------------------------------------------------------------------------------------


  
 reached required accuracy - stopping structural energy minimisation
     LOOP+:  cpu time   51.4532: real time   52.1200
    4ORBIT:  cpu time    0.0000: real time    0.0000

 total amount of memory used by VASP MPI-rank0    81760. kBytes
=======================================================================

   base      :      30000. kBytes
   nonl-proj :      30178. kBytes
   fftplans  :       4177. kBytes
   grid      :       1926. kBytes
   one-center:          6. kBytes
   wavefun   :      15473. kBytes
 
  
  
 General timing and accounting informations for this job:
 ========================================================
  
                  Total CPU time used (sec):      241.206
                            User time (sec):      238.813
                          System time (sec):        2.394
                         Elapsed time (sec):      245.671
  
                   Maximum memory used (kb):      119892.
                   Average memory used (kb):          N/A
  
                          Minor page faults:        18611
                          Major page faults:            1
                 Voluntary context switches:       101700
