   1   1   0   0
  0.1408159E+02  0.2710538E-09  0.2710538E-09  0.2710538E-09  0.5000000E-15
  1.000000000000000E-004
  CAR 
 unknown system                          
     38.10787811     -6.30038326  301     10.01806029      1.00000000
     -6.300  0.0000E+00  0.0000E+00
     -6.152  0.0000E+00  0.0000E+00
     -6.004  0.0000E+00  0.0000E+00
     -5.856  0.0000E+00  0.0000E+00
     -5.708  0.0000E+00  0.0000E+00
     -5.560  0.0000E+00  0.0000E+00
     -5.412  0.0000E+00  0.0000E+00
     -5.264  0.0000E+00  0.0000E+00
     -5.116  0.0000E+00  0.0000E+00
     -4.968  0.0000E+00  0.0000E+00
     -4.820  0.0000E+00  0.0000E+00
     -4.672  0.0000E+00  0.0000E+00
     -4.524  0.3717E-15  0.5502E-16
     -4.376  0.3915E-06  0.5795E-07
     -4.228  0.9463E-04  0.1407E-04
     -4.080  0.1168E-03  0.3135E-04
     -3.932  0.1184E-02  0.2066E-03
     -3.784  0.1268E-03  0.2254E-03
     -3.636  0.6707E-03  0.3247E-03
     -3.488  0.5636E-03  0.4081E-03
     -3.340  0.2552E-02  0.7858E-03
     -3.192  0.6804E-03  0.8865E-03
     -3.044  0.6810E-04  0.8966E-03
     -2.896  0.5403E-03  0.9766E-03
     -2.748  0.1674E-02  0.1224E-02
     -2.600  0.3175E-02  0.1694E-02
     -2.452  0.4013E-04  0.1700E-02
     -2.304  0.2312E-02  0.2043E-02
     -2.156  0.7355E-03  0.2151E-02
     -2.008  0.2619E-02  0.2539E-02
     -1.860  0.1589E-05  0.2539E-02
     -1.712  0.8339E-03  0.2663E-02
     -1.564  0.4806E-03  0.2734E-02
     -1.415  0.6097E-02  0.3637E-02
     -1.267  0.1725E-02  0.3892E-02
     -1.119  0.5836E-03  0.3978E-02
     -0.971  0.1854E-02  0.4253E-02
     -0.823  0.2321E-02  0.4596E-02
     -0.675  0.2546E-02  0.4973E-02
     -0.527  0.4010E-04  0.4979E-02
     -0.379  0.7708E-03  0.5093E-02
     -0.231  0.2268E-02  0.5429E-02
     -0.083  0.4972E-02  0.6165E-02
      0.065  0.8773E-04  0.6178E-02
      0.213  0.4471E-02  0.6840E-02
      0.361  0.1423E-02  0.7050E-02
      0.509  0.6267E-02  0.7978E-02
      0.657  0.7022E-05  0.7979E-02
      0.805  0.3779E-03  0.8035E-02
      0.953  0.2888E-03  0.8078E-02
      1.101  0.4820E-02  0.8791E-02
      1.249  0.2431E-02  0.9151E-02
      1.397  0.1082E-02  0.9311E-02
      1.545  0.2590E-02  0.9695E-02
      1.693  0.5705E-02  0.1054E-01
      1.841  0.2397E-02  0.1089E-01
      1.989  0.2021E-03  0.1092E-01
      2.137  0.2232E-02  0.1125E-01
      2.285  0.5903E-02  0.1213E-01
      2.433  0.6255E-02  0.1305E-01
      2.581  0.1544E-02  0.1328E-01
      2.729  0.9186E-03  0.1342E-01
      2.877  0.1861E-02  0.1369E-01
      3.025  0.3011E-02  0.1414E-01
      3.173  0.6248E-03  0.1423E-01
      3.321  0.1811E-02  0.1450E-01
      3.469  0.1325E-02  0.1470E-01
      3.617  0.6866E-02  0.1571E-01
      3.765  0.2463E-02  0.1608E-01
      3.914  0.6655E-02  0.1706E-01
      4.062  0.8672E-03  0.1719E-01
      4.210  0.6741E-02  0.1819E-01
      4.358  0.3296E-02  0.1868E-01
      4.506  0.7030E-05  0.1868E-01
      4.654  0.2162E-06  0.1868E-01
      4.802  0.2242E-02  0.1901E-01
      4.950  0.1020E-01  0.2052E-01
      5.098  0.5526E-02  0.2134E-01
      5.246  0.2997E-03  0.2138E-01
      5.394  0.9503E-03  0.2152E-01
      5.542  0.1940E-02  0.2181E-01
      5.690  0.3054E-02  0.2226E-01
      5.838  0.1062E-02  0.2242E-01
      5.986  0.1913E-02  0.2270E-01
      6.134  0.1050E-01  0.2426E-01
      6.282  0.3320E-02  0.2475E-01
      6.430  0.4696E-02  0.2544E-01
      6.578  0.1718E-02  0.2570E-01
      6.726  0.8635E-02  0.2698E-01
      6.874  0.2397E-02  0.2733E-01
      7.022  0.2145E-02  0.2765E-01
      7.170  0.1212E-02  0.2783E-01
      7.318  0.2388E-02  0.2818E-01
      7.466  0.4210E-02  0.2881E-01
      7.614  0.6756E-02  0.2981E-01
      7.762  0.3080E-02  0.3026E-01
      7.910  0.4763E-02  0.3097E-01
      8.058  0.3836E-04  0.3097E-01
      8.206  0.2323E-02  0.3132E-01
      8.354  0.1892E-02  0.3160E-01
      8.502  0.3232E-02  0.3207E-01
      8.650  0.1288E-01  0.3398E-01
      8.798  0.5227E-02  0.3475E-01
      8.946  0.3453E-03  0.3481E-01
      9.094  0.6248E-02  0.3573E-01
      9.243  0.3001E-02  0.3617E-01
      9.391  0.1613E-03  0.3620E-01
      9.539  0.2822E-02  0.3662E-01
      9.687  0.8400E-02  0.3786E-01
      9.835  0.7073E-02  0.3891E-01
      9.983  0.5419E-02  0.3971E-01
     10.131  0.4361E-02  0.4035E-01
     10.279  0.3125E-02  0.4082E-01
     10.427  0.3793E-02  0.4138E-01
     10.575  0.6107E-03  0.4147E-01
     10.723  0.5321E-03  0.4155E-01
     10.871  0.1334E-03  0.4157E-01
     11.019  0.7810E-02  0.4272E-01
     11.167  0.1190E-01  0.4449E-01
     11.315  0.3695E-02  0.4503E-01
     11.463  0.5943E-02  0.4591E-01
     11.611  0.5985E-02  0.4680E-01
     11.759  0.5959E-03  0.4689E-01
     11.907  0.4655E-02  0.4758E-01
     12.055  0.2500E-02  0.4795E-01
     12.203  0.6583E-02  0.4892E-01
     12.351  0.8824E-02  0.5023E-01
     12.499  0.4238E-02  0.5085E-01
     12.647  0.5904E-02  0.5173E-01
     12.795  0.4807E-02  0.5244E-01
     12.943  0.5097E-02  0.5319E-01
     13.091  0.1117E-02  0.5336E-01
     13.239  0.4637E-02  0.5405E-01
     13.387  0.8312E-02  0.5528E-01
     13.535  0.4122E-02  0.5589E-01
     13.683  0.2841E-02  0.5631E-01
     13.831  0.4514E-02  0.5697E-01
     13.979  0.9809E-02  0.5843E-01
     14.127  0.3526E-02  0.5895E-01
     14.275  0.3711E-02  0.5950E-01
     14.423  0.8979E-02  0.6083E-01
     14.571  0.8254E-02  0.6205E-01
     14.720  0.6001E-02  0.6294E-01
     14.868  0.5961E-03  0.6302E-01
     15.016  0.6718E-02  0.6402E-01
     15.164  0.3852E-02  0.6459E-01
     15.312  0.8647E-03  0.6472E-01
     15.460  0.2102E-03  0.6475E-01
     15.608  0.5213E-02  0.6552E-01
     15.756  0.1412E-01  0.6761E-01
     15.904  0.2025E-02  0.6791E-01
     16.052  0.8158E-02  0.6912E-01
     16.200  0.2105E-02  0.6943E-01
     16.348  0.3784E-02  0.6999E-01
     16.496  0.7059E-02  0.7103E-01
     16.644  0.2404E-02  0.7139E-01
     16.792  0.4484E-02  0.7205E-01
     16.940  0.3316E-02  0.7254E-01
     17.088  0.6539E-02  0.7351E-01
     17.236  0.8009E-02  0.7470E-01
     17.384  0.6956E-02  0.7573E-01
     17.532  0.2398E-02  0.7608E-01
     17.680  0.8765E-03  0.7621E-01
     17.828  0.3916E-02  0.7679E-01
     17.976  0.2442E-02  0.7715E-01
     18.124  0.4593E-02  0.7783E-01
     18.272  0.5683E-02  0.7868E-01
     18.420  0.1071E-01  0.8026E-01
     18.568  0.1769E-02  0.8052E-01
     18.716  0.7612E-02  0.8165E-01
     18.864  0.6774E-02  0.8265E-01
     19.012  0.1144E-01  0.8435E-01
     19.160  0.1945E-02  0.8463E-01
     19.308  0.1689E-02  0.8488E-01
     19.456  0.1335E-02  0.8508E-01
     19.604  0.8399E-02  0.8632E-01
     19.752  0.1206E-01  0.8811E-01
     19.900  0.8703E-02  0.8940E-01
     20.049  0.3151E-02  0.8986E-01
     20.197  0.6605E-02  0.9084E-01
     20.345  0.7480E-03  0.9095E-01
     20.493  0.3386E-02  0.9145E-01
     20.641  0.3862E-02  0.9203E-01
     20.789  0.7334E-02  0.9311E-01
     20.937  0.2463E-02  0.9348E-01
     21.085  0.1448E-02  0.9369E-01
     21.233  0.1441E-01  0.9582E-01
     21.381  0.1071E-01  0.9741E-01
     21.529  0.3817E-02  0.9797E-01
     21.677  0.3253E-02  0.9845E-01
     21.825  0.5940E-02  0.9933E-01
     21.973  0.6137E-02  0.1002E+00
     22.121  0.3723E-02  0.1008E+00
     22.269  0.4990E-02  0.1015E+00
     22.417  0.8283E-02  0.1028E+00
     22.565  0.3784E-02  0.1033E+00
     22.713  0.4724E-02  0.1040E+00
     22.861  0.9733E-02  0.1055E+00
     23.009  0.1407E-01  0.1075E+00
     23.157  0.2607E-02  0.1079E+00
     23.305  0.5493E-02  0.1087E+00
     23.453  0.7143E-02  0.1098E+00
     23.601  0.7470E-02  0.1109E+00
     23.749  0.4307E-04  0.1109E+00
     23.897  0.1509E-02  0.1111E+00
     24.045  0.5656E-02  0.1120E+00
     24.193  0.9539E-02  0.1134E+00
     24.341  0.3820E-02  0.1139E+00
     24.489  0.1148E-01  0.1156E+00
     24.637  0.1250E-01  0.1175E+00
     24.785  0.2556E-02  0.1179E+00
     24.933  0.5790E-02  0.1187E+00
     25.081  0.1098E-01  0.1204E+00
     25.229  0.2363E-02  0.1207E+00
     25.378  0.5986E-02  0.1216E+00
     25.526  0.8811E-02  0.1229E+00
     25.674  0.6210E-02  0.1238E+00
     25.822  0.5759E-02  0.1247E+00
     25.970  0.2595E-02  0.1251E+00
     26.118  0.5984E-02  0.1259E+00
     26.266  0.2869E-02  0.1264E+00
     26.414  0.4722E-02  0.1271E+00
     26.562  0.1792E-01  0.1297E+00
     26.710  0.5715E-03  0.1298E+00
     26.858  0.4944E-02  0.1305E+00
     27.006  0.9807E-02  0.1320E+00
     27.154  0.8513E-02  0.1332E+00
     27.302  0.8047E-02  0.1344E+00
     27.450  0.2518E-02  0.1348E+00
     27.598  0.3521E-02  0.1353E+00
     27.746  0.5452E-02  0.1361E+00
     27.894  0.2580E-02  0.1365E+00
     28.042  0.1167E-01  0.1382E+00
     28.190  0.9684E-02  0.1397E+00
     28.338  0.2797E-02  0.1401E+00
     28.486  0.7719E-02  0.1412E+00
     28.634  0.3729E-02  0.1418E+00
     28.782  0.2320E-02  0.1421E+00
     28.930  0.4750E-02  0.1428E+00
     29.078  0.9172E-02  0.1442E+00
     29.226  0.4066E-02  0.1448E+00
     29.374  0.2524E-02  0.1452E+00
     29.522  0.4688E-02  0.1459E+00
     29.670  0.4154E-02  0.1465E+00
     29.818  0.4485E-05  0.1465E+00
     29.966  0.3719E-02  0.1470E+00
     30.114  0.6602E-02  0.1480E+00
     30.262  0.4300E-02  0.1486E+00
     30.410  0.2917E-02  0.1491E+00
     30.558  0.1336E-01  0.1511E+00
     30.707  0.5024E-02  0.1518E+00
     30.855  0.3060E-02  0.1522E+00
     31.003  0.5851E-02  0.1531E+00
     31.151  0.3785E-03  0.1532E+00
     31.299  0.5571E-02  0.1540E+00
     31.447  0.5192E-02  0.1548E+00
     31.595  0.3432E-02  0.1553E+00
     31.743  0.1950E-02  0.1556E+00
     31.891  0.7628E-03  0.1557E+00
     32.039  0.1000E-02  0.1558E+00
     32.187  0.1534E-02  0.1560E+00
     32.335  0.2321E-02  0.1564E+00
     32.483  0.2487E-03  0.1564E+00
     32.631  0.2309E-02  0.1568E+00
     32.779  0.2317E-02  0.1571E+00
     32.927  0.1566E-04  0.1571E+00
     33.075  0.3505E-04  0.1571E+00
     33.223  0.4258E-02  0.1578E+00
     33.371  0.1189E-02  0.1579E+00
     33.519  0.2990E-03  0.1580E+00
     33.667  0.2134E-02  0.1583E+00
     33.815  0.1490E-04  0.1583E+00
     33.963  0.2375E-02  0.1586E+00
     34.111  0.1722E-02  0.1589E+00
     34.259  0.1661E-03  0.1589E+00
     34.407  0.2423E-02  0.1593E+00
     34.555  0.2583E-02  0.1597E+00
     34.703  0.4642E-03  0.1597E+00
     34.851  0.1258E-06  0.1597E+00
     34.999  0.0000E+00  0.1597E+00
     35.147  0.0000E+00  0.1597E+00
     35.295  0.0000E+00  0.1597E+00
     35.443  0.1079E-08  0.1597E+00
     35.591  0.3377E-03  0.1598E+00
     35.739  0.8802E-03  0.1599E+00
     35.887  0.1969E-06  0.1599E+00
     36.035  0.3895E-04  0.1599E+00
     36.184  0.5678E-03  0.1600E+00
     36.332  0.2349E-05  0.1600E+00
     36.480  0.2230E-14  0.1600E+00
     36.628  0.0000E+00  0.1600E+00
     36.776  0.0000E+00  0.1600E+00
     36.924  0.0000E+00  0.1600E+00
     37.072  0.0000E+00  0.1600E+00
     37.220  0.0000E+00  0.1600E+00
     37.368  0.0000E+00  0.1600E+00
     37.516  0.0000E+00  0.1600E+00
     37.664  0.0000E+00  0.1600E+00
     37.812  0.0000E+00  0.1600E+00
     37.960  0.0000E+00  0.1600E+00
     38.108  0.0000E+00  0.1600E+00
