    1    1  100    1
  0.1408159E+02  0.2710538E-09  0.2710538E-09  0.2710538E-09  0.5000000E-15
  1.000000000000000E-004
  CAR 
 unknown system                          
      4     56      8
 
  0.0000000E+00  0.0000000E+00  0.0000000E+00  0.7513148E-03
    1       -4.281826   1.000000
    2       21.326182   0.000000
    3       21.326189   0.000000
    4       21.326198   0.000000
    5       22.141603   0.000000
    6       22.141611   0.000000
    7       22.141620   0.000000
    8       27.452428   0.000000
 
  0.9090909E-01  0.0000000E+00  0.0000000E+00  0.6010518E-02
    1       -4.041060   1.000000
    2       18.173329   0.000000
    3       20.369107   0.000000
    4       20.369119   0.000000
    5       23.354585   0.000000
    6       23.374915   0.000000
    7       23.374929   0.000000
    8       27.978407   0.000000
 
  0.1818182E+00 -0.6938894E-17  0.0000000E+00  0.6010518E-02
    1       -3.320525   1.000000
    2       14.289233   0.000000
    3       19.461550   0.000000
    4       19.461560   0.000000
    5       23.412034   0.000000
    6       24.367319   0.000000
    7       24.367331   0.000000
    8       27.120842   0.000000
 
  0.2727273E+00 -0.2775558E-16  0.0000000E+00  0.6010518E-02
    1       -2.125774   1.000000
    2       10.588893   0.000000
    3       18.918973   0.000000
    4       18.918981   0.000000
    5       23.280317   0.000000
    6       23.286571   0.000000
    7       23.286580   0.000000
    8       28.563732   0.000000
 
  0.3636364E+00  0.1387779E-16  0.0000000E+00  0.6010518E-02
    1       -0.467145   1.000000
    2        7.223499   1.000000
    3       18.715607   0.000000
    4       18.715613   0.000000
    5       21.977277   0.000000
    6       21.977288   0.000000
    7       23.302512   0.000000
    8       27.059183   0.000000
 
  0.4545455E+00  0.2775558E-16  0.0000000E+00  0.6010518E-02
    1        1.625356   1.000000
    2        4.269199   1.000000
    3       18.731019   0.000000
    4       18.731023   0.000000
    5       21.161698   0.000000
    6       21.161711   0.000000
    7       23.454082   0.000000
    8       26.115941   0.000000
 
  0.9090909E-01  0.9090909E-01  0.0000000E+00  0.4507889E-02
    1       -3.960844   1.000000
    2       18.995072   0.000000
    3       18.995072   0.000000
    4       20.600234   0.000000
    5       20.636063   0.000000
    6       24.863035   0.000000
    7       24.863035   0.000000
    8       26.094783   0.000000
 
  0.1818182E+00  0.9090909E-01  0.0000000E+00  0.1803156E-01
    1       -3.400340   1.000000
    2       15.724436   0.000000
    3       17.962583   0.000000
    4       19.698180   0.000000
    5       21.503814   0.000000
    6       24.187308   0.000000
    7       25.664258   0.000000
    8       26.256332   0.000000
 
  0.2727273E+00  0.9090909E-01  0.0000000E+00  0.1803156E-01
    1       -2.363812   1.000000
    2       11.974906   0.000000
    3       17.328161   0.000000
    4       18.905106   0.000000
    5       21.123311   0.000000
    6       24.522623   0.000000
    7       25.734371   0.000000
    8       26.103568   0.000000
 
  0.3636364E+00  0.9090909E-01  0.0000000E+00  0.1803156E-01
    1       -0.859660   1.000000
    2        8.500141   1.000000
    3       17.099515   0.000000
    4       18.113273   0.000000
    5       20.158664   0.000000
    6       24.343696   0.000000
    7       24.985025   0.000000
    8       27.986675   0.000000
 
  0.4545455E+00  0.9090909E-01  0.0000000E+00  0.1803156E-01
    1        1.094524   1.000000
    2        5.403659   1.000000
    3       17.191647   0.000000
    4       17.269533   0.000000
    5       20.004097   0.000000
    6       23.155963   0.000000
    7       25.024324   0.000000
    8       28.156540   0.000000
 
 -0.4545455E+00  0.9090909E-01  0.0000000E+00  0.1803156E-01
    1        2.570194   1.000000
    2        3.640515   1.000000
    3       16.415709   0.000000
    4       17.814730   0.000000
    5       20.520843   0.000000
    6       22.363472   0.000000
    7       24.867401   0.000000
    8       28.064090   0.000000
 
 -0.3636364E+00  0.9090909E-01  0.0000000E+00  0.1803156E-01
    1        0.395313   1.000000
    2        6.388872   1.000000
    3       15.974532   0.000000
    4       18.673734   0.000000
    5       21.536851   0.000000
    6       22.061276   0.000000
    7       24.611248   0.000000
    8       28.725842   0.000000
 
 -0.2727273E+00  0.9090909E-01  0.0000000E+00  0.1803156E-01
    1       -1.412337   1.000000
    2        9.618078   1.000000
    3       15.928400   0.000000
    4       19.699526   0.000000
    5       22.367098   0.000000
    6       22.954908   0.000000
    7       24.453561   0.000000
    8       27.943098   0.000000
 
 -0.1818182E+00  0.9090909E-01  0.0000000E+00  0.1803156E-01
    1       -2.761857   1.000000
    2       13.195835   0.000000
    3       16.296768   0.000000
    4       20.687434   0.000000
    5       23.184793   0.000000
    6       24.365046   0.000000
    7       24.590339   0.000000
    8       25.662821   0.000000
 
 -0.9090909E-01  0.9090909E-01  0.0000000E+00  0.9015778E-02
    1       -3.640386   1.000000
    2       16.825437   0.000000
    3       17.238939   0.000000
    4       21.406655   0.000000
    5       22.756672   0.000000
    6       23.976652   0.000000
    7       25.115543   0.000000
    8       26.015374   0.000000
 
  0.1818182E+00  0.1818182E+00  0.0000000E+00  0.4507889E-02
    1       -3.000717   1.000000
    2       16.795651   0.000000
    3       16.795652   0.000000
    4       18.393406   0.000000
    5       18.672064   0.000000
    6       21.677238   0.000000
    7       28.150306   0.000000
    8       28.150307   0.000000
 
  0.2727273E+00  0.1818182E+00  0.0000000E+00  0.1803156E-01
    1       -2.124715   1.000000
    2       13.716544   0.000000
    3       16.028654   0.000000
    4       17.253475   0.000000
    5       18.711725   0.000000
    6       21.208846   0.000000
    7       28.513624   0.000000
    8       28.991220   0.000000
 
  0.3636364E+00  0.1818182E+00  0.0000000E+00  0.1803156E-01
    1       -0.779176   1.000000
    2       10.196860   0.000000
    3       15.673926   0.000000
    4       15.705183   0.000000
    5       18.364955   0.000000
    6       23.365066   0.000000
    7       27.269546   0.000000
    8       29.065997   0.000000
 
  0.4545455E+00  0.1818182E+00  0.0000000E+00  0.1803156E-01
    1        1.023115   1.000000
    2        6.989258   1.000000
    3       14.305787   0.000000
    4       15.733256   0.000000
    5       18.390531   0.000000
    6       25.920391   0.000000
    7       26.017759   0.000000
    8       29.127787   0.000000
 
 -0.4545455E+00  0.1818182E+00  0.0000000E+00  0.1803156E-01
    1        3.196521   1.000000
    2        4.246246   1.000000
    3       13.256231   0.000000
    4       16.201863   0.000000
    5       18.895324   0.000000
    6       25.073100   0.000000
    7       27.136106   0.000000
    8       30.404763   0.000000
 
 -0.3636364E+00  0.1818182E+00  0.0000000E+00  0.1803156E-01
    1        1.720126   1.000000
    2        6.003727   1.000000
    3       12.619690   0.000000
    4       17.065273   0.000000
    5       19.853689   0.000000
    6       24.519445   0.000000
    7       26.937232   0.000000
    8       30.517568   0.000000
 
 -0.2727273E+00  0.1818182E+00  0.0000000E+00  0.1803156E-01
    1       -0.228846   1.000000
    2        9.066149   1.000000
    3       12.428426   0.000000
    4       18.289754   0.000000
    5       21.227963   0.000000
    6       24.401195   0.000000
    7       26.502586   0.000000
    8       27.418424   0.000000
 
 -0.1818182E+00  0.1818182E+00  0.0000000E+00  0.9015778E-02
    1       -1.728528   1.000000
    2       12.177096   0.000000
    3       12.988208   0.000000
    4       19.759163   0.000000
    5       22.929053   0.000000
    6       24.601214   0.000000
    7       24.872711   0.000000
    8       25.744474   0.000000
 
  0.2727273E+00  0.2727273E+00  0.0000000E+00  0.4507889E-02
    1       -1.410383   1.000000
    2       15.102106   0.000000
    3       15.124081   0.000000
    4       15.124082   0.000000
    5       16.556503   0.000000
    6       18.976839   0.000000
    7       31.319434   0.000000
    8       31.319651   0.000000
 
  0.3636364E+00  0.2727273E+00  0.0000000E+00  0.1803156E-01
    1       -0.226409   1.000000
    2       12.210000   0.000000
    3       13.223509   0.000000
    4       14.633027   0.000000
    5       16.951752   0.000000
    6       19.685077   0.000000
    7       30.446074   0.000000
    8       32.046748   0.000000
 
  0.4545455E+00  0.2727273E+00  0.0000000E+00  0.1803156E-01
    1        1.416674   1.000000
    2        8.985402   1.000000
    3       11.545404   0.000000
    4       14.559317   0.000000
    5       17.063551   0.000000
    6       22.362599   0.000000
    7       29.241245   0.000000
    8       31.725474   0.000000
 
 -0.4545455E+00  0.2727273E+00  0.0000000E+00  0.1803156E-01
    1        3.490163   1.000000
    2        6.080792   1.000000
    3       10.295582   0.000000
    4       14.901580   0.000000
    5       17.479941   0.000000
    6       25.518444   0.000000
    7       28.217264   0.000000
    8       30.956229   0.000000
 
 -0.3636364E+00  0.2727273E+00  0.0000000E+00  0.1803156E-01
    1        3.491861   1.000000
    2        6.058850   1.000000
    3        9.503909   1.000000
    4       15.654593   0.000000
    5       18.326529   0.000000
    6       27.523540   0.000000
    7       28.478073   0.000000
    8       30.082241   0.000000
 
 -0.2727273E+00  0.2727273E+00  0.0000000E+00  0.9015778E-02
    1        1.414641   1.000000
    2        8.587467   1.000000
    3        9.528010   1.000000
    4       16.802038   0.000000
    5       19.596494   0.000000
    6       26.987148   0.000000
    7       27.608197   0.000000
    8       28.398921   0.000000
 
  0.3636364E+00  0.3636364E+00  0.0000000E+00  0.4507889E-02
    1        0.794094   1.000000
    2       10.902239   0.000000
    3       14.003567   0.000000
    4       14.003568   0.000000
    5       15.296956   0.000000
    6       17.677852   0.000000
    7       33.131250   0.000000
    8       34.087013   0.000000
 
  0.4545455E+00  0.3636364E+00  0.0000000E+00  0.1803156E-01
    1        2.271498   1.000000
    2        9.046765   1.000000
    3       11.421581   0.000000
    4       13.792386   0.000000
    5       16.008990   0.000000
    6       18.824302   0.000000
    7       32.529234   0.000000
    8       34.463188   0.000000
 
 -0.4545455E+00  0.3636364E+00  0.0000000E+00  0.1803156E-01
    1        4.177755   1.000000
    2        7.567581   1.000000
    3        8.526379   1.000000
    4       13.999659   0.000000
    5       16.442415   0.000000
    6       21.840075   0.000000
    7       31.526067   0.000000
    8       33.560086   0.000000
 
 -0.3636364E+00  0.3636364E+00  0.0000000E+00  0.9015778E-02
    1        5.648178   1.000000
    2        6.176826   1.000000
    3        7.199220   1.000000
    4       14.622942   0.000000
    5       17.177492   0.000000
    6       25.323095   0.000000
    7       30.353711   0.000000
    8       31.561666   0.000000
 
  0.4545455E+00  0.4545455E+00  0.0000000E+00  0.4507889E-02
    1        3.568969   1.000000
    2        7.050174   1.000000
    3       13.442181   0.000000
    4       13.442182   0.000000
    5       14.664062   0.000000
    6       17.066439   0.000000
    7       34.578381   0.000000
    8       36.089321   0.000000
 
 -0.4545455E+00  0.4545455E+00  0.0000000E+00  0.9015778E-02
    1        4.969495   1.000000
    2        5.813811   1.000000
    3       11.114536   0.000000
    4       13.511694   0.000000
    5       15.697161   0.000000
    6       18.537539   0.000000
    7       34.015776   0.000000
    8       35.612304   0.000000
 
  0.2727273E+00  0.1818182E+00  0.9090909E-01  0.1803156E-01
    1       -2.681958   1.000000
    2       14.525495   0.000000
    3       15.120909   0.000000
    4       19.649186   0.000000
    5       21.180281   0.000000
    6       22.806805   0.000000
    7       26.441317   0.000000
    8       27.094893   0.000000
 
  0.3636364E+00  0.1818182E+00  0.9090909E-01  0.3606311E-01
    1       -1.490749   1.000000
    2       11.144242   0.000000
    3       14.369563   0.000000
    4       18.129211   0.000000
    5       21.259917   0.000000
    6       23.915102   0.000000
    7       25.347853   0.000000
    8       27.659834   0.000000
 
  0.4545455E+00  0.1818182E+00  0.9090909E-01  0.3606311E-01
    1        0.163081   1.000000
    2        7.816544   1.000000
    3       14.266312   0.000000
    4       16.658978   0.000000
    5       21.112258   0.000000
    6       23.511495   0.000000
    7       26.491070   0.000000
    8       28.394614   0.000000
 
 -0.4545455E+00  0.1818182E+00  0.9090909E-01  0.3606311E-01
    1        2.250828   1.000000
    2        4.877129   1.000000
    3       14.538667   0.000000
    4       15.571547   0.000000
    5       21.280991   0.000000
    6       22.567223   0.000000
    7       27.193990   0.000000
    8       30.511584   0.000000
 
  0.3636364E+00  0.2727273E+00  0.9090909E-01  0.1803156E-01
    1       -1.094394   1.000000
    2       12.761470   0.000000
    3       13.402360   0.000000
    4       15.624379   0.000000
    5       19.481407   0.000000
    6       20.850595   0.000000
    7       28.026415   0.000000
    8       30.730308   0.000000
 
  0.4545455E+00  0.2727273E+00  0.9090909E-01  0.3606311E-01
    1        0.400684   1.000000
    2        9.651126   1.000000
    3       12.850056   0.000000
    4       13.946263   0.000000
    5       19.833498   0.000000
    6       22.914526   0.000000
    7       26.763005   0.000000
    8       31.217113   0.000000
 
 -0.4545455E+00  0.2727273E+00  0.9090909E-01  0.3606311E-01
    1        2.343070   1.000000
    2        6.605259   1.000000
    3       12.305698   0.000000
    4       13.317689   0.000000
    5       20.089375   0.000000
    6       25.021183   0.000000
    7       26.468465   0.000000
    8       30.878314   0.000000
 
 -0.3636364E+00  0.2727273E+00  0.9090909E-01  0.3606311E-01
    1        3.820139   1.000000
    2        4.845192   1.000000
    3       11.441103   0.000000
    4       13.880909   0.000000
    5       20.721152   0.000000
    6       24.500186   0.000000
    7       29.007169   0.000000
    8       29.559358   0.000000
 
 -0.2727273E+00  0.2727273E+00  0.9090909E-01  0.3606311E-01
    1        1.647535   1.000000
    2        7.561506   1.000000
    3       10.966086   0.000000
    4       14.935856   0.000000
    5       21.707784   0.000000
    6       24.071917   0.000000
    7       26.907967   0.000000
    8       30.142987   0.000000
 
 -0.1818182E+00  0.2727273E+00  0.9090909E-01  0.1803156E-01
    1       -0.149452   1.000000
    2       10.387842   0.000000
    3       11.267192   0.000000
    4       16.398382   0.000000
    5       22.851357   0.000000
    6       23.513326   0.000000
    7       24.773738   0.000000
    8       29.407986   0.000000
 
  0.4545455E+00  0.3636364E+00  0.9090909E-01  0.1803156E-01
    1        1.106025   1.000000
    2       11.107654   0.000000
    3       11.575672   0.000000
    4       12.492320   0.000000
    5       18.307565   0.000000
    6       19.733753   0.000000
    7       29.992412   0.000000
    8       33.906459   0.000000
 
 -0.4545455E+00  0.3636364E+00  0.9090909E-01  0.3606311E-01
    1        2.887946   1.000000
    2        8.696111   1.000000
    3        9.728117   1.000000
    4       12.164143   0.000000
    5       18.975037   0.000000
    6       22.181902   0.000000
    7       28.881949   0.000000
    8       33.198385   0.000000
 
 -0.3636364E+00  0.3636364E+00  0.9090909E-01  0.3606311E-01
    1        5.043198   1.000000
    2        6.020285   1.000000
    3        8.612755   1.000000
    4       12.638392   0.000000
    5       19.543989   0.000000
    6       25.412764   0.000000
    7       28.018041   0.000000
    8       30.538683   0.000000
 
 -0.2727273E+00  0.3636364E+00  0.9090909E-01  0.1803156E-01
    1        3.576553   1.000000
    2        7.383123   1.000000
    3        8.331802   1.000000
    4       13.574126   0.000000
    5       20.476694   0.000000
    6       26.970653   0.000000
    7       27.137951   0.000000
    8       29.404144   0.000000
 
 -0.4545455E+00  0.4545455E+00  0.9090909E-01  0.1803156E-01
    1        3.874839   1.000000
    2        7.343158   1.000000
    3       10.980657   0.000000
    4       11.817483   0.000000
    5       17.715504   0.000000
    6       19.178231   0.000000
    7       32.248663   0.000000
    8       34.351440   0.000000
 
 -0.3636364E+00  0.4545455E+00  0.9090909E-01  0.1803156E-01
    1        5.573384   1.000000
    2        6.387544   1.000000
    3        8.523236   1.000000
    4       11.851225   0.000000
    5       18.685843   0.000000
    6       21.926369   0.000000
    7       31.325860   0.000000
    8       31.382414   0.000000
 
 -0.4545455E+00  0.3636364E+00  0.1818182E+00  0.1803156E-01
    1        2.038215   1.000000
    2        9.189124   1.000000
    3       10.042324   0.246264
    4       12.239217   0.000000
    5       22.407708   0.000000
    6       22.986779   0.000000
    7       25.637299   0.000000
    8       32.690931   0.000000
 
 -0.3636364E+00  0.3636364E+00  0.1818182E+00  0.3606311E-01
    1        4.105845   1.000000
    2        6.656219   1.000000
    3        9.973058   0.898468
    4       11.057185   0.000000
    5       22.872594   0.000000
    6       24.148996   0.000000
    7       26.412227   0.000000
    8       29.952949   0.000000
 
 -0.3636364E+00  0.4545455E+00  0.1818182E+00  0.1803156E-01
    1        4.786210   1.000000
    2        8.143929   1.000000
    3        8.588175   1.000000
    4        9.715272   1.000000
    5       21.837648   0.000000
    6       22.679854   0.000000
    7       27.831187   0.000000
    8       30.610739   0.000000
 
 -0.2727273E+00  0.4545455E+00  0.1818182E+00  0.1803156E-01
    1        6.247784   1.000000
    2        6.780620   1.000000
    3        7.714310   1.000000
    4        9.913372   0.998467
    5       22.803670   0.000000
    6       25.428860   0.000000
    7       26.452551   0.000000
    8       28.080034   0.000000
