<?xml version="1.0" encoding="ISO-8859-1"?>
<modeling>
 <generator>
  <i name="program" type="string">vasp </i>
  <i name="version" type="string">6.2.0  </i>
  <i name="subversion" type="string">18Jan21 (build Aug 12 2022 13:00:08) complex                          parallel </i>
  <i name="platform" type="string">LinuxIFC </i>
  <i name="date" type="string">2024 11 03 </i>
  <i name="time" type="string">21:54:21 </i>
 </generator>
 <incar>
  <i type="int" name="ISTART">     0</i>
  <i type="string" name="PREC">Accurate      (Accurate strictly avoids</i>
  <i type="logical" name="ADDGRID"> T  </i>
  <i type="int" name="ISPIN">     1</i>
  <i type="int" name="NELM">    90</i>
  <i type="int" name="NELMIN">     6</i>
  <i type="int" name="IBRION">     2</i>
  <i name="EDIFF">      0.00000100</i>
  <i name="EDIFFG">     -0.00200000</i>
  <i type="int" name="NSW">   100</i>
  <i type="int" name="ISIF">     3</i>
  <i type="int" name="ISYM">     2</i>
  <i name="ENCUT">    350.00000000</i>
  <i type="logical" name="LREAL"> F  </i>
  <i type="int" name="ISMEAR">     0</i>
  <i name="SIGMA">      0.05000000</i>
  <i type="logical" name="LWAVE"> F  </i>
  <i type="logical" name="LCHARG"> F  </i>
  <i type="logical" name="LASPH"> T  </i>
 </incar>
 <primitive_cell>
  <structure name="primitive_cell" >
   <crystal>
    <varray name="basis" >
     <v>       2.34739500       0.00000000       1.35526800 </v>
     <v>       0.78246500       2.21314500       1.35526800 </v>
     <v>       0.00000000       0.00000000       2.71053800 </v>
    </varray>
    <i name="volume">     14.08158510 </i>
    <varray name="rec_basis" >
     <v>       0.42600415      -0.15061523       0.00000000 </v>
     <v>       0.00000000       0.45184568       0.00000000 </v>
     <v>      -0.21300192      -0.15061511       0.36893045 </v>
    </varray>
   </crystal>
   <varray name="positions" >
    <v>       0.00000000       0.00000000       0.00000000 </v>
   </varray>
  </structure>
  <varray name="primitive_index" >
   <v type="int" >        1 </v>
  </varray>
 </primitive_cell>
 <kpoints>
  <generation param="Monkhorst-Pack">
   <v type="int" name="divisions">      11       11       11 </v>
   <v name="usershift">      0.00000000       0.00000000       0.00000000 </v>
   <v name="genvec1">      0.09090909      -0.00000000       0.00000000 </v>
   <v name="genvec2">      0.00000000       0.09090909       0.00000000 </v>
   <v name="genvec3">      0.00000000       0.00000000       0.09090909 </v>
   <v name="shift">      0.00000000       0.00000000       0.00000000 </v>
  </generation>
  <varray name="kpointlist" >
   <v>       0.00000000       0.00000000       0.00000000 </v>
   <v>       0.09090909       0.00000000       0.00000000 </v>
   <v>       0.18181818      -0.00000000       0.00000000 </v>
   <v>       0.27272727      -0.00000000       0.00000000 </v>
   <v>       0.36363636       0.00000000       0.00000000 </v>
   <v>       0.45454545       0.00000000       0.00000000 </v>
   <v>       0.09090909       0.09090909       0.00000000 </v>
   <v>       0.18181818       0.09090909       0.00000000 </v>
   <v>       0.27272727       0.09090909       0.00000000 </v>
   <v>       0.36363636       0.09090909       0.00000000 </v>
   <v>       0.45454545       0.09090909       0.00000000 </v>
   <v>      -0.45454545       0.09090909       0.00000000 </v>
   <v>      -0.36363636       0.09090909       0.00000000 </v>
   <v>      -0.27272727       0.09090909       0.00000000 </v>
   <v>      -0.18181818       0.09090909       0.00000000 </v>
   <v>      -0.09090909       0.09090909       0.00000000 </v>
   <v>       0.18181818       0.18181818       0.00000000 </v>
   <v>       0.27272727       0.18181818       0.00000000 </v>
   <v>       0.36363636       0.18181818       0.00000000 </v>
   <v>       0.45454545       0.18181818       0.00000000 </v>
   <v>      -0.45454545       0.18181818       0.00000000 </v>
   <v>      -0.36363636       0.18181818       0.00000000 </v>
   <v>      -0.27272727       0.18181818       0.00000000 </v>
   <v>      -0.18181818       0.18181818       0.00000000 </v>
   <v>       0.27272727       0.27272727       0.00000000 </v>
   <v>       0.36363636       0.27272727       0.00000000 </v>
   <v>       0.45454545       0.27272727       0.00000000 </v>
   <v>      -0.45454545       0.27272727       0.00000000 </v>
   <v>      -0.36363636       0.27272727       0.00000000 </v>
   <v>      -0.27272727       0.27272727       0.00000000 </v>
   <v>       0.36363636       0.36363636       0.00000000 </v>
   <v>       0.45454545       0.36363636       0.00000000 </v>
   <v>      -0.45454545       0.36363636       0.00000000 </v>
   <v>      -0.36363636       0.36363636       0.00000000 </v>
   <v>       0.45454545       0.45454545       0.00000000 </v>
   <v>      -0.45454545       0.45454545       0.00000000 </v>
   <v>       0.27272727       0.18181818       0.09090909 </v>
   <v>       0.36363636       0.18181818       0.09090909 </v>
   <v>       0.45454545       0.18181818       0.09090909 </v>
   <v>      -0.45454545       0.18181818       0.09090909 </v>
   <v>       0.36363636       0.27272727       0.09090909 </v>
   <v>       0.45454545       0.27272727       0.09090909 </v>
   <v>      -0.45454545       0.27272727       0.09090909 </v>
   <v>      -0.36363636       0.27272727       0.09090909 </v>
   <v>      -0.27272727       0.27272727       0.09090909 </v>
   <v>      -0.18181818       0.27272727       0.09090909 </v>
   <v>       0.45454545       0.36363636       0.09090909 </v>
   <v>      -0.45454545       0.36363636       0.09090909 </v>
   <v>      -0.36363636       0.36363636       0.09090909 </v>
   <v>      -0.27272727       0.36363636       0.09090909 </v>
   <v>      -0.45454545       0.45454545       0.09090909 </v>
   <v>      -0.36363636       0.45454545       0.09090909 </v>
   <v>      -0.45454545       0.36363636       0.18181818 </v>
   <v>      -0.36363636       0.36363636       0.18181818 </v>
   <v>      -0.36363636       0.45454545       0.18181818 </v>
   <v>      -0.27272727       0.45454545       0.18181818 </v>
  </varray>
  <varray name="weights" >
   <v>       0.00075131 </v>
   <v>       0.00601052 </v>
   <v>       0.00601052 </v>
   <v>       0.00601052 </v>
   <v>       0.00601052 </v>
   <v>       0.00601052 </v>
   <v>       0.00450789 </v>
   <v>       0.01803156 </v>
   <v>       0.01803156 </v>
   <v>       0.01803156 </v>
   <v>       0.01803156 </v>
   <v>       0.01803156 </v>
   <v>       0.01803156 </v>
   <v>       0.01803156 </v>
   <v>       0.01803156 </v>
   <v>       0.00901578 </v>
   <v>       0.00450789 </v>
   <v>       0.01803156 </v>
   <v>       0.01803156 </v>
   <v>       0.01803156 </v>
   <v>       0.01803156 </v>
   <v>       0.01803156 </v>
   <v>       0.01803156 </v>
   <v>       0.00901578 </v>
   <v>       0.00450789 </v>
   <v>       0.01803156 </v>
   <v>       0.01803156 </v>
   <v>       0.01803156 </v>
   <v>       0.01803156 </v>
   <v>       0.00901578 </v>
   <v>       0.00450789 </v>
   <v>       0.01803156 </v>
   <v>       0.01803156 </v>
   <v>       0.00901578 </v>
   <v>       0.00450789 </v>
   <v>       0.00901578 </v>
   <v>       0.01803156 </v>
   <v>       0.03606311 </v>
   <v>       0.03606311 </v>
   <v>       0.03606311 </v>
   <v>       0.01803156 </v>
   <v>       0.03606311 </v>
   <v>       0.03606311 </v>
   <v>       0.03606311 </v>
   <v>       0.03606311 </v>
   <v>       0.01803156 </v>
   <v>       0.01803156 </v>
   <v>       0.03606311 </v>
   <v>       0.03606311 </v>
   <v>       0.01803156 </v>
   <v>       0.01803156 </v>
   <v>       0.01803156 </v>
   <v>       0.01803156 </v>
   <v>       0.03606311 </v>
   <v>       0.01803156 </v>
   <v>       0.01803156 </v>
  </varray>
 </kpoints>
 <parameters>
  <separator name="general" >
   <i type="string" name="SYSTEM">unknown system</i>
   <i type="logical" name="LCOMPAT"> F  </i>
  </separator>
  <separator name="electronic" >
   <i type="string" name="PREC">accura</i>
   <i name="ENMAX">    350.00000000</i>
   <i name="ENAUG">    322.06900000</i>
   <i name="EDIFF">      0.00000100</i>
   <i type="int" name="IALGO">    38</i>
   <i type="int" name="IWAVPR">    11</i>
   <i type="int" name="NBANDS">     8</i>
   <i type="int" name="NBANDSLOW">    -1</i>
   <i type="int" name="NBANDSHIGH">    -1</i>
   <i name="NELECT">      4.00000000</i>
   <i type="int" name="TURBO">     0</i>
   <i type="int" name="IRESTART">     0</i>
   <i type="int" name="NREBOOT">     0</i>
   <i type="int" name="NMIN">     0</i>
   <i name="EREF">      0.00000000</i>
   <separator name="electronic smearing" >
    <i type="int" name="ISMEAR">     0</i>
    <i name="SIGMA">      0.05000000</i>
    <i name="KSPACING">      0.50000000</i>
    <i type="logical" name="KGAMMA"> T  </i>
    <i type="logical" name="KBLOWUP"> T  </i>
   </separator>
   <separator name="electronic projectors" >
    <i type="logical" name="LREAL"> F  </i>
    <v name="ROPT">      0.00000000</v>
    <i type="int" name="LMAXPAW">  -100</i>
    <i type="int" name="LMAXMIX">     2</i>
    <i type="logical" name="NLSPLINE"> F  </i>
   </separator>
   <separator name="electronic startup" >
    <i type="int" name="ISTART">     0</i>
    <i type="int" name="ICHARG">     2</i>
    <i type="int" name="INIWAV">     1</i>
   </separator>
   <separator name="electronic spin" >
    <i type="int" name="ISPIN">     1</i>
    <i type="logical" name="LNONCOLLINEAR"> F  </i>
    <v name="MAGMOM">      1.00000000</v>
    <i name="NUPDOWN">     -1.00000000</i>
    <i type="logical" name="LSORBIT"> F  </i>
    <v name="SAXIS">      0.00000000      0.00000000      1.00000000</v>
    <i type="logical" name="LSPIRAL"> F  </i>
    <v name="QSPIRAL">      0.00000000      0.00000000      0.00000000</v>
    <i type="logical" name="LZEROZ"> F  </i>
   </separator>
   <separator name="electronic exchange-correlation" >
    <i type="logical" name="LASPH"> T  </i>
    <i type="logical" name="LMETAGGA"> F  </i>
   </separator>
   <separator name="electronic convergence" >
    <i type="int" name="NELM">    90</i>
    <i type="int" name="NELMDL">    -5</i>
    <i type="int" name="NELMIN">     6</i>
    <i name="ENINI">    350.00000000</i>
    <separator name="electronic convergence detail" >
     <i type="logical" name="LDIAG"> T  </i>
     <i type="logical" name="LSUBROT"> F  </i>
     <i name="WEIMIN">      0.00100000</i>
     <i name="EBREAK">      0.00000003</i>
     <i name="DEPER">      0.30000000</i>
     <i type="int" name="NRMM">     4</i>
     <i name="TIME">      0.40000000</i>
    </separator>
   </separator>
   <separator name="electronic mixer" >
    <i name="AMIX">      0.40000000</i>
    <i name="BMIX">      1.00000000</i>
    <i name="AMIN">      0.10000000</i>
    <i name="AMIX_MAG">      1.60000000</i>
    <i name="BMIX_MAG">      1.00000000</i>
    <separator name="electronic mixer details" >
     <i type="int" name="IMIX">     4</i>
     <i type="logical" name="MIXFIRST"> F  </i>
     <i type="int" name="MAXMIX">   -45</i>
     <i name="WC">    100.00000000</i>
     <i type="int" name="INIMIX">     1</i>
     <i type="int" name="MIXPRE">     1</i>
     <i type="int" name="MREMOVE">     5</i>
    </separator>
   </separator>
   <separator name="electronic dipolcorrection" >
    <i type="logical" name="LDIPOL"> F  </i>
    <i type="logical" name="LMONO"> F  </i>
    <i type="int" name="IDIPOL">     0</i>
    <i name="EPSILON">      1.00000000</i>
    <v name="DIPOL">   -100.00000000   -100.00000000   -100.00000000</v>
    <i name="EFIELD">      0.00000000</i>
   </separator>
  </separator>
  <separator name="grids" >
   <i type="int" name="NGX">    18</i>
   <i type="int" name="NGY">    18</i>
   <i type="int" name="NGZ">    18</i>
   <i type="int" name="NGXF">    36</i>
   <i type="int" name="NGYF">    36</i>
   <i type="int" name="NGZF">    36</i>
   <i type="logical" name="ADDGRID"> T  </i>
  </separator>
  <separator name="ionic" >
   <i type="int" name="NSW">   100</i>
   <i type="int" name="IBRION">     2</i>
   <i type="int" name="MDALGO">     0</i>
   <i type="int" name="ISIF">     3</i>
   <i name="PSTRESS">      0.00000000</i>
   <i name="EDIFFG">     -0.00200000</i>
   <i type="int" name="NFREE">     1</i>
   <i name="POTIM">      0.50000000</i>
   <i name="SMASS">     -3.00000000</i>
   <i name="SCALEE">      1.00000000</i>
  </separator>
  <separator name="ionic md" >
   <i name="TEBEG">      0.00010000</i>
   <i name="TEEND">      0.00010000</i>
   <i type="int" name="NBLOCK">     1</i>
   <i type="int" name="KBLOCK">   100</i>
   <i type="int" name="NPACO">   256</i>
   <i name="APACO">     16.00000000</i>
  </separator>
  <separator name="symmetry" >
   <i type="int" name="ISYM">     2</i>
   <i name="SYMPREC">      0.00001000</i>
  </separator>
  <separator name="dos" >
   <i type="int" name="LORBIT">     0</i>
   <v name="RWIGS">     -1.00000000</v>
   <i type="int" name="NEDOS">   301</i>
   <i name="EMIN">     10.00000000</i>
   <i name="EMAX">    -10.00000000</i>
   <i name="EFERMI">      0.00000000</i>
  </separator>
  <separator name="writing" >
   <i type="int" name="NWRITE">     2</i>
   <i type="logical" name="LWAVE"> F  </i>
   <i type="logical" name="LDOWNSAMPLE"> F  </i>
   <i type="logical" name="LCHARG"> F  </i>
   <i type="logical" name="LPARD"> F  </i>
   <i type="logical" name="LVTOT"> F  </i>
   <i type="logical" name="LVHAR"> F  </i>
   <i type="logical" name="LELF"> F  </i>
   <i type="logical" name="LOPTICS"> F  </i>
   <v name="STM">      0.00000000      0.00000000      0.00000000      0.00000000      0.00000000      0.00000000      0.00000000</v>
  </separator>
  <separator name="performance" >
   <i type="int" name="NPAR">     4</i>
   <i type="int" name="NSIM">     4</i>
   <i type="int" name="NBLK">    -1</i>
   <i type="logical" name="LPLANE"> T  </i>
   <i type="logical" name="LSCALAPACK"> T  </i>
   <i type="logical" name="LSCAAWARE"> F  </i>
   <i type="logical" name="LSCALU"> F  </i>
   <i type="logical" name="LASYNC"> F  </i>
   <i type="logical" name="LORBITALREAL"> F  </i>
  </separator>
  <separator name="miscellaneous" >
   <i type="int" name="IDIOT">     3</i>
   <i type="int" name="PHON_NSTRUCT">    -1</i>
   <i type="logical" name="LMUSIC"> F  </i>
   <v name="POMASS">     28.08500000</v>
   <v name="DARWINR">      0.00000000</v>
   <v name="DARWINV">      1.00000000</v>
   <i type="logical" name="LCORR"> T  </i>
  </separator>
  <i type="logical" name="GGA_COMPAT"> T  </i>
  <i type="logical" name="LBERRY"> F  </i>
  <i type="int" name="ICORELEVEL">     0</i>
  <i type="logical" name="LDAU"> F  </i>
  <i type="int" name="I_CONSTRAINED_M">     0</i>
  <separator name="electronic exchange-correlation" >
   <i type="string" name="GGA">--</i>
   <i type="int" name="VOSKOWN">     0</i>
   <i type="logical" name="LHFCALC"> F  </i>
   <i type="string" name="PRECFOCK"></i>
   <i type="logical" name="LSYMGRAD"> F  </i>
   <i type="logical" name="LHFONE"> F  </i>
   <i type="logical" name="LRHFCALC"> F  </i>
   <i type="logical" name="LTHOMAS"> F  </i>
   <i type="logical" name="LMODELHF"> F  </i>
   <i type="logical" name="LFOCKACE"> F  </i>
   <i name="ENCUT4O">     -1.00000000</i>
   <i type="int" name="EXXOEP">     0</i>
   <i type="int" name="FOURORBIT">     0</i>
   <i name="AEXX">      0.00000000</i>
   <i name="HFALPHA">      0.00000000</i>
   <i name="MCALPHA">      0.00000000</i>
   <i name="ALDAX">      1.00000000</i>
   <i name="AGGAX">      1.00000000</i>
   <i name="ALDAC">      1.00000000</i>
   <i name="AGGAC">      1.00000000</i>
   <i type="int" name="NKREDX">     1</i>
   <i type="int" name="NKREDY">     1</i>
   <i type="int" name="NKREDZ">     1</i>
   <i type="logical" name="SHIFTRED"> F  </i>
   <i type="logical" name="ODDONLY"> F  </i>
   <i type="logical" name="EVENONLY"> F  </i>
   <i type="int" name="LMAXFOCK">     0</i>
   <i type="int" name="NMAXFOCKAE">     0</i>
   <i type="logical" name="LFOCKAEDFT"> F  </i>
   <i name="HFSCREEN">      0.00000000</i>
   <i name="HFSCREENC">      0.00000000</i>
   <i type="int" name="NBANDSGWLOW">     0</i>
  </separator>
  <separator name="vdW DFT" >
   <i type="logical" name="LUSE_VDW"> F  </i>
   <i name="Zab_VDW">     -0.84910000</i>
   <i name="PARAM1">      0.12340000</i>
   <i name="PARAM2">      1.00000000</i>
   <i name="PARAM3">      0.00000000</i>
  </separator>
  <separator name="model GW" >
   <i type="int" name="MODEL_GW">     0</i>
   <i name="MODEL_EPS0">      8.44895106</i>
   <i name="MODEL_ALPHA">      1.00000000</i>
  </separator>
  <separator name="linear response parameters" >
   <i type="logical" name="LEPSILON"> F  </i>
   <i type="logical" name="LRPA"> F  </i>
   <i type="logical" name="LNABLA"> F  </i>
   <i type="logical" name="LVEL"> F  </i>
   <i type="int" name="KINTER">     0</i>
   <i name="CSHIFT">      0.10000000</i>
   <i name="OMEGAMAX">     -1.00000000</i>
   <i name="DEG_THRESHOLD">      0.00200000</i>
   <i name="RTIME">     -0.10000000</i>
   <i name="WPLASMAI">      0.00000000</i>
   <v name="DFIELD">      0.00000000      0.00000000      0.00000000</v>
   <v name="WPLASMA">      0.00000000      0.00000000      0.00000000      0.00000000      0.00000000      0.00000000      0.00000000      0.00000000      0.00000000</v>
  </separator>
  <separator name="orbital magnetization" >
   <i type="logical" name="NUCIND"> F  </i>
   <v name="MAGPOS">      0.00000000      0.00000000      0.00000000</v>
   <i type="logical" name="LNICSALL"> T  </i>
   <i type="logical" name="ORBITALMAG"> F  </i>
   <i type="logical" name="LMAGBLOCH"> F  </i>
   <i type="logical" name="LCHIMAG"> F  </i>
   <i type="logical" name="LGAUGE"> T  </i>
   <i type="int" name="MAGATOM">     0</i>
   <v name="MAGDIPOL">      0.00000000      0.00000000      0.00000000</v>
   <v name="AVECCONST">      0.00000000      0.00000000      0.00000000</v>
  </separator>
  <separator name="response functions" >
   <i type="logical" name="LFINITE_TEMPERATURE"> F  </i>
   <i type="logical" name="LADDER"> F  </i>
   <i type="logical" name="LRPAFORCE"> F  </i>
   <i type="logical" name="LFXC"> F  </i>
   <i type="logical" name="LHARTREE"> T  </i>
   <i type="int" name="IBSE">     0</i>
   <v type="int" name="KPOINT">    -1     0     0     0</v>
   <i type="logical" name="LTCTC"> F  </i>
   <i type="logical" name="LTCTE"> F  </i>
   <i type="logical" name="LTETE"> F  </i>
   <i type="logical" name="LTRIPLET"> F  </i>
   <i type="logical" name="LFXCEPS"> F  </i>
   <i type="logical" name="LFXHEG"> F  </i>
   <i type="int" name="NATURALO">     2</i>
   <i type="logical" name="LHOLEGF"> F  </i>
   <i type="logical" name="L2ORDER"> F  </i>
   <i type="logical" name="LDMP1"> F  </i>
   <i type="logical" name="LMP2LT"> F  </i>
   <i type="logical" name="LSMP2LT"> F  </i>
   <i type="logical" name="LGWLF"> F  </i>
   <i name="ENCUTGW">     -2.00000000</i>
   <i name="ENCUTGWSOFT">     -2.00000000</i>
   <i name="ENCUTLF">     -1.00000000</i>
   <i type="logical" name="LESF_SPLINES"> F  </i>
   <i type="int" name="LMAXMP2">    -1</i>
   <i name="SCISSOR">      0.00000000</i>
   <i type="int" name="NOMEGA">     0</i>
   <i type="int" name="NOMEGAR">     0</i>
   <i type="int" name="NBANDSGW">    -1</i>
   <i type="int" name="NBANDSO">    -1</i>
   <i type="int" name="NBANDSV">    -1</i>
   <i type="int" name="NELM">    90</i>
   <i type="int" name="NELMHF">     1</i>
   <i type="int" name="DIM">     3</i>
   <i type="int" name="IESPILON">     4</i>
   <i type="int" name="ANTIRES">     0</i>
   <i name="OMEGAMAX">    -30.00000000</i>
   <i name="OMEGAMIN">    -30.00000000</i>
   <i name="OMEGATL">   -200.00000000</i>
   <i type="int" name="OMEGAGRID">     0</i>
   <i name="CSHIFT">     -0.10000000</i>
   <i type="logical" name="LSELFENERGY"> F  </i>
   <i type="logical" name="LSPECTRAL"> F  </i>
   <i type="logical" name="LSPECTRALGW"> F  </i>
   <i type="logical" name="LSINGLES"> F  </i>
   <i type="logical" name="LFERMIGW"> F  </i>
   <i type="logical" name="ODDONLYGW"> F  </i>
   <i type="logical" name="EVENONLYGW"> F  </i>
   <i type="int" name="NKREDLFX">     1</i>
   <i type="int" name="NKREDLFY">     1</i>
   <i type="int" name="NKREDLFZ">     1</i>
   <i type="int" name="MAXMEM">  2800</i>
   <i type="int" name="TELESCOPE">     0</i>
   <i type="int" name="NTAUPAR">    -1</i>
   <i type="int" name="NOMEGAPAR">    -1</i>
   <i name="DAMP_NEWTON">      0.80000001</i>
   <i name="LAMBDA">      1.00000000</i>
  </separator>
  <separator name="External order field" >
   <i name="OFIELD_KAPPA">      0.00000000</i>
   <v name="OFIELD_K">      0.00000000      0.00000000      0.00000000</v>
   <i name="OFIELD_Q6_NEAR">      0.00000000</i>
   <i name="OFIELD_Q6_FAR">      0.00000000</i>
   <i name="OFIELD_A">      0.00000000</i>
  </separator>
 </parameters>
 <atominfo>
  <atoms>       1 </atoms>
  <types>       1 </types>
  <array name="atoms" >
   <dimension dim="1">ion</dimension>
   <field type="string">element</field>
   <field type="int">atomtype</field>
   <set>
    <rc><c>Si</c><c>   1</c></rc>
   </set>
  </array>
  <array name="atomtypes" >
   <dimension dim="1">type</dimension>
   <field type="int">atomspertype</field>
   <field type="string">element</field>
   <field>mass</field>
   <field>valence</field>
   <field type="string">pseudopotential</field>
   <set>
    <rc><c>   1</c><c>Si</c><c>     28.08500000</c><c>      4.00000000</c><c>  PAW_PBE Si 05Jan2001                  </c></rc>
   </set>
  </array>
 </atominfo>
 <structure name="initialpos" >
  <crystal>
   <varray name="basis" >
    <v>       2.34739500       0.00000000       1.35526800 </v>
    <v>       0.78246500       2.21314500       1.35526800 </v>
    <v>       0.00000000       0.00000000       2.71053800 </v>
   </varray>
   <i name="volume">     14.08158510 </i>
   <varray name="rec_basis" >
    <v>       0.42600415      -0.15061523       0.00000000 </v>
    <v>       0.00000000       0.45184568       0.00000000 </v>
    <v>      -0.21300192      -0.15061511       0.36893045 </v>
   </varray>
  </crystal>
  <varray name="positions" >
   <v>       0.00000000       0.00000000       0.00000000 </v>
  </varray>
 </structure>
 <calculation>
  <scstep>
   <time name="dav">    0.29    0.29</time>
   <time name="total">    0.47    0.48</time>
   <energy>
    <i name="alphaZ">      2.39057823 </i>
    <i name="ewald">   -137.78496289 </i>
    <i name="hartreedc">     -0.54229904 </i>
    <i name="XCdc">     -8.73348015 </i>
    <i name="pawpsdc">     88.12379961 </i>
    <i name="pawaedc">    -70.53051779 </i>
    <i name="eentropy">     -0.00075254 </i>
    <i name="bandstr">     20.51698221 </i>
    <i name="atom">    103.06562707 </i>
    <i name="e_fr_energy">     -3.49502528 </i>
    <i name="e_wo_entrp">     -3.49427274 </i>
    <i name="e_0_energy">     -3.49464901 </i>
   </energy>
  </scstep>
  <scstep>
   <time name="dav">    0.39    0.41</time>
   <time name="total">    0.40    0.41</time>
   <energy>
    <i name="e_fr_energy">     -4.90621296 </i>
    <i name="e_wo_entrp">     -4.90557660 </i>
    <i name="e_0_energy">     -4.90589478 </i>
   </energy>
  </scstep>
  <scstep>
   <time name="dav">    0.26    0.27</time>
   <time name="total">    0.27    0.27</time>
   <energy>
    <i name="e_fr_energy">     -4.91323202 </i>
    <i name="e_wo_entrp">     -4.91260885 </i>
    <i name="e_0_energy">     -4.91292044 </i>
   </energy>
  </scstep>
  <scstep>
   <time name="dav">    0.42    0.43</time>
   <time name="total">    0.42    0.44</time>
   <energy>
    <i name="e_fr_energy">     -4.91323864 </i>
    <i name="e_wo_entrp">     -4.91261548 </i>
    <i name="e_0_energy">     -4.91292706 </i>
   </energy>
  </scstep>
  <scstep>
   <time name="dav">    0.26    0.27</time>
   <time name="total">    0.29    0.30</time>
   <energy>
    <i name="e_fr_energy">     -4.91323864 </i>
    <i name="e_wo_entrp">     -4.91261548 </i>
    <i name="e_0_energy">     -4.91292706 </i>
   </energy>
  </scstep>
  <scstep>
   <time name="dav">    0.30    0.30</time>
   <time name="total">    0.50    0.51</time>
   <energy>
    <i name="e_fr_energy">     -4.89988443 </i>
    <i name="e_wo_entrp">     -4.89925790 </i>
    <i name="e_0_energy">     -4.89957116 </i>
   </energy>
  </scstep>
  <scstep>
   <time name="dav">    0.29    0.29</time>
   <time name="total">    0.50    0.51</time>
   <energy>
    <i name="e_fr_energy">     -4.89218220 </i>
    <i name="e_wo_entrp">     -4.89153908 </i>
    <i name="e_0_energy">     -4.89186064 </i>
   </energy>
  </scstep>
  <scstep>
   <time name="dav">    0.37    0.38</time>
   <time name="total">    0.58    0.60</time>
   <energy>
    <i name="e_fr_energy">     -4.89214371 </i>
    <i name="e_wo_entrp">     -4.89149800 </i>
    <i name="e_0_energy">     -4.89182085 </i>
   </energy>
  </scstep>
  <scstep>
   <time name="dav">    0.30    0.30</time>
   <time name="total">    0.49    0.50</time>
   <energy>
    <i name="alphaZ">      2.39057823 </i>
    <i name="ewald">   -137.78496289 </i>
    <i name="hartreedc">     -0.40482643 </i>
    <i name="XCdc">     -8.67214712 </i>
    <i name="pawpsdc">    317.94598188 </i>
    <i name="pawaedc">   -300.36584163 </i>
    <i name="eentropy">     -0.00064610 </i>
    <i name="bandstr">     18.93409295 </i>
    <i name="atom">    103.06562707 </i>
    <i name="e_fr_energy">     -4.89214403 </i>
    <i name="e_wo_entrp">     -4.89149793 </i>
    <i name="e_0_energy">     -4.89182098 </i>
   </energy>
  </scstep>
  <structure>
   <crystal>
    <varray name="basis" >
     <v>       2.34739500       0.00000000       1.35526800 </v>
     <v>       0.78246500       2.21314500       1.35526800 </v>
     <v>       0.00000000       0.00000000       2.71053800 </v>
    </varray>
    <i name="volume">     14.08158510 </i>
    <varray name="rec_basis" >
     <v>       0.42600415      -0.15061523       0.00000000 </v>
     <v>       0.00000000       0.45184568       0.00000000 </v>
     <v>      -0.21300192      -0.15061511       0.36893045 </v>
    </varray>
   </crystal>
   <varray name="positions" >
    <v>       0.00000000       0.00000000       0.00000000 </v>
   </varray>
  </structure>
  <varray name="forces" >
   <v>       0.00000000       0.00000000       0.00000000 </v>
  </varray>
  <varray name="stress" >
   <v>      26.07848263      -0.00000000      -0.00001111 </v>
   <v>      -0.00000000      26.07847721      -0.00000786 </v>
   <v>      -0.00001111      -0.00000786      26.07847743 </v>
  </varray>
  <energy>
   <i name="e_fr_energy">     -4.89214403 </i>
   <i name="e_wo_entrp">     -4.89149793 </i>
   <i name="e_0_energy">     -4.89182098 </i>
  </energy>
  <time name="totalsc">    4.70    4.91</time>
 </calculation>
 <calculation>
  <scstep>
   <time name="dav">    0.29    0.29</time>
   <time name="total">    0.49    0.50</time>
   <energy>
    <i name="alphaZ">      2.31299918 </i>
    <i name="ewald">   -136.27807685 </i>
    <i name="hartreedc">     -0.40034705 </i>
    <i name="XCdc">     -8.75812410 </i>
    <i name="pawpsdc">    317.98399019 </i>
    <i name="pawaedc">   -300.40357903 </i>
    <i name="eentropy">     -0.00096433 </i>
    <i name="bandstr">     17.58155450 </i>
    <i name="atom">    103.06562707 </i>
    <i name="e_fr_energy">     -4.89692042 </i>
    <i name="e_wo_entrp">     -4.89595610 </i>
    <i name="e_0_energy">     -4.89643826 </i>
   </energy>
  </scstep>
  <scstep>
   <time name="dav">    0.32    0.32</time>
   <time name="total">    0.53    0.54</time>
   <energy>
    <i name="e_fr_energy">     -4.89570224 </i>
    <i name="e_wo_entrp">     -4.89475155 </i>
    <i name="e_0_energy">     -4.89522690 </i>
   </energy>
  </scstep>
  <scstep>
   <time name="dav">    0.28    0.28</time>
   <time name="total">    0.49    0.50</time>
   <energy>
    <i name="e_fr_energy">     -4.89498340 </i>
    <i name="e_wo_entrp">     -4.89404862 </i>
    <i name="e_0_energy">     -4.89451601 </i>
   </energy>
  </scstep>
  <scstep>
   <time name="dav">    0.34    0.34</time>
   <time name="total">    0.55    0.56</time>
   <energy>
    <i name="e_fr_energy">     -4.89498246 </i>
    <i name="e_wo_entrp">     -4.89404762 </i>
    <i name="e_0_energy">     -4.89451504 </i>
   </energy>
  </scstep>
  <scstep>
   <time name="dav">    0.25    0.25</time>
   <time name="total">    0.46    0.47</time>
   <energy>
    <i name="e_fr_energy">     -4.89497841 </i>
    <i name="e_wo_entrp">     -4.89404366 </i>
    <i name="e_0_energy">     -4.89451103 </i>
   </energy>
  </scstep>
  <scstep>
   <time name="dav">    0.17    0.17</time>
   <time name="total">    0.36    0.37</time>
   <energy>
    <i name="alphaZ">      2.31299918 </i>
    <i name="ewald">   -136.27807685 </i>
    <i name="hartreedc">     -0.45110350 </i>
    <i name="XCdc">     -8.76945669 </i>
    <i name="pawpsdc">    295.67487783 </i>
    <i name="pawaedc">   -278.08798902 </i>
    <i name="eentropy">     -0.00093474 </i>
    <i name="bandstr">     17.63907808 </i>
    <i name="atom">    103.06562707 </i>
    <i name="e_fr_energy">     -4.89497865 </i>
    <i name="e_wo_entrp">     -4.89404390 </i>
    <i name="e_0_energy">     -4.89451128 </i>
   </energy>
  </scstep>
  <structure>
   <crystal>
    <varray name="basis" >
     <v>       2.37335117      -0.00000000       1.37025378 </v>
     <v>       0.79111705       2.23761670       1.37025378 </v>
     <v>      -0.00000001      -0.00000001       2.74050960 </v>
    </varray>
    <i name="volume">     14.55388793 </i>
    <varray name="rec_basis" >
     <v>       0.42134515      -0.14896802       0.00000000 </v>
     <v>       0.00000000       0.44690406       0.00000000 </v>
     <v>      -0.21067242      -0.14896791       0.36489564 </v>
    </varray>
   </crystal>
   <varray name="positions" >
    <v>       0.00000000       0.00000000       0.00000000 </v>
   </varray>
  </structure>
  <varray name="forces" >
   <v>       0.00000000      -0.00000000       0.00000000 </v>
  </varray>
  <varray name="stress" >
   <v>      -5.84857365       0.00000000       0.00000255 </v>
   <v>       0.00000000      -5.84857241       0.00000180 </v>
   <v>       0.00000255       0.00000180      -5.84857246 </v>
  </varray>
  <energy>
   <i name="e_fr_energy">     -4.89497865 </i>
   <i name="e_wo_entrp">     -4.89404390 </i>
   <i name="e_0_energy">     -4.89451128 </i>
  </energy>
  <time name="totalsc">    3.64    3.79</time>
 </calculation>
 <calculation>
  <scstep>
   <time name="dav">    0.28    0.28</time>
   <time name="total">    0.49    0.49</time>
   <energy>
    <i name="alphaZ">      2.32800365 </i>
    <i name="ewald">   -136.57212146 </i>
    <i name="hartreedc">     -0.45207340 </i>
    <i name="XCdc">     -8.75283184 </i>
    <i name="pawpsdc">    295.55008029 </i>
    <i name="pawaedc">   -277.96320103 </i>
    <i name="eentropy">     -0.00085897 </i>
    <i name="bandstr">     17.90214877 </i>
    <i name="atom">    103.06562707 </i>
    <i name="e_fr_energy">     -4.89522693 </i>
    <i name="e_wo_entrp">     -4.89436795 </i>
    <i name="e_0_energy">     -4.89479744 </i>
   </energy>
  </scstep>
  <scstep>
   <time name="dav">    0.33    0.33</time>
   <time name="total">    0.54    0.54</time>
   <energy>
    <i name="e_fr_energy">     -4.89517908 </i>
    <i name="e_wo_entrp">     -4.89431940 </i>
    <i name="e_0_energy">     -4.89474924 </i>
   </energy>
  </scstep>
  <scstep>
   <time name="dav">    0.29    0.29</time>
   <time name="total">    0.49    0.51</time>
   <energy>
    <i name="e_fr_energy">     -4.89515206 </i>
    <i name="e_wo_entrp">     -4.89429128 </i>
    <i name="e_0_energy">     -4.89472167 </i>
   </energy>
  </scstep>
  <scstep>
   <time name="dav">    0.19    0.19</time>
   <time name="total">    0.40    0.40</time>
   <energy>
    <i name="e_fr_energy">     -4.89515210 </i>
    <i name="e_wo_entrp">     -4.89429132 </i>
    <i name="e_0_energy">     -4.89472171 </i>
   </energy>
  </scstep>
  <scstep>
   <time name="dav">    0.16    0.17</time>
   <time name="total">    0.38    0.39</time>
   <energy>
    <i name="e_fr_energy">     -4.89515249 </i>
    <i name="e_wo_entrp">     -4.89429169 </i>
    <i name="e_0_energy">     -4.89472209 </i>
   </energy>
  </scstep>
  <scstep>
   <time name="dav">    0.18    0.18</time>
   <time name="total">    0.37    0.38</time>
   <energy>
    <i name="alphaZ">      2.32800365 </i>
    <i name="ewald">   -136.57212146 </i>
    <i name="hartreedc">     -0.44148492 </i>
    <i name="XCdc">     -8.75056311 </i>
    <i name="pawpsdc">    299.65469724 </i>
    <i name="pawaedc">   -282.06903607 </i>
    <i name="eentropy">     -0.00086080 </i>
    <i name="bandstr">     17.89058596 </i>
    <i name="atom">    103.06562707 </i>
    <i name="e_fr_energy">     -4.89515244 </i>
    <i name="e_wo_entrp">     -4.89429165 </i>
    <i name="e_0_energy">     -4.89472204 </i>
   </energy>
  </scstep>
  <structure>
   <crystal>
    <varray name="basis" >
     <v>       2.36824126      -0.00000000       1.36730357 </v>
     <v>       0.78941375       2.23279904       1.36730357 </v>
     <v>      -0.00000001      -0.00000001       2.73460918 </v>
    </varray>
    <i name="volume">     14.46008507 </i>
    <varray name="rec_basis" >
     <v>       0.42225428      -0.14928945       0.00000000 </v>
     <v>       0.00000000       0.44786834       0.00000000 </v>
     <v>      -0.21112698      -0.14928934       0.36568297 </v>
    </varray>
   </crystal>
   <varray name="positions" >
    <v>      -0.00000000      -0.00000000       0.00000000 </v>
   </varray>
  </structure>
  <varray name="forces" >
   <v>       0.00000000       0.00000000       0.00000000 </v>
  </varray>
  <varray name="stress" >
   <v>       0.02374218      -0.00000000      -0.00000001 </v>
   <v>      -0.00000000       0.02374217      -0.00000001 </v>
   <v>      -0.00000001      -0.00000001       0.02374217 </v>
  </varray>
  <energy>
   <i name="e_fr_energy">     -4.89515244 </i>
   <i name="e_wo_entrp">     -4.89429165 </i>
   <i name="e_0_energy">     -4.89472204 </i>
  </energy>
  <time name="totalsc">    3.39    3.54</time>
  <eigenvalues>
   <array>
    <dimension dim="1">band</dimension>
    <dimension dim="2">kpoint</dimension>
    <dimension dim="3">spin</dimension>
    <field>eigene</field>
    <field>occ</field>
    <set>
     <set comment="spin 1">
      <set comment="kpoint 1">
       <r>   -4.2818    1.0000 </r>
       <r>   21.3262    0.0000 </r>
       <r>   21.3262    0.0000 </r>
       <r>   21.3262    0.0000 </r>
       <r>   22.1416    0.0000 </r>
       <r>   22.1416    0.0000 </r>
       <r>   22.1416    0.0000 </r>
       <r>   27.4524    0.0000 </r>
      </set>
      <set comment="kpoint 2">
       <r>   -4.0411    1.0000 </r>
       <r>   18.1733    0.0000 </r>
       <r>   20.3691    0.0000 </r>
       <r>   20.3691    0.0000 </r>
       <r>   23.3546    0.0000 </r>
       <r>   23.3749    0.0000 </r>
       <r>   23.3749    0.0000 </r>
       <r>   27.9784    0.0000 </r>
      </set>
      <set comment="kpoint 3">
       <r>   -3.3205    1.0000 </r>
       <r>   14.2892    0.0000 </r>
       <r>   19.4616    0.0000 </r>
       <r>   19.4616    0.0000 </r>
       <r>   23.4120    0.0000 </r>
       <r>   24.3673    0.0000 </r>
       <r>   24.3673    0.0000 </r>
       <r>   27.1208    0.0000 </r>
      </set>
      <set comment="kpoint 4">
       <r>   -2.1258    1.0000 </r>
       <r>   10.5889    0.0000 </r>
       <r>   18.9190    0.0000 </r>
       <r>   18.9190    0.0000 </r>
       <r>   23.2803    0.0000 </r>
       <r>   23.2866    0.0000 </r>
       <r>   23.2866    0.0000 </r>
       <r>   28.5637    0.0000 </r>
      </set>
      <set comment="kpoint 5">
       <r>   -0.4671    1.0000 </r>
       <r>    7.2235    1.0000 </r>
       <r>   18.7156    0.0000 </r>
       <r>   18.7156    0.0000 </r>
       <r>   21.9773    0.0000 </r>
       <r>   21.9773    0.0000 </r>
       <r>   23.3025    0.0000 </r>
       <r>   27.0592    0.0000 </r>
      </set>
      <set comment="kpoint 6">
       <r>    1.6254    1.0000 </r>
       <r>    4.2692    1.0000 </r>
       <r>   18.7310    0.0000 </r>
       <r>   18.7310    0.0000 </r>
       <r>   21.1617    0.0000 </r>
       <r>   21.1617    0.0000 </r>
       <r>   23.4541    0.0000 </r>
       <r>   26.1159    0.0000 </r>
      </set>
      <set comment="kpoint 7">
       <r>   -3.9608    1.0000 </r>
       <r>   18.9951    0.0000 </r>
       <r>   18.9951    0.0000 </r>
       <r>   20.6002    0.0000 </r>
       <r>   20.6361    0.0000 </r>
       <r>   24.8630    0.0000 </r>
       <r>   24.8630    0.0000 </r>
       <r>   26.0948    0.0000 </r>
      </set>
      <set comment="kpoint 8">
       <r>   -3.4003    1.0000 </r>
       <r>   15.7244    0.0000 </r>
       <r>   17.9626    0.0000 </r>
       <r>   19.6982    0.0000 </r>
       <r>   21.5038    0.0000 </r>
       <r>   24.1873    0.0000 </r>
       <r>   25.6643    0.0000 </r>
       <r>   26.2563    0.0000 </r>
      </set>
      <set comment="kpoint 9">
       <r>   -2.3638    1.0000 </r>
       <r>   11.9749    0.0000 </r>
       <r>   17.3282    0.0000 </r>
       <r>   18.9051    0.0000 </r>
       <r>   21.1233    0.0000 </r>
       <r>   24.5226    0.0000 </r>
       <r>   25.7344    0.0000 </r>
       <r>   26.1036    0.0000 </r>
      </set>
      <set comment="kpoint 10">
       <r>   -0.8597    1.0000 </r>
       <r>    8.5001    1.0000 </r>
       <r>   17.0995    0.0000 </r>
       <r>   18.1133    0.0000 </r>
       <r>   20.1587    0.0000 </r>
       <r>   24.3437    0.0000 </r>
       <r>   24.9850    0.0000 </r>
       <r>   27.9867    0.0000 </r>
      </set>
      <set comment="kpoint 11">
       <r>    1.0945    1.0000 </r>
       <r>    5.4037    1.0000 </r>
       <r>   17.1916    0.0000 </r>
       <r>   17.2695    0.0000 </r>
       <r>   20.0041    0.0000 </r>
       <r>   23.1560    0.0000 </r>
       <r>   25.0243    0.0000 </r>
       <r>   28.1565    0.0000 </r>
      </set>
      <set comment="kpoint 12">
       <r>    2.5702    1.0000 </r>
       <r>    3.6405    1.0000 </r>
       <r>   16.4157    0.0000 </r>
       <r>   17.8147    0.0000 </r>
       <r>   20.5208    0.0000 </r>
       <r>   22.3635    0.0000 </r>
       <r>   24.8674    0.0000 </r>
       <r>   28.0641    0.0000 </r>
      </set>
      <set comment="kpoint 13">
       <r>    0.3953    1.0000 </r>
       <r>    6.3889    1.0000 </r>
       <r>   15.9745    0.0000 </r>
       <r>   18.6737    0.0000 </r>
       <r>   21.5369    0.0000 </r>
       <r>   22.0613    0.0000 </r>
       <r>   24.6112    0.0000 </r>
       <r>   28.7258    0.0000 </r>
      </set>
      <set comment="kpoint 14">
       <r>   -1.4123    1.0000 </r>
       <r>    9.6181    1.0000 </r>
       <r>   15.9284    0.0000 </r>
       <r>   19.6995    0.0000 </r>
       <r>   22.3671    0.0000 </r>
       <r>   22.9549    0.0000 </r>
       <r>   24.4536    0.0000 </r>
       <r>   27.9431    0.0000 </r>
      </set>
      <set comment="kpoint 15">
       <r>   -2.7619    1.0000 </r>
       <r>   13.1958    0.0000 </r>
       <r>   16.2968    0.0000 </r>
       <r>   20.6874    0.0000 </r>
       <r>   23.1848    0.0000 </r>
       <r>   24.3650    0.0000 </r>
       <r>   24.5903    0.0000 </r>
       <r>   25.6628    0.0000 </r>
      </set>
      <set comment="kpoint 16">
       <r>   -3.6404    1.0000 </r>
       <r>   16.8254    0.0000 </r>
       <r>   17.2389    0.0000 </r>
       <r>   21.4067    0.0000 </r>
       <r>   22.7567    0.0000 </r>
       <r>   23.9767    0.0000 </r>
       <r>   25.1155    0.0000 </r>
       <r>   26.0154    0.0000 </r>
      </set>
      <set comment="kpoint 17">
       <r>   -3.0007    1.0000 </r>
       <r>   16.7957    0.0000 </r>
       <r>   16.7957    0.0000 </r>
       <r>   18.3934    0.0000 </r>
       <r>   18.6721    0.0000 </r>
       <r>   21.6772    0.0000 </r>
       <r>   28.1503    0.0000 </r>
       <r>   28.1503    0.0000 </r>
      </set>
      <set comment="kpoint 18">
       <r>   -2.1247    1.0000 </r>
       <r>   13.7165    0.0000 </r>
       <r>   16.0287    0.0000 </r>
       <r>   17.2535    0.0000 </r>
       <r>   18.7117    0.0000 </r>
       <r>   21.2088    0.0000 </r>
       <r>   28.5136    0.0000 </r>
       <r>   28.9912    0.0000 </r>
      </set>
      <set comment="kpoint 19">
       <r>   -0.7792    1.0000 </r>
       <r>   10.1969    0.0000 </r>
       <r>   15.6739    0.0000 </r>
       <r>   15.7052    0.0000 </r>
       <r>   18.3650    0.0000 </r>
       <r>   23.3651    0.0000 </r>
       <r>   27.2695    0.0000 </r>
       <r>   29.0660    0.0000 </r>
      </set>
      <set comment="kpoint 20">
       <r>    1.0231    1.0000 </r>
       <r>    6.9893    1.0000 </r>
       <r>   14.3058    0.0000 </r>
       <r>   15.7333    0.0000 </r>
       <r>   18.3905    0.0000 </r>
       <r>   25.9204    0.0000 </r>
       <r>   26.0178    0.0000 </r>
       <r>   29.1278    0.0000 </r>
      </set>
      <set comment="kpoint 21">
       <r>    3.1965    1.0000 </r>
       <r>    4.2462    1.0000 </r>
       <r>   13.2562    0.0000 </r>
       <r>   16.2019    0.0000 </r>
       <r>   18.8953    0.0000 </r>
       <r>   25.0731    0.0000 </r>
       <r>   27.1361    0.0000 </r>
       <r>   30.4048    0.0000 </r>
      </set>
      <set comment="kpoint 22">
       <r>    1.7201    1.0000 </r>
       <r>    6.0037    1.0000 </r>
       <r>   12.6197    0.0000 </r>
       <r>   17.0653    0.0000 </r>
       <r>   19.8537    0.0000 </r>
       <r>   24.5194    0.0000 </r>
       <r>   26.9372    0.0000 </r>
       <r>   30.5176    0.0000 </r>
      </set>
      <set comment="kpoint 23">
       <r>   -0.2288    1.0000 </r>
       <r>    9.0661    1.0000 </r>
       <r>   12.4284    0.0000 </r>
       <r>   18.2898    0.0000 </r>
       <r>   21.2280    0.0000 </r>
       <r>   24.4012    0.0000 </r>
       <r>   26.5026    0.0000 </r>
       <r>   27.4184    0.0000 </r>
      </set>
      <set comment="kpoint 24">
       <r>   -1.7285    1.0000 </r>
       <r>   12.1771    0.0000 </r>
       <r>   12.9882    0.0000 </r>
       <r>   19.7592    0.0000 </r>
       <r>   22.9291    0.0000 </r>
       <r>   24.6012    0.0000 </r>
       <r>   24.8727    0.0000 </r>
       <r>   25.7445    0.0000 </r>
      </set>
      <set comment="kpoint 25">
       <r>   -1.4104    1.0000 </r>
       <r>   15.1021    0.0000 </r>
       <r>   15.1241    0.0000 </r>
       <r>   15.1241    0.0000 </r>
       <r>   16.5565    0.0000 </r>
       <r>   18.9768    0.0000 </r>
       <r>   31.3194    0.0000 </r>
       <r>   31.3197    0.0000 </r>
      </set>
      <set comment="kpoint 26">
       <r>   -0.2264    1.0000 </r>
       <r>   12.2100    0.0000 </r>
       <r>   13.2235    0.0000 </r>
       <r>   14.6330    0.0000 </r>
       <r>   16.9518    0.0000 </r>
       <r>   19.6851    0.0000 </r>
       <r>   30.4461    0.0000 </r>
       <r>   32.0467    0.0000 </r>
      </set>
      <set comment="kpoint 27">
       <r>    1.4167    1.0000 </r>
       <r>    8.9854    1.0000 </r>
       <r>   11.5454    0.0000 </r>
       <r>   14.5593    0.0000 </r>
       <r>   17.0636    0.0000 </r>
       <r>   22.3626    0.0000 </r>
       <r>   29.2412    0.0000 </r>
       <r>   31.7255    0.0000 </r>
      </set>
      <set comment="kpoint 28">
       <r>    3.4902    1.0000 </r>
       <r>    6.0808    1.0000 </r>
       <r>   10.2956    0.0000 </r>
       <r>   14.9016    0.0000 </r>
       <r>   17.4799    0.0000 </r>
       <r>   25.5184    0.0000 </r>
       <r>   28.2173    0.0000 </r>
       <r>   30.9562    0.0000 </r>
      </set>
      <set comment="kpoint 29">
       <r>    3.4919    1.0000 </r>
       <r>    6.0589    1.0000 </r>
       <r>    9.5039    1.0000 </r>
       <r>   15.6546    0.0000 </r>
       <r>   18.3265    0.0000 </r>
       <r>   27.5235    0.0000 </r>
       <r>   28.4781    0.0000 </r>
       <r>   30.0822    0.0000 </r>
      </set>
      <set comment="kpoint 30">
       <r>    1.4146    1.0000 </r>
       <r>    8.5875    1.0000 </r>
       <r>    9.5280    1.0000 </r>
       <r>   16.8020    0.0000 </r>
       <r>   19.5965    0.0000 </r>
       <r>   26.9871    0.0000 </r>
       <r>   27.6082    0.0000 </r>
       <r>   28.3989    0.0000 </r>
      </set>
      <set comment="kpoint 31">
       <r>    0.7941    1.0000 </r>
       <r>   10.9022    0.0000 </r>
       <r>   14.0036    0.0000 </r>
       <r>   14.0036    0.0000 </r>
       <r>   15.2970    0.0000 </r>
       <r>   17.6779    0.0000 </r>
       <r>   33.1312    0.0000 </r>
       <r>   34.0870    0.0000 </r>
      </set>
      <set comment="kpoint 32">
       <r>    2.2715    1.0000 </r>
       <r>    9.0468    1.0000 </r>
       <r>   11.4216    0.0000 </r>
       <r>   13.7924    0.0000 </r>
       <r>   16.0090    0.0000 </r>
       <r>   18.8243    0.0000 </r>
       <r>   32.5292    0.0000 </r>
       <r>   34.4632    0.0000 </r>
      </set>
      <set comment="kpoint 33">
       <r>    4.1778    1.0000 </r>
       <r>    7.5676    1.0000 </r>
       <r>    8.5264    1.0000 </r>
       <r>   13.9997    0.0000 </r>
       <r>   16.4424    0.0000 </r>
       <r>   21.8401    0.0000 </r>
       <r>   31.5261    0.0000 </r>
       <r>   33.5601    0.0000 </r>
      </set>
      <set comment="kpoint 34">
       <r>    5.6482    1.0000 </r>
       <r>    6.1768    1.0000 </r>
       <r>    7.1992    1.0000 </r>
       <r>   14.6229    0.0000 </r>
       <r>   17.1775    0.0000 </r>
       <r>   25.3231    0.0000 </r>
       <r>   30.3537    0.0000 </r>
       <r>   31.5617    0.0000 </r>
      </set>
      <set comment="kpoint 35">
       <r>    3.5690    1.0000 </r>
       <r>    7.0502    1.0000 </r>
       <r>   13.4422    0.0000 </r>
       <r>   13.4422    0.0000 </r>
       <r>   14.6641    0.0000 </r>
       <r>   17.0664    0.0000 </r>
       <r>   34.5784    0.0000 </r>
       <r>   36.0893    0.0000 </r>
      </set>
      <set comment="kpoint 36">
       <r>    4.9695    1.0000 </r>
       <r>    5.8138    1.0000 </r>
       <r>   11.1145    0.0000 </r>
       <r>   13.5117    0.0000 </r>
       <r>   15.6972    0.0000 </r>
       <r>   18.5375    0.0000 </r>
       <r>   34.0158    0.0000 </r>
       <r>   35.6123    0.0000 </r>
      </set>
      <set comment="kpoint 37">
       <r>   -2.6820    1.0000 </r>
       <r>   14.5255    0.0000 </r>
       <r>   15.1209    0.0000 </r>
       <r>   19.6492    0.0000 </r>
       <r>   21.1803    0.0000 </r>
       <r>   22.8068    0.0000 </r>
       <r>   26.4413    0.0000 </r>
       <r>   27.0949    0.0000 </r>
      </set>
      <set comment="kpoint 38">
       <r>   -1.4907    1.0000 </r>
       <r>   11.1442    0.0000 </r>
       <r>   14.3696    0.0000 </r>
       <r>   18.1292    0.0000 </r>
       <r>   21.2599    0.0000 </r>
       <r>   23.9151    0.0000 </r>
       <r>   25.3479    0.0000 </r>
       <r>   27.6598    0.0000 </r>
      </set>
      <set comment="kpoint 39">
       <r>    0.1631    1.0000 </r>
       <r>    7.8165    1.0000 </r>
       <r>   14.2663    0.0000 </r>
       <r>   16.6590    0.0000 </r>
       <r>   21.1123    0.0000 </r>
       <r>   23.5115    0.0000 </r>
       <r>   26.4911    0.0000 </r>
       <r>   28.3946    0.0000 </r>
      </set>
      <set comment="kpoint 40">
       <r>    2.2508    1.0000 </r>
       <r>    4.8771    1.0000 </r>
       <r>   14.5387    0.0000 </r>
       <r>   15.5715    0.0000 </r>
       <r>   21.2810    0.0000 </r>
       <r>   22.5672    0.0000 </r>
       <r>   27.1940    0.0000 </r>
       <r>   30.5116    0.0000 </r>
      </set>
      <set comment="kpoint 41">
       <r>   -1.0944    1.0000 </r>
       <r>   12.7615    0.0000 </r>
       <r>   13.4024    0.0000 </r>
       <r>   15.6244    0.0000 </r>
       <r>   19.4814    0.0000 </r>
       <r>   20.8506    0.0000 </r>
       <r>   28.0264    0.0000 </r>
       <r>   30.7303    0.0000 </r>
      </set>
      <set comment="kpoint 42">
       <r>    0.4007    1.0000 </r>
       <r>    9.6511    1.0000 </r>
       <r>   12.8501    0.0000 </r>
       <r>   13.9463    0.0000 </r>
       <r>   19.8335    0.0000 </r>
       <r>   22.9145    0.0000 </r>
       <r>   26.7630    0.0000 </r>
       <r>   31.2171    0.0000 </r>
      </set>
      <set comment="kpoint 43">
       <r>    2.3431    1.0000 </r>
       <r>    6.6053    1.0000 </r>
       <r>   12.3057    0.0000 </r>
       <r>   13.3177    0.0000 </r>
       <r>   20.0894    0.0000 </r>
       <r>   25.0212    0.0000 </r>
       <r>   26.4685    0.0000 </r>
       <r>   30.8783    0.0000 </r>
      </set>
      <set comment="kpoint 44">
       <r>    3.8201    1.0000 </r>
       <r>    4.8452    1.0000 </r>
       <r>   11.4411    0.0000 </r>
       <r>   13.8809    0.0000 </r>
       <r>   20.7212    0.0000 </r>
       <r>   24.5002    0.0000 </r>
       <r>   29.0072    0.0000 </r>
       <r>   29.5594    0.0000 </r>
      </set>
      <set comment="kpoint 45">
       <r>    1.6475    1.0000 </r>
       <r>    7.5615    1.0000 </r>
       <r>   10.9661    0.0000 </r>
       <r>   14.9359    0.0000 </r>
       <r>   21.7078    0.0000 </r>
       <r>   24.0719    0.0000 </r>
       <r>   26.9080    0.0000 </r>
       <r>   30.1430    0.0000 </r>
      </set>
      <set comment="kpoint 46">
       <r>   -0.1495    1.0000 </r>
       <r>   10.3878    0.0000 </r>
       <r>   11.2672    0.0000 </r>
       <r>   16.3984    0.0000 </r>
       <r>   22.8514    0.0000 </r>
       <r>   23.5133    0.0000 </r>
       <r>   24.7737    0.0000 </r>
       <r>   29.4080    0.0000 </r>
      </set>
      <set comment="kpoint 47">
       <r>    1.1060    1.0000 </r>
       <r>   11.1077    0.0000 </r>
       <r>   11.5757    0.0000 </r>
       <r>   12.4923    0.0000 </r>
       <r>   18.3076    0.0000 </r>
       <r>   19.7338    0.0000 </r>
       <r>   29.9924    0.0000 </r>
       <r>   33.9065    0.0000 </r>
      </set>
      <set comment="kpoint 48">
       <r>    2.8879    1.0000 </r>
       <r>    8.6961    1.0000 </r>
       <r>    9.7281    1.0000 </r>
       <r>   12.1641    0.0000 </r>
       <r>   18.9750    0.0000 </r>
       <r>   22.1819    0.0000 </r>
       <r>   28.8819    0.0000 </r>
       <r>   33.1984    0.0000 </r>
      </set>
      <set comment="kpoint 49">
       <r>    5.0432    1.0000 </r>
       <r>    6.0203    1.0000 </r>
       <r>    8.6128    1.0000 </r>
       <r>   12.6384    0.0000 </r>
       <r>   19.5440    0.0000 </r>
       <r>   25.4128    0.0000 </r>
       <r>   28.0180    0.0000 </r>
       <r>   30.5387    0.0000 </r>
      </set>
      <set comment="kpoint 50">
       <r>    3.5766    1.0000 </r>
       <r>    7.3831    1.0000 </r>
       <r>    8.3318    1.0000 </r>
       <r>   13.5741    0.0000 </r>
       <r>   20.4767    0.0000 </r>
       <r>   26.9707    0.0000 </r>
       <r>   27.1380    0.0000 </r>
       <r>   29.4041    0.0000 </r>
      </set>
      <set comment="kpoint 51">
       <r>    3.8748    1.0000 </r>
       <r>    7.3432    1.0000 </r>
       <r>   10.9807    0.0000 </r>
       <r>   11.8175    0.0000 </r>
       <r>   17.7155    0.0000 </r>
       <r>   19.1782    0.0000 </r>
       <r>   32.2487    0.0000 </r>
       <r>   34.3514    0.0000 </r>
      </set>
      <set comment="kpoint 52">
       <r>    5.5734    1.0000 </r>
       <r>    6.3875    1.0000 </r>
       <r>    8.5232    1.0000 </r>
       <r>   11.8512    0.0000 </r>
       <r>   18.6858    0.0000 </r>
       <r>   21.9264    0.0000 </r>
       <r>   31.3259    0.0000 </r>
       <r>   31.3824    0.0000 </r>
      </set>
      <set comment="kpoint 53">
       <r>    2.0382    1.0000 </r>
       <r>    9.1891    1.0000 </r>
       <r>   10.0423    0.2463 </r>
       <r>   12.2392    0.0000 </r>
       <r>   22.4077    0.0000 </r>
       <r>   22.9868    0.0000 </r>
       <r>   25.6373    0.0000 </r>
       <r>   32.6909    0.0000 </r>
      </set>
      <set comment="kpoint 54">
       <r>    4.1058    1.0000 </r>
       <r>    6.6562    1.0000 </r>
       <r>    9.9731    0.8985 </r>
       <r>   11.0572    0.0000 </r>
       <r>   22.8726    0.0000 </r>
       <r>   24.1490    0.0000 </r>
       <r>   26.4122    0.0000 </r>
       <r>   29.9529    0.0000 </r>
      </set>
      <set comment="kpoint 55">
       <r>    4.7862    1.0000 </r>
       <r>    8.1439    1.0000 </r>
       <r>    8.5882    1.0000 </r>
       <r>    9.7153    1.0000 </r>
       <r>   21.8376    0.0000 </r>
       <r>   22.6799    0.0000 </r>
       <r>   27.8312    0.0000 </r>
       <r>   30.6107    0.0000 </r>
      </set>
      <set comment="kpoint 56">
       <r>    6.2478    1.0000 </r>
       <r>    6.7806    1.0000 </r>
       <r>    7.7143    1.0000 </r>
       <r>    9.9134    0.9985 </r>
       <r>   22.8037    0.0000 </r>
       <r>   25.4289    0.0000 </r>
       <r>   26.4526    0.0000 </r>
       <r>   28.0800    0.0000 </r>
      </set>
     </set>
    </set>
   </array>
  </eigenvalues>
  <separator name="orbital magnetization" >
   <v name="MAGDIPOLOUT">      0.00000000      0.00000000      0.00000000</v>
  </separator>
  <dos>
   <i name="efermi">     10.01806029 </i>
   <total>
    <array>
     <dimension dim="1">gridpoints</dimension>
     <dimension dim="2">spin</dimension>
     <field>energy</field>
     <field>total</field>
     <field>integrated</field>
     <set>
      <set comment="spin 1">
       <r>    -6.3004     0.0000     0.0000 </r>
       <r>    -6.1524     0.0000     0.0000 </r>
       <r>    -6.0043     0.0000     0.0000 </r>
       <r>    -5.8563     0.0000     0.0000 </r>
       <r>    -5.7083     0.0000     0.0000 </r>
       <r>    -5.5602     0.0000     0.0000 </r>
       <r>    -5.4122     0.0000     0.0000 </r>
       <r>    -5.2642     0.0000     0.0000 </r>
       <r>    -5.1162     0.0000     0.0000 </r>
       <r>    -4.9681     0.0000     0.0000 </r>
       <r>    -4.8201     0.0000     0.0000 </r>
       <r>    -4.6721     0.0000     0.0000 </r>
       <r>    -4.5241     0.0000     0.0000 </r>
       <r>    -4.3760     0.0000     0.0000 </r>
       <r>    -4.2280     0.0095     0.0014 </r>
       <r>    -4.0800     0.0117     0.0031 </r>
       <r>    -3.9319     0.1184     0.0207 </r>
       <r>    -3.7839     0.0127     0.0225 </r>
       <r>    -3.6359     0.0671     0.0325 </r>
       <r>    -3.4879     0.0564     0.0408 </r>
       <r>    -3.3398     0.2552     0.0786 </r>
       <r>    -3.1918     0.0680     0.0887 </r>
       <r>    -3.0438     0.0068     0.0897 </r>
       <r>    -2.8957     0.0540     0.0977 </r>
       <r>    -2.7477     0.1674     0.1224 </r>
       <r>    -2.5997     0.3175     0.1694 </r>
       <r>    -2.4517     0.0040     0.1700 </r>
       <r>    -2.3036     0.2312     0.2043 </r>
       <r>    -2.1556     0.0736     0.2151 </r>
       <r>    -2.0076     0.2619     0.2539 </r>
       <r>    -1.8596     0.0002     0.2539 </r>
       <r>    -1.7115     0.0834     0.2663 </r>
       <r>    -1.5635     0.0481     0.2734 </r>
       <r>    -1.4155     0.6097     0.3637 </r>
       <r>    -1.2674     0.1725     0.3892 </r>
       <r>    -1.1194     0.0584     0.3978 </r>
       <r>    -0.9714     0.1854     0.4253 </r>
       <r>    -0.8234     0.2321     0.4596 </r>
       <r>    -0.6753     0.2546     0.4973 </r>
       <r>    -0.5273     0.0040     0.4979 </r>
       <r>    -0.3793     0.0771     0.5093 </r>
       <r>    -0.2313     0.2268     0.5429 </r>
       <r>    -0.0832     0.4972     0.6165 </r>
       <r>     0.0648     0.0088     0.6178 </r>
       <r>     0.2128     0.4471     0.6840 </r>
       <r>     0.3609     0.1423     0.7050 </r>
       <r>     0.5089     0.6267     0.7978 </r>
       <r>     0.6569     0.0007     0.7979 </r>
       <r>     0.8049     0.0378     0.8035 </r>
       <r>     0.9530     0.0289     0.8078 </r>
       <r>     1.1010     0.4820     0.8791 </r>
       <r>     1.2490     0.2431     0.9151 </r>
       <r>     1.3970     0.1082     0.9311 </r>
       <r>     1.5451     0.2590     0.9695 </r>
       <r>     1.6931     0.5705     1.0539 </r>
       <r>     1.8411     0.2397     1.0894 </r>
       <r>     1.9892     0.0202     1.0924 </r>
       <r>     2.1372     0.2232     1.1254 </r>
       <r>     2.2852     0.5903     1.2128 </r>
       <r>     2.4332     0.6255     1.3054 </r>
       <r>     2.5813     0.1544     1.3283 </r>
       <r>     2.7293     0.0919     1.3418 </r>
       <r>     2.8773     0.1861     1.3694 </r>
       <r>     3.0254     0.3011     1.4140 </r>
       <r>     3.1734     0.0625     1.4232 </r>
       <r>     3.3214     0.1811     1.4500 </r>
       <r>     3.4694     0.1325     1.4696 </r>
       <r>     3.6175     0.6866     1.5713 </r>
       <r>     3.7655     0.2463     1.6077 </r>
       <r>     3.9135     0.6655     1.7063 </r>
       <r>     4.0615     0.0867     1.7191 </r>
       <r>     4.2096     0.6741     1.8189 </r>
       <r>     4.3576     0.3296     1.8677 </r>
       <r>     4.5056     0.0007     1.8678 </r>
       <r>     4.6537     0.0000     1.8678 </r>
       <r>     4.8017     0.2242     1.9010 </r>
       <r>     4.9497     1.0204     2.0520 </r>
       <r>     5.0977     0.5526     2.1338 </r>
       <r>     5.2458     0.0300     2.1382 </r>
       <r>     5.3938     0.0950     2.1523 </r>
       <r>     5.5418     0.1940     2.1810 </r>
       <r>     5.6898     0.3054     2.2262 </r>
       <r>     5.8379     0.1062     2.2420 </r>
       <r>     5.9859     0.1913     2.2703 </r>
       <r>     6.1339     1.0503     2.4257 </r>
       <r>     6.2820     0.3320     2.4749 </r>
       <r>     6.4300     0.4696     2.5444 </r>
       <r>     6.5780     0.1718     2.5698 </r>
       <r>     6.7260     0.8635     2.6977 </r>
       <r>     6.8741     0.2397     2.7332 </r>
       <r>     7.0221     0.2145     2.7649 </r>
       <r>     7.1701     0.1212     2.7828 </r>
       <r>     7.3182     0.2388     2.8182 </r>
       <r>     7.4662     0.4210     2.8805 </r>
       <r>     7.6142     0.6756     2.9805 </r>
       <r>     7.7622     0.3080     3.0261 </r>
       <r>     7.9103     0.4763     3.0966 </r>
       <r>     8.0583     0.0038     3.0972 </r>
       <r>     8.2063     0.2323     3.1316 </r>
       <r>     8.3543     0.1892     3.1596 </r>
       <r>     8.5024     0.3232     3.2074 </r>
       <r>     8.6504     1.2878     3.3981 </r>
       <r>     8.7984     0.5227     3.4754 </r>
       <r>     8.9465     0.0345     3.4806 </r>
       <r>     9.0945     0.6248     3.5730 </r>
       <r>     9.2425     0.3001     3.6175 </r>
       <r>     9.3905     0.0161     3.6199 </r>
       <r>     9.5386     0.2822     3.6616 </r>
       <r>     9.6866     0.8400     3.7860 </r>
       <r>     9.8346     0.7073     3.8907 </r>
       <r>     9.9826     0.5419     3.9709 </r>
       <r>    10.1307     0.4361     4.0354 </r>
       <r>    10.2787     0.3125     4.0817 </r>
       <r>    10.4267     0.3793     4.1379 </r>
       <r>    10.5748     0.0611     4.1469 </r>
       <r>    10.7228     0.0532     4.1548 </r>
       <r>    10.8708     0.0133     4.1567 </r>
       <r>    11.0188     0.7810     4.2723 </r>
       <r>    11.1669     1.1904     4.4486 </r>
       <r>    11.3149     0.3695     4.5032 </r>
       <r>    11.4629     0.5943     4.5912 </r>
       <r>    11.6109     0.5985     4.6798 </r>
       <r>    11.7590     0.0596     4.6886 </r>
       <r>    11.9070     0.4655     4.7575 </r>
       <r>    12.0550     0.2500     4.7945 </r>
       <r>    12.2031     0.6583     4.8920 </r>
       <r>    12.3511     0.8824     5.0226 </r>
       <r>    12.4991     0.4238     5.0853 </r>
       <r>    12.6471     0.5904     5.1727 </r>
       <r>    12.7952     0.4807     5.2439 </r>
       <r>    12.9432     0.5097     5.3193 </r>
       <r>    13.0912     0.1117     5.3359 </r>
       <r>    13.2393     0.4637     5.4045 </r>
       <r>    13.3873     0.8312     5.5275 </r>
       <r>    13.5353     0.4122     5.5886 </r>
       <r>    13.6833     0.2841     5.6306 </r>
       <r>    13.8314     0.4514     5.6974 </r>
       <r>    13.9794     0.9809     5.8426 </r>
       <r>    14.1274     0.3526     5.8948 </r>
       <r>    14.2754     0.3711     5.9497 </r>
       <r>    14.4235     0.8979     6.0827 </r>
       <r>    14.5715     0.8254     6.2048 </r>
       <r>    14.7195     0.6001     6.2937 </r>
       <r>    14.8676     0.0596     6.3025 </r>
       <r>    15.0156     0.6718     6.4019 </r>
       <r>    15.1636     0.3852     6.4590 </r>
       <r>    15.3116     0.0865     6.4718 </r>
       <r>    15.4597     0.0210     6.4749 </r>
       <r>    15.6077     0.5213     6.5520 </r>
       <r>    15.7557     1.4117     6.7610 </r>
       <r>    15.9037     0.2025     6.7910 </r>
       <r>    16.0518     0.8158     6.9118 </r>
       <r>    16.1998     0.2105     6.9429 </r>
       <r>    16.3478     0.3784     6.9989 </r>
       <r>    16.4959     0.7059     7.1034 </r>
       <r>    16.6439     0.2404     7.1390 </r>
       <r>    16.7919     0.4484     7.2054 </r>
       <r>    16.9399     0.3316     7.2545 </r>
       <r>    17.0880     0.6539     7.3513 </r>
       <r>    17.2360     0.8009     7.4698 </r>
       <r>    17.3840     0.6956     7.5728 </r>
       <r>    17.5321     0.2398     7.6083 </r>
       <r>    17.6801     0.0876     7.6213 </r>
       <r>    17.8281     0.3916     7.6792 </r>
       <r>    17.9761     0.2442     7.7154 </r>
       <r>    18.1242     0.4593     7.7834 </r>
       <r>    18.2722     0.5683     7.8675 </r>
       <r>    18.4202     1.0709     8.0260 </r>
       <r>    18.5682     0.1769     8.0522 </r>
       <r>    18.7163     0.7612     8.1649 </r>
       <r>    18.8643     0.6774     8.2652 </r>
       <r>    19.0123     1.1443     8.4346 </r>
       <r>    19.1604     0.1945     8.4633 </r>
       <r>    19.3084     0.1689     8.4884 </r>
       <r>    19.4564     0.1335     8.5081 </r>
       <r>    19.6044     0.8399     8.6324 </r>
       <r>    19.7525     1.2059     8.8109 </r>
       <r>    19.9005     0.8703     8.9398 </r>
       <r>    20.0485     0.3151     8.9864 </r>
       <r>    20.1965     0.6605     9.0842 </r>
       <r>    20.3446     0.0748     9.0953 </r>
       <r>    20.4926     0.3386     9.1454 </r>
       <r>    20.6406     0.3862     9.2026 </r>
       <r>    20.7887     0.7334     9.3111 </r>
       <r>    20.9367     0.2463     9.3476 </r>
       <r>    21.0847     0.1448     9.3690 </r>
       <r>    21.2327     1.4407     9.5823 </r>
       <r>    21.3808     1.0706     9.7408 </r>
       <r>    21.5288     0.3817     9.7973 </r>
       <r>    21.6768     0.3253     9.8454 </r>
       <r>    21.8248     0.5940     9.9333 </r>
       <r>    21.9729     0.6137    10.0242 </r>
       <r>    22.1209     0.3723    10.0793 </r>
       <r>    22.2689     0.4990    10.1531 </r>
       <r>    22.4170     0.8283    10.2758 </r>
       <r>    22.5650     0.3784    10.3318 </r>
       <r>    22.7130     0.4724    10.4017 </r>
       <r>    22.8610     0.9733    10.5458 </r>
       <r>    23.0091     1.4070    10.7541 </r>
       <r>    23.1571     0.2607    10.7927 </r>
       <r>    23.3051     0.5493    10.8740 </r>
       <r>    23.4532     0.7143    10.9797 </r>
       <r>    23.6012     0.7470    11.0903 </r>
       <r>    23.7492     0.0043    11.0909 </r>
       <r>    23.8972     0.1509    11.1132 </r>
       <r>    24.0453     0.5656    11.1970 </r>
       <r>    24.1933     0.9539    11.3382 </r>
       <r>    24.3413     0.3820    11.3947 </r>
       <r>    24.4893     1.1481    11.5647 </r>
       <r>    24.6374     1.2499    11.7497 </r>
       <r>    24.7854     0.2556    11.7875 </r>
       <r>    24.9334     0.5790    11.8732 </r>
       <r>    25.0815     1.0978    12.0357 </r>
       <r>    25.2295     0.2363    12.0707 </r>
       <r>    25.3775     0.5986    12.1593 </r>
       <r>    25.5255     0.8811    12.2897 </r>
       <r>    25.6736     0.6210    12.3817 </r>
       <r>    25.8216     0.5759    12.4669 </r>
       <r>    25.9696     0.2595    12.5053 </r>
       <r>    26.1176     0.5984    12.5939 </r>
       <r>    26.2657     0.2869    12.6364 </r>
       <r>    26.4137     0.4722    12.7063 </r>
       <r>    26.5617     1.7918    12.9715 </r>
       <r>    26.7098     0.0572    12.9800 </r>
       <r>    26.8578     0.4944    13.0532 </r>
       <r>    27.0058     0.9807    13.1983 </r>
       <r>    27.1538     0.8513    13.3243 </r>
       <r>    27.3019     0.8047    13.4435 </r>
       <r>    27.4499     0.2518    13.4807 </r>
       <r>    27.5979     0.3521    13.5329 </r>
       <r>    27.7460     0.5452    13.6136 </r>
       <r>    27.8940     0.2580    13.6518 </r>
       <r>    28.0420     1.1666    13.8245 </r>
       <r>    28.1900     0.9684    13.9678 </r>
       <r>    28.3381     0.2797    14.0092 </r>
       <r>    28.4861     0.7719    14.1235 </r>
       <r>    28.6341     0.3729    14.1787 </r>
       <r>    28.7821     0.2320    14.2130 </r>
       <r>    28.9302     0.4750    14.2834 </r>
       <r>    29.0782     0.9172    14.4191 </r>
       <r>    29.2262     0.4066    14.4793 </r>
       <r>    29.3743     0.2524    14.5167 </r>
       <r>    29.5223     0.4688    14.5861 </r>
       <r>    29.6703     0.4154    14.6476 </r>
       <r>    29.8183     0.0004    14.6476 </r>
       <r>    29.9664     0.3719    14.7027 </r>
       <r>    30.1144     0.6602    14.8004 </r>
       <r>    30.2624     0.4300    14.8641 </r>
       <r>    30.4104     0.2917    14.9073 </r>
       <r>    30.5585     1.3364    15.1051 </r>
       <r>    30.7065     0.5024    15.1795 </r>
       <r>    30.8545     0.3060    15.2247 </r>
       <r>    31.0026     0.5851    15.3114 </r>
       <r>    31.1506     0.0378    15.3170 </r>
       <r>    31.2986     0.5571    15.3994 </r>
       <r>    31.4466     0.5192    15.4763 </r>
       <r>    31.5947     0.3432    15.5271 </r>
       <r>    31.7427     0.1950    15.5560 </r>
       <r>    31.8907     0.0763    15.5672 </r>
       <r>    32.0387     0.1000    15.5820 </r>
       <r>    32.1868     0.1534    15.6047 </r>
       <r>    32.3348     0.2321    15.6391 </r>
       <r>    32.4828     0.0249    15.6428 </r>
       <r>    32.6309     0.2309    15.6770 </r>
       <r>    32.7789     0.2317    15.7113 </r>
       <r>    32.9269     0.0016    15.7115 </r>
       <r>    33.0749     0.0035    15.7120 </r>
       <r>    33.2230     0.4258    15.7750 </r>
       <r>    33.3710     0.1189    15.7926 </r>
       <r>    33.5190     0.0299    15.7971 </r>
       <r>    33.6671     0.2134    15.8287 </r>
       <r>    33.8151     0.0015    15.8289 </r>
       <r>    33.9631     0.2375    15.8640 </r>
       <r>    34.1111     0.1722    15.8895 </r>
       <r>    34.2592     0.0166    15.8920 </r>
       <r>    34.4072     0.2423    15.9278 </r>
       <r>    34.5552     0.2583    15.9661 </r>
       <r>    34.7032     0.0464    15.9730 </r>
       <r>    34.8513     0.0000    15.9730 </r>
       <r>    34.9993     0.0000    15.9730 </r>
       <r>    35.1473     0.0000    15.9730 </r>
       <r>    35.2954     0.0000    15.9730 </r>
       <r>    35.4434     0.0000    15.9730 </r>
       <r>    35.5914     0.0338    15.9780 </r>
       <r>    35.7394     0.0880    15.9910 </r>
       <r>    35.8875     0.0000    15.9910 </r>
       <r>    36.0355     0.0039    15.9916 </r>
       <r>    36.1835     0.0568    16.0000 </r>
       <r>    36.3315     0.0002    16.0000 </r>
       <r>    36.4796     0.0000    16.0000 </r>
       <r>    36.6276     0.0000    16.0000 </r>
       <r>    36.7756     0.0000    16.0000 </r>
       <r>    36.9237     0.0000    16.0000 </r>
       <r>    37.0717     0.0000    16.0000 </r>
       <r>    37.2197     0.0000    16.0000 </r>
       <r>    37.3677     0.0000    16.0000 </r>
       <r>    37.5158     0.0000    16.0000 </r>
       <r>    37.6638     0.0000    16.0000 </r>
       <r>    37.8118     0.0000    16.0000 </r>
       <r>    37.9599     0.0000    16.0000 </r>
       <r>    38.1079     0.0000    16.0000 </r>
      </set>
     </set>
    </array>
   </total>
  </dos>
 </calculation>
 <structure name="finalpos" >
  <crystal>
   <varray name="basis" >
    <v>       2.36824126      -0.00000000       1.36730357 </v>
    <v>       0.78941375       2.23279904       1.36730357 </v>
    <v>      -0.00000001      -0.00000001       2.73460918 </v>
   </varray>
   <i name="volume">     14.46008507 </i>
   <varray name="rec_basis" >
    <v>       0.42225428      -0.14928945       0.00000000 </v>
    <v>       0.00000000       0.44786834       0.00000000 </v>
    <v>      -0.21112698      -0.14928934       0.36568297 </v>
   </varray>
  </crystal>
  <varray name="positions" >
   <v>      -0.00000000      -0.00000000       0.00000000 </v>
  </varray>
 </structure>
</modeling>
