unknown system                          
           1
     2.347395    0.000000    1.355268
     0.782465    2.213145    1.355268
     0.000000    0.000000    2.710538
   Si
     1
Direct configuration=     1
   0.00000000  0.00000000  0.00000000
unknown system                          
           1
     2.373351   -0.000000    1.370254
     0.791117    2.237617    1.370254
    -0.000000   -0.000000    2.740510
   Si
     1
Direct configuration=     2
   0.00000000  0.00000000  0.00000000
unknown system                          
           1
     2.368241   -0.000000    1.367304
     0.789414    2.232799    1.367304
    -0.000000   -0.000000    2.734609
   Si
     1
Direct configuration=     3
  -0.00000000 -0.00000000  0.00000000
