   1   1   0   0
  0.1408159E+02  0.2710538E-09  0.2710538E-09  0.2710538E-09  0.5000000E-15
  1.000000000000000E-004
  CAR 
 unknown system                          
     39.02374641     -6.23189060  301     10.49502416      1.00000000
     -6.232  0.0000E+00  0.0000E+00
     -6.081  0.0000E+00  0.0000E+00
     -5.930  0.0000E+00  0.0000E+00
     -5.779  0.0000E+00  0.0000E+00
     -5.628  0.0000E+00  0.0000E+00
     -5.478  0.0000E+00  0.0000E+00
     -5.327  0.0000E+00  0.0000E+00
     -5.176  0.0000E+00  0.0000E+00
     -5.025  0.0000E+00  0.0000E+00
     -4.874  0.0000E+00  0.0000E+00
     -4.723  0.0000E+00  0.0000E+00
     -4.573  0.0000E+00  0.0000E+00
     -4.422  0.5718E-16  0.8626E-17
     -4.271  0.1301E-06  0.1963E-07
     -4.120  0.4146E-04  0.6274E-05
     -3.969  0.4949E-03  0.8094E-04
     -3.818  0.3153E-03  0.1285E-03
     -3.667  0.1010E-02  0.2809E-03
     -3.517  0.4807E-03  0.3534E-03
     -3.366  0.4638E-03  0.4233E-03
     -3.215  0.1627E-02  0.6688E-03
     -3.064  0.9253E-03  0.8084E-03
     -2.913  0.1262E-02  0.9988E-03
     -2.762  0.3072E-03  0.1045E-02
     -2.611  0.2107E-02  0.1363E-02
     -2.461  0.1275E-02  0.1555E-02
     -2.310  0.1144E-02  0.1728E-02
     -2.159  0.1545E-02  0.1961E-02
     -2.008  0.3759E-03  0.2018E-02
     -1.857  0.2654E-02  0.2418E-02
     -1.706  0.1481E-02  0.2642E-02
     -1.555  0.3005E-02  0.3095E-02
     -1.405  0.3978E-03  0.3155E-02
     -1.254  0.7830E-03  0.3273E-02
     -1.103  0.2256E-02  0.3614E-02
     -0.952  0.1561E-02  0.3849E-02
     -0.801  0.2918E-02  0.4289E-02
     -0.650  0.8612E-03  0.4419E-02
     -0.500  0.4072E-02  0.5033E-02
     -0.349  0.1189E-02  0.5213E-02
     -0.198  0.1760E-02  0.5478E-02
     -0.047  0.7292E-03  0.5588E-02
      0.104  0.1519E-02  0.5817E-02
      0.255  0.3349E-02  0.6323E-02
      0.406  0.2766E-02  0.6740E-02
      0.556  0.3944E-02  0.7335E-02
      0.707  0.2070E-03  0.7366E-02
      0.858  0.3020E-02  0.7822E-02
      1.009  0.2162E-02  0.8148E-02
      1.160  0.2390E-02  0.8508E-02
      1.311  0.9278E-03  0.8648E-02
      1.462  0.1072E-02  0.8810E-02
      1.612  0.5935E-02  0.9705E-02
      1.763  0.1841E-02  0.9983E-02
      1.914  0.4360E-02  0.1064E-01
      2.065  0.1246E-02  0.1083E-01
      2.216  0.2577E-02  0.1122E-01
      2.367  0.1657E-02  0.1147E-01
      2.518  0.4283E-02  0.1211E-01
      2.668  0.1631E-02  0.1236E-01
      2.819  0.1526E-02  0.1259E-01
      2.970  0.4022E-02  0.1320E-01
      3.121  0.2078E-02  0.1351E-01
      3.272  0.5483E-02  0.1434E-01
      3.423  0.7498E-03  0.1445E-01
      3.573  0.5953E-02  0.1535E-01
      3.724  0.2386E-02  0.1571E-01
      3.875  0.1927E-02  0.1600E-01
      4.026  0.1129E-02  0.1617E-01
      4.177  0.1711E-02  0.1643E-01
      4.328  0.3874E-02  0.1701E-01
      4.479  0.3449E-02  0.1753E-01
      4.629  0.6282E-02  0.1848E-01
      4.780  0.8098E-03  0.1860E-01
      4.931  0.3441E-02  0.1912E-01
      5.082  0.4105E-02  0.1974E-01
      5.233  0.4314E-02  0.2039E-01
      5.384  0.1982E-02  0.2069E-01
      5.535  0.3543E-02  0.2122E-01
      5.685  0.4971E-02  0.2197E-01
      5.836  0.2188E-02  0.2230E-01
      5.987  0.1698E-02  0.2256E-01
      6.138  0.1467E-02  0.2278E-01
      6.289  0.4592E-02  0.2347E-01
      6.440  0.4728E-02  0.2419E-01
      6.591  0.5114E-02  0.2496E-01
      6.741  0.2536E-02  0.2534E-01
      6.892  0.1844E-02  0.2562E-01
      7.043  0.4328E-02  0.2627E-01
      7.194  0.5334E-02  0.2708E-01
      7.345  0.3440E-02  0.2760E-01
      7.496  0.1898E-02  0.2788E-01
      7.647  0.6560E-02  0.2887E-01
      7.797  0.2127E-02  0.2919E-01
      7.948  0.1474E-02  0.2942E-01
      8.099  0.1168E-02  0.2959E-01
      8.250  0.3376E-02  0.3010E-01
      8.401  0.6583E-02  0.3109E-01
      8.552  0.7182E-02  0.3218E-01
      8.702  0.5839E-02  0.3306E-01
      8.853  0.1825E-02  0.3333E-01
      9.004  0.2195E-02  0.3367E-01
      9.155  0.5423E-02  0.3448E-01
      9.306  0.2511E-02  0.3486E-01
      9.457  0.2515E-02  0.3524E-01
      9.608  0.3395E-02  0.3575E-01
      9.758  0.6177E-02  0.3669E-01
      9.909  0.4340E-02  0.3734E-01
     10.060  0.1893E-02  0.3763E-01
     10.211  0.4452E-02  0.3830E-01
     10.362  0.5131E-02  0.3907E-01
     10.513  0.6894E-02  0.4011E-01
     10.664  0.4197E-02  0.4074E-01
     10.814  0.2617E-02  0.4114E-01
     10.965  0.7803E-03  0.4126E-01
     11.116  0.6848E-02  0.4229E-01
     11.267  0.6065E-02  0.4320E-01
     11.418  0.3672E-02  0.4376E-01
     11.569  0.4623E-02  0.4446E-01
     11.720  0.6318E-02  0.4541E-01
     11.870  0.2145E-02  0.4573E-01
     12.021  0.2894E-02  0.4617E-01
     12.172  0.4434E-02  0.4684E-01
     12.323  0.3291E-02  0.4733E-01
     12.474  0.6524E-02  0.4832E-01
     12.625  0.6683E-02  0.4933E-01
     12.775  0.3833E-02  0.4990E-01
     12.926  0.6650E-02  0.5091E-01
     13.077  0.2564E-02  0.5129E-01
     13.228  0.5363E-02  0.5210E-01
     13.379  0.3464E-02  0.5263E-01
     13.530  0.7813E-02  0.5381E-01
     13.681  0.6649E-02  0.5481E-01
     13.831  0.3479E-02  0.5533E-01
     13.982  0.3344E-02  0.5584E-01
     14.133  0.5630E-02  0.5669E-01
     14.284  0.7185E-02  0.5777E-01
     14.435  0.5153E-02  0.5855E-01
     14.586  0.3911E-02  0.5914E-01
     14.737  0.5642E-02  0.5999E-01
     14.887  0.3845E-02  0.6057E-01
     15.038  0.8479E-02  0.6185E-01
     15.189  0.4962E-02  0.6260E-01
     15.340  0.3912E-02  0.6319E-01
     15.491  0.5888E-02  0.6407E-01
     15.642  0.1122E-02  0.6424E-01
     15.793  0.2466E-02  0.6462E-01
     15.943  0.7120E-02  0.6569E-01
     16.094  0.4759E-02  0.6641E-01
     16.245  0.7462E-02  0.6753E-01
     16.396  0.4572E-02  0.6822E-01
     16.547  0.5041E-02  0.6898E-01
     16.698  0.3273E-02  0.6948E-01
     16.848  0.4208E-02  0.7011E-01
     16.999  0.4320E-02  0.7076E-01
     17.150  0.3923E-02  0.7136E-01
     17.301  0.3720E-02  0.7192E-01
     17.452  0.6093E-02  0.7284E-01
     17.603  0.6525E-02  0.7382E-01
     17.754  0.3113E-02  0.7429E-01
     17.904  0.3994E-02  0.7489E-01
     18.055  0.5303E-02  0.7569E-01
     18.206  0.6041E-02  0.7660E-01
     18.357  0.3279E-02  0.7710E-01
     18.508  0.4860E-02  0.7783E-01
     18.659  0.8829E-02  0.7916E-01
     18.810  0.5051E-02  0.7993E-01
     18.960  0.5999E-02  0.8083E-01
     19.111  0.3329E-02  0.8133E-01
     19.262  0.4048E-02  0.8194E-01
     19.413  0.7205E-02  0.8303E-01
     19.564  0.4029E-02  0.8364E-01
     19.715  0.4312E-02  0.8429E-01
     19.866  0.1036E-01  0.8585E-01
     20.016  0.2578E-02  0.8624E-01
     20.167  0.2792E-02  0.8666E-01
     20.318  0.3048E-02  0.8712E-01
     20.469  0.7420E-02  0.8824E-01
     20.620  0.4692E-02  0.8895E-01
     20.771  0.8323E-02  0.9020E-01
     20.921  0.8008E-02  0.9141E-01
     21.072  0.5305E-02  0.9221E-01
     21.223  0.3307E-02  0.9271E-01
     21.374  0.3771E-02  0.9328E-01
     21.525  0.1051E-01  0.9487E-01
     21.676  0.6858E-02  0.9590E-01
     21.827  0.6809E-02  0.9693E-01
     21.977  0.4906E-02  0.9767E-01
     22.128  0.3180E-02  0.9815E-01
     22.279  0.9245E-02  0.9954E-01
     22.430  0.5427E-02  0.1004E+00
     22.581  0.2918E-02  0.1008E+00
     22.732  0.3775E-02  0.1014E+00
     22.883  0.5048E-02  0.1021E+00
     23.033  0.6500E-02  0.1031E+00
     23.184  0.5893E-02  0.1040E+00
     23.335  0.3400E-02  0.1045E+00
     23.486  0.4401E-02  0.1052E+00
     23.637  0.1066E-01  0.1068E+00
     23.788  0.5509E-02  0.1076E+00
     23.939  0.9111E-02  0.1090E+00
     24.089  0.9005E-02  0.1104E+00
     24.240  0.8161E-02  0.1116E+00
     24.391  0.3176E-02  0.1121E+00
     24.542  0.2959E-02  0.1125E+00
     24.693  0.6954E-02  0.1136E+00
     24.844  0.4115E-02  0.1142E+00
     24.994  0.6996E-02  0.1152E+00
     25.145  0.7414E-02  0.1164E+00
     25.296  0.4031E-02  0.1170E+00
     25.447  0.5389E-02  0.1178E+00
     25.598  0.3424E-02  0.1183E+00
     25.749  0.9429E-02  0.1197E+00
     25.900  0.1300E-01  0.1217E+00
     26.050  0.5686E-02  0.1225E+00
     26.201  0.2941E-02  0.1230E+00
     26.352  0.6690E-02  0.1240E+00
     26.503  0.9029E-02  0.1253E+00
     26.654  0.4765E-02  0.1261E+00
     26.805  0.6553E-02  0.1271E+00
     26.956  0.7365E-02  0.1282E+00
     27.106  0.8042E-02  0.1294E+00
     27.257  0.5150E-02  0.1302E+00
     27.408  0.1125E-02  0.1303E+00
     27.559  0.5951E-02  0.1312E+00
     27.710  0.4343E-02  0.1319E+00
     27.861  0.9610E-02  0.1333E+00
     28.012  0.6568E-02  0.1343E+00
     28.162  0.8335E-02  0.1356E+00
     28.313  0.6118E-02  0.1365E+00
     28.464  0.3775E-02  0.1371E+00
     28.615  0.4536E-02  0.1377E+00
     28.766  0.1035E-01  0.1393E+00
     28.917  0.5440E-02  0.1401E+00
     29.068  0.2342E-02  0.1405E+00
     29.218  0.1329E-02  0.1407E+00
     29.369  0.2273E-02  0.1410E+00
     29.520  0.9089E-02  0.1424E+00
     29.671  0.5013E-02  0.1432E+00
     29.822  0.4683E-02  0.1439E+00
     29.973  0.3720E-02  0.1444E+00
     30.123  0.3498E-02  0.1450E+00
     30.274  0.1068E-01  0.1466E+00
     30.425  0.7519E-02  0.1477E+00
     30.576  0.5822E-02  0.1486E+00
     30.727  0.4279E-02  0.1492E+00
     30.878  0.3306E-02  0.1497E+00
     31.029  0.2294E-02  0.1501E+00
     31.179  0.3516E-02  0.1506E+00
     31.330  0.5980E-02  0.1515E+00
     31.481  0.3013E-02  0.1520E+00
     31.632  0.3142E-02  0.1524E+00
     31.783  0.2916E-02  0.1529E+00
     31.934  0.6316E-02  0.1538E+00
     32.085  0.3414E-02  0.1543E+00
     32.235  0.2192E-02  0.1547E+00
     32.386  0.1865E-04  0.1547E+00
     32.537  0.3095E-02  0.1551E+00
     32.688  0.3944E-02  0.1557E+00
     32.839  0.9551E-03  0.1559E+00
     32.990  0.1275E-02  0.1561E+00
     33.141  0.1510E-02  0.1563E+00
     33.291  0.9901E-03  0.1564E+00
     33.442  0.3868E-02  0.1570E+00
     33.593  0.2557E-02  0.1574E+00
     33.744  0.5321E-03  0.1575E+00
     33.895  0.1599E-02  0.1577E+00
     34.046  0.2354E-02  0.1581E+00
     34.196  0.1369E-02  0.1583E+00
     34.347  0.1872E-02  0.1586E+00
     34.498  0.1303E-02  0.1588E+00
     34.649  0.8254E-03  0.1589E+00
     34.800  0.8920E-05  0.1589E+00
     34.951  0.1788E-02  0.1592E+00
     35.102  0.5212E-03  0.1592E+00
     35.252  0.3851E-04  0.1593E+00
     35.403  0.5771E-03  0.1593E+00
     35.554  0.6013E-03  0.1594E+00
     35.705  0.8580E-03  0.1596E+00
     35.856  0.1263E-02  0.1598E+00
     36.007  0.2675E-03  0.1598E+00
     36.158  0.6760E-03  0.1599E+00
     36.308  0.1047E-06  0.1599E+00
     36.459  0.2348E-12  0.1599E+00
     36.610  0.1539E-04  0.1599E+00
     36.761  0.4524E-03  0.1600E+00
     36.912  0.1786E-04  0.1600E+00
     37.063  0.2207E-03  0.1600E+00
     37.214  0.7806E-06  0.1600E+00
     37.364  0.3431E-15  0.1600E+00
     37.515  0.0000E+00  0.1600E+00
     37.666  0.0000E+00  0.1600E+00
     37.817  0.0000E+00  0.1600E+00
     37.968  0.0000E+00  0.1600E+00
     38.119  0.0000E+00  0.1600E+00
     38.269  0.0000E+00  0.1600E+00
     38.420  0.0000E+00  0.1600E+00
     38.571  0.0000E+00  0.1600E+00
     38.722  0.0000E+00  0.1600E+00
     38.873  0.0000E+00  0.1600E+00
     39.024  0.0000E+00  0.1600E+00
