    1    1  100    1
  0.1408159E+02  0.2710538E-09  0.2710538E-09  0.2710538E-09  0.5000000E-15
  1.000000000000000E-004
  CAR 
 unknown system                          
      4    120      8
 
  0.0000000E+00  0.0000000E+00  0.0000000E+00  0.2962963E-03
    1       -4.174816   1.000000
    2       22.006853   0.000000
    3       22.006860   0.000000
    4       22.006869   0.000000
    5       22.567975   0.000000
    6       22.567984   0.000000
    7       22.567993   0.000000
    8       27.967009   0.000000
 
  0.6666667E-01 -0.6938894E-17  0.0000000E+00  0.2370370E-02
    1       -4.042921   1.000000
    2       19.707805   0.000000
    3       21.246619   0.000000
    4       21.246631   0.000000
    5       23.492349   0.000000
    6       23.492363   0.000000
    7       23.740533   0.000000
    8       28.915281   0.000000
 
  0.1333333E+00  0.0000000E+00  0.0000000E+00  0.2370370E-02
    1       -3.647780   1.000000
    2       16.817444   0.000000
    3       20.461039   0.000000
    4       20.461051   0.000000
    5       24.036593   0.000000
    6       24.621469   0.000000
    7       24.621484   0.000000
    8       27.857884   0.000000
 
  0.2000000E+00  0.0000000E+00  0.0000000E+00  0.2370370E-02
    1       -2.991012   1.000000
    2       13.936991   0.000000
    3       19.875630   0.000000
    4       19.875640   0.000000
    5       23.968299   0.000000
    6       24.830312   0.000000
    7       24.830322   0.000000
    8       27.849907   0.000000
 
  0.2666667E+00  0.0000000E+00  0.0000000E+00  0.2370370E-02
    1       -2.075341   1.000000
    2       11.188486   0.000000
    3       19.496519   0.000000
    4       19.496528   0.000000
    5       23.875696   0.000000
    6       23.895302   0.000000
    7       23.895310   0.000000
    8       29.266690   0.000000
 
  0.3333333E+00  0.0000000E+00  0.0000000E+00  0.2370370E-02
    1       -0.904798   1.000000
    2        8.621825   1.000000
    3       19.311793   0.000000
    4       19.311800   0.000000
    5       22.854642   0.000000
    6       22.854652   0.000000
    7       23.872687   0.000000
    8       28.074204   0.000000
 
  0.4000000E+00 -0.2775558E-16  0.0000000E+00  0.2370370E-02
    1        0.514151   1.000000
    2        6.264218   1.000000
    3       19.286034   0.000000
    4       19.286040   0.000000
    5       22.018257   0.000000
    6       22.018268   0.000000
    7       23.976164   0.000000
    8       27.123568   0.000000
 
  0.4666667E+00  0.0000000E+00  0.0000000E+00  0.2370370E-02
    1        2.158118   1.000000
    2        4.148897   1.000000
    3       19.334543   0.000000
    4       19.334547   0.000000
    5       21.530348   0.000000
    6       21.530361   0.000000
    7       24.107590   0.000000
    8       26.555649   0.000000
 
  0.6666667E-01  0.6666667E-01  0.0000000E+00  0.1777778E-02
    1       -3.998974   1.000000
    2       20.206243   0.000000
    3       20.206244   0.000000
    4       21.603625   0.000000
    5       21.629362   0.000000
    6       24.590237   0.000000
    7       24.590237   0.000000
    8       27.773754   0.000000
 
  0.1333333E+00  0.6666667E-01  0.0000000E+00  0.7111111E-02
    1       -3.691624   1.000000
    2       17.844470   0.000000
    3       19.346983   0.000000
    4       20.943590   0.000000
    5       22.299816   0.000000
    6       25.319655   0.000000
    7       25.766782   0.000000
    8       26.271872   0.000000
 
  0.2000000E+00  0.6666667E-01  0.0000000E+00  0.7111111E-02
    1       -3.122132   1.000000
    2       14.976869   0.000000
    3       18.700584   0.000000
    4       20.310119   0.000000
    5       22.988522   0.000000
    6       25.091440   0.000000
    7       25.819757   0.000000
    8       26.384305   0.000000
 
  0.2666667E+00  0.6666667E-01  0.0000000E+00  0.7111111E-02
    1       -2.292833   1.000000
    2       12.187735   0.000000
    3       18.274339   0.000000
    4       19.806054   0.000000
    5       22.353014   0.000000
    6       24.970574   0.000000
    7       25.691677   0.000000
    8       26.875516   0.000000
 
  0.3333333E+00  0.6666667E-01  0.0000000E+00  0.7111111E-02
    1       -1.207281   1.000000
    2        9.561862   1.000000
    3       18.068838   0.000000
    4       19.382895   0.000000
    5       21.433923   0.000000
    6       24.625376   0.000000
    7       24.960067   0.000000
    8       28.495693   0.000000
 
  0.4000000E+00  0.6666667E-01  0.0000000E+00  0.7111111E-02
    1        0.129181   1.000000
    2        7.134940   1.000000
    3       18.080525   0.000000
    4       18.905459   0.000000
    5       20.899046   0.000000
    6       23.643542   0.000000
    7       24.992306   0.000000
    8       28.362850   0.000000
 
  0.4666667E+00  0.6666667E-01  0.0000000E+00  0.7111111E-02
    1        1.704345   1.000000
    2        4.932950   1.000000
    3       18.300406   0.000000
    4       18.339270   0.000000
    5       20.876504   0.000000
    6       22.855856   0.000000
    7       25.030017   0.000000
    8       27.801060   0.000000
 
 -0.4666667E+00  0.6666667E-01  0.0000000E+00  0.7111111E-02
    1        2.817976   1.000000
    2        3.662182   1.000000
    3       17.824355   0.000000
    4       18.708650   0.000000
    5       21.249779   0.000000
    6       22.312472   0.000000
    7       24.966869   0.000000
    8       27.711191   0.000000
 
 -0.4000000E+00  0.6666667E-01  0.0000000E+00  0.7111111E-02
    1        1.154575   1.000000
    2        5.639474   1.000000
    3       17.465255   0.000000
    4       19.261189   0.000000
    5       21.917962   0.000000
    6       22.065549   0.000000
    7       24.801221   0.000000
    8       28.127106   0.000000
 
 -0.3333333E+00  0.6666667E-01  0.0000000E+00  0.7111111E-02
    1       -0.343726   1.000000
    2        7.919834   1.000000
    3       17.305026   0.000000
    4       19.869450   0.000000
    5       22.197052   0.000000
    6       22.828358   0.000000
    7       24.652093   0.000000
    8       28.885412   0.000000
 
 -0.2666667E+00  0.6666667E-01  0.0000000E+00  0.7111111E-02
    1       -1.597341   1.000000
    2       10.415348   0.987888
    3       17.360679   0.000000
    4       20.434534   0.000000
    5       22.771980   0.000000
    6       23.932043   0.000000
    7       24.590734   0.000000
    8       28.563787   0.000000
 
 -0.2000000E+00  0.6666667E-01  0.0000000E+00  0.7111111E-02
    1       -2.597962   1.000000
    2       13.099357   0.000000
    3       17.638814   0.000000
    4       20.975147   0.000000
    5       23.614619   0.000000
    6       24.599341   0.000000
    7       25.111944   0.000000
    8       26.846602   0.000000
 
 -0.1333333E+00  0.6666667E-01  0.0000000E+00  0.7111111E-02
    1       -3.340991   1.000000
    2       15.924579   0.000000
    3       18.141937   0.000000
    4       21.581175   0.000000
    5       23.750310   0.000000
    6       24.553691   0.000000
    7       25.771382   0.000000
    8       26.377646   0.000000
 
 -0.6666667E-01  0.6666667E-01  0.0000000E+00  0.3555556E-02
    1       -3.823306   1.000000
    2       18.661962   0.000000
    3       18.979515   0.000000
    4       22.095622   0.000000
    5       22.908254   0.000000
    6       24.187126   0.000000
    7       25.056952   0.000000
    8       27.521147   0.000000
 
  0.1333333E+00  0.1333333E+00  0.0000000E+00  0.1777778E-02
    1       -3.472325   1.000000
    2       18.414268   0.000000
    3       18.414269   0.000000
    4       19.947210   0.000000
    5       20.531534   0.000000
    6       24.431162   0.000000
    7       27.015222   0.000000
    8       27.015223   0.000000
 
  0.2000000E+00  0.1333333E+00  0.0000000E+00  0.7111111E-02
    1       -2.990777   1.000000
    2       16.163212   0.000000
    3       17.695008   0.000000
    4       19.551348   0.000000
    5       20.657528   0.000000
    6       23.105136   0.000000
    7       27.740557   0.000000
    8       27.988865   0.000000
 
  0.2666667E+00  0.1333333E+00  0.0000000E+00  0.7111111E-02
    1       -2.248966   1.000000
    2       13.395374   0.000000
    3       17.198232   0.000000
    4       18.870100   0.000000
    5       20.445602   0.000000
    6       23.530125   0.000000
    7       27.690819   0.000000
    8       27.916076   0.000000
 
  0.3333333E+00  0.1333333E+00  0.0000000E+00  0.7111111E-02
    1       -1.249989   1.000000
    2       10.731068   0.000000
    3       16.926581   0.000000
    4       18.035649   0.000000
    5       19.817684   0.000000
    6       25.065466   0.000000
    7       26.702360   0.000000
    8       28.072278   0.000000
 
  0.4000000E+00  0.1333333E+00  0.0000000E+00  0.7111111E-02
    1        0.001560   1.000000
    2        8.245634   1.000000
    3       16.879942   0.000000
    4       17.089003   0.000000
    5       19.587683   0.000000
    6       25.694621   0.000000
    7       26.383533   0.000000
    8       28.754211   0.000000
 
  0.4666667E+00  0.1333333E+00  0.0000000E+00  0.7111111E-02
    1        1.497466   1.000000
    2        5.971278   1.000000
    3       16.215130   0.000000
    4       17.056227   0.000000
    5       19.712411   0.000000
    6       24.832764   0.000000
    7       26.784579   0.000000
    8       30.239190   0.000000
 
 -0.4666667E+00  0.1333333E+00  0.0000000E+00  0.7111111E-02
    1        3.161614   1.000000
    2        3.994120   1.000000
    3       15.514428   0.000000
    4       17.450862   0.000000
    5       20.122876   0.000000
    6       24.171699   0.000000
    7       26.687637   0.000000
    8       30.342558   0.000000
 
 -0.4000000E+00  0.1333333E+00  0.0000000E+00  0.7111111E-02
    1        2.046698   1.000000
    2        5.264538   1.000000
    3       15.024645   0.000000
    4       18.054909   0.000000
    5       20.788577   0.000000
    6       23.738182   0.000000
    7       26.439910   0.000000
    8       30.664217   0.000000
 
 -0.3333333E+00  0.1333333E+00  0.0000000E+00  0.7111111E-02
    1        0.473631   1.000000
    2        7.459275   1.000000
    3       14.761703   0.000000
    4       18.850699   0.000000
    5       21.689366   0.000000
    6       23.551818   0.000000
    7       26.194929   0.000000
    8       30.227296   0.000000
 
 -0.2666667E+00  0.1333333E+00  0.0000000E+00  0.7111111E-02
    1       -0.860735   1.000000
    2        9.871699   1.000000
    3       14.734658   0.000000
    4       19.801922   0.000000
    5       22.800025   0.000000
    6       23.631847   0.000000
    7       25.997271   0.000000
    8       28.034166   0.000000
 
 -0.2000000E+00  0.1333333E+00  0.0000000E+00  0.7111111E-02
    1       -1.944523   1.000000
    2       12.460141   0.000000
    3       14.958605   0.000000
    4       20.829574   0.000000
    5       23.965616   0.000000
    6       24.067975   0.000000
    7       25.779705   0.000000
    8       26.123429   0.000000
 
 -0.1333333E+00  0.1333333E+00  0.0000000E+00  0.3555556E-02
    1       -2.772451   1.000000
    2       14.938662   0.000000
    3       15.673836   0.000000
    4       21.718192   0.000000
    5       23.924715   0.000000
    6       25.316781   0.000000
    7       25.333999   0.000000
    8       25.362982   0.000000
 
  0.2000000E+00  0.2000000E+00  0.0000000E+00  0.1777778E-02
    1       -2.597522   1.000000
    2       16.900686   0.000000
    3       16.900687   0.000000
    4       18.340026   0.000000
    5       18.747277   0.000000
    6       21.388960   0.000000
    7       29.478500   0.000000
    8       29.478500   0.000000
 
  0.2666667E+00  0.2000000E+00  0.0000000E+00  0.7111111E-02
    1       -1.943943   1.000000
    2       14.750280   0.000000
    3       16.329049   0.000000
    4       17.518303   0.000000
    5       18.632013   0.000000
    6       21.006609   0.000000
    7       29.778066   0.000000
    8       30.228510   0.000000
 
  0.3333333E+00  0.2000000E+00  0.0000000E+00  0.7111111E-02
    1       -1.032818   1.000000
    2       12.108472   0.000000
    3       15.983769   0.000000
    4       16.244407   0.000000
    5       18.540023   0.000000
    6       22.319820   0.000000
    7       28.948228   0.000000
    8       30.394752   0.000000
 
  0.4000000E+00  0.2000000E+00  0.0000000E+00  0.7111111E-02
    1        0.131843   1.000000
    2        9.585428   1.000000
    3       15.037864   0.000000
    4       15.865734   0.000000
    5       18.441337   0.000000
    6       24.253204   0.000000
    7       27.964774   0.000000
    8       30.318562   0.000000
 
  0.4666667E+00  0.2000000E+00  0.0000000E+00  0.7111111E-02
    1        1.543600   1.000000
    2        7.251552   1.000000
    3       14.003903   0.000000
    4       15.974389   0.000000
    5       18.566626   0.000000
    6       26.303844   0.000000
    7       27.071286   0.000000
    8       30.184321   0.000000
 
 -0.4666667E+00  0.2000000E+00  0.0000000E+00  0.7111111E-02
    1        3.181265   1.000000
    2        5.148104   1.000000
    3       13.183150   0.000000
    4       16.307900   0.000000
    5       18.938700   0.000000
    6       26.348628   0.000000
    7       27.878278   0.000000
    8       30.467086   0.000000
 
 -0.4000000E+00  0.2000000E+00  0.0000000E+00  0.7111111E-02
    1        3.182652   1.000000
    2        5.143429   1.000000
    3       12.593675   0.000000
    4       16.862536   0.000000
    5       19.555541   0.000000
    6       25.831562   0.000000
    7       28.196426   0.000000
    8       31.670730   0.000000
 
 -0.3333333E+00  0.2000000E+00  0.0000000E+00  0.7111111E-02
    1        1.543721   1.000000
    2        7.237762   1.000000
    3       12.247699   0.000000
    4       17.630918   0.000000
    5       20.408218   0.000000
    6       25.538279   0.000000
    7       27.943670   0.000000
    8       30.041872   0.000000
 
 -0.2666667E+00  0.2000000E+00  0.0000000E+00  0.7111111E-02
    1        0.131418   1.000000
    2        9.537341   1.000000
    3       12.169928   0.000000
    4       18.597193   0.000000
    5       21.479513   0.000000
    6       25.480557   0.000000
    7       27.523845   0.000000
    8       27.740575   0.000000
 
 -0.2000000E+00  0.2000000E+00  0.0000000E+00  0.3555556E-02
    1       -1.033419   1.000000
    2       11.703415   0.000000
    3       12.663685   0.000000
    4       19.720100   0.000000
    5       22.732934   0.000000
    6       25.602266   0.000000
    7       25.722025   0.000000
    8       26.842351   0.000000
 
  0.2666667E+00  0.2666667E+00  0.0000000E+00  0.1777778E-02
    1       -1.379087   1.000000
    2       15.681684   0.000000
    3       15.681685   0.000000
    4       15.905471   0.000000
    5       16.996547   0.000000
    6       19.583146   0.000000
    7       31.829372   0.000000
    8       31.843784   0.000000
 
  0.3333333E+00  0.2666667E+00  0.0000000E+00  0.7111111E-02
    1       -0.556727   1.000000
    2       13.608067   0.000000
    3       14.452324   0.000000
    4       15.260896   0.000000
    5       17.353012   0.000000
    6       19.800131   0.000000
    7       31.265625   0.000000
    8       32.514814   0.000000
 
  0.4000000E+00  0.2666667E+00  0.0000000E+00  0.7111111E-02
    1        0.519378   1.000000
    2       11.124213   0.000000
    3       13.080374   0.000000
    4       15.068189   0.000000
    5       17.471594   0.000000
    6       21.433345   0.000000
    7       30.370639   0.000000
    8       32.532195   0.000000
 
  0.4666667E+00  0.2666667E+00  0.0000000E+00  0.7111111E-02
    1        1.843587   1.000000
    2        8.757221   1.000000
    3       11.923311   0.000000
    4       15.103671   0.000000
    5       17.591301   0.000000
    6       23.591947   0.000000
    7       29.484280   0.000000
    8       32.161357   0.000000
 
 -0.4666667E+00  0.2666667E+00  0.0000000E+00  0.7111111E-02
    1        3.403881   1.000000
    2        6.586463   1.000000
    3       10.999450   0.000000
    4       15.366518   0.000000
    5       17.911999   0.000000
    6       25.938198   0.000000
    7       28.725354   0.000000
    8       31.600278   0.000000
 
 -0.4000000E+00  0.2666667E+00  0.0000000E+00  0.7111111E-02
    1        4.527747   1.000000
    2        5.299655   1.000000
    3       10.322307   0.999999
    4       15.854776   0.000000
    5       18.466841   0.000000
    6       28.145355   0.000000
    7       28.229470   0.000000
    8       30.991290   0.000000
 
 -0.3333333E+00  0.2666667E+00  0.0000000E+00  0.7111111E-02
    1        2.861168   1.000000
    2        7.231927   1.000000
    3        9.920879   1.000000
    4       16.564403   0.000000
    5       19.257241   0.000000
    6       27.763855   0.000000
    7       29.578021   0.000000
    8       30.104906   0.000000
 
 -0.2666667E+00  0.2666667E+00  0.0000000E+00  0.3555556E-02
    1        1.374630   1.000000
    2        9.081245   1.000000
    3       10.125667   1.000000
    4       17.486470   0.000000
    5       20.271398   0.000000
    6       27.425192   0.000000
    7       27.906396   0.000000
    8       28.858698   0.000000
 
  0.3333333E+00  0.3333333E+00  0.0000000E+00  0.1777778E-02
    1        0.176093   1.000000
    2       12.718425   0.000000
    3       14.764196   0.000000
    4       14.764197   0.000000
    5       15.969639   0.000000
    6       18.533432   0.000000
    7       33.192003   0.000000
    8       33.951907   0.000000
 
  0.4000000E+00  0.3333333E+00  0.0000000E+00  0.7111111E-02
    1        1.162130   1.000000
    2       11.233693   0.000000
    3       12.878267   0.000000
    4       14.495768   0.000000
    5       16.501922   0.000000
    6       19.002047   0.000000
    7       32.766463   0.000000
    8       34.483628   0.000000
 
  0.4666667E+00  0.3333333E+00  0.0000000E+00  0.7111111E-02
    1        2.395495   1.000000
    2        9.921118   1.000000
    3       10.586179   0.004965
    4       14.456187   0.000000
    5       16.791062   0.000000
    6       20.836952   0.000000
    7       31.967394   0.000000
    8       34.260159   0.000000
 
 -0.4666667E+00  0.3333333E+00  0.0000000E+00  0.7111111E-02
    1        3.864456   1.000000
    2        8.206600   1.000000
    3        9.073416   1.000000
    4       14.645177   0.000000
    5       17.088668   0.000000
    6       23.177660   0.000000
    7       31.205823   0.000000
    8       33.579554   0.000000
 
 -0.4000000E+00  0.3333333E+00  0.0000000E+00  0.7111111E-02
    1        5.504794   1.000000
    2        6.263109   1.000000
    3        8.298769   1.000000
    4       15.061654   0.000000
    5       17.583937   0.000000
    6       25.717419   0.000000
    7       30.554465   0.000000
    8       32.605157   0.000000
 
 -0.3333333E+00  0.3333333E+00  0.0000000E+00  0.3555556E-02
    1        4.415582   1.000000
    2        7.105478   1.000000
    3        8.167950   1.000000
    4       15.703208   0.000000
    5       18.307807   0.000000
    6       28.265530   0.000000
    7       29.795563   0.000000
    8       30.756810   0.000000
 
  0.4000000E+00  0.4000000E+00  0.0000000E+00  0.1777778E-02
    1        2.056099   1.000000
    2        9.668643   1.000000
    3       14.151383   0.000000
    4       14.151385   0.000000
    5       15.278609   0.000000
    6       17.873837   0.000000
    7       34.459851   0.000000
    8       35.758120   0.000000
 
  0.4666667E+00  0.4000000E+00  0.0000000E+00  0.7111111E-02
    1        3.193072   1.000000
    2        8.322919   1.000000
    3       12.384487   0.000000
    4       14.036030   0.000000
    5       15.993859   0.000000
    6       18.527810   0.000000
    7       34.233919   0.000000
    8       36.027006   0.000000
 
 -0.4666667E+00  0.4000000E+00  0.0000000E+00  0.7111111E-02
    1        4.546097   1.000000
    2        7.237945   1.000000
    3       10.193593   1.000000
    4       14.149806   0.000000
    5       16.452270   0.000000
    6       20.536023   0.000000
    7       33.547929   0.000000
    8       35.411338   0.000000
 
 -0.4000000E+00  0.4000000E+00  0.0000000E+00  0.3555556E-02
    1        5.786217   1.000000
    2        6.713949   1.000000
    3        8.179901   1.000000
    4       14.492173   0.000000
    5       16.921075   0.000000
    6       23.037181   0.000000
    7       32.570851   0.000000
    8       33.934475   0.000000
 
  0.4666667E+00  0.4666667E+00  0.0000000E+00  0.1777778E-02
    1        4.212338   1.000000
    2        6.913708   1.000000
    3       13.844721   0.000000
    4       13.844722   0.000000
    5       14.931553   0.000000
    6       17.546951   0.000000
    7       35.372418   0.000000
    8       36.966672   0.000000
 
 -0.4666667E+00  0.4666667E+00  0.0000000E+00  0.3555556E-02
    1        5.126304   1.000000
    2        6.090329   1.000000
    3       12.221920   0.000000
    4       13.882704   0.000000
    5       15.824433   0.000000
    6       18.369605   0.000000
    7       35.052273   0.000000
    8       36.675282   0.000000
 
  0.2000000E+00  0.1333333E+00  0.6666667E-01  0.7111111E-02
    1       -3.297147   1.000000
    2       16.822122   0.000000
    3       17.313283   0.000000
    4       21.372942   0.000000
    5       21.787582   0.000000
    6       24.775667   0.000000
    7       26.250720   0.000000
    8       26.630155   0.000000
 
  0.2666667E+00  0.1333333E+00  0.6666667E-01  0.1422222E-01
    1       -2.641452   1.000000
    2       14.205723   0.000000
    3       16.548404   0.000000
    4       20.675098   0.000000
    5       22.229256   0.000000
    6       24.362478   0.000000
    7       26.455491   0.000000
    8       26.694169   0.000000
 
  0.3333333E+00  0.1333333E+00  0.6666667E-01  0.1422222E-01
    1       -1.727265   1.000000
    2       11.493974   0.000000
    3       16.184939   0.000000
    4       19.770279   0.000000
    5       21.770203   0.000000
    6       24.991976   0.000000
    7       25.901260   0.000000
    8       27.065804   0.000000
 
  0.4000000E+00  0.1333333E+00  0.6666667E-01  0.1422222E-01
    1       -0.558602   1.000000
    2        8.942831   1.000000
    3       16.055536   0.000000
    4       18.791552   0.000000
    5       21.457750   0.000000
    6       24.176411   0.000000
    7       26.220535   0.000000
    8       28.457061   0.000000
 
  0.4666667E+00  0.1333333E+00  0.6666667E-01  0.1422222E-01
    1        0.858128   1.000000
    2        6.593628   1.000000
    3       16.147486   0.000000
    4       17.891459   0.000000
    5       21.438852   0.000000
    6       23.273494   0.000000
    7       26.386900   0.000000
    8       29.863893   0.000000
 
 -0.4666667E+00  0.1333333E+00  0.6666667E-01  0.1422222E-01
    1        2.500427   1.000000
    2        4.482478   1.000000
    3       16.412752   0.000000
    4       17.206171   0.000000
    5       21.602654   0.000000
    6       22.641077   0.000000
    7       26.489185   0.000000
    8       29.581284   0.000000
 
  0.2666667E+00  0.2000000E+00  0.6666667E-01  0.7111111E-02
    1       -2.423155   1.000000
    2       15.240726   0.000000
    3       15.822277   0.000000
    4       19.302089   0.000000
    5       20.293500   0.000000
    6       22.212720   0.000000
    7       28.222147   0.000000
    8       28.888159   0.000000
 
  0.3333333E+00  0.2000000E+00  0.6666667E-01  0.1422222E-01
    1       -1.596579   1.000000
    2       12.767656   0.000000
    3       15.169345   0.000000
    4       18.065227   0.000000
    5       20.517893   0.000000
    6       22.959434   0.000000
    7       27.464275   0.000000
    8       29.349358   0.000000
 
  0.4000000E+00  0.2000000E+00  0.6666667E-01  0.1422222E-01
    1       -0.514602   1.000000
    2       10.191950   1.000000
    3       14.942923   0.000000
    4       16.832130   0.000000
    5       20.389145   0.000000
    6       24.635514   0.000000
    7       26.522123   0.000000
    8       29.493403   0.000000
 
  0.4666667E+00  0.2000000E+00  0.6666667E-01  0.1422222E-01
    1        0.817437   1.000000
    2        7.787241   1.000000
    3       14.915242   0.000000
    4       15.800791   0.000000
    5       20.424548   0.000000
    6       25.174581   0.000000
    7       26.920850   0.000000
    8       29.702458   0.000000
 
 -0.4666667E+00  0.2000000E+00  0.6666667E-01  0.1422222E-01
    1        2.387845   1.000000
    2        5.597173   1.000000
    3       14.668102   0.000000
    4       15.428800   0.000000
    5       20.684576   0.000000
    6       24.473705   0.000000
    7       28.129489   0.000000
    8       30.486734   0.000000
 
 -0.4000000E+00  0.2000000E+00  0.6666667E-01  0.1422222E-01
    1        3.504711   1.000000
    2        4.324083   1.000000
    3       14.087186   0.000000
    4       15.846175   0.000000
    5       21.165063   0.000000
    6       23.897453   0.000000
    7       28.339049   0.000000
    8       31.641325   0.000000
 
 -0.3333333E+00  0.2000000E+00  0.6666667E-01  0.1422222E-01
    1        1.839671   1.000000
    2        6.297847   1.000000
    3       13.675205   0.000000
    4       16.554076   0.000000
    5       21.834511   0.000000
    6       23.559828   0.000000
    7       28.071351   0.000000
    8       30.422723   0.000000
 
 -0.2666667E+00  0.2000000E+00  0.6666667E-01  0.1422222E-01
    1        0.345964   1.000000
    2        8.558334   1.000000
    3       13.494283   0.000000
    4       17.486286   0.000000
    5       22.569467   0.000000
    6       23.570537   0.000000
    7       27.239843   0.000000
    8       28.890897   0.000000
 
 -0.2000000E+00  0.2000000E+00  0.6666667E-01  0.1422222E-01
    1       -0.903580   1.000000
    2       11.004536   0.000000
    3       13.570545   0.000000
    4       18.608902   0.000000
    5       23.055806   0.000000
    6       24.072711   0.000000
    7       25.716682   0.000000
    8       28.252924   0.000000
 
 -0.1333333E+00  0.2000000E+00  0.6666667E-01  0.7111111E-02
    1       -1.900893   1.000000
    2       13.328639   0.000000
    3       14.177393   0.000000
    4       19.841647   0.000000
    5       23.057866   0.000000
    6       23.871152   0.000000
    7       25.664659   0.000000
    8       27.660952   0.000000
 
  0.3333333E+00  0.2666667E+00  0.6666667E-01  0.7111111E-02
    1       -1.205851   1.000000
    2       13.959746   0.000000
    3       14.565972   0.000000
    4       16.236353   0.000000
    5       19.026633   0.000000
    6       20.739601   0.000000
    7       29.601502   0.000000
    8       31.467588   0.000000
 
  0.4000000E+00  0.2666667E+00  0.6666667E-01  0.1422222E-01
    1       -0.211981   1.000000
    2       11.632835   0.000000
    3       14.004857   0.000000
    4       14.901274   0.000000
    5       19.370101   0.000000
    6       21.946643   0.000000
    7       28.720123   0.000000
    8       31.915270   0.000000
 
  0.4666667E+00  0.2666667E+00  0.6666667E-01  0.1422222E-01
    1        1.032953   1.000000
    2        9.205520   1.000000
    3       13.443683   0.000000
    4       14.189017   0.000000
    5       19.443465   0.000000
    6       23.945427   0.000000
    7       27.792622   0.000000
    8       31.842815   0.000000
 
 -0.4666667E+00  0.2666667E+00  0.6666667E-01  0.1422222E-01
    1        2.520674   1.000000
    2        6.957381   1.000000
    3       12.532726   0.000000
    4       14.295520   0.000000
    5       19.672762   0.000000
    6       25.937783   0.000000
    7       27.212384   0.000000
    8       31.491826   0.000000
 
 -0.4000000E+00  0.2666667E+00  0.6666667E-01  0.1422222E-01
    1        4.184501   1.000000
    2        4.983917   1.000000
    3       11.790534   0.000000
    4       14.707100   0.000000
    5       20.118300   0.000000
    6       26.041350   0.000000
    7       28.652207   0.000000
    8       30.864597   0.000000
 
 -0.3333333E+00  0.2666667E+00  0.6666667E-01  0.1422222E-01
    1        3.068471   1.000000
    2        6.244740   1.000000
    3       11.284499   0.000000
    4       15.362511   0.000000
    5       20.784369   0.000000
    6       25.631624   0.000000
    7       29.418223   0.000000
    8       30.297076   0.000000
 
 -0.2666667E+00  0.2666667E+00  0.6666667E-01  0.1422222E-01
    1        1.502459   1.000000
    2        8.386367   1.000000
    3       11.048271   0.000000
    4       16.246954   0.000000
    5       21.656211   0.000000
    6       25.374094   0.000000
    7       27.499853   0.000000
    8       30.247177   0.000000
 
 -0.2000000E+00  0.2666667E+00  0.6666667E-01  0.7111111E-02
    1        0.174739   1.000000
    2       10.394777   0.997712
    3       11.401147   0.000000
    4       17.343700   0.000000
    5       22.684144   0.000000
    6       24.983858   0.000000
    7       25.781405   0.000000
    8       29.487242   0.000000
 
  0.4000000E+00  0.3333333E+00  0.6666667E-01  0.7111111E-02
    1        0.347858   1.000000
    2       12.799697   0.000000
    3       12.992562   0.000000
    4       13.831045   0.000000
    5       18.056094   0.000000
    6       19.788016   0.000000
    7       31.048817   0.000000
    8       33.786856   0.000000
 
  0.4666667E+00  0.3333333E+00  0.6666667E-01  0.1422222E-01
    1        1.503500   1.000000
    2       10.781865   0.000000
    3       11.611598   0.000000
    4       13.379669   0.000000
    5       18.564050   0.000000
    6       21.218026   0.000000
    7       30.222027   0.000000
    8       34.018570   0.000000
 
 -0.4666667E+00  0.3333333E+00  0.6666667E-01  0.1422222E-01
    1        2.902761   1.000000
    2        8.533096   1.000000
    3       10.517004   0.267076
    4       13.456617   0.000000
    5       18.811015   0.000000
    6       23.421695   0.000000
    7       29.395647   0.000000
    8       33.424510   0.000000
 