       N       E                     dE             d eps       ncg     rms          rms(c)
DAV:   1    -0.176522959023E+01   -0.17652E+01   -0.20941E+03  2016   0.494E+02
DAV:   2    -0.488676875969E+01   -0.31215E+01   -0.30487E+01  2840   0.353E+01
DAV:   3    -0.490315157240E+01   -0.16383E-01   -0.16381E-01  2248   0.276E+00
DAV:   4    -0.490316720460E+01   -0.15632E-04   -0.15633E-04  3192   0.959E-02
DAV:   5    -0.490316720718E+01   -0.25793E-08   -0.23296E-08  2280   0.736E-04    0.279E+00
DAV:   6    -0.488957002875E+01    0.13597E-01   -0.39112E-03  2368   0.276E-01    0.154E+00
DAV:   7    -0.488176803884E+01    0.78020E-02   -0.79073E-03  2280   0.392E-01    0.136E-01
DAV:   8    -0.488172885513E+01    0.39184E-04   -0.28233E-05  3088   0.436E-02    0.148E-02
DAV:   9    -0.488172918135E+01   -0.32623E-06   -0.31256E-07  2344   0.335E-03
   1 F= -.48817292E+01 E0= -.48813347E+01  d E =-.488173E+01
