 vasp.6.2.0 18Jan21 (build Aug 12 2022 13:00:08) complex                        
  
 executed on             LinuxIFC date 2024.11.05  05:19:51
 running on    4 total cores
 distrk:  each k-point on    4 cores,    1 groups
 distr:  one band on NCORE=   1 cores,    4 groups


--------------------------------------------------------------------------------------------------------


 INCAR:
   ISTART = 0            (Read existing wavefunction, if there)
   ISPIN = 1            (Non-Spin polarised DFT)
   LREAL = .FALSE.       (Projection operators: automatic)
   LWAVE = .FALSE.        (Write WAVECAR or not)
   LCHARG = .FALSE.        (Write CHGCAR or not)
   ADDGRID = .TRUE.        (Increase grid, helps GGA convergence)
   LASPH = .TRUE.        (Give more accurate total energies and band structure calculations)
   PREC = Accurate      (Accurate strictly avoids any aliasing or wrap around errors)
   ENCUT = 700          (Cut-off energy for plane wave basis set, in eV)
   ISMEAR = 0            (Gaussian smearing, metals:1)
   SIGMA = 0.05         (Smearing value in eV, metals:0.2)
   NELM = 90           (Max electronic SCF steps)
   NELMIN = 6            (Min electronic SCF steps)
   EDIFF = 1E-06        (SCF energy convergence, in eV)
   NSW = 100          (Max ionic steps)
   IBRION = 2            (Algorithm: 0-MD, 1-Quasi-New, 2-CG)
   ISIF = 2            (Stress/relaxation: 2-Ions, 3-Shape/Ions/V, 4-Shape/Ions)
   EDIFFG = -2E-03        (Ionic convergence, eV/AA)
   ISYM = 2              (Symmetry: 0\=none, 2\=GGA, 3\=hybrids)

 POTCAR:    PAW_PBE Si 05Jan2001                  
 POTCAR:    PAW_PBE Si 05Jan2001                  
   VRHFIN =Si: s2p2                                                                                 
   LEXCH  = PE                                                                                      
   EATOM  =   103.0669 eV,    7.5752 Ry                                                             
                                                                                                    
   TITEL  = PAW_PBE Si 05Jan2001                                                                    
   LULTRA =        F    use ultrasoft PP ?                                                          
   IUNSCR =        1    unscreen: 0-lin 1-nonlin 2-no                                               
   RPACOR =    1.500    partial core radius                                                         
   POMASS =   28.085; ZVAL   =    4.000    mass and valenz                                          
   RCORE  =    1.900    outmost cutoff radius                                                       
   RWIGS  =    2.480; RWIGS  =    1.312    wigner-seitz radius (au A)                               
   ENMAX  =  245.345; ENMIN  =  184.009 eV                                                          
   ICORE  =        2    local potential                                                             
   LCOR   =        T    correct aug charges                                                         
   LPAW   =        T    paw PP                                                                      
   EAUG   =  322.069                                                                                
   DEXC   =    0.000                                                                                
   RMAX   =    1.950    core radius for proj-oper                                                   
   RAUG   =    1.300    factor for augmentation sphere                                              
   RDEP   =    1.993    radius for radial grids                                                     
   RDEPT  =    1.837    core radius for aug-charge                                                  
                                                                                                    
   Atomic configuration                                                                             
    6 entries                                                                                       
     n  l   j            E        occ.                                                              
     1  0  0.50     -1785.8828   2.0000                                                             
     2  0  0.50      -139.4969   2.0000                                                             
     2  1  1.50       -95.5546   6.0000                                                             
     3  0  0.50       -10.8127   2.0000                                                             
     3  1  0.50        -4.0811   2.0000                                                             
     3  2  1.50        -4.0817   0.0000                                                             
   Description                                                                                      
     l       E           TYP  RCUT    TYP  RCUT                                                     
     0    -10.8127223     23  1.900                                                                 
     0     -7.6451159     23  1.900                                                                 
     1     -4.0811372     23  1.900                                                                 
     1      2.4879257     23  1.900                                                                 
     2     -4.0817478      7  1.900                                                                 
  local pseudopotential read in
  partial core-charges read in
  partial kinetic energy density read in
  atomic valenz-charges read in
  non local Contribution for L=           0  read in
    real space projection operators read in
  non local Contribution for L=           0  read in
    real space projection operators read in
  non local Contribution for L=           1  read in
    real space projection operators read in
  non local Contribution for L=           1  read in
    real space projection operators read in
    PAW grid and wavefunctions read in
 
   number of l-projection  operators is LMAX  =           4
   number of lm-projection operators is LMMAX =           8
 
  PAW_PBE Si 05Jan2001                  :
 energy of atom  1       EATOM= -103.0669
 kinetic energy error for atom=    0.0003 (will be added to EATOM!!)
 
 
 POSCAR: Si1
  positions in direct lattice
  No initial velocities read in
 exchange correlation table for  LEXCH =        8
   RHO(1)=    0.500       N(1)  =     2000
   RHO(2)=  100.500       N(2)  =     4000
 


--------------------------------------------------------------------------------------------------------


 ion  position               nearest neighbor table
   1  0.000  0.000  0.000-
 
  LATTYP: Found a face centered cubic cell.
 ALAT       =     3.8332789147
  
  Lattice vectors:
  
 A1 = (   2.3473950000,   0.0000000000,   1.3552680000)
 A2 = (   0.7824650000,   2.2131450000,   1.3552680000)
 A3 = (   0.0000000000,   0.0000000000,   2.7105380000)


Analysis of symmetry for initial positions (statically):
=====================================================================
 Subroutine PRICEL returns:
 Original cell was already a primitive cell.
 

 Routine SETGRP: Setting up the symmetry group for a 
 face centered cubic supercell.


 Subroutine GETGRP returns: Found 48 space group operations
 (whereof 48 operations were pure point group operations)
 out of a pool of 48 trial point group operations.


The static configuration has the point symmetry O_h .


Analysis of symmetry for dynamics (positions and initial velocities):
=====================================================================
 Subroutine PRICEL returns:
 Original cell was already a primitive cell.
 

 Routine SETGRP: Setting up the symmetry group for a 
 face centered cubic supercell.


 Subroutine GETGRP returns: Found 48 space group operations
 (whereof 48 operations were pure point group operations)
 out of a pool of 48 trial point group operations.


The dynamic configuration has the point symmetry O_h .


 Subroutine INISYM returns: Found 48 space group operations
 (whereof 48 operations are pure point group operations),
 and found     1 'primitive' translations


----------------------------------------------------------------------------------------

                                     Primitive cell                                     

  volume of cell :      14.0816

  direct lattice vectors                    reciprocal lattice vectors
     2.347395000  0.000000000  1.355268000     0.426004145 -0.150615226  0.000000000
     0.782465000  2.213145000  1.355268000     0.000000000  0.451845677  0.000000000
     0.000000000  0.000000000  2.710538000    -0.213001915 -0.150615114  0.368930448

  length of vectors
     2.710537703  2.710537515  2.710538000     0.451845635  0.451845677  0.451845554

  position of ions in fractional coordinates (direct lattice)
     0.000000000  0.000000000  0.000000000

  ion indices of the primitive-cell ions
   primitive index   ion index
                 1           1

----------------------------------------------------------------------------------------

 
 
 KPOINTS: Automatic                               

Automatic generation of k-mesh.
 Grid dimensions read from file:
 generate k-points for:   15   15   15

 Generating k-lattice:

  Cartesian coordinates                     Fractional coordinates (reciprocal lattice)
     0.028400276 -0.010041015  0.000000000     0.066666667 -0.000000000  0.000000000
     0.000000000  0.030123045  0.000000000     0.000000000  0.066666667  0.000000000
    -0.014200128 -0.010041008  0.024595363     0.000000000  0.000000000  0.066666667

  Length of vectors
     0.030123042  0.030123045  0.030123037

  Shift w.r.t. Gamma in fractional coordinates (k-lattice)
     0.000000000  0.000000000  0.000000000

 
 Subroutine IBZKPT returns following result:
 ===========================================
 
 Found    120 irreducible k-points:
 
 Following reciprocal coordinates:
            Coordinates               Weight
  0.000000  0.000000  0.000000      1.000000
  0.066667 -0.000000  0.000000      8.000000
  0.133333  0.000000  0.000000      8.000000
  0.200000  0.000000  0.000000      8.000000
  0.266667  0.000000  0.000000      8.000000
  0.333333  0.000000  0.000000      8.000000
  0.400000 -0.000000  0.000000      8.000000
  0.466667  0.000000  0.000000      8.000000
  0.066667  0.066667  0.000000      6.000000
  0.133333  0.066667  0.000000     24.000000
  0.200000  0.066667  0.000000     24.000000
  0.266667  0.066667  0.000000     24.000000
  0.333333  0.066667  0.000000     24.000000
  0.400000  0.066667  0.000000     24.000000
  0.466667  0.066667  0.000000     24.000000
 -0.466667  0.066667  0.000000     24.000000
 -0.400000  0.066667  0.000000     24.000000
 -0.333333  0.066667  0.000000     24.000000
 -0.266667  0.066667  0.000000     24.000000
 -0.200000  0.066667  0.000000     24.000000
 -0.133333  0.066667  0.000000     24.000000
 -0.066667  0.066667  0.000000     12.000000
  0.133333  0.133333  0.000000      6.000000
  0.200000  0.133333  0.000000     24.000000
  0.266667  0.133333  0.000000     24.000000
  0.333333  0.133333  0.000000     24.000000
  0.400000  0.133333  0.000000     24.000000
  0.466667  0.133333  0.000000     24.000000
 -0.466667  0.133333  0.000000     24.000000
 -0.400000  0.133333  0.000000     24.000000
 -0.333333  0.133333  0.000000     24.000000
 -0.266667  0.133333  0.000000     24.000000
 -0.200000  0.133333  0.000000     24.000000
 -0.133333  0.133333  0.000000     12.000000
  0.200000  0.200000  0.000000      6.000000
  0.266667  0.200000  0.000000     24.000000
  0.333333  0.200000  0.000000     24.000000
  0.400000  0.200000  0.000000     24.000000
  0.466667  0.200000  0.000000     24.000000
 -0.466667  0.200000  0.000000     24.000000
 -0.400000  0.200000  0.000000     24.000000
 -0.333333  0.200000  0.000000     24.000000
 -0.266667  0.200000  0.000000     24.000000
 -0.200000  0.200000  0.000000     12.000000
  0.266667  0.266667  0.000000      6.000000
  0.333333  0.266667  0.000000     24.000000
  0.400000  0.266667  0.000000     24.000000
  0.466667  0.266667  0.000000     24.000000
 -0.466667  0.266667  0.000000     24.000000
 -0.400000  0.266667  0.000000     24.000000
 -0.333333  0.266667  0.000000     24.000000
 -0.266667  0.266667  0.000000     12.000000
  0.333333  0.333333  0.000000      6.000000
  0.400000  0.333333  0.000000     24.000000
  0.466667  0.333333  0.000000     24.000000
 -0.466667  0.333333  0.000000     24.000000
 -0.400000  0.333333  0.000000     24.000000
 -0.333333  0.333333  0.000000     12.000000
  0.400000  0.400000  0.000000      6.000000
  0.466667  0.400000  0.000000     24.000000
 -0.466667  0.400000  0.000000     24.000000
 -0.400000  0.400000  0.000000     12.000000
  0.466667  0.466667  0.000000      6.000000
 -0.466667  0.466667  0.000000     12.000000
  0.200000  0.133333  0.066667     24.000000
  0.266667  0.133333  0.066667     48.000000
  0.333333  0.133333  0.066667     48.000000
  0.400000  0.133333  0.066667     48.000000
  0.466667  0.133333  0.066667     48.000000
 -0.466667  0.133333  0.066667     48.000000
  0.266667  0.200000  0.066667     24.000000
  0.333333  0.200000  0.066667     48.000000
  0.400000  0.200000  0.066667     48.000000
  0.466667  0.200000  0.066667     48.000000
 -0.466667  0.200000  0.066667     48.000000
 -0.400000  0.200000  0.066667     48.000000
 -0.333333  0.200000  0.066667     48.000000
 -0.266667  0.200000  0.066667     48.000000
 -0.200000  0.200000  0.066667     48.000000
 -0.133333  0.200000  0.066667     24.000000
  0.333333  0.266667  0.066667     24.000000
  0.400000  0.266667  0.066667     48.000000
  0.466667  0.266667  0.066667     48.000000
 -0.466667  0.266667  0.066667     48.000000
 -0.400000  0.266667  0.066667     48.000000
 -0.333333  0.266667  0.066667     48.000000
 -0.266667  0.266667  0.066667     48.000000
 -0.200000  0.266667  0.066667     24.000000
  0.400000  0.333333  0.066667     24.000000
  0.466667  0.333333  0.066667     48.000000
 -0.466667  0.333333  0.066667     48.000000
 -0.400000  0.333333  0.066667     48.000000
 -0.333333  0.333333  0.066667     48.000000
 -0.266667  0.333333  0.066667     24.000000
  0.466667  0.400000  0.066667     24.000000
 -0.466667  0.400000  0.066667     48.000000
 -0.400000  0.400000  0.066667     48.000000
 -0.333333  0.400000  0.066667     24.000000
 -0.466667  0.466667  0.066667     24.000000
 -0.400000  0.466667  0.066667     24.000000
  0.400000  0.266667  0.133333     24.000000
  0.466667  0.266667  0.133333     48.000000
 -0.466667  0.266667  0.133333     48.000000
 -0.400000  0.266667  0.133333     48.000000
  0.466667  0.333333  0.133333     24.000000
 -0.466667  0.333333  0.133333     48.000000
 -0.400000  0.333333  0.133333     48.000000
 -0.333333  0.333333  0.133333     48.000000
 -0.266667  0.333333  0.133333     48.000000
 -0.200000  0.333333  0.133333     24.000000
 -0.466667  0.400000  0.133333     24.000000
 -0.400000  0.400000  0.133333     48.000000
 -0.333333  0.400000  0.133333     48.000000
 -0.266667  0.400000  0.133333     24.000000
 -0.400000  0.466667  0.133333     24.000000
 -0.333333  0.466667  0.133333     24.000000
 -0.400000  0.400000  0.200000     24.000000
 -0.333333  0.400000  0.200000     48.000000
 -0.333333  0.466667  0.200000     24.000000
 -0.266667  0.466667  0.200000     24.000000
 
 Following cartesian coordinates:
            Coordinates               Weight
  0.000000  0.000000  0.000000      1.000000
  0.028400 -0.010041  0.000000      8.000000
  0.056801 -0.020082  0.000000      8.000000
  0.085201 -0.030123  0.000000      8.000000
  0.113601 -0.040164  0.000000      8.000000
  0.142001 -0.050205  0.000000      8.000000
  0.170402 -0.060246  0.000000      8.000000
  0.198802 -0.070287  0.000000      8.000000
  0.028400  0.020082  0.000000      6.000000
  0.056801  0.010041  0.000000     24.000000
  0.085201  0.000000  0.000000     24.000000
  0.113601 -0.010041  0.000000     24.000000
  0.142001 -0.020082  0.000000     24.000000
  0.170402 -0.030123  0.000000     24.000000
  0.198802 -0.040164  0.000000     24.000000
 -0.198802  0.100410  0.000000     24.000000
 -0.170402  0.090369  0.000000     24.000000
 -0.142001  0.080328  0.000000     24.000000
 -0.113601  0.070287  0.000000     24.000000
 -0.085201  0.060246  0.000000     24.000000
 -0.056801  0.050205  0.000000     24.000000
 -0.028400  0.040164  0.000000     12.000000
  0.056801  0.040164  0.000000      6.000000
  0.085201  0.030123  0.000000     24.000000
  0.113601  0.020082  0.000000     24.000000
  0.142001  0.010041  0.000000     24.000000
  0.170402  0.000000  0.000000     24.000000
  0.198802 -0.010041  0.000000     24.000000
 -0.198802  0.130533  0.000000     24.000000
 -0.170402  0.120492  0.000000     24.000000
 -0.142001  0.110451  0.000000     24.000000
 -0.113601  0.100410  0.000000     24.000000
 -0.085201  0.090369  0.000000     24.000000
 -0.056801  0.080328  0.000000     12.000000
  0.085201  0.060246  0.000000      6.000000
  0.113601  0.050205  0.000000     24.000000
  0.142001  0.040164  0.000000     24.000000
  0.170402  0.030123  0.000000     24.000000
  0.198802  0.020082  0.000000     24.000000
 -0.198802  0.160656  0.000000     24.000000
 -0.170402  0.150615  0.000000     24.000000
 -0.142001  0.140574  0.000000     24.000000
 -0.113601  0.130533  0.000000     24.000000
 -0.085201  0.120492  0.000000     12.000000
  0.113601  0.080328  0.000000      6.000000
  0.142001  0.070287  0.000000     24.000000
  0.170402  0.060246  0.000000     24.000000
  0.198802  0.050205  0.000000     24.000000
 -0.198802  0.190779  0.000000     24.000000
 -0.170402  0.180738  0.000000     24.000000
 -0.142001  0.170697  0.000000     24.000000
 -0.113601  0.160656  0.000000     12.000000
  0.142001  0.100410  0.000000      6.000000
  0.170402  0.090369  0.000000     24.000000
  0.198802  0.080328  0.000000     24.000000
 -0.198802  0.220902  0.000000     24.000000
 -0.170402  0.210861  0.000000     24.000000
 -0.142001  0.200820  0.000000     12.000000
  0.170402  0.120492  0.000000      6.000000
  0.198802  0.110451  0.000000     24.000000
 -0.198802  0.251025  0.000000     24.000000
 -0.170402  0.240984  0.000000     12.000000
  0.198802  0.140574  0.000000      6.000000
 -0.198802  0.281148  0.000000     12.000000
  0.071001  0.020082  0.024595     24.000000
  0.099401  0.010041  0.024595     48.000000
  0.127801  0.000000  0.024595     48.000000
  0.156202 -0.010041  0.024595     48.000000
  0.184602 -0.020082  0.024595     48.000000
 -0.213002  0.120492  0.024595     48.000000
  0.099401  0.040164  0.024595     24.000000
  0.127801  0.030123  0.024595     48.000000
  0.156202  0.020082  0.024595     48.000000
  0.184602  0.010041  0.024595     48.000000
 -0.213002  0.150615  0.024595     48.000000
 -0.184602  0.140574  0.024595     48.000000
 -0.156202  0.130533  0.024595     48.000000
 -0.127801  0.120492  0.024595     48.000000
 -0.099401  0.110451  0.024595     48.000000
 -0.071001  0.100410  0.024595     24.000000
  0.127801  0.060246  0.024595     24.000000
  0.156202  0.050205  0.024595     48.000000
  0.184602  0.040164  0.024595     48.000000
 -0.213002  0.180738  0.024595     48.000000
 -0.184602  0.170697  0.024595     48.000000
 -0.156202  0.160656  0.024595     48.000000
 -0.127801  0.150615  0.024595     48.000000
 -0.099401  0.140574  0.024595     24.000000
  0.156202  0.080328  0.024595     24.000000
  0.184602  0.070287  0.024595     48.000000
 -0.213002  0.210861  0.024595     48.000000
 -0.184602  0.200820  0.024595     48.000000
 -0.156202  0.190779  0.024595     48.000000
 -0.127801  0.180738  0.024595     24.000000
  0.184602  0.100410  0.024595     24.000000
 -0.213002  0.240984  0.024595     48.000000
 -0.184602  0.230943  0.024595     48.000000
 -0.156202  0.220902  0.024595     24.000000
 -0.213002  0.271107  0.024595     24.000000
 -0.184602  0.261066  0.024595     24.000000
  0.142001  0.040164  0.049191     24.000000
  0.170402  0.030123  0.049191     48.000000
 -0.227202  0.170697  0.049191     48.000000
 -0.198802  0.160656  0.049191     48.000000
  0.170402  0.060246  0.049191     24.000000
 -0.227202  0.200820  0.049191     48.000000
 -0.198802  0.190779  0.049191     48.000000
 -0.170402  0.180738  0.049191     48.000000
 -0.142001  0.170697  0.049191     48.000000
 -0.113601  0.160656  0.049191     24.000000
 -0.227202  0.230943  0.049191     24.000000
 -0.198802  0.220902  0.049191     48.000000
 -0.170402  0.210861  0.049191     48.000000
 -0.142001  0.200820  0.049191     24.000000
 -0.198802  0.251025  0.049191     24.000000
 -0.170402  0.240984  0.049191     24.000000
 -0.213002  0.210861  0.073786     24.000000
 -0.184602  0.200820  0.073786     48.000000
 -0.184602  0.230943  0.073786     24.000000
 -0.156201  0.220902  0.073786     24.000000
 


--------------------------------------------------------------------------------------------------------




 Dimension of arrays:
   k-points           NKPTS =    120   k-points in BZ     NKDIM =    120   number of bands    NBANDS=      8
   number of dos      NEDOS =    301   number of ions     NIONS =      1
   non local maximal  LDIM  =      4   non local SUM 2l+1 LMDIM =      8
   total plane-waves  NPLWV =  13824
   max r-space proj   IRMAX =      1   max aug-charges    IRDMAX= 262755
   dimension x,y,z NGX =    24 NGY =   24 NGZ =   24
   dimension x,y,z NGXF=    48 NGYF=   48 NGZF=   48
   support grid    NGXF=    96 NGYF=   96 NGZF=   96
   ions per type =               1
   NGX,Y,Z   is equivalent  to a cutoff of  14.72, 14.72, 14.72 a.u.
   NGXF,Y,Z  is equivalent  to a cutoff of  29.44, 29.44, 29.44 a.u.

 SYSTEM =  unknown system                          
 POSCAR =  Si1                                     

 Startparameter for this run:
   NWRITE =      2    write-flag & timer
   PREC   = accura    normal or accurate (medium, high low for compatibility)
   ISTART =      0    job   : 0-new  1-cont  2-samecut
   ICHARG =      2    charge: 1-file 2-atom 10-const
   ISPIN  =      1    spin polarized calculation?
   LNONCOLLINEAR =      F non collinear calculations
   LSORBIT =      F    spin-orbit coupling
   INIWAV =      1    electr: 0-lowe 1-rand  2-diag
   LASPH  =      T    aspherical Exc in radial PAW
   METAGGA=      F    non-selfconsistent MetaGGA calc.

 Electronic Relaxation 1
   ENCUT  =  700.0 eV  51.45 Ry    7.17 a.u.   5.85  5.85  5.85*2*pi/ulx,y,z
   ENINI  =  700.0     initial cutoff
   ENAUG  =  322.1 eV  augmentation charge cutoff
   NELM   =     90;   NELMIN=  6; NELMDL= -5     # of ELM steps 
   EDIFF  = 0.1E-05   stopping-criterion for ELM
   LREAL  =      F    real-space projection
   NLSPLINE    = F    spline interpolate recip. space projectors
   LCOMPAT=      F    compatible to vasp.4.4
   GGA_COMPAT  = T    GGA compatible to vasp.4.4-vasp.4.6
   LMAXPAW     = -100 max onsite density
   LMAXMIX     =    2 max onsite mixed and CHGCAR
   VOSKOWN=      0    Vosko Wilk Nusair interpolation
   ROPT   =    0.00000
 Ionic relaxation
   EDIFFG = -.2E-02   stopping-criterion for IOM
   NSW    =    100    number of steps for IOM
   NBLOCK =      1;   KBLOCK =    100    inner block; outer block 
   IBRION =      2    ionic relax: 0-MD 1-quasi-New 2-CG
   NFREE  =      1    steps in history (QN), initial steepest desc. (CG)
   ISIF   =      2    stress and relaxation
   IWAVPR =     11    prediction:  0-non 1-charg 2-wave 3-comb
   ISYM   =      2    0-nonsym 1-usesym 2-fastsym
   LCORR  =      T    Harris-Foulkes like correction to forces

   POTIM  = 0.5000    time-step for ionic-motion
   TEIN   =    0.0    initial temperature
   TEBEG  =    0.0;   TEEND  =   0.0 temperature during run
   SMASS  =  -3.00    Nose mass-parameter (am)
   estimated Nose-frequenzy (Omega)   =  0.10E-29 period in steps = 0.13E+47 mass=  -0.168E-27a.u.
   SCALEE = 1.0000    scale energy and forces
   NPACO  =    256;   APACO  = 16.0  distance and # of slots for P.C.
   PSTRESS=    0.0 pullay stress

  Mass of Ions in am
   POMASS =  28.09
  Ionic Valenz
   ZVAL   =   4.00
  Atomic Wigner-Seitz radii
   RWIGS  =  -1.00
  virtual crystal weights 
   VCA    =   1.00
   NELECT =       4.0000    total number of electrons
   NUPDOWN=      -1.0000    fix difference up-down

 DOS related values:
   EMIN   =  10.00;   EMAX   =-10.00  energy-range for DOS
   EFERMI =   0.00
   ISMEAR =     0;   SIGMA  =   0.05  broadening in eV -4-tet -1-fermi 0-gaus

 Electronic relaxation 2 (details)
   IALGO  =     38    algorithm
   LDIAG  =      T    sub-space diagonalisation (order eigenvalues)
   LSUBROT=      F    optimize rotation matrix (better conditioning)
   TURBO    =      0    0=normal 1=particle mesh
   IRESTART =      0    0=no restart 2=restart with 2 vectors
   NREBOOT  =      0    no. of reboots
   NMIN     =      0    reboot dimension
   EREF     =   0.00    reference energy to select bands
   IMIX   =      4    mixing-type and parameters
     AMIX     =   0.40;   BMIX     =  1.00
     AMIX_MAG =   1.60;   BMIX_MAG =  1.00
     AMIN     =   0.10
     WC   =   100.;   INIMIX=   1;  MIXPRE=   1;  MAXMIX= -45

 Intra band minimization:
   WEIMIN = 0.0010     energy-eigenvalue tresh-hold
   EBREAK =  0.31E-07  absolut break condition
   DEPER  =   0.30     relativ break condition  

   TIME   =   0.40     timestep for ELM

  volume/ion in A,a.u.               =      14.08        95.03
  Fermi-wavevector in a.u.,A,eV,Ry     =   1.076162  2.033651 15.757242  1.158125
  Thomas-Fermi vector in A             =   2.212039
 
 Write flags
   LWAVE        =      F    write WAVECAR
   LDOWNSAMPLE  =      F    k-point downsampling of WAVECAR
   LCHARG       =      F    write CHGCAR
   LVTOT        =      F    write LOCPOT, total local potential
   LVHAR        =      F    write LOCPOT, Hartree potential only
   LELF         =      F    write electronic localiz. function (ELF)
   LORBIT       =      0    0 simple, 1 ext, 2 COOP (PROOUT), +10 PAW based schemes


 Dipole corrections
   LMONO  =      F    monopole corrections only (constant potential shift)
   LDIPOL =      F    correct potential (dipole corrections)
   IDIPOL =      0    1-x, 2-y, 3-z, 4-all directions 
   EPSILON=  1.0000000 bulk dielectric constant

 Exchange correlation treatment:
   GGA     =    --    GGA type
   LEXCH   =     8    internal setting for exchange type
   VOSKOWN=      0    Vosko Wilk Nusair interpolation
   LHFCALC =     F    Hartree Fock is set to
   LHFONE  =     F    Hartree Fock one center treatment
   AEXX    =    0.0000 exact exchange contribution

 Linear response parameters
   LEPSILON=     F    determine dielectric tensor
   LRPA    =     F    only Hartree local field effects (RPA)
   LNABLA  =     F    use nabla operator in PAW spheres
   LVEL    =     F    velocity operator in full k-point grid
   LINTERFAST=   F  fast interpolation
   KINTER  =     0    interpolate to denser k-point grid
   CSHIFT  =0.1000    complex shift for real part using Kramers Kronig
   OMEGAMAX=  -1.0    maximum frequency
   DEG_THRESHOLD= 0.2000000E-02 threshold for treating states as degnerate
   RTIME   =   -0.100 relaxation time in fs
  (WPLASMAI=    0.000 imaginary part of plasma frequency in eV, 0.658/RTIME)
   DFIELD  = 0.0000000 0.0000000 0.0000000 field for delta impulse in time
 
 Orbital magnetization related:
   ORBITALMAG=     F  switch on orbital magnetization
   LCHIMAG   =     F  perturbation theory with respect to B field
   DQ        =  0.001000  dq finite difference perturbation B field
   LLRAUG    =     F  two centre corrections for induced B field



--------------------------------------------------------------------------------------------------------


 conjugate gradient relaxation of ions
 charge density and potential will be updated during run
 non-spin polarized calculation
 Variant of blocked Davidson
 Davidson routine will perform the subspace rotation
 perform sub-space diagonalisation
    after iterative eigenvector-optimisation
 modified Broyden-mixing scheme, WC =      100.0
 initial mixing is a Kerker type mixing with AMIX =  0.4000 and BMIX =      1.0000
 Hartree-type preconditioning will be used
 using additional bands            6
 reciprocal scheme for non local part
 use partial core corrections
 calculate Harris-corrections to forces 
   (improved forces if not selfconsistent)
 use gradient corrections 
 use of overlap-Matrix (Vanderbilt PP)
 Gauss-broadening in eV      SIGMA  =   0.05


--------------------------------------------------------------------------------------------------------


  energy-cutoff  :      700.00
  volume of cell :       14.08
      direct lattice vectors                 reciprocal lattice vectors
     2.347395000  0.000000000  1.355268000     0.426004145 -0.150615226  0.000000000
     0.782465000  2.213145000  1.355268000     0.000000000  0.451845677  0.000000000
     0.000000000  0.000000000  2.710538000    -0.213001915 -0.150615114  0.368930448

  length of vectors
     2.710537703  2.710537515  2.710538000     0.451845635  0.451845677  0.451845554


 
 k-points in units of 2pi/SCALE and weight: Automatic                               
   0.00000000  0.00000000  0.00000000       0.000
   0.02840028 -0.01004102  0.00000000       0.002
   0.05680055 -0.02008203  0.00000000       0.002
   0.08520083 -0.03012305  0.00000000       0.002
   0.11360111 -0.04016406  0.00000000       0.002
   0.14200138 -0.05020508  0.00000000       0.002
   0.17040166 -0.06024609  0.00000000       0.002
   0.19880193 -0.07028711  0.00000000       0.002
   0.02840028  0.02008203  0.00000000       0.002
   0.05680055  0.01004102  0.00000000       0.007
   0.08520083  0.00000000  0.00000000       0.007
   0.11360111 -0.01004102  0.00000000       0.007
   0.14200138 -0.02008203  0.00000000       0.007
   0.17040166 -0.03012305  0.00000000       0.007
   0.19880193 -0.04016406  0.00000000       0.007
  -0.19880193  0.10041015  0.00000000       0.007
  -0.17040166  0.09036914  0.00000000       0.007
  -0.14200138  0.08032812  0.00000000       0.007
  -0.11360111  0.07028711  0.00000000       0.007
  -0.08520083  0.06024609  0.00000000       0.007
  -0.05680055  0.05020508  0.00000000       0.007
  -0.02840028  0.04016406  0.00000000       0.004
   0.05680055  0.04016406  0.00000000       0.002
   0.08520083  0.03012305  0.00000000       0.007
   0.11360111  0.02008203  0.00000000       0.007
   0.14200138  0.01004102  0.00000000       0.007
   0.17040166  0.00000000  0.00000000       0.007
   0.19880193 -0.01004102  0.00000000       0.007
  -0.19880193  0.13053320  0.00000000       0.007
  -0.17040166  0.12049218  0.00000000       0.007
  -0.14200138  0.11045117  0.00000000       0.007
  -0.11360111  0.10041015  0.00000000       0.007
  -0.08520083  0.09036914  0.00000000       0.007
  -0.05680055  0.08032812  0.00000000       0.004
   0.08520083  0.06024609  0.00000000       0.002
   0.11360111  0.05020508  0.00000000       0.007
   0.14200138  0.04016406  0.00000000       0.007
   0.17040166  0.03012305  0.00000000       0.007
   0.19880193  0.02008203  0.00000000       0.007
  -0.19880193  0.16065624  0.00000000       0.007
  -0.17040166  0.15061523  0.00000000       0.007
  -0.14200138  0.14057421  0.00000000       0.007
  -0.11360111  0.13053320  0.00000000       0.007
  -0.08520083  0.12049218  0.00000000       0.004
   0.11360111  0.08032812  0.00000000       0.002
   0.14200138  0.07028711  0.00000000       0.007
   0.17040166  0.06024609  0.00000000       0.007
   0.19880193  0.05020508  0.00000000       0.007
  -0.19880193  0.19077929  0.00000000       0.007
  -0.17040166  0.18073827  0.00000000       0.007
  -0.14200138  0.17069726  0.00000000       0.007
  -0.11360111  0.16065624  0.00000000       0.004
   0.14200138  0.10041015  0.00000000       0.002
   0.17040166  0.09036914  0.00000000       0.007
   0.19880193  0.08032812  0.00000000       0.007
  -0.19880193  0.22090233  0.00000000       0.007
  -0.17040166  0.21086132  0.00000000       0.007
  -0.14200138  0.20082030  0.00000000       0.004
   0.17040166  0.12049218  0.00000000       0.002
   0.19880193  0.11045117  0.00000000       0.007
  -0.19880193  0.25102538  0.00000000       0.007
  -0.17040166  0.24098436  0.00000000       0.004
   0.19880193  0.14057421  0.00000000       0.002
  -0.19880193  0.28114842  0.00000000       0.004
   0.07100070  0.02008204  0.02459536       0.007
   0.09940098  0.01004102  0.02459536       0.014
   0.12780125  0.00000001  0.02459536       0.014
   0.15620153 -0.01004101  0.02459536       0.014
   0.18460181 -0.02008202  0.02459536       0.014
  -0.21300206  0.12049219  0.02459536       0.014
   0.09940098  0.04016407  0.02459536       0.007
   0.12780125  0.03012305  0.02459536       0.014
   0.15620153  0.02008204  0.02459536       0.014
   0.18460181  0.01004102  0.02459536       0.014
  -0.21300206  0.15061523  0.02459536       0.014
  -0.18460179  0.14057422  0.02459536       0.014
  -0.15620151  0.13053320  0.02459536       0.014
  -0.12780123  0.12049219  0.02459536       0.014
  -0.09940096  0.11045117  0.02459536       0.014
  -0.07100068  0.10041016  0.02459536       0.007
   0.12780125  0.06024610  0.02459536       0.007
   0.15620153  0.05020508  0.02459536       0.014
   0.18460181  0.04016407  0.02459536       0.014
  -0.21300206  0.18073828  0.02459536       0.014
  -0.18460179  0.17069726  0.02459536       0.014
  -0.15620151  0.16065625  0.02459536       0.014
  -0.12780123  0.15061523  0.02459536       0.014
  -0.09940096  0.14057422  0.02459536       0.007
   0.15620153  0.08032813  0.02459536       0.007
   0.18460181  0.07028711  0.02459536       0.014
  -0.21300206  0.21086132  0.02459536       0.014
  -0.18460179  0.20082031  0.02459536       0.014
  -0.15620151  0.19077929  0.02459536       0.014
  -0.12780123  0.18073828  0.02459536       0.007
   0.18460181  0.10041016  0.02459536       0.007
  -0.21300206  0.24098437  0.02459536       0.014
  -0.18460179  0.23094335  0.02459536       0.014
  -0.15620151  0.22090234  0.02459536       0.007
  -0.21300206  0.27110741  0.02459536       0.007
  -0.18460179  0.26106640  0.02459536       0.007
   0.14200140  0.04016407  0.04919073       0.007
   0.17040168  0.03012306  0.04919073       0.014
  -0.22720219  0.17069727  0.04919073       0.014
  -0.19880191  0.16065626  0.04919073       0.014
   0.17040168  0.06024611  0.04919073       0.007
  -0.22720219  0.20082032  0.04919073       0.014
  -0.19880191  0.19077930  0.04919073       0.014
  -0.17040164  0.18073829  0.04919073       0.014
  -0.14200136  0.17069727  0.04919073       0.014
  -0.11360108  0.16065626  0.04919073       0.007
  -0.22720219  0.23094336  0.04919073       0.007
  -0.19880191  0.22090235  0.04919073       0.014
  -0.17040164  0.21086133  0.04919073       0.014
  -0.14200136  0.20082032  0.04919073       0.007
  -0.19880191  0.25102539  0.04919073       0.007
  -0.17040164  0.24098438  0.04919073       0.007
  -0.21300204  0.21086134  0.07378609       0.007
  -0.18460176  0.20082032  0.07378609       0.014
  -0.18460176  0.23094337  0.07378609       0.007
  -0.15620149  0.22090235  0.07378609       0.007
 
 k-points in reciprocal lattice and weights: Automatic                               
   0.00000000  0.00000000  0.00000000       0.000
   0.06666667 -0.00000000  0.00000000       0.002
   0.13333333  0.00000000  0.00000000       0.002
   0.20000000  0.00000000  0.00000000       0.002
   0.26666667  0.00000000  0.00000000       0.002
   0.33333333  0.00000000  0.00000000       0.002
   0.40000000 -0.00000000  0.00000000       0.002
   0.46666667  0.00000000  0.00000000       0.002
   0.06666667  0.06666667  0.00000000       0.002
   0.13333333  0.06666667  0.00000000       0.007
   0.20000000  0.06666667  0.00000000       0.007
   0.26666667  0.06666667  0.00000000       0.007
   0.33333333  0.06666667  0.00000000       0.007
   0.40000000  0.06666667  0.00000000       0.007
   0.46666667  0.06666667  0.00000000       0.007
  -0.46666667  0.06666667  0.00000000       0.007
  -0.40000000  0.06666667  0.00000000       0.007
  -0.33333333  0.06666667  0.00000000       0.007
  -0.26666667  0.06666667  0.00000000       0.007
  -0.20000000  0.06666667  0.00000000       0.007
  -0.13333333  0.06666667  0.00000000       0.007
  -0.06666667  0.06666667  0.00000000       0.004
   0.13333333  0.13333333  0.00000000       0.002
   0.20000000  0.13333333  0.00000000       0.007
   0.26666667  0.13333333  0.00000000       0.007
   0.33333333  0.13333333  0.00000000       0.007
   0.40000000  0.13333333  0.00000000       0.007
   0.46666667  0.13333333  0.00000000       0.007
  -0.46666667  0.13333333  0.00000000       0.007
  -0.40000000  0.13333333  0.00000000       0.007
  -0.33333333  0.13333333  0.00000000       0.007
  -0.26666667  0.13333333  0.00000000       0.007
  -0.20000000  0.13333333  0.00000000       0.007
  -0.13333333  0.13333333  0.00000000       0.004
   0.20000000  0.20000000  0.00000000       0.002
   0.26666667  0.20000000  0.00000000       0.007
   0.33333333  0.20000000  0.00000000       0.007
   0.40000000  0.20000000  0.00000000       0.007
   0.46666667  0.20000000  0.00000000       0.007
  -0.46666667  0.20000000  0.00000000       0.007
  -0.40000000  0.20000000  0.00000000       0.007
  -0.33333333  0.20000000  0.00000000       0.007
  -0.26666667  0.20000000  0.00000000       0.007
  -0.20000000  0.20000000  0.00000000       0.004
   0.26666667  0.26666667  0.00000000       0.002
   0.33333333  0.26666667  0.00000000       0.007
   0.40000000  0.26666667  0.00000000       0.007
   0.46666667  0.26666667  0.00000000       0.007
  -0.46666667  0.26666667  0.00000000       0.007
  -0.40000000  0.26666667  0.00000000       0.007
  -0.33333333  0.26666667  0.00000000       0.007
  -0.26666667  0.26666667  0.00000000       0.004
   0.33333333  0.33333333  0.00000000       0.002
   0.40000000  0.33333333  0.00000000       0.007
   0.46666667  0.33333333  0.00000000       0.007
  -0.46666667  0.33333333  0.00000000       0.007
  -0.40000000  0.33333333  0.00000000       0.007
  -0.33333333  0.33333333  0.00000000       0.004
   0.40000000  0.40000000  0.00000000       0.002
   0.46666667  0.40000000  0.00000000       0.007
  -0.46666667  0.40000000  0.00000000       0.007
  -0.40000000  0.40000000  0.00000000       0.004
   0.46666667  0.46666667  0.00000000       0.002
  -0.46666667  0.46666667  0.00000000       0.004
   0.20000000  0.13333333  0.06666667       0.007
   0.26666667  0.13333333  0.06666667       0.014
   0.33333333  0.13333333  0.06666667       0.014
   0.40000000  0.13333333  0.06666667       0.014
   0.46666667  0.13333333  0.06666667       0.014
  -0.46666667  0.13333333  0.06666667       0.014
   0.26666667  0.20000000  0.06666667       0.007
   0.33333333  0.20000000  0.06666667       0.014
   0.40000000  0.20000000  0.06666667       0.014
   0.46666667  0.20000000  0.06666667       0.014
  -0.46666667  0.20000000  0.06666667       0.014
  -0.40000000  0.20000000  0.06666667       0.014
  -0.33333333  0.20000000  0.06666667       0.014
  -0.26666667  0.20000000  0.06666667       0.014
  -0.20000000  0.20000000  0.06666667       0.014
  -0.13333333  0.20000000  0.06666667       0.007
   0.33333333  0.26666667  0.06666667       0.007
   0.40000000  0.26666667  0.06666667       0.014
   0.46666667  0.26666667  0.06666667       0.014
  -0.46666667  0.26666667  0.06666667       0.014
  -0.40000000  0.26666667  0.06666667       0.014
  -0.33333333  0.26666667  0.06666667       0.014
  -0.26666667  0.26666667  0.06666667       0.014
  -0.20000000  0.26666667  0.06666667       0.007
   0.40000000  0.33333333  0.06666667       0.007
   0.46666667  0.33333333  0.06666667       0.014
  -0.46666667  0.33333333  0.06666667       0.014
  -0.40000000  0.33333333  0.06666667       0.014
  -0.33333333  0.33333333  0.06666667       0.014
  -0.26666667  0.33333333  0.06666667       0.007
   0.46666667  0.40000000  0.06666667       0.007
  -0.46666667  0.40000000  0.06666667       0.014
  -0.40000000  0.40000000  0.06666667       0.014
  -0.33333333  0.40000000  0.06666667       0.007
  -0.46666667  0.46666667  0.06666667       0.007
  -0.40000000  0.46666667  0.06666667       0.007
   0.40000000  0.26666667  0.13333333       0.007
   0.46666667  0.26666667  0.13333333       0.014
  -0.46666667  0.26666667  0.13333333       0.014
  -0.40000000  0.26666667  0.13333333       0.014
   0.46666667  0.33333333  0.13333333       0.007
  -0.46666667  0.33333333  0.13333333       0.014
  -0.40000000  0.33333333  0.13333333       0.014
  -0.33333333  0.33333333  0.13333333       0.014
  -0.26666667  0.33333333  0.13333333       0.014
  -0.20000000  0.33333333  0.13333333       0.007
  -0.46666667  0.40000000  0.13333333       0.007
  -0.40000000  0.40000000  0.13333333       0.014
  -0.33333333  0.40000000  0.13333333       0.014
  -0.26666667  0.40000000  0.13333333       0.007
  -0.40000000  0.46666667  0.13333333       0.007
  -0.33333333  0.46666667  0.13333333       0.007
  -0.40000000  0.40000000  0.20000000       0.007
  -0.33333333  0.40000000  0.20000000       0.014
  -0.33333333  0.46666667  0.20000000       0.007
  -0.26666667  0.46666667  0.20000000       0.007
 
 position of ions in fractional coordinates (direct lattice) 
   0.00000000  0.00000000  0.00000000
 
 position of ions in cartesian coordinates  (Angst):
   0.00000000  0.00000000  0.00000000
 


--------------------------------------------------------------------------------------------------------


 k-point   1 :   0.0000 0.0000 0.0000  plane waves:     609
 k-point   2 :   0.0667-0.0000 0.0000  plane waves:     585
 k-point   3 :   0.1333 0.0000 0.0000  plane waves:     576
 k-point   4 :   0.2000 0.0000 0.0000  plane waves:     582
 k-point   5 :   0.2667 0.0000 0.0000  plane waves:     592
 k-point   6 :   0.3333 0.0000 0.0000  plane waves:     601
 k-point   7 :   0.4000-0.0000 0.0000  plane waves:     598
 k-point   8 :   0.4667 0.0000 0.0000  plane waves:     592
 k-point   9 :   0.0667 0.0667 0.0000  plane waves:     585
 k-point  10 :   0.1333 0.0667 0.0000  plane waves:     582
 k-point  11 :   0.2000 0.0667 0.0000  plane waves:     584
 k-point  12 :   0.2667 0.0667 0.0000  plane waves:     585
 k-point  13 :   0.3333 0.0667 0.0000  plane waves:     597
 k-point  14 :   0.4000 0.0667 0.0000  plane waves:     598
 k-point  15 :   0.4667 0.0667 0.0000  plane waves:     591
 k-point  16 :  -0.4667 0.0667 0.0000  plane waves:     588
 k-point  17 :  -0.4000 0.0667 0.0000  plane waves:     594
 k-point  18 :  -0.3333 0.0667 0.0000  plane waves:     594
 k-point  19 :  -0.2667 0.0667 0.0000  plane waves:     589
 k-point  20 :  -0.2000 0.0667 0.0000  plane waves:     581
 k-point  21 :  -0.1333 0.0667 0.0000  plane waves:     586
 k-point  22 :  -0.0667 0.0667 0.0000  plane waves:     581
 k-point  23 :   0.1333 0.1333 0.0000  plane waves:     581
 k-point  24 :   0.2000 0.1333 0.0000  plane waves:     580
 k-point  25 :   0.2667 0.1333 0.0000  plane waves:     584
 k-point  26 :   0.3333 0.1333 0.0000  plane waves:     594
 k-point  27 :   0.4000 0.1333 0.0000  plane waves:     593
 k-point  28 :   0.4667 0.1333 0.0000  plane waves:     592
 k-point  29 :  -0.4667 0.1333 0.0000  plane waves:     588
 k-point  30 :  -0.4000 0.1333 0.0000  plane waves:     592
 k-point  31 :  -0.3333 0.1333 0.0000  plane waves:     592
 k-point  32 :  -0.2667 0.1333 0.0000  plane waves:     594
 k-point  33 :  -0.2000 0.1333 0.0000  plane waves:     588
 k-point  34 :  -0.1333 0.1333 0.0000  plane waves:     580
 k-point  35 :   0.2000 0.2000 0.0000  plane waves:     584
 k-point  36 :   0.2667 0.2000 0.0000  plane waves:     584
 k-point  37 :   0.3333 0.2000 0.0000  plane waves:     595
 k-point  38 :   0.4000 0.2000 0.0000  plane waves:     594
 k-point  39 :   0.4667 0.2000 0.0000  plane waves:     592
 k-point  40 :  -0.4667 0.2000 0.0000  plane waves:     590
 k-point  41 :  -0.4000 0.2000 0.0000  plane waves:     597
 k-point  42 :  -0.3333 0.2000 0.0000  plane waves:     591
 k-point  43 :  -0.2667 0.2000 0.0000  plane waves:     594
 k-point  44 :  -0.2000 0.2000 0.0000  plane waves:     596
 k-point  45 :   0.2667 0.2667 0.0000  plane waves:     592
 k-point  46 :   0.3333 0.2667 0.0000  plane waves:     593
 k-point  47 :   0.4000 0.2667 0.0000  plane waves:     597
 k-point  48 :   0.4667 0.2667 0.0000  plane waves:     600
 k-point  49 :  -0.4667 0.2667 0.0000  plane waves:     595
 k-point  50 :  -0.4000 0.2667 0.0000  plane waves:     589
 k-point  51 :  -0.3333 0.2667 0.0000  plane waves:     589
 k-point  52 :  -0.2667 0.2667 0.0000  plane waves:     598
 k-point  53 :   0.3333 0.3333 0.0000  plane waves:     576
 k-point  54 :   0.4000 0.3333 0.0000  plane waves:     597
 k-point  55 :   0.4667 0.3333 0.0000  plane waves:     597
 k-point  56 :  -0.4667 0.3333 0.0000  plane waves:     594
 k-point  57 :  -0.4000 0.3333 0.0000  plane waves:     596
 k-point  58 :  -0.3333 0.3333 0.0000  plane waves:     598
 k-point  59 :   0.4000 0.4000 0.0000  plane waves:     600
 k-point  60 :   0.4667 0.4000 0.0000  plane waves:     604
 k-point  61 :  -0.4667 0.4000 0.0000  plane waves:     601
 k-point  62 :  -0.4000 0.4000 0.0000  plane waves:     600
 k-point  63 :   0.4667 0.4667 0.0000  plane waves:     596
 k-point  64 :  -0.4667 0.4667 0.0000  plane waves:     600
 k-point  65 :   0.2000 0.1333 0.0667  plane waves:     582
 k-point  66 :   0.2667 0.1333 0.0667  plane waves:     584
 k-point  67 :   0.3333 0.1333 0.0667  plane waves:     590
 k-point  68 :   0.4000 0.1333 0.0667  plane waves:     596
 k-point  69 :   0.4667 0.1333 0.0667  plane waves:     592
 k-point  70 :  -0.4667 0.1333 0.0667  plane waves:     589
 k-point  71 :   0.2667 0.2000 0.0667  plane waves:     583
 k-point  72 :   0.3333 0.2000 0.0667  plane waves:     591
 k-point  73 :   0.4000 0.2000 0.0667  plane waves:     596
 k-point  74 :   0.4667 0.2000 0.0667  plane waves:     595
 k-point  75 :  -0.4667 0.2000 0.0667  plane waves:     592
 k-point  76 :  -0.4000 0.2000 0.0667  plane waves:     593
 k-point  77 :  -0.3333 0.2000 0.0667  plane waves:     594
 k-point  78 :  -0.2667 0.2000 0.0667  plane waves:     590
 k-point  79 :  -0.2000 0.2000 0.0667  plane waves:     592
 k-point  80 :  -0.1333 0.2000 0.0667  plane waves:     590
 k-point  81 :   0.3333 0.2667 0.0667  plane waves:     593
 k-point  82 :   0.4000 0.2667 0.0667  plane waves:     595
 k-point  83 :   0.4667 0.2667 0.0667  plane waves:     595
 k-point  84 :  -0.4667 0.2667 0.0667  plane waves:     593
 k-point  85 :  -0.4000 0.2667 0.0667  plane waves:     591
 k-point  86 :  -0.3333 0.2667 0.0667  plane waves:     591
 k-point  87 :  -0.2667 0.2667 0.0667  plane waves:     594
 k-point  88 :  -0.2000 0.2667 0.0667  plane waves:     592
 k-point  89 :   0.4000 0.3333 0.0667  plane waves:     592
 k-point  90 :   0.4667 0.3333 0.0667  plane waves:     593
 k-point  91 :  -0.4667 0.3333 0.0667  plane waves:     590
 k-point  92 :  -0.4000 0.3333 0.0667  plane waves:     593
 k-point  93 :  -0.3333 0.3333 0.0667  plane waves:     592
 k-point  94 :  -0.2667 0.3333 0.0667  plane waves:     590
 k-point  95 :   0.4667 0.4000 0.0667  plane waves:     595
 k-point  96 :  -0.4667 0.4000 0.0667  plane waves:     592
 k-point  97 :  -0.4000 0.4000 0.0667  plane waves:     597
 k-point  98 :  -0.3333 0.4000 0.0667  plane waves:     602
 k-point  99 :  -0.4667 0.4667 0.0667  plane waves:     598
 k-point 100 :  -0.4000 0.4667 0.0667  plane waves:     598
 k-point 101 :   0.4000 0.2667 0.1333  plane waves:     590
 k-point 102 :   0.4667 0.2667 0.1333  plane waves:     593
 k-point 103 :  -0.4667 0.2667 0.1333  plane waves:     590
 k-point 104 :  -0.4000 0.2667 0.1333  plane waves:     587
 k-point 105 :   0.4667 0.3333 0.1333  plane waves:     594
 k-point 106 :  -0.4667 0.3333 0.1333  plane waves:     589
 k-point 107 :  -0.4000 0.3333 0.1333  plane waves:     594
 k-point 108 :  -0.3333 0.3333 0.1333  plane waves:     594
 k-point 109 :  -0.2667 0.3333 0.1333  plane waves:     586
 k-point 110 :  -0.2000 0.3333 0.1333  plane waves:     591
 k-point 111 :  -0.4667 0.4000 0.1333  plane waves:     592
 k-point 112 :  -0.4000 0.4000 0.1333  plane waves:     592
 k-point 113 :  -0.3333 0.4000 0.1333  plane waves:     599
 k-point 114 :  -0.2667 0.4000 0.1333  plane waves:     590
 k-point 115 :  -0.4000 0.4667 0.1333  plane waves:     598
 k-point 116 :  -0.3333 0.4667 0.1333  plane waves:     598
 k-point 117 :  -0.4000 0.4000 0.2000  plane waves:     587
 k-point 118 :  -0.3333 0.4000 0.2000  plane waves:     595
 k-point 119 :  -0.3333 0.4667 0.2000  plane waves:     599
 k-point 120 :  -0.2667 0.4667 0.2000  plane waves:     602

 maximum and minimum number of plane-waves per node :       609      576

 maximum number of plane-waves:       609
 maximum index in each direction: 
   IXMAX=    6   IYMAX=    5   IZMAX=    5
   IXMIN=   -6   IYMIN=   -6   IZMIN=   -6


 serial   3D FFT for wavefunctions
 parallel 3D FFT for charge:
    minimum data exchange during FFTs selected (reduces bandwidth)


 total amount of memory used by VASP MPI-rank0    43195. kBytes
=======================================================================

   base      :      30000. kBytes
   nonl-proj :       4709. kBytes
   fftplans  :       4177. kBytes
   grid      :       1926. kBytes
   one-center:          3. kBytes
   wavefun   :       2380. kBytes
 
     INWAV:  cpu time    0.0010: real time    0.0005
 Broyden mixing: mesh for mixing (old mesh)
   NGX = 11   NGY = 11   NGZ = 11
  (NGX  = 48   NGY  = 48   NGZ  = 48)
  gives a total of   1331 points

 initial charge density was supplied:
 charge density of overlapping atoms calculated
 number of electron       4.0000000 magnetization 
 keeping initial charge density in first step


--------------------------------------------------------------------------------------------------------


 Maximum index for augmentation-charges        63619 (set IRDMAX)


--------------------------------------------------------------------------------------------------------


 First call to EWALD:  gamma=   0.734
 Maximum number of real-space cells 3x 3x 3
 Maximum number of reciprocal cells 3x 3x 3

    FEWALD:  cpu time    0.0030: real time    0.0034


--------------------------------------- Iteration      1(   1)  ---------------------------------------


    POTLOK:  cpu time    0.0430: real time    0.0466
    SETDIJ:  cpu time    0.1970: real time    0.1972
     EDDAV:  cpu time    1.1758: real time    1.1782
       DOS:  cpu time    0.0020: real time    0.0019
    --------------------------------------------
      LOOP:  cpu time    1.4188: real time    1.4242

 eigenvalue-minimisations  :  2016
 total energy-change (2. order) :-0.1765230E+01  (-0.2094116E+03)
 number of electron       4.0000000 magnetization 
 augmentation part        4.0000000 magnetization 

 Free energy of the ion-electron system (eV)
  ---------------------------------------------------
  alpha Z        PSCENC =         2.39057823
  Ewald energy   TEWEN  =      -137.78496289
  -Hartree energ DENC   =        -0.54229904
  -exchange      EXHF   =         0.00000000
  -V(xc)+E(xc)   XCENC  =        -8.73348016
  PAW double counting   =        88.12379961      -70.53051779
  entropy T*S    EENTRO =        -0.00030668
  eigenvalues    EBANDS =        22.24533546
  atomic energy  EATOM  =       103.06662367
  Solvation  Ediel_sol  =         0.00000000
  ---------------------------------------------------
  free energy    TOTEN  =        -1.76522959 eV

  energy without entropy =       -1.76492291  energy(sigma->0) =       -1.76507625


--------------------------------------------------------------------------------------------------------




--------------------------------------- Iteration      1(   2)  ---------------------------------------


     EDDAV:  cpu time    1.3138: real time    1.3256
       DOS:  cpu time    0.0020: real time    0.0023
    --------------------------------------------
      LOOP:  cpu time    1.3158: real time    1.3278

 eigenvalue-minimisations  :  2840
 total energy-change (2. order) :-0.3121539E+01  (-0.3048741E+01)
 number of electron       4.0000000 magnetization 
 augmentation part        4.0000000 magnetization 

 Free energy of the ion-electron system (eV)
  ---------------------------------------------------
  alpha Z        PSCENC =         2.39057823
  Ewald energy   TEWEN  =      -137.78496289
  -Hartree energ DENC   =        -0.54229904
  -exchange      EXHF   =         0.00000000
  -V(xc)+E(xc)   XCENC  =        -8.73348016
  PAW double counting   =        88.12379961      -70.53051779
  entropy T*S    EENTRO =        -0.00075872
  eigenvalues    EBANDS =        19.12424833
  atomic energy  EATOM  =       103.06662367
  Solvation  Ediel_sol  =         0.00000000
  ---------------------------------------------------
  free energy    TOTEN  =        -4.88676876 eV

  energy without entropy =       -4.88601004  energy(sigma->0) =       -4.88638940


--------------------------------------------------------------------------------------------------------




--------------------------------------- Iteration      1(   3)  ---------------------------------------


     EDDAV:  cpu time    1.0818: real time    1.0984
       DOS:  cpu time    0.0020: real time    0.0019
    --------------------------------------------
      LOOP:  cpu time    1.0828: real time    1.1003

 eigenvalue-minimisations  :  2248
 total energy-change (2. order) :-0.1638281E-01  (-0.1638130E-01)
 number of electron       4.0000000 magnetization 
 augmentation part        4.0000000 magnetization 

 Free energy of the ion-electron system (eV)
  ---------------------------------------------------
  alpha Z        PSCENC =         2.39057823
  Ewald energy   TEWEN  =      -137.78496289
  -Hartree energ DENC   =        -0.54229904
  -exchange      EXHF   =         0.00000000
  -V(xc)+E(xc)   XCENC  =        -8.73348016
  PAW double counting   =        88.12379961      -70.53051779
  entropy T*S    EENTRO =        -0.00074094
  eigenvalues    EBANDS =        19.10784774
  atomic energy  EATOM  =       103.06662367
  Solvation  Ediel_sol  =         0.00000000
  ---------------------------------------------------
  free energy    TOTEN  =        -4.90315157 eV

  energy without entropy =       -4.90241063  energy(sigma->0) =       -4.90278110


--------------------------------------------------------------------------------------------------------




--------------------------------------- Iteration      1(   4)  ---------------------------------------


     EDDAV:  cpu time    1.4728: real time    1.4884
       DOS:  cpu time    0.0010: real time    0.0019
    --------------------------------------------
      LOOP:  cpu time    1.4748: real time    1.4903

 eigenvalue-minimisations  :  3192
 total energy-change (2. order) :-0.1563220E-04  (-0.1563289E-04)
 number of electron       4.0000000 magnetization 
 augmentation part        4.0000000 magnetization 

 Free energy of the ion-electron system (eV)
  ---------------------------------------------------
  alpha Z        PSCENC =         2.39057823
  Ewald energy   TEWEN  =      -137.78496289
  -Hartree energ DENC   =        -0.54229904
  -exchange      EXHF   =         0.00000000
  -V(xc)+E(xc)   XCENC  =        -8.73348016
  PAW double counting   =        88.12379961      -70.53051779
  entropy T*S    EENTRO =        -0.00074092
  eigenvalues    EBANDS =        19.10783209
  atomic energy  EATOM  =       103.06662367
  Solvation  Ediel_sol  =         0.00000000
  ---------------------------------------------------
  free energy    TOTEN  =        -4.90316720 eV

  energy without entropy =       -4.90242628  energy(sigma->0) =       -4.90279674


--------------------------------------------------------------------------------------------------------




--------------------------------------- Iteration      1(   5)  ---------------------------------------


     EDDAV:  cpu time    1.0928: real time    1.1042
       DOS:  cpu time    0.0010: real time    0.0021
    CHARGE:  cpu time    0.0870: real time    0.0863
    MIXING:  cpu time    0.0010: real time    0.0014
    --------------------------------------------
      LOOP:  cpu time    1.1808: real time    1.1940

 eigenvalue-minimisations  :  2280
 total energy-change (2. order) :-0.2579284E-08  (-0.2329612E-08)
 number of electron       4.0000000 magnetization 
 augmentation part       -0.2398977 magnetization 

 Broyden mixing:
  rms(total) = 0.27940E+00    rms(broyden)= 0.27940E+00
  rms(prec ) = 0.41756E+00
  weight for this iteration     100.00

 Free energy of the ion-electron system (eV)
  ---------------------------------------------------
  alpha Z        PSCENC =         2.39057823
  Ewald energy   TEWEN  =      -137.78496289
  -Hartree energ DENC   =        -0.54229904
  -exchange      EXHF   =         0.00000000
  -V(xc)+E(xc)   XCENC  =        -8.73348016
  PAW double counting   =        88.12379961      -70.53051779
  entropy T*S    EENTRO =        -0.00074092
  eigenvalues    EBANDS =        19.10783208
  atomic energy  EATOM  =       103.06662367
  Solvation  Ediel_sol  =         0.00000000
  ---------------------------------------------------
  free energy    TOTEN  =        -4.90316721 eV

  energy without entropy =       -4.90242629  energy(sigma->0) =       -4.90279675


--------------------------------------------------------------------------------------------------------




--------------------------------------- Iteration      1(   6)  ---------------------------------------


    POTLOK:  cpu time    0.0320: real time    0.0479
    SETDIJ:  cpu time    0.1750: real time    0.1762
     EDDAV:  cpu time    1.1378: real time    1.1384
       DOS:  cpu time    0.0020: real time    0.0019
    CHARGE:  cpu time    0.0820: real time    0.0822
    MIXING:  cpu time    0.0010: real time    0.0015
    --------------------------------------------
      LOOP:  cpu time    1.4298: real time    1.4482

 eigenvalue-minimisations  :  2368
 total energy-change (2. order) : 0.1359718E-01  (-0.3911200E-03)
 number of electron       4.0000000 magnetization 
 augmentation part       -0.2421284 magnetization 

 Broyden mixing:
  rms(total) = 0.15426E+00    rms(broyden)= 0.15426E+00
  rms(prec ) = 0.24129E+00
  weight for this iteration     100.00

 eigenvalues of (default mixing * dielectric matrix)
  average eigenvalue GAMMA=   2.2219
  2.2219

 Free energy of the ion-electron system (eV)
  ---------------------------------------------------
  alpha Z        PSCENC =         2.39057823
  Ewald energy   TEWEN  =      -137.78496289
  -Hartree energ DENC   =        -0.47327792
  -exchange      EXHF   =         0.00000000
  -V(xc)+E(xc)   XCENC  =        -8.71258073
  PAW double counting   =       171.83327321     -154.24001584
  entropy T*S    EENTRO =        -0.00076259
  eigenvalues    EBANDS =        19.03155483
  atomic energy  EATOM  =       103.06662367
  Solvation  Ediel_sol  =         0.00000000
  ---------------------------------------------------
  free energy    TOTEN  =        -4.88957003 eV

  energy without entropy =       -4.88880744  energy(sigma->0) =       -4.88918873


--------------------------------------------------------------------------------------------------------




--------------------------------------- Iteration      1(   7)  ---------------------------------------


    POTLOK:  cpu time    0.0320: real time    0.0427
    SETDIJ:  cpu time    0.1780: real time    0.1790
     EDDAV:  cpu time    1.1368: real time    1.1375
       DOS:  cpu time    0.0020: real time    0.0020
    CHARGE:  cpu time    0.0810: real time    0.0813
    MIXING:  cpu time    0.0000: real time    0.0015
    --------------------------------------------
      LOOP:  cpu time    1.4308: real time    1.4441

 eigenvalue-minimisations  :  2280
 total energy-change (2. order) : 0.7801990E-02  (-0.7907311E-03)
 number of electron       4.0000000 magnetization 
 augmentation part       -0.2453496 magnetization 

 Broyden mixing:
  rms(total) = 0.13553E-01    rms(broyden)= 0.13553E-01
  rms(prec ) = 0.18252E-01
  weight for this iteration     100.00

 eigenvalues of (default mixing * dielectric matrix)
  average eigenvalue GAMMA=   2.3803
  2.3803  2.3803

 Free energy of the ion-electron system (eV)
  ---------------------------------------------------
  alpha Z        PSCENC =         2.39057823
  Ewald energy   TEWEN  =      -137.78496289
  -Hartree energ DENC   =        -0.40499645
  -exchange      EXHF   =         0.00000000
  -V(xc)+E(xc)   XCENC  =        -8.67766093
  PAW double counting   =       332.16601831     -314.57699770
  entropy T*S    EENTRO =        -0.00078916
  eigenvalues    EBANDS =        18.94041889
  atomic energy  EATOM  =       103.06662367
  Solvation  Ediel_sol  =         0.00000000
  ---------------------------------------------------
  free energy    TOTEN  =        -4.88176804 eV

  energy without entropy =       -4.88097888  energy(sigma->0) =       -4.88137346


--------------------------------------------------------------------------------------------------------




--------------------------------------- Iteration      1(   8)  ---------------------------------------


    POTLOK:  cpu time    0.0320: real time    0.0441
    SETDIJ:  cpu time    0.1760: real time    0.1760
     EDDAV:  cpu time    1.4908: real time    1.4919
       DOS:  cpu time    0.0010: real time    0.0020
    CHARGE:  cpu time    0.0870: real time    0.0871
    MIXING:  cpu time    0.0020: real time    0.0016
    --------------------------------------------
      LOOP:  cpu time    1.7877: real time    1.8025

 eigenvalue-minimisations  :  3088
 total energy-change (2. order) : 0.3918372E-04  (-0.2823322E-05)
 number of electron       4.0000000 magnetization 
 augmentation part       -0.2454397 magnetization 

 Broyden mixing:
  rms(total) = 0.14836E-02    rms(broyden)= 0.14836E-02
  rms(prec ) = 0.22540E-02
  weight for this iteration     100.00

 eigenvalues of (default mixing * dielectric matrix)
  average eigenvalue GAMMA=   2.0173
  1.0131  2.4176  2.6212

 Free energy of the ion-electron system (eV)
  ---------------------------------------------------
  alpha Z        PSCENC =         2.39057823
  Ewald energy   TEWEN  =      -137.78496289
  -Hartree energ DENC   =        -0.40741184
  -exchange      EXHF   =         0.00000000
  -V(xc)+E(xc)   XCENC  =        -8.67370835
  PAW double counting   =       317.23388309     -299.65146931
  entropy T*S    EENTRO =        -0.00078901
  eigenvalues    EBANDS =        18.94552756
  atomic energy  EATOM  =       103.06662367
  Solvation  Ediel_sol  =         0.00000000
  ---------------------------------------------------
  free energy    TOTEN  =        -4.88172886 eV

  energy without entropy =       -4.88093985  energy(sigma->0) =       -4.88133435


--------------------------------------------------------------------------------------------------------




--------------------------------------- Iteration      1(   9)  ---------------------------------------


    POTLOK:  cpu time    0.0330: real time    0.0441
    SETDIJ:  cpu time    0.1830: real time    0.1830
     EDDAV:  cpu time    1.2228: real time    1.2237
       DOS:  cpu time    0.0020: real time    0.0020
    --------------------------------------------
      LOOP:  cpu time    1.4408: real time    1.4528

 eigenvalue-minimisations  :  2344
 total energy-change (2. order) :-0.3262294E-06  (-0.3125596E-07)
 number of electron       4.0000000 magnetization 
 augmentation part       -0.2454397 magnetization 

 Free energy of the ion-electron system (eV)
  ---------------------------------------------------
  alpha Z        PSCENC =         2.39057823
  Ewald energy   TEWEN  =      -137.78496289
  -Hartree energ DENC   =        -0.40761743
  -exchange      EXHF   =         0.00000000
  -V(xc)+E(xc)   XCENC  =        -8.67316428
  PAW double counting   =       315.39584082     -297.81409396
  entropy T*S    EENTRO =        -0.00078906
  eigenvalues    EBANDS =        18.94585573
  atomic energy  EATOM  =       103.06662367
  Solvation  Ediel_sol  =         0.00000000
  ---------------------------------------------------
  free energy    TOTEN  =        -4.88172918 eV

  energy without entropy =       -4.88094012  energy(sigma->0) =       -4.88133465


--------------------------------------------------------------------------------------------------------




 average (electrostatic) potential at core
  the test charge radii are     0.9892
  (the norm of the test charge is              1.0000)
       1 -79.5507
 
 
 
 E-fermi :  10.4950     XC(G=0): -11.3056     alpha+bet :-17.0325

 Fermi energy:        10.4950241579

 k-point     1 :       0.0000    0.0000    0.0000
  band No.  band energies     occupation 
      1      -4.1748      2.00000
      2      22.0069      0.00000
      3      22.0069      0.00000
      4      22.0069      0.00000
      5      22.5680      0.00000
      6      22.5680      0.00000
      7      22.5680      0.00000
      8      27.9670      0.00000

 k-point     2 :       0.0667   -0.0000    0.0000
  band No.  band energies     occupation 
      1      -4.0429      2.00000
      2      19.7078      0.00000
      3      21.2466      0.00000
      4      21.2466      0.00000
      5      23.4923      0.00000
      6      23.4924      0.00000
      7      23.7405      0.00000
      8      28.9153      0.00000

 k-point     3 :       0.1333    0.0000    0.0000
  band No.  band energies     occupation 
      1      -3.6478      2.00000
      2      16.8174      0.00000
      3      20.4610      0.00000
      4      20.4611      0.00000
      5      24.0366      0.00000
      6      24.6215      0.00000
      7      24.6215      0.00000
      8      27.8579      0.00000

 k-point     4 :       0.2000    0.0000    0.0000
  band No.  band energies     occupation 
      1      -2.9910      2.00000
      2      13.9370      0.00000
      3      19.8756      0.00000
      4      19.8756      0.00000
      5      23.9683      0.00000
      6      24.8303      0.00000
      7      24.8303      0.00000
      8      27.8499      0.00000

 k-point     5 :       0.2667    0.0000    0.0000
  band No.  band energies     occupation 
      1      -2.0753      2.00000
      2      11.1885      0.00000
      3      19.4965      0.00000
      4      19.4965      0.00000
      5      23.8757      0.00000
      6      23.8953      0.00000
      7      23.8953      0.00000
      8      29.2667      0.00000

 k-point     6 :       0.3333    0.0000    0.0000
  band No.  band energies     occupation 
      1      -0.9048      2.00000
      2       8.6218      2.00000
      3      19.3118      0.00000
      4      19.3118      0.00000
      5      22.8546      0.00000
      6      22.8547      0.00000
      7      23.8727      0.00000
      8      28.0742      0.00000

 k-point     7 :       0.4000   -0.0000    0.0000
  band No.  band energies     occupation 
      1       0.5142      2.00000
      2       6.2642      2.00000
      3      19.2860      0.00000
      4      19.2860      0.00000
      5      22.0183      0.00000
      6      22.0183      0.00000
      7      23.9762      0.00000
      8      27.1236      0.00000

 k-point     8 :       0.4667    0.0000    0.0000
  band No.  band energies     occupation 
      1       2.1581      2.00000
      2       4.1489      2.00000
      3      19.3345      0.00000
      4      19.3345      0.00000
      5      21.5303      0.00000
      6      21.5304      0.00000
      7      24.1076      0.00000
      8      26.5556      0.00000

 k-point     9 :       0.0667    0.0667    0.0000
  band No.  band energies     occupation 
      1      -3.9990      2.00000
      2      20.2062      0.00000
      3      20.2062      0.00000
      4      21.6036      0.00000
      5      21.6294      0.00000
      6      24.5902      0.00000
      7      24.5902      0.00000
      8      27.7738      0.00000

 k-point    10 :       0.1333    0.0667    0.0000
  band No.  band energies     occupation 
      1      -3.6916      2.00000
      2      17.8445      0.00000
      3      19.3470      0.00000
      4      20.9436      0.00000
      5      22.2998      0.00000
      6      25.3197      0.00000
      7      25.7668      0.00000
      8      26.2719      0.00000

 k-point    11 :       0.2000    0.0667    0.0000
  band No.  band energies     occupation 
      1      -3.1221      2.00000
      2      14.9769      0.00000
      3      18.7006      0.00000
      4      20.3101      0.00000
      5      22.9885      0.00000
      6      25.0914      0.00000
      7      25.8198      0.00000
      8      26.3843      0.00000

 k-point    12 :       0.2667    0.0667    0.0000
  band No.  band energies     occupation 
      1      -2.2928      2.00000
      2      12.1877      0.00000
      3      18.2743      0.00000
      4      19.8061      0.00000
      5      22.3530      0.00000
      6      24.9706      0.00000
      7      25.6917      0.00000
      8      26.8755      0.00000

 k-point    13 :       0.3333    0.0667    0.0000
  band No.  band energies     occupation 
      1      -1.2073      2.00000
      2       9.5619      2.00000
      3      18.0688      0.00000
      4      19.3829      0.00000
      5      21.4339      0.00000
      6      24.6254      0.00000
      7      24.9601      0.00000
      8      28.4957      0.00000

 k-point    14 :       0.4000    0.0667    0.0000
  band No.  band energies     occupation 
      1       0.1292      2.00000
      2       7.1349      2.00000
      3      18.0805      0.00000
      4      18.9055      0.00000
      5      20.8990      0.00000
      6      23.6435      0.00000
      7      24.9923      0.00000
      8      28.3629      0.00000

 k-point    15 :       0.4667    0.0667    0.0000
  band No.  band energies     occupation 
      1       1.7043      2.00000
      2       4.9330      2.00000
      3      18.3004      0.00000
      4      18.3393      0.00000
      5      20.8765      0.00000
      6      22.8559      0.00000
      7      25.0300      0.00000
      8      27.8011      0.00000

 k-point    16 :      -0.4667    0.0667    0.0000
  band No.  band energies     occupation 
      1       2.8180      2.00000
      2       3.6622      2.00000
      3      17.8244      0.00000
      4      18.7086      0.00000
      5      21.2498      0.00000
      6      22.3125      0.00000
      7      24.9669      0.00000
      8      27.7112      0.00000

 k-point    17 :      -0.4000    0.0667    0.0000
  band No.  band energies     occupation 
      1       1.1546      2.00000
      2       5.6395      2.00000
      3      17.4653      0.00000
      4      19.2612      0.00000
      5      21.9180      0.00000
      6      22.0655      0.00000
      7      24.8012      0.00000
      8      28.1271      0.00000

 k-point    18 :      -0.3333    0.0667    0.0000
  band No.  band energies     occupation 
      1      -0.3437      2.00000
      2       7.9198      2.00000
      3      17.3050      0.00000
      4      19.8695      0.00000
      5      22.1971      0.00000
      6      22.8284      0.00000
      7      24.6521      0.00000
      8      28.8854      0.00000

 k-point    19 :      -0.2667    0.0667    0.0000
  band No.  band energies     occupation 
      1      -1.5973      2.00000
      2      10.4153      1.97578
      3      17.3607      0.00000
      4      20.4345      0.00000
      5      22.7720      0.00000
      6      23.9320      0.00000
      7      24.5907      0.00000
      8      28.5638      0.00000

 k-point    20 :      -0.2000    0.0667    0.0000
  band No.  band energies     occupation 
      1      -2.5980      2.00000
      2      13.0994      0.00000
      3      17.6388      0.00000
      4      20.9751      0.00000
      5      23.6146      0.00000
      6      24.5993      0.00000
      7      25.1119      0.00000
      8      26.8466      0.00000

 k-point    21 :      -0.1333    0.0667    0.0000
  band No.  band energies     occupation 
      1      -3.3410      2.00000
      2      15.9246      0.00000
      3      18.1419      0.00000
      4      21.5812      0.00000
      5      23.7503      0.00000
      6      24.5537      0.00000
      7      25.7714      0.00000
      8      26.3776      0.00000

 k-point    22 :      -0.0667    0.0667    0.0000
  band No.  band energies     occupation 
      1      -3.8233      2.00000
      2      18.6620      0.00000
      3      18.9795      0.00000
      4      22.0956      0.00000
      5      22.9083      0.00000
      6      24.1871      0.00000
      7      25.0570      0.00000
      8      27.5211      0.00000

 k-point    23 :       0.1333    0.1333    0.0000
  band No.  band energies     occupation 
      1      -3.4723      2.00000
      2      18.4143      0.00000
      3      18.4143      0.00000
      4      19.9472      0.00000
      5      20.5315      0.00000
      6      24.4312      0.00000
      7      27.0152      0.00000
      8      27.0152      0.00000

 k-point    24 :       0.2000    0.1333    0.0000
  band No.  band energies     occupation 
      1      -2.9908      2.00000
      2      16.1632      0.00000
      3      17.6950      0.00000
      4      19.5513      0.00000
      5      20.6575      0.00000
      6      23.1051      0.00000
      7      27.7406      0.00000
      8      27.9889      0.00000

 k-point    25 :       0.2667    0.1333    0.0000
  band No.  band energies     occupation 
      1      -2.2490      2.00000
      2      13.3954      0.00000
      3      17.1982      0.00000
      4      18.8701      0.00000
      5      20.4456      0.00000
      6      23.5301      0.00000
      7      27.6908      0.00000
      8      27.9161      0.00000

 k-point    26 :       0.3333    0.1333    0.0000
  band No.  band energies     occupation 
      1      -1.2500      2.00000
      2      10.7311      0.00000
      3      16.9266      0.00000
      4      18.0356      0.00000
      5      19.8177      0.00000
      6      25.0655      0.00000
      7      26.7024      0.00000
      8      28.0723      0.00000

 k-point    27 :       0.4000    0.1333    0.0000
  band No.  band energies     occupation 
      1       0.0016      2.00000
      2       8.2456      2.00000
      3      16.8799      0.00000
      4      17.0890      0.00000
      5      19.5877      0.00000
      6      25.6946      0.00000
      7      26.3835      0.00000
      8      28.7542      0.00000

 k-point    28 :       0.4667    0.1333    0.0000
  band No.  band energies     occupation 
      1       1.4975      2.00000
      2       5.9713      2.00000
      3      16.2151      0.00000
      4      17.0562      0.00000
      5      19.7124      0.00000
      6      24.8328      0.00000
      7      26.7846      0.00000
      8      30.2392      0.00000

 k-point    29 :      -0.4667    0.1333    0.0000
  band No.  band energies     occupation 
      1       3.1616      2.00000
      2       3.9941      2.00000
      3      15.5144      0.00000
      4      17.4509      0.00000
      5      20.1229      0.00000
      6      24.1717      0.00000
      7      26.6876      0.00000
      8      30.3426      0.00000

 k-point    30 :      -0.4000    0.1333    0.0000
  band No.  band energies     occupation 
      1       2.0467      2.00000
      2       5.2645      2.00000
      3      15.0246      0.00000
      4      18.0549      0.00000
      5      20.7886      0.00000
      6      23.7382      0.00000
      7      26.4399      0.00000
      8      30.6642      0.00000

 k-point    31 :      -0.3333    0.1333    0.0000
  band No.  band energies     occupation 
      1       0.4736      2.00000
      2       7.4593      2.00000
      3      14.7617      0.00000
      4      18.8507      0.00000
      5      21.6894      0.00000
      6      23.5518      0.00000
      7      26.1949      0.00000
      8      30.2273      0.00000

 k-point    32 :      -0.2667    0.1333    0.0000
  band No.  band energies     occupation 
      1      -0.8607      2.00000
      2       9.8717      2.00000
      3      14.7347      0.00000
      4      19.8019      0.00000
      5      22.8000      0.00000
      6      23.6318      0.00000
      7      25.9973      0.00000
      8      28.0342      0.00000

 k-point    33 :      -0.2000    0.1333    0.0000
  band No.  band energies     occupation 
      1      -1.9445      2.00000
      2      12.4601      0.00000
      3      14.9586      0.00000
      4      20.8296      0.00000
      5      23.9656      0.00000
      6      24.0680      0.00000
      7      25.7797      0.00000
      8      26.1234      0.00000

 k-point    34 :      -0.1333    0.1333    0.0000
  band No.  band energies     occupation 
      1      -2.7725      2.00000
      2      14.9387      0.00000
      3      15.6738      0.00000
      4      21.7182      0.00000
      5      23.9247      0.00000
      6      25.3168      0.00000
      7      25.3340      0.00000
      8      25.3630      0.00000

 k-point    35 :       0.2000    0.2000    0.0000
  band No.  band energies     occupation 
      1      -2.5975      2.00000
      2      16.9007      0.00000
      3      16.9007      0.00000
      4      18.3400      0.00000
      5      18.7473      0.00000
      6      21.3890      0.00000
      7      29.4785      0.00000
      8      29.4785      0.00000

 k-point    36 :       0.2667    0.2000    0.0000
  band No.  band energies     occupation 
      1      -1.9439      2.00000
      2      14.7503      0.00000
      3      16.3290      0.00000
      4      17.5183      0.00000
      5      18.6320      0.00000
      6      21.0066      0.00000
      7      29.7781      0.00000
      8      30.2285      0.00000

 k-point    37 :       0.3333    0.2000    0.0000
  band No.  band energies     occupation 
      1      -1.0328      2.00000
      2      12.1085      0.00000
      3      15.9838      0.00000
      4      16.2444      0.00000
      5      18.5400      0.00000
      6      22.3198      0.00000
      7      28.9482      0.00000
      8      30.3948      0.00000

 k-point    38 :       0.4000    0.2000    0.0000
  band No.  band energies     occupation 
      1       0.1318      2.00000
      2       9.5854      2.00000
      3      15.0379      0.00000
      4      15.8657      0.00000
      5      18.4413      0.00000
      6      24.2532      0.00000
      7      27.9648      0.00000
      8      30.3186      0.00000

 k-point    39 :       0.4667    0.2000    0.0000
  band No.  band energies     occupation 
      1       1.5436      2.00000
      2       7.2516      2.00000
      3      14.0039      0.00000
      4      15.9744      0.00000
      5      18.5666      0.00000
      6      26.3038      0.00000
      7      27.0713      0.00000
      8      30.1843      0.00000

 k-point    40 :      -0.4667    0.2000    0.0000
  band No.  band energies     occupation 
      1       3.1813      2.00000
      2       5.1481      2.00000
      3      13.1832      0.00000
      4      16.3079      0.00000
      5      18.9387      0.00000
      6      26.3486      0.00000
      7      27.8783      0.00000
      8      30.4671      0.00000

 k-point    41 :      -0.4000    0.2000    0.0000
  band No.  band energies     occupation 
      1       3.1827      2.00000
      2       5.1434      2.00000
      3      12.5937      0.00000
      4      16.8625      0.00000
      5      19.5555      0.00000
      6      25.8316      0.00000
      7      28.1964      0.00000
      8      31.6707      0.00000

[...]
      7      27.2124      0.00000
      8      31.4918      0.00000

 k-point    85 :      -0.4000    0.2667    0.0667
  band No.  band energies     occupation 
      1       4.1845      2.00000
      2       4.9839      2.00000
      3      11.7905      0.00000
      4      14.7071      0.00000
      5      20.1183      0.00000
      6      26.0413      0.00000
      7      28.6522      0.00000
      8      30.8646      0.00000

 k-point    86 :      -0.3333    0.2667    0.0667
  band No.  band energies     occupation 
      1       3.0685      2.00000
      2       6.2447      2.00000
      3      11.2845      0.00000
      4      15.3625      0.00000
      5      20.7844      0.00000
      6      25.6316      0.00000
      7      29.4182      0.00000
      8      30.2971      0.00000

 k-point    87 :      -0.2667    0.2667    0.0667
  band No.  band energies     occupation 
      1       1.5025      2.00000
      2       8.3864      2.00000
      3      11.0483      0.00000
      4      16.2470      0.00000
      5      21.6562      0.00000
      6      25.3741      0.00000
      7      27.4999      0.00000
      8      30.2472      0.00000

 k-point    88 :      -0.2000    0.2667    0.0667
  band No.  band energies     occupation 
      1       0.1747      2.00000
      2      10.3948      1.99542
      3      11.4011      0.00000
      4      17.3437      0.00000
      5      22.6841      0.00000
      6      24.9839      0.00000
      7      25.7814      0.00000
      8      29.4872      0.00000

 k-point    89 :       0.4000    0.3333    0.0667
  band No.  band energies     occupation 
      1       0.3479      2.00000
      2      12.7997      0.00000
      3      12.9926      0.00000
      4      13.8310      0.00000
      5      18.0561      0.00000
      6      19.7880      0.00000
      7      31.0488      0.00000
      8      33.7869      0.00000

 k-point    90 :       0.4667    0.3333    0.0667
  band No.  band energies     occupation 
      1       1.5035      2.00000
      2      10.7819      0.00000
      3      11.6116      0.00000
      4      13.3797      0.00000
      5      18.5640      0.00000
      6      21.2180      0.00000
      7      30.2220      0.00000
      8      34.0186      0.00000

 k-point    91 :      -0.4667    0.3333    0.0667
  band No.  band energies     occupation 
      1       2.9028      2.00000
      2       8.5331      2.00000
      3      10.5170      0.53415
      4      13.4566      0.00000
      5      18.8110      0.00000
      6      23.4217      0.00000
      7      29.3956      0.00000
      8      33.4245      0.00000

 k-point    92 :      -0.4000    0.3333    0.0667
  band No.  band energies     occupation 
      1       4.5239      2.00000
      2       6.4596      2.00000
      3       9.6718      2.00000
      4      13.7996      0.00000
      5      19.2108      0.00000
      6      25.8250      0.00000
      7      28.7338      0.00000
      8      32.1006      0.00000

 k-point    93 :      -0.3333    0.3333    0.0667
  band No.  band energies     occupation 
      1       4.5345      2.00000
      2       6.4115      2.00000
      3       9.1033      2.00000
      4      14.3853      0.00000
      5      19.8227      0.00000
      6      27.6859      0.00000
      7      28.7543      0.00000
      8      30.1155      0.00000

 k-point    94 :      -0.2667    0.3333    0.0667
  band No.  band energies     occupation 
      1       2.9046      2.00000
      2       8.0941      2.00000
      3       9.1464      2.00000
      4      15.2047      0.00000
      5      20.6478      0.00000
      6      27.5081      0.00000
      7      27.7529      0.00000
      8      30.8440      0.00000

 k-point    95 :       0.4667    0.4000    0.0667
  band No.  band energies     occupation 
      1       2.2260      2.00000
      2       9.8230      2.00000
      3      12.3453      0.00000
      4      13.1213      0.00000
      5      17.4029      0.00000
      6      19.1679      0.00000
      7      32.6244      0.00000
      8      35.7199      0.00000

 k-point    96 :      -0.4667    0.4000    0.0667
  band No.  band energies     occupation 
      1       3.5299      2.00000
      2       8.6346      2.00000
      3      10.3718      1.99951
      4      12.8797      0.00000
      5      18.0787      0.00000
      6      20.7747      0.00000
      7      31.9128      0.00000
      8      34.8916      0.00000

 k-point    97 :      -0.4000    0.4000    0.0667
  band No.  band energies     occupation 
      1       5.0437      2.00000
      2       7.6456      2.00000
      3       8.3442      2.00000
      4      13.1307      0.00000
      5      18.4925      0.00000
      6      23.1487      0.00000
      7      31.2048      0.00000
      8      32.9746      0.00000

 k-point    98 :      -0.3333    0.4000    0.0667
  band No.  band energies     occupation 
      1       6.1995      2.00000
      2       6.4460      2.00000
      3       7.5488      2.00000
      4      13.6383      0.00000
      5      19.0552      0.00000
      6      25.7339      0.00000
      7      30.5456      0.00000
      8      30.6567      0.00000

 k-point    99 :      -0.4667    0.4667    0.0667
  band No.  band energies     occupation 
      1       4.3795      2.00000
      2       7.0778      2.00000
      3      12.0210      0.00000
      4      12.7966      0.00000
      5      17.0749      0.00000
      6      18.8576      0.00000
      7      34.1632      0.00000
      8      35.6999      0.00000

 k-point   100 :      -0.4000    0.4667    0.0667
  band No.  band energies     occupation 
      1       5.4563      2.00000
      2       6.4205      2.00000
      3      10.1979      2.00000
      4      12.7173      0.00000
      5      17.9165      0.00000
      6      20.6257      0.00000
      7      33.4465      0.00000
      8      33.8730      0.00000

 k-point   101 :       0.4000    0.2667    0.1333
  band No.  band energies     occupation 
      1      -0.6870      2.00000
      2      12.0289      0.00000
      3      12.9279      0.00000
      4      16.7003      0.00000
      5      21.8716      0.00000
      6      22.9042      0.00000
      7      26.5271      0.00000
      8      30.5650      0.00000

 k-point   102 :       0.4667    0.2667    0.1333
  band No.  band energies     occupation 
      1       0.4757      2.00000
      2       9.8605      2.00000
      3      12.4539      0.00000
      4      15.4442      0.00000
      5      22.1806      0.00000
      6      24.2075      0.00000
      7      25.7759      0.00000
      8      31.1307      0.00000

 k-point   103 :      -0.4667    0.2667    0.1333
  band No.  band energies     occupation 
      1       1.8852      2.00000
      2       7.5664      2.00000
      3      12.5210      0.00000
      4      14.4031      0.00000
      5      22.2850      0.00000
      6      24.2221      0.00000
      7      27.0201      0.00000
      8      31.2179      0.00000

 k-point   104 :      -0.4000    0.2667    0.1333
  band No.  band energies     occupation 
      1       3.5212      2.00000
      2       5.4755      2.00000
      3      12.7968      0.00000
      4      13.6457      0.00000
      5      22.4635      0.00000
      6      23.7035      0.00000
      7      29.0851      0.00000
      8      30.6929      0.00000

 k-point   105 :       0.4667    0.3333    0.1333
  band No.  band energies     occupation 
      1       0.8623      2.00000
      2      11.0498      0.00000
      3      11.9269      0.00000
      4      13.5097      0.00000
      5      20.9366      0.00000
      6      22.1334      0.00000
      7      27.8237      0.00000
      8      33.2980      0.00000

 k-point   106 :      -0.4667    0.3333    0.1333
  band No.  band energies     occupation 
      1       2.1842      2.00000
      2       9.0353      2.00000
      3      11.5512      0.00000
      4      12.4094      0.00000
      5      21.4587      0.00000
      6      23.8232      0.00000
      7      26.9641      0.00000
      8      33.3273      0.00000

 k-point   107 :      -0.4000    0.3333    0.1333
  band No.  band energies     occupation 
      1       3.7421      2.00000
      2       6.9028      2.00000
      3      11.2159      0.00000
      4      12.0618      0.00000
      5      21.7817      0.00000
      6      25.4190      0.00000
      7      26.9080      0.00000
      8      31.7958      0.00000

 k-point   108 :      -0.3333    0.3333    0.1333
  band No.  band energies     occupation 
      1       4.8638      2.00000
      2       5.6277      2.00000
      3      10.6135      0.00081
      4      12.4975      0.00000
      5      22.2650      0.00000
      6      25.2126      0.00000
      7      28.6378      0.00000
      8      29.9022      0.00000

 k-point   109 :      -0.2667    0.3333    0.1333
  band No.  band energies     occupation 
      1       3.1993      2.00000
      2       7.5604      2.00000
      3      10.2263      2.00000
      4      13.2391      0.00000
      5      22.9057      0.00000
      6      24.8354      0.00000
      7      27.0938      0.00000
      8      31.3706      0.00000

 k-point   110 :      -0.2000    0.3333    0.1333
  band No.  band energies     occupation 
      1       1.7163      2.00000
      2       9.4104      2.00000
      3      10.4258      1.94991
      4      14.2282      0.00000
      5      23.5693      0.00000
      6      24.1126      0.00000
      7      25.5707      0.00000
      8      32.5722      0.00000

 k-point   111 :      -0.4667    0.4000    0.1333
  band No.  band energies     occupation 
      1       2.7345      2.00000
      2      10.2351      2.00000
      3      10.3955      1.99514
      4      11.5074      0.00000
      5      20.3017      0.00000
      6      21.5912      0.00000
      7      29.4260      0.00000
      8      34.4982      0.00000

 k-point   112 :      -0.4000    0.4000    0.1333
  band No.  band energies     occupation 
      1       4.2008      2.00000
      2       8.5007      2.00000
      3       9.3464      2.00000
      4      11.2647      0.00000
      5      21.0070      0.00000
      6      23.4775      0.00000
      7      28.6401      0.00000
      8      32.4994      0.00000

 k-point   113 :      -0.3333    0.4000    0.1333
  band No.  band energies     occupation 
      1       5.8402      2.00000
      2       6.5802      2.00000
      3       8.6084      2.00000
      4      11.6480      0.00000
      5      21.5019      0.00000
      6      25.8283      0.00000
      7      28.0167      0.00000
      8      30.1597      0.00000

 k-point   114 :      -0.2667    0.4000    0.1333
  band No.  band energies     occupation 
      1       4.7483      2.00000
      2       7.4354      2.00000
      3       8.4812      2.00000
      4      12.3176      0.00000
      5      22.1498      0.00000
      6      26.9516      0.00000
      7      27.2088      0.00000
      8      29.4608      0.00000

 k-point   115 :      -0.4000    0.4667    0.1333
  band No.  band energies     occupation 
      1       4.8797      2.00000
      2       7.5631      2.00000
      3      10.0679      2.00000
      4      11.1111      0.00000
      5      19.9817      0.00000
      6      21.3125      0.00000
      7      31.2363      0.00000
      8      33.0919      0.00000

 k-point   116 :      -0.3333    0.4667    0.1333
  band No.  band energies     occupation 
      1       6.1162      2.00000
      2       7.0475      2.00000
      3       8.4400      2.00000
      4      11.0819      0.00000
      5      20.8543      0.00000
      6      23.3529      0.00000
      7      30.2934      0.00000
      8      30.8698      0.00000

 k-point   117 :      -0.4000    0.4000    0.2000
  band No.  band energies     occupation 
      1       3.5782      2.00000
      2       8.7531      2.00000
      3       9.7173      2.00000
      4      11.2688      0.00000
      5      23.5044      0.00000
      6      24.0044      0.00000
      7      26.2716      0.00000
      8      31.9976      0.00000

 k-point   118 :      -0.3333    0.4000    0.2000
  band No.  band energies     occupation 
      1       5.1948      2.00000
      2       7.0652      2.00000
      3       9.6259      2.00000
      4      10.4894      1.12744
      5      23.9266      0.00000
      6      24.9910      0.00000
      7      26.7689      0.00000
      8      29.7133      0.00000

 k-point   119 :      -0.3333    0.4667    0.2000
  band No.  band energies     occupation 
      1       5.7079      2.00000
      2       8.3002      2.00000
      3       8.4242      2.00000
      4       9.6354      2.00000
      5      23.1955      0.00000
      6      23.9643      0.00000
      7      27.8529      0.00000
      8      30.1269      0.00000

 k-point   120 :      -0.2667    0.4667    0.2000
  band No.  band energies     occupation 
      1       6.8330      2.00000
      2       7.1059      2.00000
      3       8.1033      2.00000
      4       9.7092      2.00000
      5      23.9752      0.00000
      6      25.8616      0.00000
      7      26.6620      0.00000
      8      28.5192      0.00000


--------------------------------------------------------------------------------------------------------


 soft charge-density along one line, spin component           1
         0         1         2         3         4         5         6         7         8         9
 total charge-density along one line
 
 pseudopotential strength for first ion, spin component:           1
 17.926  25.008   0.000  -0.000   0.000   0.000  -0.000   0.000
 25.008  34.892   0.000  -0.000   0.000   0.000  -0.000   0.000
  0.000   0.000   4.090   0.000   0.000   7.619   0.000   0.000
 -0.000  -0.000   0.000   4.090   0.000   0.000   7.619   0.000
  0.000   0.000   0.000   0.000   4.090   0.000   0.000   7.619
  0.000   0.000   7.619   0.000   0.000  14.204   0.000   0.000
 -0.000  -0.000   0.000   7.619   0.000   0.000  14.204   0.000
  0.000   0.000   0.000   0.000   7.619   0.000   0.000  14.204
 total augmentation occupancy for first ion, spin component:           1
  5.062  -2.156   0.000   0.000   0.000   0.000   0.000   0.000
 -2.156   1.380   0.000   0.000   0.000   0.000   0.000   0.000
  0.000   0.000   2.386  -0.000  -0.000  -0.573   0.000  -0.000
  0.000   0.000  -0.000   2.386  -0.000   0.000  -0.573   0.000
  0.000   0.000  -0.000  -0.000   2.386   0.000   0.000  -0.573
  0.000   0.000  -0.573   0.000   0.000   0.152  -0.000  -0.000
  0.000   0.000   0.000  -0.573   0.000  -0.000   0.152  -0.000
  0.000   0.000   0.000   0.000  -0.573  -0.000  -0.000   0.152


------------------------ aborting loop because EDIFF is reached ----------------------------------------


    CHARGE:  cpu time    0.0820: real time    0.0824
    FORLOC:  cpu time    0.0000: real time    0.0014
    FORNL :  cpu time    0.1410: real time    0.1406
    STRESS:  cpu time    1.0108: real time    1.0117
    FORCOR:  cpu time    0.0320: real time    0.0319
    FORHAR:  cpu time    0.0060: real time    0.0060
    MIXING:  cpu time    0.0010: real time    0.0012
    OFIELD:  cpu time    0.0000: real time    0.0002

  FORCE on cell =-STRESS in cart. coord.  units (eV):
  Direction    XX          YY          ZZ          XY          YZ          ZX
  --------------------------------------------------------------------------------------
  Alpha Z     2.39058     2.39058     2.39058
  Ewald     -45.92833   -45.92832   -45.92832     0.00000     0.00001     0.00001
  Hartree     0.13585     0.13585     0.13585     0.00000     0.00000     0.00000
  E(xc)     -12.78167   -12.78167   -12.78167     0.00000    -0.00000    -0.00000
  Local      -4.72081    -4.72081    -4.72081     0.00000     0.00000     0.00000
  n-local    36.07004    38.54313    40.42990    -0.15901     0.09589    -0.15483
  augment    -6.25211    -6.25210    -6.25211    -0.00000    -0.00000    -0.00000
  Kinetic    53.12311    27.46204     6.41717    -4.37350     2.16014    -0.24889
  Fock        0.00000     0.00000     0.00000     0.00000     0.00000     0.00000
  -------------------------------------------------------------------------------------
  Total       0.19198     0.19198     0.19198     0.00000    -0.00000    -0.00000
  in kB      21.84361    21.84360    21.84360     0.00000    -0.00001    -0.00001
  external pressure =       21.84 kB  Pullay stress =        0.00 kB


 VOLUME and BASIS-vectors are now :
 -----------------------------------------------------------------------------
  energy-cutoff  :      700.00
  volume of cell :       14.08
      direct lattice vectors                 reciprocal lattice vectors
     2.347395000  0.000000000  1.355268000     0.426004145 -0.150615226  0.000000000
     0.782465000  2.213145000  1.355268000     0.000000000  0.451845677  0.000000000
     0.000000000  0.000000000  2.710538000    -0.213001915 -0.150615114  0.368930448

  length of vectors
     2.710537703  2.710537515  2.710538000     0.451845635  0.451845677  0.451845554


 FORCES acting on ions
    electron-ion (+dipol)            ewald-force                    non-local-force                 convergence-correction
 -----------------------------------------------------------------------------------------------
   0.177E-14 -.123E-14 0.102E-15   0.159E-15 -.845E-16 -.358E-16   -.414E-24 0.000E+00 -.145E-23   0.339E-16 -.806E-17 0.420E-17
 -----------------------------------------------------------------------------------------------
   0.177E-14 -.123E-14 0.102E-15   0.159E-15 -.845E-16 -.358E-16   -.414E-24 0.000E+00 -.145E-23   0.339E-16 -.806E-17 0.420E-17
 
 
 POSITION                                       TOTAL-FORCE (eV/Angst)
 -----------------------------------------------------------------------------------
      0.00000      0.00000      0.00000         0.000000      0.000000      0.000000
 -----------------------------------------------------------------------------------
    total drift:                                0.000000     -0.000000      0.000000


--------------------------------------------------------------------------------------------------------



  FREE ENERGIE OF THE ION-ELECTRON SYSTEM (eV)
  ---------------------------------------------------
  free  energy   TOTEN  =        -4.88172918 eV

  energy  without entropy=       -4.88094012  energy(sigma->0) =       -4.88133465
 


--------------------------------------------------------------------------------------------------------


    POTLOK:  cpu time    0.2100: real time    0.2178


--------------------------------------------------------------------------------------------------------




--------------------------------------------------------------------------------------------------------


  
 reached required accuracy - stopping structural energy minimisation
     LOOP+:  cpu time   14.2718: real time   14.5368
    4ORBIT:  cpu time    0.0000: real time    0.0000

 total amount of memory used by VASP MPI-rank0    43195. kBytes
=======================================================================

   base      :      30000. kBytes
   nonl-proj :       4709. kBytes
   fftplans  :       4177. kBytes
   grid      :       1926. kBytes
   one-center:          3. kBytes
   wavefun   :       2380. kBytes
 
  
  
 General timing and accounting informations for this job:
 ========================================================
  
                  Total CPU time used (sec):       15.264
                            User time (sec):       14.927
                          System time (sec):        0.337
                         Elapsed time (sec):       16.239
  
                   Maximum memory used (kb):       87192.
                   Average memory used (kb):          N/A
  
                          Minor page faults:        16771
                          Major page faults:            1
                 Voluntary context switches:        14768
