<?xml version="1.0" encoding="ISO-8859-1"?>
<modeling>
 <generator>
  <i name="program" type="string">vasp </i>
  <i name="version" type="string">6.2.0  </i>
  <i name="subversion" type="string">18Jan21 (build Aug 12 2022 13:00:08) complex                          parallel </i>
  <i name="platform" type="string">LinuxIFC </i>
  <i name="date" type="string">2024 11 05 </i>
  <i name="time" type="string">05:19:51 </i>
 </generator>
 <incar>
  <i type="int" name="ISTART">     0</i>
  <i type="string" name="PREC">Accurate      (Accurate strictly avoids</i>
  <i type="logical" name="ADDGRID"> T  </i>
  <i type="int" name="ISPIN">     1</i>
  <i type="int" name="NELM">    90</i>
  <i type="int" name="NELMIN">     6</i>
  <i type="int" name="IBRION">     2</i>
  <i name="EDIFF">      0.00000100</i>
  <i name="EDIFFG">     -0.00200000</i>
  <i type="int" name="NSW">   100</i>
  <i type="int" name="ISIF">     2</i>
  <i type="int" name="ISYM">     2</i>
  <i name="ENCUT">    700.00000000</i>
  <i type="logical" name="LREAL"> F  </i>
  <i type="int" name="ISMEAR">     0</i>
  <i name="SIGMA">      0.05000000</i>
  <i type="logical" name="LWAVE"> F  </i>
  <i type="logical" name="LCHARG"> F  </i>
  <i type="logical" name="LASPH"> T  </i>
 </incar>
 <primitive_cell>
  <structure name="primitive_cell" >
   <crystal>
    <varray name="basis" >
     <v>       2.34739500       0.00000000       1.35526800 </v>
     <v>       0.78246500       2.21314500       1.35526800 </v>
     <v>       0.00000000       0.00000000       2.71053800 </v>
    </varray>
    <i name="volume">     14.08158510 </i>
    <varray name="rec_basis" >
     <v>       0.42600415      -0.15061523       0.00000000 </v>
     <v>       0.00000000       0.45184568       0.00000000 </v>
     <v>      -0.21300192      -0.15061511       0.36893045 </v>
    </varray>
   </crystal>
   <varray name="positions" >
    <v>       0.00000000       0.00000000       0.00000000 </v>
   </varray>
  </structure>
  <varray name="primitive_index" >
   <v type="int" >        1 </v>
  </varray>
 </primitive_cell>
 <kpoints>
  <generation param="Monkhorst-Pack">
   <v type="int" name="divisions">      15       15       15 </v>
   <v name="usershift">      0.00000000       0.00000000       0.00000000 </v>
   <v name="genvec1">      0.06666667      -0.00000000       0.00000000 </v>
   <v name="genvec2">      0.00000000       0.06666667       0.00000000 </v>
   <v name="genvec3">      0.00000000       0.00000000       0.06666667 </v>
   <v name="shift">      0.00000000       0.00000000       0.00000000 </v>
  </generation>
  <varray name="kpointlist" >
   <v>       0.00000000       0.00000000       0.00000000 </v>
   <v>       0.06666667      -0.00000000       0.00000000 </v>
   <v>       0.13333333       0.00000000       0.00000000 </v>
   <v>       0.20000000       0.00000000       0.00000000 </v>
   <v>       0.26666667       0.00000000       0.00000000 </v>
   <v>       0.33333333       0.00000000       0.00000000 </v>
   <v>       0.40000000      -0.00000000       0.00000000 </v>
   <v>       0.46666667       0.00000000       0.00000000 </v>
   <v>       0.06666667       0.06666667       0.00000000 </v>
   <v>       0.13333333       0.06666667       0.00000000 </v>
   <v>       0.20000000       0.06666667       0.00000000 </v>
   <v>       0.26666667       0.06666667       0.00000000 </v>
   <v>       0.33333333       0.06666667       0.00000000 </v>
   <v>       0.40000000       0.06666667       0.00000000 </v>
   <v>       0.46666667       0.06666667       0.00000000 </v>
   <v>      -0.46666667       0.06666667       0.00000000 </v>
   <v>      -0.40000000       0.06666667       0.00000000 </v>
   <v>      -0.33333333       0.06666667       0.00000000 </v>
   <v>      -0.26666667       0.06666667       0.00000000 </v>
   <v>      -0.20000000       0.06666667       0.00000000 </v>
   <v>      -0.13333333       0.06666667       0.00000000 </v>
   <v>      -0.06666667       0.06666667       0.00000000 </v>
   <v>       0.13333333       0.13333333       0.00000000 </v>
   <v>       0.20000000       0.13333333       0.00000000 </v>
   <v>       0.26666667       0.13333333       0.00000000 </v>
   <v>       0.33333333       0.13333333       0.00000000 </v>
   <v>       0.40000000       0.13333333       0.00000000 </v>
   <v>       0.46666667       0.13333333       0.00000000 </v>
   <v>      -0.46666667       0.13333333       0.00000000 </v>
   <v>      -0.40000000       0.13333333       0.00000000 </v>
   <v>      -0.33333333       0.13333333       0.00000000 </v>
   <v>      -0.26666667       0.13333333       0.00000000 </v>
   <v>      -0.20000000       0.13333333       0.00000000 </v>
   <v>      -0.13333333       0.13333333       0.00000000 </v>
   <v>       0.20000000       0.20000000       0.00000000 </v>
   <v>       0.26666667       0.20000000       0.00000000 </v>
   <v>       0.33333333       0.20000000       0.00000000 </v>
   <v>       0.40000000       0.20000000       0.00000000 </v>
   <v>       0.46666667       0.20000000       0.00000000 </v>
   <v>      -0.46666667       0.20000000       0.00000000 </v>
   <v>      -0.40000000       0.20000000       0.00000000 </v>
   <v>      -0.33333333       0.20000000       0.00000000 </v>
   <v>      -0.26666667       0.20000000       0.00000000 </v>
   <v>      -0.20000000       0.20000000       0.00000000 </v>
   <v>       0.26666667       0.26666667       0.00000000 </v>
   <v>       0.33333333       0.26666667       0.00000000 </v>
   <v>       0.40000000       0.26666667       0.00000000 </v>
   <v>       0.46666667       0.26666667       0.00000000 </v>
   <v>      -0.46666667       0.26666667       0.00000000 </v>
   <v>      -0.40000000       0.26666667       0.00000000 </v>
   <v>      -0.33333333       0.26666667       0.00000000 </v>
   <v>      -0.26666667       0.26666667       0.00000000 </v>
   <v>       0.33333333       0.33333333       0.00000000 </v>
   <v>       0.40000000       0.33333333       0.00000000 </v>
   <v>       0.46666667       0.33333333       0.00000000 </v>
   <v>      -0.46666667       0.33333333       0.00000000 </v>
   <v>      -0.40000000       0.33333333       0.00000000 </v>
   <v>      -0.33333333       0.33333333       0.00000000 </v>
   <v>       0.40000000       0.40000000       0.00000000 </v>
   <v>       0.46666667       0.40000000       0.00000000 </v>
   <v>      -0.46666667       0.40000000       0.00000000 </v>
   <v>      -0.40000000       0.40000000       0.00000000 </v>
   <v>       0.46666667       0.46666667       0.00000000 </v>
   <v>      -0.46666667       0.46666667       0.00000000 </v>
   <v>       0.20000000       0.13333333       0.06666667 </v>
   <v>       0.26666667       0.13333333       0.06666667 </v>
   <v>       0.33333333       0.13333333       0.06666667 </v>
   <v>       0.40000000       0.13333333       0.06666667 </v>
   <v>       0.46666667       0.13333333       0.06666667 </v>
   <v>      -0.46666667       0.13333333       0.06666667 </v>
   <v>       0.26666667       0.20000000       0.06666667 </v>
   <v>       0.33333333       0.20000000       0.06666667 </v>
   <v>       0.40000000       0.20000000       0.06666667 </v>
   <v>       0.46666667       0.20000000       0.06666667 </v>
   <v>      -0.46666667       0.20000000       0.06666667 </v>
   <v>      -0.40000000       0.20000000       0.06666667 </v>
   <v>      -0.33333333       0.20000000       0.06666667 </v>
   <v>      -0.26666667       0.20000000       0.06666667 </v>
   <v>      -0.20000000       0.20000000       0.06666667 </v>
   <v>      -0.13333333       0.20000000       0.06666667 </v>
   <v>       0.33333333       0.26666667       0.06666667 </v>
   <v>       0.40000000       0.26666667       0.06666667 </v>
   <v>       0.46666667       0.26666667       0.06666667 </v>
   <v>      -0.46666667       0.26666667       0.06666667 </v>
   <v>      -0.40000000       0.26666667       0.06666667 </v>
   <v>      -0.33333333       0.26666667       0.06666667 </v>
   <v>      -0.26666667       0.26666667       0.06666667 </v>
   <v>      -0.20000000       0.26666667       0.06666667 </v>
   <v>       0.40000000       0.33333333       0.06666667 </v>
   <v>       0.46666667       0.33333333       0.06666667 </v>
   <v>      -0.46666667       0.33333333       0.06666667 </v>
   <v>      -0.40000000       0.33333333       0.06666667 </v>
   <v>      -0.33333333       0.33333333       0.06666667 </v>
   <v>      -0.26666667       0.33333333       0.06666667 </v>
   <v>       0.46666667       0.40000000       0.06666667 </v>
   <v>      -0.46666667       0.40000000       0.06666667 </v>
   <v>      -0.40000000       0.40000000       0.06666667 </v>
   <v>      -0.33333333       0.40000000       0.06666667 </v>
   <v>      -0.46666667       0.46666667       0.06666667 </v>
   <v>      -0.40000000       0.46666667       0.06666667 </v>
   <v>       0.40000000       0.26666667       0.13333333 </v>
   <v>       0.46666667       0.26666667       0.13333333 </v>
   <v>      -0.46666667       0.26666667       0.13333333 </v>
   <v>      -0.40000000       0.26666667       0.13333333 </v>
   <v>       0.46666667       0.33333333       0.13333333 </v>
   <v>      -0.46666667       0.33333333       0.13333333 </v>
   <v>      -0.40000000       0.33333333       0.13333333 </v>
   <v>      -0.33333333       0.33333333       0.13333333 </v>
   <v>      -0.26666667       0.33333333       0.13333333 </v>
   <v>      -0.20000000       0.33333333       0.13333333 </v>
   <v>      -0.46666667       0.40000000       0.13333333 </v>
   <v>      -0.40000000       0.40000000       0.13333333 </v>
   <v>      -0.33333333       0.40000000       0.13333333 </v>
   <v>      -0.26666667       0.40000000       0.13333333 </v>
   <v>      -0.40000000       0.46666667       0.13333333 </v>
   <v>      -0.33333333       0.46666667       0.13333333 </v>
   <v>      -0.40000000       0.40000000       0.20000000 </v>
   <v>      -0.33333333       0.40000000       0.20000000 </v>
   <v>      -0.33333333       0.46666667       0.20000000 </v>
   <v>      -0.26666667       0.46666667       0.20000000 </v>
  </varray>
  <varray name="weights" >
   <v>       0.00029630 </v>
   <v>       0.00237037 </v>
   <v>       0.00237037 </v>
   <v>       0.00237037 </v>
   <v>       0.00237037 </v>
   <v>       0.00237037 </v>
   <v>       0.00237037 </v>
   <v>       0.00237037 </v>
   <v>       0.00177778 </v>
   <v>       0.00711111 </v>
   <v>       0.00711111 </v>
   <v>       0.00711111 </v>
   <v>       0.00711111 </v>
   <v>       0.00711111 </v>
   <v>       0.00711111 </v>
   <v>       0.00711111 </v>
   <v>       0.00711111 </v>
   <v>       0.00711111 </v>
   <v>       0.00711111 </v>
   <v>       0.00711111 </v>
   <v>       0.00711111 </v>
   <v>       0.00355556 </v>
   <v>       0.00177778 </v>
   <v>       0.00711111 </v>
   <v>       0.00711111 </v>
   <v>       0.00711111 </v>
   <v>       0.00711111 </v>
   <v>       0.00711111 </v>
   <v>       0.00711111 </v>
   <v>       0.00711111 </v>
   <v>       0.00711111 </v>
   <v>       0.00711111 </v>
   <v>       0.00711111 </v>
   <v>       0.00355556 </v>
   <v>       0.00177778 </v>
   <v>       0.00711111 </v>
   <v>       0.00711111 </v>
   <v>       0.00711111 </v>
   <v>       0.00711111 </v>
   <v>       0.00711111 </v>
   <v>       0.00711111 </v>
   <v>       0.00711111 </v>
   <v>       0.00711111 </v>
   <v>       0.00355556 </v>
   <v>       0.00177778 </v>
   <v>       0.00711111 </v>
   <v>       0.00711111 </v>
   <v>       0.00711111 </v>
   <v>       0.00711111 </v>
   <v>       0.00711111 </v>
   <v>       0.00711111 </v>
   <v>       0.00355556 </v>
   <v>       0.00177778 </v>
   <v>       0.00711111 </v>
   <v>       0.00711111 </v>
   <v>       0.00711111 </v>
   <v>       0.00711111 </v>
   <v>       0.00355556 </v>
   <v>       0.00177778 </v>
   <v>       0.00711111 </v>
   <v>       0.00711111 </v>
   <v>       0.00355556 </v>
   <v>       0.00177778 </v>
   <v>       0.00355556 </v>
   <v>       0.00711111 </v>
   <v>       0.01422222 </v>
   <v>       0.01422222 </v>
   <v>       0.01422222 </v>
   <v>       0.01422222 </v>
   <v>       0.01422222 </v>
   <v>       0.00711111 </v>
   <v>       0.01422222 </v>
   <v>       0.01422222 </v>
   <v>       0.01422222 </v>
   <v>       0.01422222 </v>
   <v>       0.01422222 </v>
   <v>       0.01422222 </v>
   <v>       0.01422222 </v>
   <v>       0.01422222 </v>
   <v>       0.00711111 </v>
   <v>       0.00711111 </v>
   <v>       0.01422222 </v>
   <v>       0.01422222 </v>
   <v>       0.01422222 </v>
   <v>       0.01422222 </v>
   <v>       0.01422222 </v>
   <v>       0.01422222 </v>
   <v>       0.00711111 </v>
   <v>       0.00711111 </v>
   <v>       0.01422222 </v>
   <v>       0.01422222 </v>
   <v>       0.01422222 </v>
   <v>       0.01422222 </v>
   <v>       0.00711111 </v>
   <v>       0.00711111 </v>
   <v>       0.01422222 </v>
   <v>       0.01422222 </v>
   <v>       0.00711111 </v>
   <v>       0.00711111 </v>
   <v>       0.00711111 </v>
   <v>       0.00711111 </v>
   <v>       0.01422222 </v>
   <v>       0.01422222 </v>
   <v>       0.01422222 </v>
   <v>       0.00711111 </v>
   <v>       0.01422222 </v>
   <v>       0.01422222 </v>
   <v>       0.01422222 </v>
   <v>       0.01422222 </v>
   <v>       0.00711111 </v>
   <v>       0.00711111 </v>
   <v>       0.01422222 </v>
   <v>       0.01422222 </v>
   <v>       0.00711111 </v>
   <v>       0.00711111 </v>
   <v>       0.00711111 </v>
   <v>       0.00711111 </v>
   <v>       0.01422222 </v>
   <v>       0.00711111 </v>
   <v>       0.00711111 </v>
  </varray>
 </kpoints>
 <parameters>
  <separator name="general" >
   <i type="string" name="SYSTEM">unknown system</i>
   <i type="logical" name="LCOMPAT"> F  </i>
  </separator>
  <separator name="electronic" >
   <i type="string" name="PREC">accura</i>
   <i name="ENMAX">    700.00000000</i>
   <i name="ENAUG">    322.06900000</i>
   <i name="EDIFF">      0.00000100</i>
   <i type="int" name="IALGO">    38</i>
   <i type="int" name="IWAVPR">    11</i>
   <i type="int" name="NBANDS">     8</i>
   <i type="int" name="NBANDSLOW">    -1</i>
   <i type="int" name="NBANDSHIGH">    -1</i>
   <i name="NELECT">      4.00000000</i>
   <i type="int" name="TURBO">     0</i>
   <i type="int" name="IRESTART">     0</i>
   <i type="int" name="NREBOOT">     0</i>
   <i type="int" name="NMIN">     0</i>
   <i name="EREF">      0.00000000</i>
   <separator name="electronic smearing" >
    <i type="int" name="ISMEAR">     0</i>
    <i name="SIGMA">      0.05000000</i>
    <i name="KSPACING">      0.50000000</i>
    <i type="logical" name="KGAMMA"> T  </i>
    <i type="logical" name="KBLOWUP"> T  </i>
   </separator>
   <separator name="electronic projectors" >
    <i type="logical" name="LREAL"> F  </i>
    <v name="ROPT">      0.00000000</v>
    <i type="int" name="LMAXPAW">  -100</i>
    <i type="int" name="LMAXMIX">     2</i>
    <i type="logical" name="NLSPLINE"> F  </i>
   </separator>
   <separator name="electronic startup" >
    <i type="int" name="ISTART">     0</i>
    <i type="int" name="ICHARG">     2</i>
    <i type="int" name="INIWAV">     1</i>
   </separator>
   <separator name="electronic spin" >
    <i type="int" name="ISPIN">     1</i>
    <i type="logical" name="LNONCOLLINEAR"> F  </i>
    <v name="MAGMOM">      1.00000000</v>
    <i name="NUPDOWN">     -1.00000000</i>
    <i type="logical" name="LSORBIT"> F  </i>
    <v name="SAXIS">      0.00000000      0.00000000      1.00000000</v>
    <i type="logical" name="LSPIRAL"> F  </i>
    <v name="QSPIRAL">      0.00000000      0.00000000      0.00000000</v>
    <i type="logical" name="LZEROZ"> F  </i>
   </separator>
   <separator name="electronic exchange-correlation" >
    <i type="logical" name="LASPH"> T  </i>
    <i type="logical" name="LMETAGGA"> F  </i>
   </separator>
   <separator name="electronic convergence" >
    <i type="int" name="NELM">    90</i>
    <i type="int" name="NELMDL">    -5</i>
    <i type="int" name="NELMIN">     6</i>
    <i name="ENINI">    700.00000000</i>
    <separator name="electronic convergence detail" >
     <i type="logical" name="LDIAG"> T  </i>
     <i type="logical" name="LSUBROT"> F  </i>
     <i name="WEIMIN">      0.00100000</i>
     <i name="EBREAK">      0.00000003</i>
     <i name="DEPER">      0.30000000</i>
     <i type="int" name="NRMM">     4</i>
     <i name="TIME">      0.40000000</i>
    </separator>
   </separator>
   <separator name="electronic mixer" >
    <i name="AMIX">      0.40000000</i>
    <i name="BMIX">      1.00000000</i>
    <i name="AMIN">      0.10000000</i>
    <i name="AMIX_MAG">      1.60000000</i>
    <i name="BMIX_MAG">      1.00000000</i>
    <separator name="electronic mixer details" >
     <i type="int" name="IMIX">     4</i>
     <i type="logical" name="MIXFIRST"> F  </i>
     <i type="int" name="MAXMIX">   -45</i>
     <i name="WC">    100.00000000</i>
     <i type="int" name="INIMIX">     1</i>
     <i type="int" name="MIXPRE">     1</i>
     <i type="int" name="MREMOVE">     5</i>
    </separator>
   </separator>
   <separator name="electronic dipolcorrection" >
    <i type="logical" name="LDIPOL"> F  </i>
    <i type="logical" name="LMONO"> F  </i>
    <i type="int" name="IDIPOL">     0</i>
    <i name="EPSILON">      1.00000000</i>
    <v name="DIPOL">   -100.00000000   -100.00000000   -100.00000000</v>
    <i name="EFIELD">      0.00000000</i>
   </separator>
  </separator>
  <separator name="grids" >
   <i type="int" name="NGX">    24</i>
   <i type="int" name="NGY">    24</i>
   <i type="int" name="NGZ">    24</i>
   <i type="int" name="NGXF">    48</i>
   <i type="int" name="NGYF">    48</i>
   <i type="int" name="NGZF">    48</i>
   <i type="logical" name="ADDGRID"> T  </i>
  </separator>
  <separator name="ionic" >
   <i type="int" name="NSW">   100</i>
   <i type="int" name="IBRION">     2</i>
   <i type="int" name="MDALGO">     0</i>
   <i type="int" name="ISIF">     2</i>
   <i name="PSTRESS">      0.00000000</i>
   <i name="EDIFFG">     -0.00200000</i>
   <i type="int" name="NFREE">     1</i>
   <i name="POTIM">      0.50000000</i>
   <i name="SMASS">     -3.00000000</i>
   <i name="SCALEE">      1.00000000</i>
  </separator>
  <separator name="ionic md" >
   <i name="TEBEG">      0.00010000</i>
   <i name="TEEND">      0.00010000</i>
   <i type="int" name="NBLOCK">     1</i>
   <i type="int" name="KBLOCK">   100</i>
   <i type="int" name="NPACO">   256</i>
   <i name="APACO">     16.00000000</i>
  </separator>
  <separator name="symmetry" >
   <i type="int" name="ISYM">     2</i>
   <i name="SYMPREC">      0.00001000</i>
  </separator>
  <separator name="dos" >
   <i type="int" name="LORBIT">     0</i>
   <v name="RWIGS">     -1.00000000</v>
   <i type="int" name="NEDOS">   301</i>
   <i name="EMIN">     10.00000000</i>
   <i name="EMAX">    -10.00000000</i>
   <i name="EFERMI">      0.00000000</i>
  </separator>
  <separator name="writing" >
   <i type="int" name="NWRITE">     2</i>
   <i type="logical" name="LWAVE"> F  </i>
   <i type="logical" name="LDOWNSAMPLE"> F  </i>
   <i type="logical" name="LCHARG"> F  </i>
   <i type="logical" name="LPARD"> F  </i>
   <i type="logical" name="LVTOT"> F  </i>
   <i type="logical" name="LVHAR"> F  </i>
   <i type="logical" name="LELF"> F  </i>
   <i type="logical" name="LOPTICS"> F  </i>
   <v name="STM">      0.00000000      0.00000000      0.00000000      0.00000000      0.00000000      0.00000000      0.00000000</v>
  </separator>
  <separator name="performance" >
   <i type="int" name="NPAR">     4</i>
   <i type="int" name="NSIM">     4</i>
   <i type="int" name="NBLK">    -1</i>
   <i type="logical" name="LPLANE"> T  </i>
   <i type="logical" name="LSCALAPACK"> T  </i>
   <i type="logical" name="LSCAAWARE"> F  </i>
   <i type="logical" name="LSCALU"> F  </i>
   <i type="logical" name="LASYNC"> F  </i>
   <i type="logical" name="LORBITALREAL"> F  </i>
  </separator>
  <separator name="miscellaneous" >
   <i type="int" name="IDIOT">     3</i>
   <i type="int" name="PHON_NSTRUCT">    -1</i>
   <i type="logical" name="LMUSIC"> F  </i>
   <v name="POMASS">     28.08500000</v>
   <v name="DARWINR">      0.00000000</v>
   <v name="DARWINV">      1.00000000</v>
   <i type="logical" name="LCORR"> T  </i>
  </separator>
  <i type="logical" name="GGA_COMPAT"> T  </i>
  <i type="logical" name="LBERRY"> F  </i>
  <i type="int" name="ICORELEVEL">     0</i>
  <i type="logical" name="LDAU"> F  </i>
  <i type="int" name="I_CONSTRAINED_M">     0</i>
  <separator name="electronic exchange-correlation" >
   <i type="string" name="GGA">--</i>
   <i type="int" name="VOSKOWN">     0</i>
   <i type="logical" name="LHFCALC"> F  </i>
   <i type="string" name="PRECFOCK"></i>
   <i type="logical" name="LSYMGRAD"> F  </i>
   <i type="logical" name="LHFONE"> F  </i>
   <i type="logical" name="LRHFCALC"> F  </i>
   <i type="logical" name="LTHOMAS"> F  </i>
   <i type="logical" name="LMODELHF"> F  </i>
   <i type="logical" name="LFOCKACE"> F  </i>
   <i name="ENCUT4O">     -1.00000000</i>
   <i type="int" name="EXXOEP">     0</i>
   <i type="int" name="FOURORBIT">     0</i>
   <i name="AEXX">      0.00000000</i>
   <i name="HFALPHA">      0.00000000</i>
   <i name="MCALPHA">      0.00000000</i>
   <i name="ALDAX">      1.00000000</i>
   <i name="AGGAX">      1.00000000</i>
   <i name="ALDAC">      1.00000000</i>
   <i name="AGGAC">      1.00000000</i>
   <i type="int" name="NKREDX">     1</i>
   <i type="int" name="NKREDY">     1</i>
   <i type="int" name="NKREDZ">     1</i>
   <i type="logical" name="SHIFTRED"> F  </i>
   <i type="logical" name="ODDONLY"> F  </i>
   <i type="logical" name="EVENONLY"> F  </i>
   <i type="int" name="LMAXFOCK">     0</i>
   <i type="int" name="NMAXFOCKAE">     0</i>
   <i type="logical" name="LFOCKAEDFT"> F  </i>
   <i name="HFSCREEN">      0.00000000</i>
   <i name="HFSCREENC">      0.00000000</i>
   <i type="int" name="NBANDSGWLOW">     0</i>
  </separator>
  <separator name="vdW DFT" >
   <i type="logical" name="LUSE_VDW"> F  </i>
   <i name="Zab_VDW">     -0.84910000</i>
   <i name="PARAM1">      0.12340000</i>
   <i name="PARAM2">      1.00000000</i>
   <i name="PARAM3">      0.00000000</i>
  </separator>
  <separator name="model GW" >
   <i type="int" name="MODEL_GW">     0</i>
   <i name="MODEL_EPS0">      8.44895106</i>
   <i name="MODEL_ALPHA">      1.00000000</i>
  </separator>
  <separator name="linear response parameters" >
   <i type="logical" name="LEPSILON"> F  </i>
   <i type="logical" name="LRPA"> F  </i>
   <i type="logical" name="LNABLA"> F  </i>
   <i type="logical" name="LVEL"> F  </i>
   <i type="int" name="KINTER">     0</i>
   <i name="CSHIFT">      0.10000000</i>
   <i name="OMEGAMAX">     -1.00000000</i>
   <i name="DEG_THRESHOLD">      0.00200000</i>
   <i name="RTIME">     -0.10000000</i>
   <i name="WPLASMAI">      0.00000000</i>
   <v name="DFIELD">      0.00000000      0.00000000      0.00000000</v>
   <v name="WPLASMA">      0.00000000      0.00000000      0.00000000      0.00000000      0.00000000      0.00000000      0.00000000      0.00000000      0.00000000</v>
  </separator>
  <separator name="orbital magnetization" >
   <i type="logical" name="NUCIND"> F  </i>
   <v name="MAGPOS">      0.00000000      0.00000000      0.00000000</v>
   <i type="logical" name="LNICSALL"> T  </i>
   <i type="logical" name="ORBITALMAG"> F  </i>
   <i type="logical" name="LMAGBLOCH"> F  </i>
   <i type="logical" name="LCHIMAG"> F  </i>
   <i type="logical" name="LGAUGE"> T  </i>
   <i type="int" name="MAGATOM">     0</i>
   <v name="MAGDIPOL">      0.00000000      0.00000000      0.00000000</v>
   <v name="AVECCONST">      0.00000000      0.00000000      0.00000000</v>
  </separator>
  <separator name="response functions" >
   <i type="logical" name="LFINITE_TEMPERATURE"> F  </i>
   <i type="logical" name="LADDER"> F  </i>
   <i type="logical" name="LRPAFORCE"> F  </i>
   <i type="logical" name="LFXC"> F  </i>
   <i type="logical" name="LHARTREE"> T  </i>
   <i type="int" name="IBSE">     0</i>
   <v type="int" name="KPOINT">    -1     0     0     0</v>
   <i type="logical" name="LTCTC"> F  </i>
   <i type="logical" name="LTCTE"> F  </i>
   <i type="logical" name="LTETE"> F  </i>
   <i type="logical" name="LTRIPLET"> F  </i>
   <i type="logical" name="LFXCEPS"> F  </i>
   <i type="logical" name="LFXHEG"> F  </i>
   <i type="int" name="NATURALO">     2</i>
   <i type="logical" name="LHOLEGF"> F  </i>
   <i type="logical" name="L2ORDER"> F  </i>
   <i type="logical" name="LDMP1"> F  </i>
   <i type="logical" name="LMP2LT"> F  </i>
   <i type="logical" name="LSMP2LT"> F  </i>
   <i type="logical" name="LGWLF"> F  </i>
   <i name="ENCUTGW">     -2.00000000</i>
   <i name="ENCUTGWSOFT">     -2.00000000</i>
   <i name="ENCUTLF">     -1.00000000</i>
   <i type="logical" name="LESF_SPLINES"> F  </i>
   <i type="int" name="LMAXMP2">    -1</i>
   <i name="SCISSOR">      0.00000000</i>
   <i type="int" name="NOMEGA">     0</i>
   <i type="int" name="NOMEGAR">     0</i>
   <i type="int" name="NBANDSGW">    -1</i>
   <i type="int" name="NBANDSO">    -1</i>
   <i type="int" name="NBANDSV">    -1</i>
   <i type="int" name="NELM">    90</i>
   <i type="int" name="NELMHF">     1</i>
   <i type="int" name="DIM">     3</i>
   <i type="int" name="IESPILON">     4</i>
   <i type="int" name="ANTIRES">     0</i>
   <i name="OMEGAMAX">    -30.00000000</i>
   <i name="OMEGAMIN">    -30.00000000</i>
   <i name="OMEGATL">   -200.00000000</i>
   <i type="int" name="OMEGAGRID">     0</i>
   <i name="CSHIFT">     -0.10000000</i>
   <i type="logical" name="LSELFENERGY"> F  </i>
   <i type="logical" name="LSPECTRAL"> F  </i>
   <i type="logical" name="LSPECTRALGW"> F  </i>
   <i type="logical" name="LSINGLES"> F  </i>
   <i type="logical" name="LFERMIGW"> F  </i>
   <i type="logical" name="ODDONLYGW"> F  </i>
   <i type="logical" name="EVENONLYGW"> F  </i>
   <i type="int" name="NKREDLFX">     1</i>
   <i type="int" name="NKREDLFY">     1</i>
   <i type="int" name="NKREDLFZ">     1</i>
   <i type="int" name="MAXMEM">  2800</i>
   <i type="int" name="TELESCOPE">     0</i>
   <i type="int" name="NTAUPAR">    -1</i>
   <i type="int" name="NOMEGAPAR">    -1</i>
   <i name="DAMP_NEWTON">      0.80000001</i>
   <i name="LAMBDA">      1.00000000</i>
  </separator>
  <separator name="External order field" >
   <i name="OFIELD_KAPPA">      0.00000000</i>
   <v name="OFIELD_K">      0.00000000      0.00000000      0.00000000</v>
   <i name="OFIELD_Q6_NEAR">      0.00000000</i>
   <i name="OFIELD_Q6_FAR">      0.00000000</i>
   <i name="OFIELD_A">      0.00000000</i>
  </separator>
 </parameters>
 <atominfo>
  <atoms>       1 </atoms>
  <types>       1 </types>
  <array name="atoms" >
   <dimension dim="1">ion</dimension>
   <field type="string">element</field>
   <field type="int">atomtype</field>
   <set>
    <rc><c>Si</c><c>   1</c></rc>
   </set>
  </array>
  <array name="atomtypes" >
   <dimension dim="1">type</dimension>
   <field type="int">atomspertype</field>
   <field type="string">element</field>
   <field>mass</field>
   <field>valence</field>
   <field type="string">pseudopotential</field>
   <set>
    <rc><c>   1</c><c>Si</c><c>     28.08500000</c><c>      4.00000000</c><c>  PAW_PBE Si 05Jan2001                  </c></rc>
   </set>
  </array>
 </atominfo>
 <structure name="initialpos" >
  <crystal>
   <varray name="basis" >
    <v>       2.34739500       0.00000000       1.35526800 </v>
    <v>       0.78246500       2.21314500       1.35526800 </v>
    <v>       0.00000000       0.00000000       2.71053800 </v>
   </varray>
   <i name="volume">     14.08158510 </i>
   <varray name="rec_basis" >
    <v>       0.42600415      -0.15061523       0.00000000 </v>
    <v>       0.00000000       0.45184568       0.00000000 </v>
    <v>      -0.21300192      -0.15061511       0.36893045 </v>
   </varray>
  </crystal>
  <varray name="positions" >
   <v>       0.00000000       0.00000000       0.00000000 </v>
  </varray>
 </structure>
 <calculation>
  <scstep>
   <time name="dav">    1.18    1.18</time>
   <time name="total">    1.42    1.42</time>
   <energy>
    <i name="alphaZ">      2.39057823 </i>
    <i name="ewald">   -137.78496289 </i>
    <i name="hartreedc">     -0.54229904 </i>
    <i name="XCdc">     -8.73348016 </i>
    <i name="pawpsdc">     88.12379961 </i>
    <i name="pawaedc">    -70.53051779 </i>
    <i name="eentropy">     -0.00030668 </i>
    <i name="bandstr">     22.24533546 </i>
    <i name="atom">    103.06662367 </i>
    <i name="e_fr_energy">     -1.76522959 </i>
    <i name="e_wo_entrp">     -1.76492291 </i>
    <i name="e_0_energy">     -1.76507625 </i>
   </energy>
  </scstep>
  <scstep>
   <time name="dav">    1.31    1.33</time>
   <time name="total">    1.32    1.33</time>
   <energy>
    <i name="e_fr_energy">     -4.88676876 </i>
    <i name="e_wo_entrp">     -4.88601004 </i>
    <i name="e_0_energy">     -4.88638940 </i>
   </energy>
  </scstep>
  <scstep>
   <time name="dav">    1.08    1.10</time>
   <time name="total">    1.08    1.10</time>
   <energy>
    <i name="e_fr_energy">     -4.90315157 </i>
    <i name="e_wo_entrp">     -4.90241063 </i>
    <i name="e_0_energy">     -4.90278110 </i>
   </energy>
  </scstep>
  <scstep>
   <time name="dav">    1.47    1.49</time>
   <time name="total">    1.47    1.49</time>
   <energy>
    <i name="e_fr_energy">     -4.90316720 </i>
    <i name="e_wo_entrp">     -4.90242628 </i>
    <i name="e_0_energy">     -4.90279674 </i>
   </energy>
  </scstep>
  <scstep>
   <time name="dav">    1.09    1.10</time>
   <time name="total">    1.18    1.19</time>
   <energy>
    <i name="e_fr_energy">     -4.90316721 </i>
    <i name="e_wo_entrp">     -4.90242629 </i>
    <i name="e_0_energy">     -4.90279675 </i>
   </energy>
  </scstep>
  <scstep>
   <time name="dav">    1.14    1.14</time>
   <time name="total">    1.43    1.45</time>
   <energy>
    <i name="e_fr_energy">     -4.88957003 </i>
    <i name="e_wo_entrp">     -4.88880744 </i>
    <i name="e_0_energy">     -4.88918873 </i>
   </energy>
  </scstep>
  <scstep>
   <time name="dav">    1.14    1.14</time>
   <time name="total">    1.43    1.44</time>
   <energy>
    <i name="e_fr_energy">     -4.88176804 </i>
    <i name="e_wo_entrp">     -4.88097888 </i>
    <i name="e_0_energy">     -4.88137346 </i>
   </energy>
  </scstep>
  <scstep>
   <time name="dav">    1.49    1.49</time>
   <time name="total">    1.79    1.80</time>
   <energy>
    <i name="e_fr_energy">     -4.88172886 </i>
    <i name="e_wo_entrp">     -4.88093985 </i>
    <i name="e_0_energy">     -4.88133435 </i>
   </energy>
  </scstep>
  <scstep>
   <time name="dav">    1.22    1.22</time>
   <time name="total">    1.44    1.45</time>
   <energy>
    <i name="alphaZ">      2.39057823 </i>
    <i name="ewald">   -137.78496289 </i>
    <i name="hartreedc">     -0.40761743 </i>
    <i name="XCdc">     -8.67316428 </i>
    <i name="pawpsdc">    315.39584082 </i>
    <i name="pawaedc">   -297.81409396 </i>
    <i name="eentropy">     -0.00078906 </i>
    <i name="bandstr">     18.94585573 </i>
    <i name="atom">    103.06662367 </i>
    <i name="e_fr_energy">     -4.88172918 </i>
    <i name="e_wo_entrp">     -4.88094012 </i>
    <i name="e_0_energy">     -4.88133465 </i>
   </energy>
  </scstep>
  <structure>
   <crystal>
    <varray name="basis" >
     <v>       2.34739500       0.00000000       1.35526800 </v>
     <v>       0.78246500       2.21314500       1.35526800 </v>
     <v>       0.00000000       0.00000000       2.71053800 </v>
    </varray>
    <i name="volume">     14.08158510 </i>
    <varray name="rec_basis" >
     <v>       0.42600415      -0.15061523       0.00000000 </v>
     <v>       0.00000000       0.45184568       0.00000000 </v>
     <v>      -0.21300192      -0.15061511       0.36893045 </v>
    </varray>
   </crystal>
   <varray name="positions" >
    <v>       0.00000000       0.00000000       0.00000000 </v>
   </varray>
  </structure>
  <varray name="forces" >
   <v>       0.00000000       0.00000000       0.00000000 </v>
  </varray>
  <varray name="stress" >
   <v>      21.84360805      -0.00000000      -0.00000931 </v>
   <v>       0.00000000      21.84360351      -0.00000658 </v>
   <v>      -0.00000931      -0.00000658      21.84360369 </v>
  </varray>
  <energy>
   <i name="e_fr_energy">     -4.88172918 </i>
   <i name="e_wo_entrp">     -4.88094012 </i>
   <i name="e_0_energy">     -4.88133465 </i>
  </energy>
  <time name="totalsc">   14.27   14.54</time>
  <eigenvalues>
   <array>
    <dimension dim="1">band</dimension>
    <dimension dim="2">kpoint</dimension>
    <dimension dim="3">spin</dimension>
    <field>eigene</field>
    <field>occ</field>
    <set>
     <set comment="spin 1">
      <set comment="kpoint 1">
       <r>   -4.1748    1.0000 </r>
       <r>   22.0069    0.0000 </r>
       <r>   22.0069    0.0000 </r>
       <r>   22.0069    0.0000 </r>
       <r>   22.5680    0.0000 </r>
       <r>   22.5680    0.0000 </r>
       <r>   22.5680    0.0000 </r>
       <r>   27.9670    0.0000 </r>
      </set>
      <set comment="kpoint 2">
       <r>   -4.0429    1.0000 </r>
       <r>   19.7078    0.0000 </r>
       <r>   21.2466    0.0000 </r>
       <r>   21.2466    0.0000 </r>
       <r>   23.4923    0.0000 </r>
       <r>   23.4924    0.0000 </r>
       <r>   23.7405    0.0000 </r>
       <r>   28.9153    0.0000 </r>
      </set>
      <set comment="kpoint 3">
       <r>   -3.6478    1.0000 </r>
       <r>   16.8174    0.0000 </r>
       <r>   20.4610    0.0000 </r>
       <r>   20.4611    0.0000 </r>
       <r>   24.0366    0.0000 </r>
       <r>   24.6215    0.0000 </r>
       <r>   24.6215    0.0000 </r>
       <r>   27.8579    0.0000 </r>
      </set>
      <set comment="kpoint 4">
       <r>   -2.9910    1.0000 </r>
       <r>   13.9370    0.0000 </r>
       <r>   19.8756    0.0000 </r>
       <r>   19.8756    0.0000 </r>
       <r>   23.9683    0.0000 </r>
       <r>   24.8303    0.0000 </r>
       <r>   24.8303    0.0000 </r>
       <r>   27.8499    0.0000 </r>
      </set>
      <set comment="kpoint 5">
       <r>   -2.0753    1.0000 </r>
       <r>   11.1885    0.0000 </r>
       <r>   19.4965    0.0000 </r>
       <r>   19.4965    0.0000 </r>
       <r>   23.8757    0.0000 </r>
       <r>   23.8953    0.0000 </r>
       <r>   23.8953    0.0000 </r>
       <r>   29.2667    0.0000 </r>
      </set>
      <set comment="kpoint 6">
       <r>   -0.9048    1.0000 </r>
       <r>    8.6218    1.0000 </r>
       <r>   19.3118    0.0000 </r>
       <r>   19.3118    0.0000 </r>
       <r>   22.8546    0.0000 </r>
       <r>   22.8547    0.0000 </r>
       <r>   23.8727    0.0000 </r>
       <r>   28.0742    0.0000 </r>
      </set>
      <set comment="kpoint 7">
       <r>    0.5142    1.0000 </r>
       <r>    6.2642    1.0000 </r>
       <r>   19.2860    0.0000 </r>
       <r>   19.2860    0.0000 </r>
       <r>   22.0183    0.0000 </r>
       <r>   22.0183    0.0000 </r>
       <r>   23.9762    0.0000 </r>
       <r>   27.1236    0.0000 </r>
      </set>
      <set comment="kpoint 8">
       <r>    2.1581    1.0000 </r>
       <r>    4.1489    1.0000 </r>
       <r>   19.3345    0.0000 </r>
       <r>   19.3345    0.0000 </r>
       <r>   21.5303    0.0000 </r>
       <r>   21.5304    0.0000 </r>
       <r>   24.1076    0.0000 </r>
       <r>   26.5556    0.0000 </r>
      </set>
      <set comment="kpoint 9">
       <r>   -3.9990    1.0000 </r>
       <r>   20.2062    0.0000 </r>
       <r>   20.2062    0.0000 </r>
       <r>   21.6036    0.0000 </r>
       <r>   21.6294    0.0000 </r>
       <r>   24.5902    0.0000 </r>
       <r>   24.5902    0.0000 </r>
       <r>   27.7738    0.0000 </r>
      </set>
      <set comment="kpoint 10">
       <r>   -3.6916    1.0000 </r>
       <r>   17.8445    0.0000 </r>
       <r>   19.3470    0.0000 </r>
       <r>   20.9436    0.0000 </r>
       <r>   22.2998    0.0000 </r>
       <r>   25.3197    0.0000 </r>
       <r>   25.7668    0.0000 </r>
       <r>   26.2719    0.0000 </r>
      </set>
      <set comment="kpoint 11">
       <r>   -3.1221    1.0000 </r>
       <r>   14.9769    0.0000 </r>
       <r>   18.7006    0.0000 </r>
       <r>   20.3101    0.0000 </r>
       <r>   22.9885    0.0000 </r>
       <r>   25.0914    0.0000 </r>
       <r>   25.8198    0.0000 </r>
       <r>   26.3843    0.0000 </r>
      </set>
      <set comment="kpoint 12">
       <r>   -2.2928    1.0000 </r>
       <r>   12.1877    0.0000 </r>
       <r>   18.2743    0.0000 </r>
       <r>   19.8061    0.0000 </r>
       <r>   22.3530    0.0000 </r>
       <r>   24.9706    0.0000 </r>
       <r>   25.6917    0.0000 </r>
       <r>   26.8755    0.0000 </r>
      </set>
      <set comment="kpoint 13">
       <r>   -1.2073    1.0000 </r>
       <r>    9.5619    1.0000 </r>
       <r>   18.0688    0.0000 </r>
       <r>   19.3829    0.0000 </r>
       <r>   21.4339    0.0000 </r>
       <r>   24.6254    0.0000 </r>
       <r>   24.9601    0.0000 </r>
       <r>   28.4957    0.0000 </r>
      </set>
      <set comment="kpoint 14">
       <r>    0.1292    1.0000 </r>
       <r>    7.1349    1.0000 </r>
       <r>   18.0805    0.0000 </r>
       <r>   18.9055    0.0000 </r>
       <r>   20.8990    0.0000 </r>
       <r>   23.6435    0.0000 </r>
       <r>   24.9923    0.0000 </r>
       <r>   28.3629    0.0000 </r>
      </set>
      <set comment="kpoint 15">
       <r>    1.7043    1.0000 </r>
       <r>    4.9330    1.0000 </r>
       <r>   18.3004    0.0000 </r>
       <r>   18.3393    0.0000 </r>
       <r>   20.8765    0.0000 </r>
       <r>   22.8559    0.0000 </r>
       <r>   25.0300    0.0000 </r>
       <r>   27.8011    0.0000 </r>
      </set>
      <set comment="kpoint 16">
       <r>    2.8180    1.0000 </r>
       <r>    3.6622    1.0000 </r>
       <r>   17.8244    0.0000 </r>
       <r>   18.7086    0.0000 </r>
       <r>   21.2498    0.0000 </r>
       <r>   22.3125    0.0000 </r>
       <r>   24.9669    0.0000 </r>
       <r>   27.7112    0.0000 </r>
      </set>
      <set comment="kpoint 17">
       <r>    1.1546    1.0000 </r>
       <r>    5.6395    1.0000 </r>
       <r>   17.4653    0.0000 </r>
       <r>   19.2612    0.0000 </r>
       <r>   21.9180    0.0000 </r>
       <r>   22.0655    0.0000 </r>
       <r>   24.8012    0.0000 </r>
       <r>   28.1271    0.0000 </r>
      </set>
      <set comment="kpoint 18">
       <r>   -0.3437    1.0000 </r>
       <r>    7.9198    1.0000 </r>
       <r>   17.3050    0.0000 </r>
       <r>   19.8695    0.0000 </r>
       <r>   22.1971    0.0000 </r>
       <r>   22.8284    0.0000 </r>
       <r>   24.6521    0.0000 </r>
       <r>   28.8854    0.0000 </r>
      </set>
      <set comment="kpoint 19">
       <r>   -1.5973    1.0000 </r>
       <r>   10.4153    0.9879 </r>
       <r>   17.3607    0.0000 </r>
       <r>   20.4345    0.0000 </r>
       <r>   22.7720    0.0000 </r>
       <r>   23.9320    0.0000 </r>
       <r>   24.5907    0.0000 </r>
       <r>   28.5638    0.0000 </r>
      </set>
      <set comment="kpoint 20">
       <r>   -2.5980    1.0000 </r>
       <r>   13.0994    0.0000 </r>
       <r>   17.6388    0.0000 </r>
       <r>   20.9751    0.0000 </r>
       <r>   23.6146    0.0000 </r>
       <r>   24.5993    0.0000 </r>
       <r>   25.1119    0.0000 </r>
       <r>   26.8466    0.0000 </r>
      </set>
      <set comment="kpoint 21">
       <r>   -3.3410    1.0000 </r>
       <r>   15.9246    0.0000 </r>
       <r>   18.1419    0.0000 </r>
       <r>   21.5812    0.0000 </r>
       <r>   23.7503    0.0000 </r>
       <r>   24.5537    0.0000 </r>
       <r>   25.7714    0.0000 </r>
       <r>   26.3776    0.0000 </r>
      </set>
      <set comment="kpoint 22">
       <r>   -3.8233    1.0000 </r>
       <r>   18.6620    0.0000 </r>
       <r>   18.9795    0.0000 </r>
       <r>   22.0956    0.0000 </r>
       <r>   22.9083    0.0000 </r>
       <r>   24.1871    0.0000 </r>
       <r>   25.0570    0.0000 </r>
       <r>   27.5211    0.0000 </r>
      </set>
      <set comment="kpoint 23">
       <r>   -3.4723    1.0000 </r>
       <r>   18.4143    0.0000 </r>
       <r>   18.4143    0.0000 </r>
       <r>   19.9472    0.0000 </r>
       <r>   20.5315    0.0000 </r>
       <r>   24.4312    0.0000 </r>
       <r>   27.0152    0.0000 </r>
       <r>   27.0152    0.0000 </r>
      </set>
      <set comment="kpoint 24">
       <r>   -2.9908    1.0000 </r>
       <r>   16.1632    0.0000 </r>
       <r>   17.6950    0.0000 </r>
       <r>   19.5513    0.0000 </r>
       <r>   20.6575    0.0000 </r>
       <r>   23.1051    0.0000 </r>
       <r>   27.7406    0.0000 </r>
       <r>   27.9889    0.0000 </r>
      </set>
      <set comment="kpoint 25">
       <r>   -2.2490    1.0000 </r>
       <r>   13.3954    0.0000 </r>
       <r>   17.1982    0.0000 </r>
       <r>   18.8701    0.0000 </r>
       <r>   20.4456    0.0000 </r>
       <r>   23.5301    0.0000 </r>
       <r>   27.6908    0.0000 </r>
       <r>   27.9161    0.0000 </r>
      </set>
      <set comment="kpoint 26">
       <r>   -1.2500    1.0000 </r>
       <r>   10.7311    0.0000 </r>
       <r>   16.9266    0.0000 </r>
       <r>   18.0356    0.0000 </r>
       <r>   19.8177    0.0000 </r>
       <r>   25.0655    0.0000 </r>
       <r>   26.7024    0.0000 </r>
       <r>   28.0723    0.0000 </r>
      </set>
      <set comment="kpoint 27">
       <r>    0.0016    1.0000 </r>
       <r>    8.2456    1.0000 </r>
       <r>   16.8799    0.0000 </r>
       <r>   17.0890    0.0000 </r>
       <r>   19.5877    0.0000 </r>
       <r>   25.6946    0.0000 </r>
       <r>   26.3835    0.0000 </r>
       <r>   28.7542    0.0000 </r>
      </set>
      <set comment="kpoint 28">
       <r>    1.4975    1.0000 </r>
       <r>    5.9713    1.0000 </r>
       <r>   16.2151    0.0000 </r>
       <r>   17.0562    0.0000 </r>
       <r>   19.7124    0.0000 </r>
       <r>   24.8328    0.0000 </r>
       <r>   26.7846    0.0000 </r>
       <r>   30.2392    0.0000 </r>
      </set>
      <set comment="kpoint 29">
       <r>    3.1616    1.0000 </r>
       <r>    3.9941    1.0000 </r>
       <r>   15.5144    0.0000 </r>
       <r>   17.4509    0.0000 </r>
       <r>   20.1229    0.0000 </r>
       <r>   24.1717    0.0000 </r>
       <r>   26.6876    0.0000 </r>
       <r>   30.3426    0.0000 </r>
      </set>
      <set comment="kpoint 30">
       <r>    2.0467    1.0000 </r>
       <r>    5.2645    1.0000 </r>
       <r>   15.0246    0.0000 </r>
       <r>   18.0549    0.0000 </r>
       <r>   20.7886    0.0000 </r>
       <r>   23.7382    0.0000 </r>
       <r>   26.4399    0.0000 </r>
       <r>   30.6642    0.0000 </r>
      </set>
      <set comment="kpoint 31">
       <r>    0.4736    1.0000 </r>
       <r>    7.4593    1.0000 </r>
       <r>   14.7617    0.0000 </r>
       <r>   18.8507    0.0000 </r>
       <r>   21.6894    0.0000 </r>
       <r>   23.5518    0.0000 </r>
       <r>   26.1949    0.0000 </r>
       <r>   30.2273    0.0000 </r>
      </set>
      <set comment="kpoint 32">
       <r>   -0.8607    1.0000 </r>
       <r>    9.8717    1.0000 </r>
       <r>   14.7347    0.0000 </r>
       <r>   19.8019    0.0000 </r>
       <r>   22.8000    0.0000 </r>
       <r>   23.6318    0.0000 </r>
       <r>   25.9973    0.0000 </r>
       <r>   28.0342    0.0000 </r>
      </set>
      <set comment="kpoint 33">
       <r>   -1.9445    1.0000 </r>
       <r>   12.4601    0.0000 </r>
       <r>   14.9586    0.0000 </r>
       <r>   20.8296    0.0000 </r>
       <r>   23.9656    0.0000 </r>
       <r>   24.0680    0.0000 </r>
       <r>   25.7797    0.0000 </r>
       <r>   26.1234    0.0000 </r>
      </set>
      <set comment="kpoint 34">
       <r>   -2.7725    1.0000 </r>
       <r>   14.9387    0.0000 </r>
       <r>   15.6738    0.0000 </r>
       <r>   21.7182    0.0000 </r>
       <r>   23.9247    0.0000 </r>
       <r>   25.3168    0.0000 </r>
       <r>   25.3340    0.0000 </r>
       <r>   25.3630    0.0000 </r>
      </set>
      <set comment="kpoint 35">
       <r>   -2.5975    1.0000 </r>
       <r>   16.9007    0.0000 </r>
       <r>   16.9007    0.0000 </r>
       <r>   18.3400    0.0000 </r>
       <r>   18.7473    0.0000 </r>
       <r>   21.3890    0.0000 </r>
       <r>   29.4785    0.0000 </r>
       <r>   29.4785    0.0000 </r>
      </set>
      <set comment="kpoint 36">
       <r>   -1.9439    1.0000 </r>
       <r>   14.7503    0.0000 </r>
       <r>   16.3290    0.0000 </r>
       <r>   17.5183    0.0000 </r>
       <r>   18.6320    0.0000 </r>
       <r>   21.0066    0.0000 </r>
       <r>   29.7781    0.0000 </r>
       <r>   30.2285    0.0000 </r>
      </set>
      <set comment="kpoint 37">
       <r>   -1.0328    1.0000 </r>
       <r>   12.1085    0.0000 </r>
       <r>   15.9838    0.0000 </r>
       <r>   16.2444    0.0000 </r>
       <r>   18.5400    0.0000 </r>
       <r>   22.3198    0.0000 </r>
       <r>   28.9482    0.0000 </r>
       <r>   30.3948    0.0000 </r>
      </set>
      <set comment="kpoint 38">
       <r>    0.1318    1.0000 </r>
       <r>    9.5854    1.0000 </r>
       <r>   15.0379    0.0000 </r>
       <r>   15.8657    0.0000 </r>
       <r>   18.4413    0.0000 </r>
       <r>   24.2532    0.0000 </r>
       <r>   27.9648    0.0000 </r>
       <r>   30.3186    0.0000 </r>
      </set>
      <set comment="kpoint 39">
       <r>    1.5436    1.0000 </r>
       <r>    7.2516    1.0000 </r>
       <r>   14.0039    0.0000 </r>
       <r>   15.9744    0.0000 </r>
       <r>   18.5666    0.0000 </r>
       <r>   26.3038    0.0000 </r>
       <r>   27.0713    0.0000 </r>
       <r>   30.1843    0.0000 </r>
      </set>
      <set comment="kpoint 40">
       <r>    3.1813    1.0000 </r>
       <r>    5.1481    1.0000 </r>
       <r>   13.1832    0.0000 </r>
       <r>   16.3079    0.0000 </r>
       <r>   18.9387    0.0000 </r>
       <r>   26.3486    0.0000 </r>
       <r>   27.8783    0.0000 </r>
       <r>   30.4671    0.0000 </r>
      </set>
      <set comment="kpoint 41">
       <r>    3.1827    1.0000 </r>
       <r>    5.1434    1.0000 </r>
       <r>   12.5937    0.0000 </r>
       <r>   16.8625    0.0000 </r>
       <r>   19.5555    0.0000 </r>
       <r>   25.8316    0.0000 </r>
       <r>   28.1964    0.0000 </r>
       <r>   31.6707    0.0000 </r>
      </set>
      <set comment="kpoint 42">
       <r>    1.5437    1.0000 </r>
       <r>    7.2378    1.0000 </r>
       <r>   12.2477    0.0000 </r>
       <r>   17.6309    0.0000 </r>
       <r>   20.4082    0.0000 </r>
       <r>   25.5383    0.0000 </r>
       <r>   27.9437    0.0000 </r>
       <r>   30.0419    0.0000 </r>
      </set>
      <set comment="kpoint 43">
       <r>    0.1314    1.0000 </r>
       <r>    9.5373    1.0000 </r>
       <r>   12.1699    0.0000 </r>
       <r>   18.5972    0.0000 </r>
       <r>   21.4795    0.0000 </r>
       <r>   25.4806    0.0000 </r>
       <r>   27.5238    0.0000 </r>
       <r>   27.7406    0.0000 </r>
      </set>
      <set comment="kpoint 44">
       <r>   -1.0334    1.0000 </r>
       <r>   11.7034    0.0000 </r>
       <r>   12.6637    0.0000 </r>
       <r>   19.7201    0.0000 </r>
       <r>   22.7329    0.0000 </r>
       <r>   25.6023    0.0000 </r>
       <r>   25.7220    0.0000 </r>
       <r>   26.8424    0.0000 </r>
      </set>
      <set comment="kpoint 45">
       <r>   -1.3791    1.0000 </r>
       <r>   15.6817    0.0000 </r>
       <r>   15.6817    0.0000 </r>
       <r>   15.9055    0.0000 </r>
       <r>   16.9965    0.0000 </r>
       <r>   19.5831    0.0000 </r>
       <r>   31.8294    0.0000 </r>
       <r>   31.8438    0.0000 </r>
      </set>
      <set comment="kpoint 46">
       <r>   -0.5567    1.0000 </r>
       <r>   13.6081    0.0000 </r>
       <r>   14.4523    0.0000 </r>
       <r>   15.2609    0.0000 </r>
       <r>   17.3530    0.0000 </r>
       <r>   19.8001    0.0000 </r>
       <r>   31.2656    0.0000 </r>
       <r>   32.5148    0.0000 </r>
      </set>
      <set comment="kpoint 47">
       <r>    0.5194    1.0000 </r>
       <r>   11.1242    0.0000 </r>
       <r>   13.0804    0.0000 </r>
       <r>   15.0682    0.0000 </r>
       <r>   17.4716    0.0000 </r>
       <r>   21.4333    0.0000 </r>
       <r>   30.3706    0.0000 </r>
       <r>   32.5322    0.0000 </r>
      </set>
      <set comment="kpoint 48">
       <r>    1.8436    1.0000 </r>
       <r>    8.7572    1.0000 </r>
       <r>   11.9233    0.0000 </r>
       <r>   15.1037    0.0000 </r>
       <r>   17.5913    0.0000 </r>
       <r>   23.5919    0.0000 </r>
       <r>   29.4843    0.0000 </r>
       <r>   32.1614    0.0000 </r>
      </set>
      <set comment="kpoint 49">
       <r>    3.4039    1.0000 </r>
       <r>    6.5865    1.0000 </r>
       <r>   10.9995    0.0000 </r>
       <r>   15.3665    0.0000 </r>
       <r>   17.9120    0.0000 </r>
       <r>   25.9382    0.0000 </r>
       <r>   28.7254    0.0000 </r>
       <r>   31.6003    0.0000 </r>
      </set>
      <set comment="kpoint 50">
       <r>    4.5277    1.0000 </r>
       <r>    5.2997    1.0000 </r>
       <r>   10.3223    1.0000 </r>
       <r>   15.8548    0.0000 </r>
       <r>   18.4668    0.0000 </r>
       <r>   28.1454    0.0000 </r>
       <r>   28.2295    0.0000 </r>
       <r>   30.9913    0.0000 </r>
      </set>
      <set comment="kpoint 51">
       <r>    2.8612    1.0000 </r>
       <r>    7.2319    1.0000 </r>
       <r>    9.9209    1.0000 </r>
       <r>   16.5644    0.0000 </r>
       <r>   19.2572    0.0000 </r>
       <r>   27.7639    0.0000 </r>
       <r>   29.5780    0.0000 </r>
       <r>   30.1049    0.0000 </r>
      </set>
      <set comment="kpoint 52">
       <r>    1.3746    1.0000 </r>
       <r>    9.0812    1.0000 </r>
       <r>   10.1257    1.0000 </r>
       <r>   17.4865    0.0000 </r>
       <r>   20.2714    0.0000 </r>
       <r>   27.4252    0.0000 </r>
       <r>   27.9064    0.0000 </r>
       <r>   28.8587    0.0000 </r>
      </set>
      <set comment="kpoint 53">
       <r>    0.1761    1.0000 </r>
       <r>   12.7184    0.0000 </r>
       <r>   14.7642    0.0000 </r>
       <r>   14.7642    0.0000 </r>
       <r>   15.9696    0.0000 </r>
       <r>   18.5334    0.0000 </r>
       <r>   33.1920    0.0000 </r>
       <r>   33.9519    0.0000 </r>
      </set>
      <set comment="kpoint 54">
       <r>    1.1621    1.0000 </r>
       <r>   11.2337    0.0000 </r>
       <r>   12.8783    0.0000 </r>
       <r>   14.4958    0.0000 </r>
       <r>   16.5019    0.0000 </r>
       <r>   19.0020    0.0000 </r>
       <r>   32.7665    0.0000 </r>
       <r>   34.4836    0.0000 </r>
      </set>
      <set comment="kpoint 55">
       <r>    2.3955    1.0000 </r>
       <r>    9.9211    1.0000 </r>
       <r>   10.5862    0.0050 </r>
       <r>   14.4562    0.0000 </r>
       <r>   16.7911    0.0000 </r>
       <r>   20.8370    0.0000 </r>
       <r>   31.9674    0.0000 </r>
       <r>   34.2602    0.0000 </r>
      </set>
      <set comment="kpoint 56">
       <r>    3.8645    1.0000 </r>
       <r>    8.2066    1.0000 </r>
       <r>    9.0734    1.0000 </r>
       <r>   14.6452    0.0000 </r>
       <r>   17.0887    0.0000 </r>
       <r>   23.1777    0.0000 </r>
       <r>   31.2058    0.0000 </r>
       <r>   33.5796    0.0000 </r>
      </set>
      <set comment="kpoint 57">
       <r>    5.5048    1.0000 </r>
       <r>    6.2631    1.0000 </r>
       <r>    8.2988    1.0000 </r>
       <r>   15.0617    0.0000 </r>
       <r>   17.5839    0.0000 </r>
       <r>   25.7174    0.0000 </r>
       <r>   30.5545    0.0000 </r>
       <r>   32.6052    0.0000 </r>
      </set>
      <set comment="kpoint 58">
       <r>    4.4156    1.0000 </r>
       <r>    7.1055    1.0000 </r>
       <r>    8.1679    1.0000 </r>
       <r>   15.7032    0.0000 </r>
       <r>   18.3078    0.0000 </r>
       <r>   28.2655    0.0000 </r>
       <r>   29.7956    0.0000 </r>
       <r>   30.7568    0.0000 </r>
      </set>
      <set comment="kpoint 59">
       <r>    2.0561    1.0000 </r>
       <r>    9.6686    1.0000 </r>
       <r>   14.1514    0.0000 </r>
       <r>   14.1514    0.0000 </r>
       <r>   15.2786    0.0000 </r>
       <r>   17.8738    0.0000 </r>
       <r>   34.4599    0.0000 </r>
       <r>   35.7581    0.0000 </r>
      </set>
      <set comment="kpoint 60">
       <r>    3.1931    1.0000 </r>
       <r>    8.3229    1.0000 </r>
       <r>   12.3845    0.0000 </r>
       <r>   14.0360    0.0000 </r>
       <r>   15.9939    0.0000 </r>
       <r>   18.5278    0.0000 </r>
       <r>   34.2339    0.0000 </r>
       <r>   36.0270    0.0000 </r>
      </set>
      <set comment="kpoint 61">
       <r>    4.5461    1.0000 </r>
       <r>    7.2379    1.0000 </r>
       <r>   10.1936    1.0000 </r>
       <r>   14.1498    0.0000 </r>
       <r>   16.4523    0.0000 </r>
       <r>   20.5360    0.0000 </r>
       <r>   33.5479    0.0000 </r>
       <r>   35.4113    0.0000 </r>
      </set>
      <set comment="kpoint 62">
       <r>    5.7862    1.0000 </r>
       <r>    6.7139    1.0000 </r>
       <r>    8.1799    1.0000 </r>
       <r>   14.4922    0.0000 </r>
       <r>   16.9211    0.0000 </r>
       <r>   23.0372    0.0000 </r>
       <r>   32.5709    0.0000 </r>
       <r>   33.9345    0.0000 </r>
      </set>
      <set comment="kpoint 63">
       <r>    4.2123    1.0000 </r>
       <r>    6.9137    1.0000 </r>
       <r>   13.8447    0.0000 </r>
       <r>   13.8447    0.0000 </r>
       <r>   14.9316    0.0000 </r>
       <r>   17.5470    0.0000 </r>
       <r>   35.3724    0.0000 </r>
       <r>   36.9667    0.0000 </r>
      </set>
      <set comment="kpoint 64">
       <r>    5.1263    1.0000 </r>
       <r>    6.0903    1.0000 </r>
       <r>   12.2219    0.0000 </r>
       <r>   13.8827    0.0000 </r>
       <r>   15.8244    0.0000 </r>
       <r>   18.3696    0.0000 </r>
       <r>   35.0523    0.0000 </r>
       <r>   36.6753    0.0000 </r>
      </set>
      <set comment="kpoint 65">
       <r>   -3.2971    1.0000 </r>
       <r>   16.8221    0.0000 </r>
       <r>   17.3133    0.0000 </r>
       <r>   21.3729    0.0000 </r>
       <r>   21.7876    0.0000 </r>
       <r>   24.7757    0.0000 </r>
       <r>   26.2507    0.0000 </r>
       <r>   26.6302    0.0000 </r>
      </set>
      <set comment="kpoint 66">
       <r>   -2.6415    1.0000 </r>
       <r>   14.2057    0.0000 </r>
       <r>   16.5484    0.0000 </r>
       <r>   20.6751    0.0000 </r>
       <r>   22.2293    0.0000 </r>
       <r>   24.3625    0.0000 </r>
       <r>   26.4555    0.0000 </r>
       <r>   26.6942    0.0000 </r>
      </set>
      <set comment="kpoint 67">
       <r>   -1.7273    1.0000 </r>
       <r>   11.4940    0.0000 </r>
       <r>   16.1849    0.0000 </r>
       <r>   19.7703    0.0000 </r>
       <r>   21.7702    0.0000 </r>
       <r>   24.9920    0.0000 </r>
       <r>   25.9013    0.0000 </r>
       <r>   27.0658    0.0000 </r>
      </set>
      <set comment="kpoint 68">
       <r>   -0.5586    1.0000 </r>
       <r>    8.9428    1.0000 </r>
       <r>   16.0555    0.0000 </r>
       <r>   18.7916    0.0000 </r>
       <r>   21.4577    0.0000 </r>
       <r>   24.1764    0.0000 </r>
       <r>   26.2205    0.0000 </r>
       <r>   28.4571    0.0000 </r>
      </set>
      <set comment="kpoint 69">
       <r>    0.8581    1.0000 </r>
       <r>    6.5936    1.0000 </r>
       <r>   16.1475    0.0000 </r>
       <r>   17.8915    0.0000 </r>
       <r>   21.4389    0.0000 </r>
       <r>   23.2735    0.0000 </r>
       <r>   26.3869    0.0000 </r>
       <r>   29.8639    0.0000 </r>
      </set>
      <set comment="kpoint 70">
       <r>    2.5004    1.0000 </r>
       <r>    4.4825    1.0000 </r>
       <r>   16.4128    0.0000 </r>
       <r>   17.2062    0.0000 </r>
       <r>   21.6027    0.0000 </r>
       <r>   22.6411    0.0000 </r>
       <r>   26.4892    0.0000 </r>
       <r>   29.5813    0.0000 </r>
      </set>
      <set comment="kpoint 71">
       <r>   -2.4232    1.0000 </r>
       <r>   15.2407    0.0000 </r>
       <r>   15.8223    0.0000 </r>
       <r>   19.3021    0.0000 </r>
       <r>   20.2935    0.0000 </r>
       <r>   22.2127    0.0000 </r>
       <r>   28.2221    0.0000 </r>
       <r>   28.8882    0.0000 </r>
      </set>
      <set comment="kpoint 72">
       <r>   -1.5966    1.0000 </r>
       <r>   12.7677    0.0000 </r>
       <r>   15.1693    0.0000 </r>
       <r>   18.0652    0.0000 </r>
       <r>   20.5179    0.0000 </r>
       <r>   22.9594    0.0000 </r>
       <r>   27.4643    0.0000 </r>
       <r>   29.3494    0.0000 </r>
      </set>
      <set comment="kpoint 73">
       <r>   -0.5146    1.0000 </r>
       <r>   10.1920    1.0000 </r>
       <r>   14.9429    0.0000 </r>
       <r>   16.8321    0.0000 </r>
       <r>   20.3891    0.0000 </r>
       <r>   24.6355    0.0000 </r>
       <r>   26.5221    0.0000 </r>
       <r>   29.4934    0.0000 </r>
      </set>
      <set comment="kpoint 74">
       <r>    0.8174    1.0000 </r>
       <r>    7.7872    1.0000 </r>
       <r>   14.9152    0.0000 </r>
       <r>   15.8008    0.0000 </r>
       <r>   20.4245    0.0000 </r>
       <r>   25.1746    0.0000 </r>
       <r>   26.9208    0.0000 </r>
       <r>   29.7025    0.0000 </r>
      </set>
      <set comment="kpoint 75">
       <r>    2.3878    1.0000 </r>
       <r>    5.5972    1.0000 </r>
       <r>   14.6681    0.0000 </r>
       <r>   15.4288    0.0000 </r>
       <r>   20.6846    0.0000 </r>
       <r>   24.4737    0.0000 </r>
       <r>   28.1295    0.0000 </r>
       <r>   30.4867    0.0000 </r>
      </set>
      <set comment="kpoint 76">
       <r>    3.5047    1.0000 </r>
       <r>    4.3241    1.0000 </r>
       <r>   14.0872    0.0000 </r>
       <r>   15.8462    0.0000 </r>
       <r>   21.1651    0.0000 </r>
       <r>   23.8975    0.0000 </r>
       <r>   28.3390    0.0000 </r>
       <r>   31.6413    0.0000 </r>
      </set>
      <set comment="kpoint 77">
       <r>    1.8397    1.0000 </r>
       <r>    6.2978    1.0000 </r>
       <r>   13.6752    0.0000 </r>
       <r>   16.5541    0.0000 </r>
       <r>   21.8345    0.0000 </r>
       <r>   23.5598    0.0000 </r>
       <r>   28.0714    0.0000 </r>
       <r>   30.4227    0.0000 </r>
      </set>
      <set comment="kpoint 78">
       <r>    0.3460    1.0000 </r>
       <r>    8.5583    1.0000 </r>
       <r>   13.4943    0.0000 </r>
       <r>   17.4863    0.0000 </r>
       <r>   22.5695    0.0000 </r>
       <r>   23.5705    0.0000 </r>
       <r>   27.2398    0.0000 </r>
       <r>   28.8909    0.0000 </r>
      </set>
      <set comment="kpoint 79">
       <r>   -0.9036    1.0000 </r>
       <r>   11.0045    0.0000 </r>
       <r>   13.5705    0.0000 </r>
       <r>   18.6089    0.0000 </r>
       <r>   23.0558    0.0000 </r>
       <r>   24.0727    0.0000 </r>
       <r>   25.7167    0.0000 </r>
       <r>   28.2529    0.0000 </r>
      </set>
      <set comment="kpoint 80">
       <r>   -1.9009    1.0000 </r>
       <r>   13.3286    0.0000 </r>
       <r>   14.1774    0.0000 </r>
       <r>   19.8416    0.0000 </r>
       <r>   23.0579    0.0000 </r>
       <r>   23.8712    0.0000 </r>
       <r>   25.6647    0.0000 </r>
       <r>   27.6610    0.0000 </r>
      </set>
      <set comment="kpoint 81">
       <r>   -1.2059    1.0000 </r>
       <r>   13.9597    0.0000 </r>
       <r>   14.5660    0.0000 </r>
       <r>   16.2364    0.0000 </r>
       <r>   19.0266    0.0000 </r>
       <r>   20.7396    0.0000 </r>
       <r>   29.6015    0.0000 </r>
       <r>   31.4676    0.0000 </r>
      </set>
      <set comment="kpoint 82">
       <r>   -0.2120    1.0000 </r>
       <r>   11.6328    0.0000 </r>
       <r>   14.0049    0.0000 </r>
       <r>   14.9013    0.0000 </r>
       <r>   19.3701    0.0000 </r>
       <r>   21.9466    0.0000 </r>
       <r>   28.7201    0.0000 </r>
       <r>   31.9153    0.0000 </r>
      </set>
      <set comment="kpoint 83">
       <r>    1.0330    1.0000 </r>
       <r>    9.2055    1.0000 </r>
       <r>   13.4437    0.0000 </r>
       <r>   14.1890    0.0000 </r>
       <r>   19.4435    0.0000 </r>
       <r>   23.9454    0.0000 </r>
       <r>   27.7926    0.0000 </r>
       <r>   31.8428    0.0000 </r>
      </set>
      <set comment="kpoint 84">
       <r>    2.5207    1.0000 </r>
       <r>    6.9574    1.0000 </r>
       <r>   12.5327    0.0000 </r>
       <r>   14.2955    0.0000 </r>
       <r>   19.6728    0.0000 </r>
       <r>   25.9378    0.0000 </r>
       <r>   27.2124    0.0000 </r>
       <r>   31.4918    0.0000 </r>
      </set>
      <set comment="kpoint 85">
       <r>    4.1845    1.0000 </r>
       <r>    4.9839    1.0000 </r>
       <r>   11.7905    0.0000 </r>
       <r>   14.7071    0.0000 </r>
       <r>   20.1183    0.0000 </r>
       <r>   26.0413    0.0000 </r>
       <r>   28.6522    0.0000 </r>
       <r>   30.8646    0.0000 </r>
      </set>
      <set comment="kpoint 86">
       <r>    3.0685    1.0000 </r>
       <r>    6.2447    1.0000 </r>
       <r>   11.2845    0.0000 </r>
       <r>   15.3625    0.0000 </r>
       <r>   20.7844    0.0000 </r>
       <r>   25.6316    0.0000 </r>
       <r>   29.4182    0.0000 </r>
       <r>   30.2971    0.0000 </r>
      </set>
      <set comment="kpoint 87">
       <r>    1.5025    1.0000 </r>
       <r>    8.3864    1.0000 </r>
       <r>   11.0483    0.0000 </r>
       <r>   16.2470    0.0000 </r>
       <r>   21.6562    0.0000 </r>
       <r>   25.3741    0.0000 </r>
       <r>   27.4999    0.0000 </r>
       <r>   30.2472    0.0000 </r>
      </set>
      <set comment="kpoint 88">
       <r>    0.1747    1.0000 </r>
       <r>   10.3948    0.9977 </r>
       <r>   11.4011    0.0000 </r>
       <r>   17.3437    0.0000 </r>
       <r>   22.6841    0.0000 </r>
       <r>   24.9839    0.0000 </r>
       <r>   25.7814    0.0000 </r>
       <r>   29.4872    0.0000 </r>
      </set>
      <set comment="kpoint 89">
       <r>    0.3479    1.0000 </r>
       <r>   12.7997    0.0000 </r>
       <r>   12.9926    0.0000 </r>
       <r>   13.8310    0.0000 </r>
       <r>   18.0561    0.0000 </r>
       <r>   19.7880    0.0000 </r>
       <r>   31.0488    0.0000 </r>
       <r>   33.7869    0.0000 </r>
      </set>
      <set comment="kpoint 90">
       <r>    1.5035    1.0000 </r>
       <r>   10.7819    0.0000 </r>
       <r>   11.6116    0.0000 </r>
       <r>   13.3797    0.0000 </r>
       <r>   18.5640    0.0000 </r>
       <r>   21.2180    0.0000 </r>
       <r>   30.2220    0.0000 </r>
       <r>   34.0186    0.0000 </r>
      </set>
      <set comment="kpoint 91">
       <r>    2.9028    1.0000 </r>
       <r>    8.5331    1.0000 </r>
       <r>   10.5170    0.2671 </r>
       <r>   13.4566    0.0000 </r>
       <r>   18.8110    0.0000 </r>
       <r>   23.4217    0.0000 </r>
       <r>   29.3956    0.0000 </r>
       <r>   33.4245    0.0000 </r>
      </set>
      <set comment="kpoint 92">
       <r>    4.5239    1.0000 </r>
       <r>    6.4596    1.0000 </r>
       <r>    9.6718    1.0000 </r>
       <r>   13.7996    0.0000 </r>
       <r>   19.2108    0.0000 </r>
       <r>   25.8250    0.0000 </r>
       <r>   28.7338    0.0000 </r>
       <r>   32.1006    0.0000 </r>
      </set>
      <set comment="kpoint 93">
       <r>    4.5345    1.0000 </r>
       <r>    6.4115    1.0000 </r>
       <r>    9.1033    1.0000 </r>
       <r>   14.3853    0.0000 </r>
       <r>   19.8227    0.0000 </r>
       <r>   27.6859    0.0000 </r>
       <r>   28.7543    0.0000 </r>
       <r>   30.1155    0.0000 </r>
      </set>
      <set comment="kpoint 94">
       <r>    2.9046    1.0000 </r>
       <r>    8.0941    1.0000 </r>
       <r>    9.1464    1.0000 </r>
       <r>   15.2047    0.0000 </r>
       <r>   20.6478    0.0000 </r>
       <r>   27.5081    0.0000 </r>
       <r>   27.7529    0.0000 </r>
       <r>   30.8440    0.0000 </r>
      </set>
      <set comment="kpoint 95">
       <r>    2.2260    1.0000 </r>
       <r>    9.8230    1.0000 </r>
       <r>   12.3453    0.0000 </r>
       <r>   13.1213    0.0000 </r>
       <r>   17.4029    0.0000 </r>
       <r>   19.1679    0.0000 </r>
       <r>   32.6244    0.0000 </r>
       <r>   35.7199    0.0000 </r>
      </set>
      <set comment="kpoint 96">
       <r>    3.5299    1.0000 </r>
       <r>    8.6346    1.0000 </r>
       <r>   10.3718    0.9998 </r>
       <r>   12.8797    0.0000 </r>
       <r>   18.0787    0.0000 </r>
       <r>   20.7747    0.0000 </r>
       <r>   31.9128    0.0000 </r>
       <r>   34.8916    0.0000 </r>
      </set>
      <set comment="kpoint 97">
       <r>    5.0437    1.0000 </r>
       <r>    7.6456    1.0000 </r>
       <r>    8.3442    1.0000 </r>
       <r>   13.1307    0.0000 </r>
       <r>   18.4925    0.0000 </r>
       <r>   23.1487    0.0000 </r>
       <r>   31.2048    0.0000 </r>
       <r>   32.9746    0.0000 </r>
      </set>
      <set comment="kpoint 98">
       <r>    6.1995    1.0000 </r>
       <r>    6.4460    1.0000 </r>
       <r>    7.5488    1.0000 </r>
       <r>   13.6383    0.0000 </r>
       <r>   19.0552    0.0000 </r>
       <r>   25.7339    0.0000 </r>
       <r>   30.5456    0.0000 </r>
       <r>   30.6567    0.0000 </r>
      </set>
      <set comment="kpoint 99">
       <r>    4.3795    1.0000 </r>
       <r>    7.0778    1.0000 </r>
       <r>   12.0210    0.0000 </r>
       <r>   12.7966    0.0000 </r>
       <r>   17.0749    0.0000 </r>
       <r>   18.8576    0.0000 </r>
       <r>   34.1632    0.0000 </r>
       <r>   35.6999    0.0000 </r>
      </set>
      <set comment="kpoint 100">
       <r>    5.4563    1.0000 </r>
       <r>    6.4205    1.0000 </r>
       <r>   10.1979    1.0000 </r>
       <r>   12.7173    0.0000 </r>
       <r>   17.9165    0.0000 </r>
       <r>   20.6257    0.0000 </r>
       <r>   33.4465    0.0000 </r>
       <r>   33.8730    0.0000 </r>
      </set>
      <set comment="kpoint 101">
       <r>   -0.6870    1.0000 </r>
       <r>   12.0289    0.0000 </r>
       <r>   12.9279    0.0000 </r>
       <r>   16.7003    0.0000 </r>
       <r>   21.8716    0.0000 </r>
       <r>   22.9042    0.0000 </r>
       <r>   26.5271    0.0000 </r>
       <r>   30.5650    0.0000 </r>
      </set>
      <set comment="kpoint 102">
       <r>    0.4757    1.0000 </r>
       <r>    9.8605    1.0000 </r>
       <r>   12.4539    0.0000 </r>
       <r>   15.4442    0.0000 </r>
       <r>   22.1806    0.0000 </r>
       <r>   24.2075    0.0000 </r>
       <r>   25.7759    0.0000 </r>
       <r>   31.1307    0.0000 </r>
      </set>
      <set comment="kpoint 103">
       <r>    1.8852    1.0000 </r>
       <r>    7.5664    1.0000 </r>
       <r>   12.5210    0.0000 </r>
       <r>   14.4031    0.0000 </r>
       <r>   22.2850    0.0000 </r>
       <r>   24.2221    0.0000 </r>
       <r>   27.0201    0.0000 </r>
       <r>   31.2179    0.0000 </r>
      </set>
      <set comment="kpoint 104">
       <r>    3.5212    1.0000 </r>
       <r>    5.4755    1.0000 </r>
       <r>   12.7968    0.0000 </r>
       <r>   13.6457    0.0000 </r>
       <r>   22.4635    0.0000 </r>
       <r>   23.7035    0.0000 </r>
       <r>   29.0851    0.0000 </r>
       <r>   30.6929    0.0000 </r>
      </set>
      <set comment="kpoint 105">
       <r>    0.8623    1.0000 </r>
       <r>   11.0498    0.0000 </r>
       <r>   11.9269    0.0000 </r>
       <r>   13.5097    0.0000 </r>
       <r>   20.9366    0.0000 </r>
       <r>   22.1334    0.0000 </r>
       <r>   27.8237    0.0000 </r>
       <r>   33.2980    0.0000 </r>
      </set>
      <set comment="kpoint 106">
       <r>    2.1842    1.0000 </r>
       <r>    9.0353    1.0000 </r>
       <r>   11.5512    0.0000 </r>
       <r>   12.4094    0.0000 </r>
       <r>   21.4587    0.0000 </r>
       <r>   23.8232    0.0000 </r>
       <r>   26.9641    0.0000 </r>
       <r>   33.3273    0.0000 </r>
      </set>
      <set comment="kpoint 107">
       <r>    3.7421    1.0000 </r>
       <r>    6.9028    1.0000 </r>
       <r>   11.2159    0.0000 </r>
       <r>   12.0618    0.0000 </r>
       <r>   21.7817    0.0000 </r>
       <r>   25.4190    0.0000 </r>
       <r>   26.9080    0.0000 </r>
       <r>   31.7958    0.0000 </r>
      </set>
      <set comment="kpoint 108">
       <r>    4.8638    1.0000 </r>
       <r>    5.6277    1.0000 </r>
       <r>   10.6135    0.0004 </r>
       <r>   12.4975    0.0000 </r>
       <r>   22.2650    0.0000 </r>
       <r>   25.2126    0.0000 </r>
       <r>   28.6378    0.0000 </r>
       <r>   29.9022    0.0000 </r>
      </set>
      <set comment="kpoint 109">
       <r>    3.1993    1.0000 </r>
       <r>    7.5604    1.0000 </r>
       <r>   10.2263    1.0000 </r>
       <r>   13.2391    0.0000 </r>
       <r>   22.9057    0.0000 </r>
       <r>   24.8354    0.0000 </r>
       <r>   27.0938    0.0000 </r>
       <r>   31.3706    0.0000 </r>
      </set>
      <set comment="kpoint 110">
       <r>    1.7163    1.0000 </r>
       <r>    9.4104    1.0000 </r>
       <r>   10.4258    0.9750 </r>
       <r>   14.2282    0.0000 </r>
       <r>   23.5693    0.0000 </r>
       <r>   24.1126    0.0000 </r>
       <r>   25.5707    0.0000 </r>
       <r>   32.5722    0.0000 </r>
      </set>
      <set comment="kpoint 111">
       <r>    2.7345    1.0000 </r>
       <r>   10.2351    1.0000 </r>
       <r>   10.3955    0.9976 </r>
       <r>   11.5074    0.0000 </r>
       <r>   20.3017    0.0000 </r>
       <r>   21.5912    0.0000 </r>
       <r>   29.4260    0.0000 </r>
       <r>   34.4982    0.0000 </r>
      </set>
      <set comment="kpoint 112">
       <r>    4.2008    1.0000 </r>
       <r>    8.5007    1.0000 </r>
       <r>    9.3464    1.0000 </r>
       <r>   11.2647    0.0000 </r>
       <r>   21.0070    0.0000 </r>
       <r>   23.4775    0.0000 </r>
       <r>   28.6401    0.0000 </r>
       <r>   32.4994    0.0000 </r>
      </set>
      <set comment="kpoint 113">
       <r>    5.8402    1.0000 </r>
       <r>    6.5802    1.0000 </r>
       <r>    8.6084    1.0000 </r>
       <r>   11.6480    0.0000 </r>
       <r>   21.5019    0.0000 </r>
       <r>   25.8283    0.0000 </r>
       <r>   28.0167    0.0000 </r>
       <r>   30.1597    0.0000 </r>
      </set>
      <set comment="kpoint 114">
       <r>    4.7483    1.0000 </r>
       <r>    7.4354    1.0000 </r>
       <r>    8.4812    1.0000 </r>
       <r>   12.3176    0.0000 </r>
       <r>   22.1498    0.0000 </r>
       <r>   26.9516    0.0000 </r>
       <r>   27.2088    0.0000 </r>
       <r>   29.4608    0.0000 </r>
      </set>
      <set comment="kpoint 115">
       <r>    4.8797    1.0000 </r>
       <r>    7.5631    1.0000 </r>
       <r>   10.0679    1.0000 </r>
       <r>   11.1111    0.0000 </r>
       <r>   19.9817    0.0000 </r>
       <r>   21.3125    0.0000 </r>
       <r>   31.2363    0.0000 </r>
       <r>   33.0919    0.0000 </r>
      </set>
      <set comment="kpoint 116">
       <r>    6.1162    1.0000 </r>
       <r>    7.0475    1.0000 </r>
       <r>    8.4400    1.0000 </r>
       <r>   11.0819    0.0000 </r>
       <r>   20.8543    0.0000 </r>
       <r>   23.3529    0.0000 </r>
       <r>   30.2934    0.0000 </r>
       <r>   30.8698    0.0000 </r>
      </set>
      <set comment="kpoint 117">
       <r>    3.5782    1.0000 </r>
       <r>    8.7531    1.0000 </r>
       <r>    9.7173    1.0000 </r>
       <r>   11.2688    0.0000 </r>
       <r>   23.5044    0.0000 </r>
       <r>   24.0044    0.0000 </r>
       <r>   26.2716    0.0000 </r>
       <r>   31.9976    0.0000 </r>
      </set>
      <set comment="kpoint 118">
       <r>    5.1948    1.0000 </r>
       <r>    7.0652    1.0000 </r>
       <r>    9.6259    1.0000 </r>
       <r>   10.4894    0.5637 </r>
       <r>   23.9266    0.0000 </r>
       <r>   24.9910    0.0000 </r>
       <r>   26.7689    0.0000 </r>
       <r>   29.7133    0.0000 </r>
      </set>
      <set comment="kpoint 119">
       <r>    5.7079    1.0000 </r>
       <r>    8.3002    1.0000 </r>
       <r>    8.4242    1.0000 </r>
       <r>    9.6354    1.0000 </r>
       <r>   23.1955    0.0000 </r>
       <r>   23.9643    0.0000 </r>
       <r>   27.8529    0.0000 </r>
       <r>   30.1269    0.0000 </r>
      </set>
      <set comment="kpoint 120">
       <r>    6.8330    1.0000 </r>
       <r>    7.1059    1.0000 </r>
       <r>    8.1033    1.0000 </r>
       <r>    9.7092    1.0000 </r>
       <r>   23.9752    0.0000 </r>
       <r>   25.8616    0.0000 </r>
       <r>   26.6620    0.0000 </r>
       <r>   28.5192    0.0000 </r>
      </set>
     </set>
    </set>
   </array>
  </eigenvalues>
  <separator name="orbital magnetization" >
   <v name="MAGDIPOLOUT">      0.00000000      0.00000000      0.00000000</v>
  </separator>
  <dos>
   <i name="efermi">     10.49502416 </i>
   <total>
    <array>
     <dimension dim="1">gridpoints</dimension>
     <dimension dim="2">spin</dimension>
     <field>energy</field>
     <field>total</field>
     <field>integrated</field>
     <set>
      <set comment="spin 1">
       <r>    -6.2319     0.0000     0.0000 </r>
       <r>    -6.0810     0.0000     0.0000 </r>
       <r>    -5.9302     0.0000     0.0000 </r>
       <r>    -5.7793     0.0000     0.0000 </r>
       <r>    -5.6285     0.0000     0.0000 </r>
       <r>    -5.4776     0.0000     0.0000 </r>
       <r>    -5.3268     0.0000     0.0000 </r>
       <r>    -5.1759     0.0000     0.0000 </r>
       <r>    -5.0251     0.0000     0.0000 </r>
       <r>    -4.8742     0.0000     0.0000 </r>
       <r>    -4.7234     0.0000     0.0000 </r>
       <r>    -4.5725     0.0000     0.0000 </r>
       <r>    -4.4217     0.0000     0.0000 </r>
       <r>    -4.2708     0.0000     0.0000 </r>
       <r>    -4.1200     0.0041     0.0006 </r>
       <r>    -3.9691     0.0495     0.0081 </r>
       <r>    -3.8183     0.0315     0.0129 </r>
       <r>    -3.6674     0.1010     0.0281 </r>
       <r>    -3.5166     0.0481     0.0353 </r>
       <r>    -3.3657     0.0464     0.0423 </r>
       <r>    -3.2148     0.1627     0.0669 </r>
       <r>    -3.0640     0.0925     0.0808 </r>
       <r>    -2.9131     0.1262     0.0999 </r>
       <r>    -2.7623     0.0307     0.1045 </r>
       <r>    -2.6114     0.2107     0.1363 </r>
       <r>    -2.4606     0.1275     0.1555 </r>
       <r>    -2.3097     0.1144     0.1728 </r>
       <r>    -2.1589     0.1545     0.1961 </r>
       <r>    -2.0080     0.0376     0.2018 </r>
       <r>    -1.8572     0.2654     0.2418 </r>
       <r>    -1.7063     0.1481     0.2642 </r>
       <r>    -1.5555     0.3005     0.3095 </r>
       <r>    -1.4046     0.0398     0.3155 </r>
       <r>    -1.2538     0.0783     0.3273 </r>
       <r>    -1.1029     0.2256     0.3614 </r>
       <r>    -0.9521     0.1561     0.3849 </r>
       <r>    -0.8012     0.2918     0.4289 </r>
       <r>    -0.6504     0.0861     0.4419 </r>
       <r>    -0.4995     0.4072     0.5033 </r>
       <r>    -0.3487     0.1189     0.5213 </r>
       <r>    -0.1978     0.1760     0.5478 </r>
       <r>    -0.0470     0.0729     0.5588 </r>
       <r>     0.1039     0.1519     0.5817 </r>
       <r>     0.2548     0.3349     0.6323 </r>
       <r>     0.4056     0.2766     0.6740 </r>
       <r>     0.5565     0.3944     0.7335 </r>
       <r>     0.7073     0.0207     0.7366 </r>
       <r>     0.8582     0.3020     0.7822 </r>
       <r>     1.0090     0.2162     0.8148 </r>
       <r>     1.1599     0.2390     0.8508 </r>
       <r>     1.3107     0.0928     0.8648 </r>
       <r>     1.4616     0.1072     0.8810 </r>
       <r>     1.6124     0.5935     0.9705 </r>
       <r>     1.7633     0.1841     0.9983 </r>
       <r>     1.9141     0.4360     1.0641 </r>
       <r>     2.0650     0.1246     1.0829 </r>
       <r>     2.2158     0.2577     1.1218 </r>
       <r>     2.3667     0.1657     1.1468 </r>
       <r>     2.5175     0.4283     1.2114 </r>
       <r>     2.6684     0.1631     1.2360 </r>
       <r>     2.8192     0.1526     1.2590 </r>
       <r>     2.9701     0.4022     1.3197 </r>
       <r>     3.1209     0.2078     1.3510 </r>
       <r>     3.2718     0.5483     1.4337 </r>
       <r>     3.4226     0.0750     1.4451 </r>
       <r>     3.5735     0.5953     1.5349 </r>
       <r>     3.7243     0.2386     1.5709 </r>
       <r>     3.8752     0.1927     1.5999 </r>
       <r>     4.0261     0.1129     1.6170 </r>
       <r>     4.1769     0.1711     1.6428 </r>
       <r>     4.3278     0.3874     1.7012 </r>
       <r>     4.4786     0.3449     1.7532 </r>
       <r>     4.6295     0.6282     1.8480 </r>
       <r>     4.7803     0.0810     1.8602 </r>
       <r>     4.9312     0.3441     1.9121 </r>
       <r>     5.0820     0.4105     1.9740 </r>
       <r>     5.2329     0.4314     2.0391 </r>
       <r>     5.3837     0.1982     2.0690 </r>
       <r>     5.5346     0.3543     2.1225 </r>
       <r>     5.6854     0.4971     2.1975 </r>
       <r>     5.8363     0.2188     2.2305 </r>
       <r>     5.9871     0.1698     2.2561 </r>
       <r>     6.1380     0.1467     2.2782 </r>
       <r>     6.2888     0.4592     2.3475 </r>
       <r>     6.4397     0.4728     2.4188 </r>
       <r>     6.5905     0.5114     2.4960 </r>
       <r>     6.7414     0.2536     2.5342 </r>
       <r>     6.8922     0.1844     2.5620 </r>
       <r>     7.0431     0.4328     2.6273 </r>
       <r>     7.1939     0.5334     2.7078 </r>
       <r>     7.3448     0.3440     2.7597 </r>
       <r>     7.4957     0.1898     2.7883 </r>
       <r>     7.6465     0.6560     2.8873 </r>
       <r>     7.7974     0.2127     2.9194 </r>
       <r>     7.9482     0.1474     2.9416 </r>
       <r>     8.0991     0.1168     2.9592 </r>
       <r>     8.2499     0.3376     3.0101 </r>
       <r>     8.4008     0.6583     3.1095 </r>
       <r>     8.5516     0.7182     3.2178 </r>
       <r>     8.7025     0.5839     3.3059 </r>
       <r>     8.8533     0.1825     3.3334 </r>
       <r>     9.0042     0.2195     3.3665 </r>
       <r>     9.1550     0.5423     3.4483 </r>
       <r>     9.3059     0.2511     3.4862 </r>
       <r>     9.4567     0.2515     3.5241 </r>
       <r>     9.6076     0.3395     3.5753 </r>
       <r>     9.7584     0.6177     3.6685 </r>
       <r>     9.9093     0.4340     3.7340 </r>
       <r>    10.0601     0.1893     3.7625 </r>
       <r>    10.2110     0.4452     3.8297 </r>
       <r>    10.3618     0.5131     3.9071 </r>
       <r>    10.5127     0.6894     4.0111 </r>
       <r>    10.6635     0.4197     4.0744 </r>
       <r>    10.8144     0.2617     4.1139 </r>
       <r>    10.9653     0.0780     4.1257 </r>
       <r>    11.1161     0.6848     4.2290 </r>
       <r>    11.2670     0.6065     4.3205 </r>
       <r>    11.4178     0.3672     4.3758 </r>
       <r>    11.5687     0.4623     4.4456 </r>
       <r>    11.7195     0.6318     4.5409 </r>
       <r>    11.8704     0.2145     4.5732 </r>
       <r>    12.0212     0.2894     4.6169 </r>
       <r>    12.1721     0.4434     4.6838 </r>
       <r>    12.3229     0.3291     4.7334 </r>
       <r>    12.4738     0.6524     4.8318 </r>
       <r>    12.6246     0.6683     4.9327 </r>
       <r>    12.7755     0.3833     4.9905 </r>
       <r>    12.9263     0.6650     5.0908 </r>
       <r>    13.0772     0.2564     5.1295 </r>
       <r>    13.2280     0.5363     5.2104 </r>
       <r>    13.3789     0.3464     5.2626 </r>
       <r>    13.5297     0.7813     5.3805 </r>
       <r>    13.6806     0.6649     5.4808 </r>
       <r>    13.8314     0.3479     5.5333 </r>
       <r>    13.9823     0.3344     5.5837 </r>
       <r>    14.1331     0.5630     5.6687 </r>
       <r>    14.2840     0.7185     5.7770 </r>
       <r>    14.4349     0.5153     5.8548 </r>
       <r>    14.5857     0.3911     5.9138 </r>
       <r>    14.7366     0.5642     5.9989 </r>
       <r>    14.8874     0.3845     6.0569 </r>
       <r>    15.0383     0.8479     6.1848 </r>
       <r>    15.1891     0.4962     6.2597 </r>
       <r>    15.3400     0.3912     6.3187 </r>
       <r>    15.4908     0.5888     6.4075 </r>
       <r>    15.6417     0.1122     6.4244 </r>
       <r>    15.7925     0.2466     6.4616 </r>
       <r>    15.9434     0.7120     6.5690 </r>
       <r>    16.0942     0.4759     6.6408 </r>
       <r>    16.2451     0.7462     6.7534 </r>
       <r>    16.3959     0.4572     6.8224 </r>
       <r>    16.5468     0.5041     6.8984 </r>
       <r>    16.6976     0.3273     6.9478 </r>
       <r>    16.8485     0.4208     7.0113 </r>
       <r>    16.9993     0.4320     7.0764 </r>
       <r>    17.1502     0.3923     7.1356 </r>
       <r>    17.3010     0.3720     7.1917 </r>
       <r>    17.4519     0.6093     7.2836 </r>
       <r>    17.6027     0.6525     7.3821 </r>
       <r>    17.7536     0.3113     7.4290 </r>
       <r>    17.9044     0.3994     7.4893 </r>
       <r>    18.0553     0.5303     7.5693 </r>
       <r>    18.2062     0.6041     7.6604 </r>
       <r>    18.3570     0.3279     7.7099 </r>
       <r>    18.5079     0.4860     7.7832 </r>
       <r>    18.6587     0.8829     7.9163 </r>
       <r>    18.8096     0.5051     7.9925 </r>
       <r>    18.9604     0.5999     8.0830 </r>
       <r>    19.1113     0.3329     8.1332 </r>
       <r>    19.2621     0.4048     8.1943 </r>
       <r>    19.4130     0.7205     8.3030 </r>
       <r>    19.5638     0.4029     8.3638 </r>
       <r>    19.7147     0.4312     8.4288 </r>
       <r>    19.8655     1.0363     8.5851 </r>
       <r>    20.0164     0.2578     8.6240 </r>
       <r>    20.1672     0.2792     8.6662 </r>
       <r>    20.3181     0.3048     8.7121 </r>
       <r>    20.4689     0.7420     8.8241 </r>
       <r>    20.6198     0.4692     8.8949 </r>
       <r>    20.7706     0.8323     9.0204 </r>
       <r>    20.9215     0.8008     9.1412 </r>
       <r>    21.0723     0.5305     9.2212 </r>
       <r>    21.2232     0.3307     9.2711 </r>
       <r>    21.3740     0.3771     9.3280 </r>
       <r>    21.5249     1.0513     9.4866 </r>
       <r>    21.6758     0.6858     9.5900 </r>
       <r>    21.8266     0.6809     9.6928 </r>
       <r>    21.9775     0.4906     9.7668 </r>
       <r>    22.1283     0.3180     9.8147 </r>
       <r>    22.2792     0.9245     9.9542 </r>
       <r>    22.4300     0.5427    10.0361 </r>
       <r>    22.5809     0.2918    10.0801 </r>
       <r>    22.7317     0.3775    10.1370 </r>
       <r>    22.8826     0.5048    10.2132 </r>
       <r>    23.0334     0.6500    10.3112 </r>
       <r>    23.1843     0.5893    10.4001 </r>
       <r>    23.3351     0.3400    10.4514 </r>
       <r>    23.4860     0.4401    10.5178 </r>
       <r>    23.6368     1.0660    10.6786 </r>
       <r>    23.7877     0.5509    10.7617 </r>
       <r>    23.9385     0.9111    10.8992 </r>
       <r>    24.0894     0.9005    11.0350 </r>
       <r>    24.2402     0.8161    11.1581 </r>
       <r>    24.3911     0.3176    11.2060 </r>
       <r>    24.5419     0.2959    11.2507 </r>
       <r>    24.6928     0.6954    11.3556 </r>
       <r>    24.8436     0.4115    11.4177 </r>
       <r>    24.9945     0.6996    11.5232 </r>
       <r>    25.1454     0.7414    11.6350 </r>
       <r>    25.2962     0.4031    11.6958 </r>
       <r>    25.4471     0.5389    11.7771 </r>
       <r>    25.5979     0.3424    11.8288 </r>
       <r>    25.7488     0.9429    11.9710 </r>
       <r>    25.8996     1.2997    12.1671 </r>
       <r>    26.0505     0.5686    12.2529 </r>
       <r>    26.2013     0.2941    12.2972 </r>
       <r>    26.3522     0.6690    12.3981 </r>
       <r>    26.5030     0.9029    12.5343 </r>
       <r>    26.6539     0.4765    12.6062 </r>
       <r>    26.8047     0.6553    12.7051 </r>
       <r>    26.9556     0.7365    12.8162 </r>
       <r>    27.1064     0.8042    12.9375 </r>
       <r>    27.2573     0.5150    13.0152 </r>
       <r>    27.4081     0.1125    13.0322 </r>
       <r>    27.5590     0.5951    13.1219 </r>
       <r>    27.7098     0.4343    13.1874 </r>
       <r>    27.8607     0.9610    13.3324 </r>
       <r>    28.0115     0.6568    13.4315 </r>
       <r>    28.1624     0.8335    13.5572 </r>
       <r>    28.3132     0.6118    13.6495 </r>
       <r>    28.4641     0.3775    13.7065 </r>
       <r>    28.6149     0.4536    13.7749 </r>
       <r>    28.7658     1.0355    13.9311 </r>
       <r>    28.9167     0.5440    14.0132 </r>
       <r>    29.0675     0.2342    14.0485 </r>
       <r>    29.2184     0.1329    14.0686 </r>
       <r>    29.3692     0.2273    14.1028 </r>
       <r>    29.5201     0.9089    14.2399 </r>
       <r>    29.6709     0.5013    14.3156 </r>
       <r>    29.8218     0.4683    14.3862 </r>
       <r>    29.9726     0.3720    14.4423 </r>
       <r>    30.1235     0.3498    14.4951 </r>
       <r>    30.2743     1.0678    14.6562 </r>
       <r>    30.4252     0.7519    14.7696 </r>
       <r>    30.5760     0.5822    14.8574 </r>
       <r>    30.7269     0.4279    14.9220 </r>
       <r>    30.8777     0.3306    14.9719 </r>
       <r>    31.0286     0.2294    15.0065 </r>
       <r>    31.1794     0.3516    15.0595 </r>
       <r>    31.3303     0.5980    15.1497 </r>
       <r>    31.4811     0.3013    15.1952 </r>
       <r>    31.6320     0.3142    15.2426 </r>
       <r>    31.7828     0.2916    15.2866 </r>
       <r>    31.9337     0.6316    15.3818 </r>
       <r>    32.0845     0.3414    15.4333 </r>
       <r>    32.2354     0.2192    15.4664 </r>
       <r>    32.3863     0.0019    15.4667 </r>
       <r>    32.5371     0.3095    15.5134 </r>
       <r>    32.6880     0.3944    15.5729 </r>
       <r>    32.8388     0.0955    15.5873 </r>
       <r>    32.9897     0.1275    15.6065 </r>
       <r>    33.1405     0.1510    15.6293 </r>
       <r>    33.2914     0.0990    15.6442 </r>
       <r>    33.4422     0.3868    15.7026 </r>
       <r>    33.5931     0.2557    15.7411 </r>
       <r>    33.7439     0.0532    15.7492 </r>
       <r>    33.8948     0.1599    15.7733 </r>
       <r>    34.0456     0.2354    15.8088 </r>
       <r>    34.1965     0.1369    15.8294 </r>
       <r>    34.3473     0.1872    15.8577 </r>
       <r>    34.4982     0.1303    15.8773 </r>
       <r>    34.6490     0.0825    15.8898 </r>
       <r>    34.7999     0.0009    15.8899 </r>
       <r>    34.9507     0.1788    15.9169 </r>
       <r>    35.1016     0.0521    15.9248 </r>
       <r>    35.2524     0.0039    15.9253 </r>
       <r>    35.4033     0.0577    15.9340 </r>
       <r>    35.5541     0.0601    15.9431 </r>
       <r>    35.7050     0.0858    15.9561 </r>
       <r>    35.8559     0.1263    15.9751 </r>
       <r>    36.0067     0.0267    15.9791 </r>
       <r>    36.1576     0.0676    15.9893 </r>
       <r>    36.3084     0.0000    15.9893 </r>
       <r>    36.4593     0.0000    15.9893 </r>
       <r>    36.6101     0.0015    15.9896 </r>
       <r>    36.7610     0.0452    15.9964 </r>
       <r>    36.9118     0.0018    15.9967 </r>
       <r>    37.0627     0.0221    16.0000 </r>
       <r>    37.2135     0.0001    16.0000 </r>
       <r>    37.3644     0.0000    16.0000 </r>
       <r>    37.5152     0.0000    16.0000 </r>
       <r>    37.6661     0.0000    16.0000 </r>
       <r>    37.8169     0.0000    16.0000 </r>
       <r>    37.9678     0.0000    16.0000 </r>
       <r>    38.1186     0.0000    16.0000 </r>
       <r>    38.2695     0.0000    16.0000 </r>
       <r>    38.4203     0.0000    16.0000 </r>
       <r>    38.5712     0.0000    16.0000 </r>
       <r>    38.7220     0.0000    16.0000 </r>
       <r>    38.8729     0.0000    16.0000 </r>
       <r>    39.0237     0.0000    16.0000 </r>
      </set>
     </set>
    </array>
   </total>
  </dos>
 </calculation>
 <structure name="finalpos" >
  <crystal>
   <varray name="basis" >
    <v>       2.34739500       0.00000000       1.35526800 </v>
    <v>       0.78246500       2.21314500       1.35526800 </v>
    <v>       0.00000000       0.00000000       2.71053800 </v>
   </varray>
   <i name="volume">     14.08158510 </i>
   <varray name="rec_basis" >
    <v>       0.42600415      -0.15061523       0.00000000 </v>
    <v>       0.00000000       0.45184568       0.00000000 </v>
    <v>      -0.21300192      -0.15061511       0.36893045 </v>
   </varray>
  </crystal>
  <varray name="positions" >
   <v>       0.00000000       0.00000000       0.00000000 </v>
  </varray>
 </structure>
</modeling>
