 running on    4 total cores
 distrk:  each k-point on    4 cores,    1 groups
 distr:  one band on    1 cores,    4 groups
 vasp.6.2.0 18Jan21 (build Aug 12 2022 13:00:08) complex                        
  
 POSCAR found type information on POSCAR Si
 POSCAR found :  1 types and       1 ions
 scaLAPACK will be used
 LDA part: xc-table for Pade appr. of Perdew
 POSCAR, INCAR and KPOINTS ok, starting setup
 FFT: planning ...
 WAVECAR not read
 entering main loop
       N       E                     dE             d eps       ncg     rms          rms(c)
DAV:   1    -0.176522959023E+01   -0.17652E+01   -0.20941E+03  2016   0.494E+02
DAV:   2    -0.488676875969E+01   -0.31215E+01   -0.30487E+01  2840   0.353E+01
DAV:   3    -0.490315157240E+01   -0.16383E-01   -0.16381E-01  2248   0.276E+00
DAV:   4    -0.490316720460E+01   -0.15632E-04   -0.15633E-04  3192   0.959E-02
DAV:   5    -0.490316720718E+01   -0.25793E-08   -0.23296E-08  2280   0.736E-04    0.279E+00
DAV:   6    -0.488957002875E+01    0.13597E-01   -0.39112E-03  2368   0.276E-01    0.154E+00
DAV:   7    -0.488176803884E+01    0.78020E-02   -0.79073E-03  2280   0.392E-01    0.136E-01
DAV:   8    -0.488172885513E+01    0.39184E-04   -0.28233E-05  3088   0.436E-02    0.148E-02
DAV:   9    -0.488172918135E+01   -0.32623E-06   -0.31256E-07  2344   0.335E-03
   1 F= -.48817292E+01 E0= -.48813347E+01  d E =-.488173E+01
 curvature:   0.00 expect dE= 0.000E+00 dE for cont linesearch  0.000E+00
 trial: gam= 0.00000 g(F)=  0.733E-65 g(S)=  0.000E+00 ort = 0.000E+00 (trialstep = 0.100E+01)
 search vector abs. value=  0.100E-09
 reached required accuracy - stopping structural energy minimisation
