   1   1   0   0
  0.1514847E+02  0.2699792E-09  0.2699792E-09  0.2699792E-09  0.5000000E-15
  1.000000000000000E-004
  CAR 
 unknown system                          
     35.03250226     -6.33322654  301      9.44965411      1.00000000
     -6.333  0.0000E+00  0.0000E+00
     -6.195  0.0000E+00  0.0000E+00
     -6.057  0.0000E+00  0.0000E+00
     -5.920  0.0000E+00  0.0000E+00
     -5.782  0.0000E+00  0.0000E+00
     -5.644  0.0000E+00  0.0000E+00
     -5.506  0.0000E+00  0.0000E+00
     -5.368  0.0000E+00  0.0000E+00
     -5.230  0.0000E+00  0.0000E+00
     -5.092  0.0000E+00  0.0000E+00
     -4.954  0.0000E+00  0.0000E+00
     -4.816  0.0000E+00  0.0000E+00
     -4.679  0.9535E-14  0.1315E-14
     -4.541  0.7122E-06  0.9821E-07
     -4.403  0.9976E-04  0.1385E-04
     -4.265  0.7114E-04  0.2366E-04
     -4.127  0.1228E-02  0.1930E-03
     -3.989  0.1473E-03  0.2134E-03
     -3.851  0.5226E-03  0.2854E-03
     -3.713  0.1299E-02  0.4646E-03
     -3.576  0.1318E-02  0.6463E-03
     -3.438  0.1042E-02  0.7900E-03
     -3.300  0.2992E-03  0.8312E-03
     -3.162  0.2459E-02  0.1170E-02
     -3.024  0.1976E-03  0.1198E-02
     -2.886  0.7910E-03  0.1307E-02
     -2.748  0.1633E-02  0.1532E-02
     -2.610  0.3601E-02  0.2028E-02
     -2.472  0.4239E-03  0.2087E-02
     -2.335  0.2480E-03  0.2121E-02
     -2.197  0.3502E-02  0.2604E-02
     -2.059  0.5111E-03  0.2674E-02
     -1.921  0.2469E-02  0.3015E-02
     -1.783  0.5671E-03  0.3093E-02
     -1.645  0.2086E-02  0.3381E-02
     -1.507  0.1385E-02  0.3571E-02
     -1.369  0.1248E-02  0.3743E-02
     -1.231  0.6566E-02  0.4649E-02
     -1.094  0.1267E-02  0.4823E-02
     -0.956  0.5912E-08  0.4823E-02
     -0.818  0.7661E-03  0.4929E-02
     -0.680  0.4453E-02  0.5543E-02
     -0.542  0.6273E-03  0.5630E-02
     -0.404  0.6980E-03  0.5726E-02
     -0.266  0.4212E-02  0.6307E-02
     -0.128  0.1075E-02  0.6455E-02
      0.010  0.3096E-02  0.6882E-02
      0.147  0.1159E-02  0.7042E-02
      0.285  0.6778E-02  0.7976E-02
      0.423  0.1186E-02  0.8140E-02
      0.561  0.1458E-02  0.8341E-02
      0.699  0.4323E-02  0.8937E-02
      0.837  0.9555E-03  0.9068E-02
      0.975  0.2480E-02  0.9410E-02
      1.113  0.9544E-03  0.9542E-02
      1.250  0.4348E-02  0.1014E-01
      1.388  0.4459E-03  0.1020E-01
      1.526  0.4601E-03  0.1027E-01
      1.664  0.7872E-02  0.1135E-01
      1.802  0.1439E-02  0.1155E-01
      1.940  0.2413E-02  0.1188E-01
      2.078  0.2697E-02  0.1225E-01
      2.216  0.7781E-02  0.1333E-01
      2.354  0.3801E-02  0.1385E-01
      2.491  0.1465E-02  0.1405E-01
      2.629  0.2452E-02  0.1439E-01
      2.767  0.4613E-03  0.1446E-01
      2.905  0.2278E-02  0.1477E-01
      3.043  0.2504E-02  0.1512E-01
      3.181  0.2737E-02  0.1549E-01
      3.319  0.3196E-02  0.1593E-01
      3.457  0.2855E-02  0.1633E-01
      3.595  0.4950E-02  0.1701E-01
      3.732  0.2309E-02  0.1733E-01
      3.870  0.8156E-02  0.1845E-01
      4.008  0.1077E-03  0.1847E-01
      4.146  0.1009E-03  0.1848E-01
      4.284  0.9021E-02  0.1973E-01
      4.422  0.2652E-02  0.2009E-01
      4.560  0.2191E-02  0.2039E-01
      4.698  0.1182E-02  0.2056E-01
      4.836  0.7014E-02  0.2152E-01
      4.973  0.1891E-02  0.2178E-01
      5.111  0.4281E-02  0.2237E-01
      5.249  0.2066E-02  0.2266E-01
      5.387  0.2098E-02  0.2295E-01
      5.525  0.1938E-02  0.2322E-01
      5.663  0.4082E-02  0.2378E-01
      5.801  0.5507E-02  0.2454E-01
      5.939  0.3481E-02  0.2502E-01
      6.076  0.2713E-02  0.2539E-01
      6.214  0.7566E-02  0.2644E-01
      6.352  0.3144E-02  0.2687E-01
      6.490  0.5758E-02  0.2766E-01
      6.628  0.1956E-02  0.2793E-01
      6.766  0.3347E-02  0.2839E-01
      6.904  0.4921E-02  0.2907E-01
      7.042  0.2184E-02  0.2937E-01
      7.180  0.5751E-02  0.3017E-01
      7.317  0.5637E-02  0.3094E-01
      7.455  0.2599E-02  0.3130E-01
      7.593  0.4829E-02  0.3197E-01
      7.731  0.6833E-03  0.3206E-01
      7.869  0.4908E-02  0.3274E-01
      8.007  0.5032E-02  0.3343E-01
      8.145  0.2083E-02  0.3372E-01
      8.283  0.7142E-02  0.3470E-01
      8.421  0.4295E-02  0.3530E-01
      8.558  0.6313E-02  0.3617E-01
      8.696  0.2169E-02  0.3647E-01
      8.834  0.2841E-02  0.3686E-01
      8.972  0.3562E-02  0.3735E-01
      9.110  0.3252E-02  0.3780E-01
      9.248  0.8602E-02  0.3898E-01
      9.386  0.2815E-02  0.3937E-01
      9.524  0.9149E-02  0.4063E-01
      9.662  0.6946E-02  0.4159E-01
      9.799  0.6118E-02  0.4244E-01
      9.937  0.1883E-02  0.4269E-01
     10.075  0.4478E-02  0.4331E-01
     10.213  0.2559E-02  0.4367E-01
     10.351  0.3748E-02  0.4418E-01
     10.489  0.4230E-02  0.4477E-01
     10.627  0.6912E-02  0.4572E-01
     10.765  0.1559E-02  0.4593E-01
     10.902  0.3233E-02  0.4638E-01
     11.040  0.2859E-02  0.4677E-01
     11.178  0.6094E-02  0.4761E-01
     11.316  0.4833E-02  0.4828E-01
     11.454  0.2232E-02  0.4859E-01
     11.592  0.4827E-02  0.4925E-01
     11.730  0.6343E-02  0.5013E-01
     11.868  0.6023E-02  0.5096E-01
     12.006  0.1036E-01  0.5239E-01
     12.143  0.4021E-02  0.5294E-01
     12.281  0.1930E-02  0.5321E-01
     12.419  0.6619E-03  0.5330E-01
     12.557  0.2861E-02  0.5369E-01
     12.695  0.6010E-02  0.5452E-01
     12.833  0.6949E-02  0.5548E-01
     12.971  0.3081E-02  0.5591E-01
     13.109  0.6133E-02  0.5675E-01
     13.247  0.9025E-02  0.5800E-01
     13.384  0.6351E-02  0.5887E-01
     13.522  0.3209E-02  0.5931E-01
     13.660  0.2140E-02  0.5961E-01
     13.798  0.5643E-02  0.6039E-01
     13.936  0.9557E-02  0.6170E-01
     14.074  0.2996E-02  0.6212E-01
     14.212  0.1837E-02  0.6237E-01
     14.350  0.2655E-02  0.6274E-01
     14.488  0.1792E-02  0.6298E-01
     14.625  0.6456E-02  0.6387E-01
     14.763  0.6598E-02  0.6478E-01
     14.901  0.4124E-02  0.6535E-01
     15.039  0.1242E-01  0.6706E-01
     15.177  0.7649E-02  0.6812E-01
     15.315  0.5731E-02  0.6891E-01
     15.453  0.8919E-02  0.7014E-01
     15.591  0.2225E-02  0.7045E-01
     15.728  0.1122E-02  0.7060E-01
     15.866  0.4655E-02  0.7124E-01
     16.004  0.5437E-02  0.7199E-01
     16.142  0.8931E-02  0.7322E-01
     16.280  0.3701E-02  0.7373E-01
     16.418  0.1116E-01  0.7527E-01
     16.556  0.6294E-02  0.7614E-01
     16.694  0.2432E-02  0.7648E-01
     16.832  0.5636E-02  0.7725E-01
     16.969  0.3111E-02  0.7768E-01
     17.107  0.7397E-02  0.7870E-01
     17.245  0.8281E-02  0.7984E-01
     17.383  0.6855E-02  0.8079E-01
     17.521  0.6808E-02  0.8173E-01
     17.659  0.3927E-02  0.8227E-01
     17.797  0.6678E-02  0.8319E-01
     17.935  0.2521E-02  0.8354E-01
     18.073  0.3747E-02  0.8405E-01
     18.210  0.7828E-03  0.8416E-01
     18.348  0.4013E-04  0.8417E-01
     18.486  0.2618E-02  0.8453E-01
     18.624  0.3782E-02  0.8505E-01
     18.762  0.1951E-02  0.8532E-01
     18.900  0.2203E-02  0.8562E-01
     19.038  0.7667E-02  0.8668E-01
     19.176  0.1138E-01  0.8825E-01
     19.314  0.7356E-02  0.8926E-01
     19.451  0.5710E-02  0.9005E-01
     19.589  0.1306E-01  0.9185E-01
     19.727  0.4168E-02  0.9243E-01
     19.865  0.7949E-02  0.9352E-01
     20.003  0.1908E-02  0.9379E-01
     20.141  0.4746E-02  0.9444E-01
     20.279  0.2542E-02  0.9479E-01
     20.417  0.1200E-02  0.9496E-01
     20.554  0.1107E-01  0.9648E-01
     20.692  0.1721E-01  0.9886E-01
     20.830  0.1523E-02  0.9907E-01
     20.968  0.5662E-02  0.9985E-01
     21.106  0.5667E-02  0.1006E+00
     21.244  0.7717E-02  0.1017E+00
     21.382  0.9374E-02  0.1030E+00
     21.520  0.8634E-02  0.1042E+00
     21.658  0.5811E-02  0.1050E+00
     21.795  0.1089E-02  0.1051E+00
     21.933  0.4155E-02  0.1057E+00
     22.071  0.8787E-02  0.1069E+00
     22.209  0.9623E-02  0.1082E+00
     22.347  0.6660E-02  0.1092E+00
     22.485  0.3957E-02  0.1097E+00
     22.623  0.9069E-02  0.1110E+00
     22.761  0.5932E-02  0.1118E+00
     22.899  0.5004E-02  0.1125E+00
     23.036  0.9829E-02  0.1138E+00
     23.174  0.8103E-02  0.1149E+00
     23.312  0.4165E-02  0.1155E+00
     23.450  0.2175E-02  0.1158E+00
     23.588  0.4830E-02  0.1165E+00
     23.726  0.6787E-02  0.1174E+00
     23.864  0.8832E-02  0.1186E+00
     24.002  0.3622E-02  0.1191E+00
     24.140  0.8182E-02  0.1203E+00
     24.277  0.7248E-02  0.1213E+00
     24.415  0.3653E-02  0.1218E+00
     24.553  0.5317E-02  0.1225E+00
     24.691  0.4405E-02  0.1231E+00
     24.829  0.2275E-02  0.1234E+00
     24.967  0.2661E-02  0.1238E+00
     25.105  0.5237E-02  0.1245E+00
     25.243  0.1148E-01  0.1261E+00
     25.380  0.1389E-01  0.1280E+00
     25.518  0.8851E-02  0.1292E+00
     25.656  0.2100E-02  0.1295E+00
     25.794  0.4716E-02  0.1302E+00
     25.932  0.6272E-02  0.1310E+00
     26.070  0.7650E-02  0.1321E+00
     26.208  0.7993E-02  0.1332E+00
     26.346  0.5027E-02  0.1339E+00
     26.484  0.6550E-02  0.1348E+00
     26.621  0.9112E-02  0.1360E+00
     26.759  0.5345E-02  0.1368E+00
     26.897  0.1137E-01  0.1383E+00
     27.035  0.2895E-02  0.1387E+00
     27.173  0.5637E-02  0.1395E+00
     27.311  0.2319E-02  0.1398E+00
     27.449  0.6169E-02  0.1407E+00
     27.587  0.5292E-02  0.1414E+00
     27.725  0.1406E-02  0.1416E+00
     27.862  0.4309E-02  0.1422E+00
     28.000  0.4975E-02  0.1429E+00
     28.138  0.1662E-01  0.1452E+00
     28.276  0.1468E-01  0.1472E+00
     28.414  0.7573E-02  0.1483E+00
     28.552  0.2435E-02  0.1486E+00
     28.690  0.7396E-02  0.1496E+00
     28.828  0.5513E-02  0.1504E+00
     28.966  0.8166E-02  0.1515E+00
     29.103  0.6627E-02  0.1524E+00
     29.241  0.2466E-02  0.1527E+00
     29.379  0.6033E-02  0.1536E+00
     29.517  0.3950E-02  0.1541E+00
     29.655  0.7329E-02  0.1551E+00
     29.793  0.7578E-02  0.1562E+00
     29.931  0.5950E-02  0.1570E+00
     30.069  0.1855E-02  0.1573E+00
     30.207  0.2933E-02  0.1577E+00
     30.344  0.4853E-02  0.1583E+00
     30.482  0.3540E-03  0.1584E+00
     30.620  0.1866E-09  0.1584E+00
     30.758  0.2857E-05  0.1584E+00
     30.896  0.3519E-02  0.1589E+00
     31.034  0.4360E-02  0.1595E+00
     31.172  0.8366E-03  0.1596E+00
     31.310  0.6942E-07  0.1596E+00
     31.447  0.0000E+00  0.1596E+00
     31.585  0.3668E-11  0.1596E+00
     31.723  0.2742E-04  0.1596E+00
     31.861  0.8264E-03  0.1597E+00
     31.999  0.1802E-04  0.1597E+00
     32.137  0.1242E-11  0.1597E+00
     32.275  0.0000E+00  0.1597E+00
     32.413  0.0000E+00  0.1597E+00
     32.551  0.1126E-13  0.1597E+00
     32.688  0.2095E-05  0.1597E+00
     32.826  0.5732E-03  0.1598E+00
     32.964  0.3648E-03  0.1598E+00
     33.102  0.4357E-03  0.1599E+00
     33.240  0.7981E-03  0.1600E+00
     33.378  0.5698E-05  0.1600E+00
     33.516  0.7628E-13  0.1600E+00
     33.654  0.0000E+00  0.1600E+00
     33.792  0.0000E+00  0.1600E+00
     33.929  0.0000E+00  0.1600E+00
     34.067  0.0000E+00  0.1600E+00
     34.205  0.0000E+00  0.1600E+00
     34.343  0.0000E+00  0.1600E+00
     34.481  0.0000E+00  0.1600E+00
     34.619  0.0000E+00  0.1600E+00
     34.757  0.0000E+00  0.1600E+00
     34.895  0.0000E+00  0.1600E+00
     35.033  0.0000E+00  0.1600E+00
