    1    1  100    1
  0.1514847E+02  0.2699792E-09  0.2699792E-09  0.2699792E-09  0.5000000E-15
  1.000000000000000E-004
  CAR 
 unknown system                          
      4     56      8
 
  0.0000000E+00  0.0000000E+00  0.0000000E+00  0.7513148E-03
    1       -4.452966   1.000000
    2       20.390568   0.000000
    3       20.390568   0.000000
    4       20.390568   0.000000
    5       21.850852   0.000000
    6       21.850853   0.000000
    7       21.850853   0.000000
    8       25.463965   0.000000
 
  0.9090909E-01  0.0000000E+00  0.0000000E+00  0.9015778E-02
    1       -4.206053   1.000000
    2       18.070413   0.000000
    3       18.900670   0.000000
    4       20.074663   0.000000
    5       21.103282   0.000000
    6       22.584180   0.000000
    7       23.762865   0.000000
    8       24.343965   0.000000
 
  0.1818182E+00  0.0000000E+00  0.0000000E+00  0.9015778E-02
    1       -3.467080   1.000000
    2       14.428773   0.000000
    3       17.267854   0.000000
    4       19.289645   0.000000
    5       19.713692   0.000000
    6       21.578466   0.000000
    7       25.041196   0.000000
    8       25.366106   0.000000
 
  0.2727273E+00  0.0000000E+00  0.0000000E+00  0.9015778E-02
    1       -2.241545   1.000000
    2       10.736653   0.000000
    3       16.023111   0.000000
    4       18.414875   0.000000
    5       18.460561   0.000000
    6       20.402160   0.000000
    7       26.140137   0.000000
    8       26.436911   0.000000
 
  0.3636364E+00  0.0000000E+00  0.0000000E+00  0.9015778E-02
    1       -0.539448   1.000000
    2        7.317996   1.000000
    3       15.190786   0.000000
    4       17.569680   0.000000
    5       17.733019   0.000000
    6       19.568080   0.000000
    7       27.427524   0.000000
    8       28.070630   0.000000
 
  0.4545455E+00  0.0000000E+00  0.0000000E+00  0.9015778E-02
    1        1.614452   1.000000
    2        4.291301   1.000000
    3       14.774205   0.000000
    4       17.109333   0.000000
    5       17.369954   0.000000
    6       19.139152   0.000000
    7       28.952410   0.000000
    8       29.585521   0.000000
 
  0.9090909E-01  0.9090909E-01  0.0000000E+00  0.1803156E-01
    1       -3.713095   1.000000
    2       16.106210   0.000000
    3       16.730682   0.000000
    4       18.627276   0.000000
    5       21.315210   0.000000
    6       22.687071   0.000000
    7       23.872084   0.000000
    8       25.038687   0.000000
 
  0.1818182E+00  0.9090909E-01  0.0000000E+00  0.3606311E-01
    1       -2.730797   1.000000
    2       12.702040   0.000000
    3       14.988077   0.000000
    4       17.380473   0.000000
    5       20.660155   0.000000
    6       22.132949   0.000000
    7       24.434212   0.000000
    8       26.825508   0.000000
 
  0.2727273E+00  0.9090909E-01 -0.2081668E-16  0.3606311E-01
    1       -1.266684   1.000000
    2        9.150982   1.000000
    3       13.890495   0.000000
    4       16.392126   0.000000
    5       19.785505   0.000000
    6       21.627993   0.000000
    7       25.297347   0.000000
    8       28.632170   0.000000
 
  0.3636364E+00  0.9090909E-01  0.6938894E-17  0.3606311E-01
    1        0.665502   1.000000
    2        5.923512   1.000000
    3       13.232207   0.000000
    4       15.771028   0.000000
    5       19.186219   0.000000
    6       21.209181   0.000000
    7       26.769265   0.000000
    8       29.678477   0.000000
 
  0.4545455E+00  0.9090909E-01  0.3469447E-16  0.1803156E-01
    1        2.807739   1.000000
    2        3.344663   1.000000
    3       13.012223   0.000000
    4       15.560856   0.000000
    5       18.979918   0.000000
    6       21.051731   0.000000
    7       28.459674   0.000000
    8       28.690163   0.000000
 
  0.1818182E+00  0.1818182E+00  0.0000000E+00  0.1803156E-01
    1       -1.509739   1.000000
    2       11.156179   0.000000
    3       11.652651   0.000000
    4       16.198145   0.000000
    5       21.196911   0.000000
    6       22.209596   0.000000
    7       25.961243   0.000000
    8       27.124911   0.000000
 
  0.2727273E+00  0.1818182E+00 -0.2775558E-16  0.3606311E-01
    1        0.186185   1.000000
    2        7.995710   1.000000
    3       10.524666   0.000000
    4       15.383522   0.000000
    5       20.889941   0.000000
    6       22.936115   0.000000
    7       26.199114   0.000000
    8       28.840865   0.000000
 
  0.3636364E+00  0.1818182E+00  0.2775558E-16  0.3606311E-01
    1        2.332352   1.000000
    2        4.993440   1.000000
    3       10.061080   0.000000
    4       14.965429   0.000000
    5       20.545192   0.000000
    6       23.747986   0.000000
    7       26.584103   0.000000
    8       28.323208   0.000000
 
  0.2727273E+00  0.2727273E+00  0.0000000E+00  0.1803156E-01
    1        2.102316   1.000000
    2        7.108613   1.000000
    3        7.540657   1.000000
    4       14.770390   0.000000
    5       22.070966   0.000000
    6       23.108319   0.000000
    7       26.870513   0.000000
    8       29.084689   0.000000
 
  0.3636364E+00  0.2727273E+00 -0.2775558E-16  0.1803156E-01
    1        4.223532   1.000000
    2        4.748553   1.000000
    3        7.118235   1.000000
    4       14.561992   0.000000
    5       22.235224   0.000000
    6       24.259271   0.000000
    7       25.331392   0.000000
    8       29.918055   0.000000
 
  0.9090909E-01  0.9090909E-01  0.9090909E-01  0.6010518E-02
    1       -2.975953   1.000000
    2       14.254192   0.000000
    3       15.270898   0.000000
    4       15.270898   0.000000
    5       23.127623   0.000000
    6       23.127623   0.000000
    7       25.298608   0.000000
    8       25.298609   0.000000
 
  0.1818182E+00  0.9090909E-01  0.9090909E-01  0.1803156E-01
    1       -1.753407   1.000000
    2       11.153994   0.000000
    3       13.367478   0.000000
    4       14.014240   0.000000
    5       22.975492   0.000000
    6       23.424254   0.000000
    7       26.383137   0.000000
    8       26.559239   0.000000
 
  0.2727273E+00  0.9090909E-01  0.9090909E-01  0.1803156E-01
    1       -0.055369   1.000000
    2        7.776297   1.000000
    3       12.448619   0.000000
    4       13.139156   0.000000
    5       22.612596   0.000000
    6       22.878743   0.000000
    7       27.844753   0.000000
    8       28.226837   0.000000
 
  0.3636364E+00  0.9090909E-01  0.9090909E-01  0.1803156E-01
    1        2.093677   1.000000
    2        4.761646   1.000000
    3       11.999776   0.000000
    4       12.694145   0.000000
    5       22.357647   0.000000
    6       22.540713   0.000000
    7       29.260413   0.000000
    8       29.808301   0.000000
 
 -0.9090909E-01  0.9090909E-01  0.9090909E-01  0.4507889E-02
    1       -3.959397   1.000000
    2       17.606121   0.000000
    3       17.606121   0.000000
    4       18.728342   0.000000
    5       21.904192   0.000000
    6       22.340194   0.000000
    7       23.490090   0.000000
    8       23.490090   0.000000
 
  0.1818182E+00  0.1818182E+00  0.9090909E-01  0.1803156E-01
    1       -0.296558   1.000000
    2        9.806058   0.000000
    3       10.334977   0.000000
    4       12.634058   0.000000
    5       23.987125   0.000000
    6       24.920196   0.000000
    7       27.054887   0.000000
    8       27.928796   0.000000
 
  0.2727273E+00  0.1818182E+00  0.9090909E-01  0.3606311E-01
    1        1.625987   1.000000
    2        6.844480   1.000000
    3        9.410215   0.867681
    4       11.957302   0.000000
    5       24.113087   0.000000
    6       25.466043   0.000000
    7       28.116792   0.000000
    8       29.520498   0.000000
 
  0.3636364E+00  0.1818182E+00  0.9090909E-01  0.1803156E-01
    1        3.759239   1.000000
    2        4.285930   1.000000
    3        9.172980   1.000000
    4       11.732457   0.000000
    5       24.042339   0.000000
    6       25.652777   0.000000
    7       29.013425   0.000000
    8       29.697906   0.000000
 
 -0.1818182E+00  0.1818182E+00  0.9090909E-01  0.1803156E-01
    1       -3.221255   1.000000
    2       14.554073   0.000000
    3       15.981075   0.000000
    4       18.008180   0.000000
    5       20.606757   0.000000
    6       21.407904   0.000000
    7       23.762044   0.000000
    8       25.925516   0.000000
 
  0.2727273E+00  0.2727273E+00  0.9090909E-01  0.1803156E-01
    1        3.746408   1.000000
    2        6.197211   1.000000
    3        6.626574   1.000000
    4       11.499828   0.000000
    5       25.270892   0.000000
    6       26.656495   0.000000
    7       28.283271   0.000000
    8       30.293418   0.000000
 
 -0.2727273E+00  0.2727273E+00  0.9090909E-01  0.1803156E-01
    1       -1.997147   1.000000
    2       10.940453   0.000000
    3       14.707477   0.000000
    4       17.123839   0.000000
    5       20.211715   0.000000
    6       20.565989   0.000000
    7       23.601670   0.000000
    8       29.079861   0.000000
 
 -0.1818182E+00  0.2727273E+00  0.9090909E-01  0.1803156E-01
    1       -2.241228   1.000000
    2       12.867668   0.000000
    3       13.257900   0.000000
    4       17.521446   0.000000
    5       19.499823   0.000000
    6       21.025816   0.000000
    7       25.359510   0.000000
    8       26.351571   0.000000
 
 -0.3636364E+00  0.3636364E+00  0.9090909E-01  0.1803156E-01
    1       -0.297084   1.000000
    2        7.543261   1.000000
    3       13.847482   0.000000
    4       16.354958   0.000000
    5       19.356103   0.000000
    6       20.610079   0.000000
    7       24.208467   0.000000
    8       29.381966   0.000000
 
 -0.2727273E+00  0.3636364E+00  0.9090909E-01  0.3606311E-01
    1       -0.780611   1.000000
    2        9.576510   0.000167
    3       11.977929   0.000000
    4       17.022120   0.000000
    5       19.497975   0.000000
    6       20.567031   0.000000
    7       25.138798   0.000000
    8       28.232305   0.000000
 
 -0.4545455E+00  0.4545455E+00  0.9090909E-01  0.1803156E-01
    1        1.854334   1.000000
    2        4.524663   1.000000
    3       13.415409   0.000000
    4       15.943025   0.000000
    5       18.917151   0.000000
    6       20.510728   0.000000
    7       25.705698   0.000000
    8       27.724137   0.000000
 
 -0.3636364E+00  0.4545455E+00  0.9090909E-01  0.3606311E-01
    1        1.146747   1.000000
    2        6.381397   1.000000
    3       11.300887   0.000000
    4       16.506125   0.000000
    5       19.167759   0.000000
    6       21.469295   0.000000
    7       24.677501   0.000000
    8       27.354052   0.000000
 
 -0.2727273E+00  0.4545455E+00  0.9090909E-01  0.1803156E-01
    1        0.908600   1.000000
    2        8.476913   1.000000
    3        8.883565   1.000000
    4       17.269910   0.000000
    5       19.664874   0.000000
    6       20.055609   0.000000
    7       25.805975   0.000000
    8       28.117625   0.000000
 
 -0.4545455E+00 -0.4545455E+00  0.9090909E-01  0.1803156E-01
    1        3.289206   1.000000
    2        3.808215   1.000000
    3       11.075877   0.000000
    4       16.316376   0.000000
    5       18.989274   0.000000
    6       22.203179   0.000000
    7       24.542836   0.000000
    8       26.355276   0.000000
 
 -0.3636364E+00 -0.4545455E+00  0.9090909E-01  0.3606311E-01
    1        3.045020   1.000000
    2        5.682214   1.000000
    3        8.239081   1.000000
    4       17.137166   0.000000
    5       19.517313   0.000000
    6       21.314297   0.000000
    7       23.595536   0.000000
    8       28.847257   0.000000
 
 -0.3636364E+00 -0.3636364E+00  0.9090909E-01  0.6010518E-02
    1        4.984510   1.000000
    2        5.667927   1.000000
    3        5.667927   1.000000
    4       17.225247   0.000000
    5       20.845679   0.000000
    6       21.424091   0.000000
    7       21.424091   0.000000
    8       31.789002   0.000000
 
  0.1818182E+00  0.1818182E+00  0.1818182E+00  0.6010518E-02
    1        1.388243   1.000000
    2        8.715496   1.000000
    3        9.432613   0.685099
    4        9.432613   0.685099
    5       26.564223   0.000000
    6       26.564223   0.000000
    7       28.673062   0.000000
    8       28.673062   0.000000
 
  0.2727273E+00  0.1818182E+00  0.1818182E+00  0.1803156E-01
    1        3.517898   1.000000
    2        6.150303   1.000000
    3        8.544046   1.000000
    4        8.976714   1.000000
    5       27.169798   0.000000
    6       27.503718   0.000000
    7       29.902372   0.000000
    8       30.119662   0.000000
 
 -0.1818182E+00  0.1818182E+00  0.1818182E+00  0.4507889E-02
    1       -2.485654   1.000000
    2       14.334414   0.000000
    3       14.334415   0.000000
    4       15.975597   0.000000
    5       18.028871   0.000000
    6       23.780026   0.000000
    7       25.161484   0.000000
    8       25.161484   0.000000
 
  0.2727273E+00  0.2727273E+00  0.1818182E+00  0.6010518E-02
    1        5.411115   1.000000
    2        6.166037   1.000000
    3        6.166037   1.000000
    4        8.553799   1.000000
    5       28.250761   0.000000
    6       29.585419   0.000000
    7       29.585419   0.000000
    8       31.038093   0.000000
 
 -0.2727273E+00  0.2727273E+00  0.1818182E+00  0.1803156E-01
    1       -1.265858   1.000000
    2       11.501444   0.000000
    3       13.039823   0.000000
    4       15.326023   0.000000
    5       17.459837   0.000000
    6       23.169782   0.000000
    7       25.148533   0.000000
    8       27.868614   0.000000
 
 -0.3636364E+00  0.3636364E+00  0.1818182E+00  0.1803156E-01
    1        0.428003   1.000000
    2        8.207982   1.000000
    3       12.165801   0.000000
    4       14.621858   0.000000
    5       18.523740   0.000000
    6       22.367436   0.000000
    7       24.153581   0.000000
    8       26.901282   0.000000
 
 -0.2727273E+00  0.3636364E+00  0.1818182E+00  0.1803156E-01
    1        0.187562   1.000000
    2       10.232880   0.000000
    3       10.550479   0.000000
    4       15.346866   0.000000
    5       16.683067   0.000000
    6       22.927857   0.000000
    7       25.179126   0.000000
    8       27.516114   0.000000
 
 -0.4545455E+00  0.4545455E+00  0.1818182E+00  0.1803156E-01
    1        2.571329   1.000000
    2        5.220669   1.000000
    3       11.726824   0.000000
    4       14.201110   0.000000
    5       19.993463   0.000000
    6       21.946748   0.000000
    7       22.776847   0.000000
    8       25.989270   0.000000
 
 -0.3636364E+00  0.4545455E+00  0.1818182E+00  0.3606311E-01
    1        2.104357   1.000000
    2        7.280302   1.000000
    3        9.729466   0.000000
    4       15.158705   0.000000
    5       17.736304   0.000000
    6       21.942841   0.000000
    7       23.176544   0.000000
    8       28.085198   0.000000
 
 -0.4545455E+00 -0.4545455E+00  0.1818182E+00  0.1803156E-01
    1        4.243270   1.000000
    2        4.729805   1.000000
    3        9.498959   0.081575
    4       14.985012   0.000000
    5       19.106988   0.000000
    6       20.534626   0.000000
    7       22.621025   0.000000
    8       28.060497   0.000000
 
 -0.3636364E+00 -0.4545455E+00  0.1818182E+00  0.1803156E-01
    1        4.217797   1.000000
    2        6.654249   1.000000
    3        7.023400   1.000000
    4       16.366737   0.000000
    5       17.832059   0.000000
    6       19.792941   0.000000
    7       22.565168   0.000000
    8       30.867189   0.000000
 
 -0.2727273E+00  0.2727273E+00  0.2727273E+00  0.4507889E-02
    1       -0.053432   1.000000
    2       11.733254   0.000000
    3       11.733254   0.000000
    4       13.532304   0.000000
    5       15.056239   0.000000
    6       24.814750   0.000000
    7       26.140720   0.000000
    8       27.315153   0.000000
 
 -0.3636364E+00  0.3636364E+00  0.2727273E+00  0.1803156E-01
    1        1.629002   1.000000
    2        9.248035   1.000000
    3       10.852392   0.000000
    4       13.154709   0.000000
    5       15.120786   0.000000
    6       21.972694   0.000000
    7       25.848996   0.000000
    8       28.099305   0.000000
 
 -0.4545455E+00  0.4545455E+00  0.2727273E+00  0.1803156E-01
    1        3.755868   1.000000
    2        6.362481   1.000000
    3       10.410090   0.000000
    4       12.802459   0.000000
    5       16.786817   0.000000
    6       19.348927   0.000000
    7       25.457060   0.000000
    8       28.211470   0.000000
 
 -0.3636364E+00  0.4545455E+00  0.2727273E+00  0.1803156E-01
    1        3.526630   1.000000
    2        8.427800   1.000000
    3        8.722495   1.000000
    4       13.667898   0.000000
    5       14.766653   0.000000
    6       19.084643   0.000000
    7       26.166408   0.000000
    8       30.289612   0.000000
 
 -0.4545455E+00 -0.4545455E+00  0.2727273E+00  0.1803156E-01
    1        5.646099   1.000000
    2        6.090544   1.000000
    3        8.364635   1.000000
    4       13.805811   0.000000
    5       16.102424   0.000000
    6       16.898170   0.000000
    7       26.047419   0.000000
    8       30.891303   0.000000
 
 -0.3636364E+00  0.3636364E+00  0.3636364E+00  0.4507889E-02
    1        3.292622   1.000000
    2        9.967814   0.000000
    3        9.967814   0.000000
    4       11.767750   0.000000
    5       13.060645   0.000000
    6       18.854275   0.000000
    7       29.329365   0.000000
    8       30.092090   0.000000
 
 -0.4545455E+00  0.4545455E+00  0.3636364E+00  0.1803156E-01
    1        5.386218   1.000000
    2        7.882665   1.000000
    3        9.524063   0.017664
    4       11.759141   0.000000
    5       13.684030   0.000000
    6       16.068740   0.000000
    7       29.288558   0.000000
    8       30.995164   0.000000
 
 -0.4545455E+00 -0.4545455E+00  0.3636364E+00  0.6010518E-02
    1        7.325363   1.000000
    2        7.803730   1.000000
    3        7.803730   1.000000
    4       12.456079   0.000000
    5       13.800061   0.000000
    6       13.800061   0.000000
    7       29.794782   0.000000
    8       33.152242   0.000000
 
 -0.4545455E+00  0.4545455E+00  0.4545455E+00  0.4507889E-02
    1        7.389809   1.000000
    2        9.079647   1.000000
    3        9.079647   1.000000
    4       10.744869   0.000000
    5       12.060705   0.000000
    6       13.313480   0.000000
    7       32.784830   0.000000
    8       32.969762   0.000000
