 vasp.6.2.0 18Jan21 (build Aug 12 2022 13:00:08) complex                        
  
 executed on             LinuxIFC date 2024.11.05  05:45:41
 running on    4 total cores
 distrk:  each k-point on    4 cores,    1 groups
 distr:  one band on NCORE=   1 cores,    4 groups


--------------------------------------------------------------------------------------------------------


 INCAR:
   ISTART = 0            (Read existing wavefunction, if there)
   ISPIN = 1            (Non-Spin polarised DFT)
   LREAL = .FALSE.       (Projection operators: automatic)
   LWAVE = .FALSE.        (Write WAVECAR or not)
   LCHARG = .FALSE.        (Write CHGCAR or not)
   ADDGRID = .TRUE.        (Increase grid, helps GGA convergence)
   LASPH = .TRUE.        (Give more accurate total energies and band structure calculations)
   PREC = Accurate      (Accurate strictly avoids any aliasing or wrap around errors)
   ENCUT = 350          (Cut-off energy for plane wave basis set, in eV)
   ISMEAR = 0            (Gaussian smearing, metals:1)
   SIGMA = 0.05         (Smearing value in eV, metals:0.2)
   NELM = 90           (Max electronic SCF steps)
   NELMIN = 6            (Min electronic SCF steps)
   EDIFF = 1E-06        (SCF energy convergence, in eV)
   NSW = 100          (Max ionic steps)
   IBRION = 2            (Algorithm: 0-MD, 1-Quasi-New, 2-CG)
   ISIF = 2            (Stress/relaxation: 2-Ions, 3-Shape/Ions/V, 4-Shape/Ions)
   EDIFFG = -2E-03        (Ionic convergence, eV/AA)
   ISYM = 2              (Symmetry: 0\=none, 2\=GGA, 3\=hybrids)

 POTCAR:    PAW_PBE Si 05Jan2001                  
 POTCAR:    PAW_PBE Si 05Jan2001                  
   VRHFIN =Si: s2p2                                                                                 
   LEXCH  = PE                                                                                      
   EATOM  =   103.0669 eV,    7.5752 Ry                                                             
                                                                                                    
   TITEL  = PAW_PBE Si 05Jan2001                                                                    
   LULTRA =        F    use ultrasoft PP ?                                                          
   IUNSCR =        1    unscreen: 0-lin 1-nonlin 2-no                                               
   RPACOR =    1.500    partial core radius                                                         
   POMASS =   28.085; ZVAL   =    4.000    mass and valenz                                          
   RCORE  =    1.900    outmost cutoff radius                                                       
   RWIGS  =    2.480; RWIGS  =    1.312    wigner-seitz radius (au A)                               
   ENMAX  =  245.345; ENMIN  =  184.009 eV                                                          
   ICORE  =        2    local potential                                                             
   LCOR   =        T    correct aug charges                                                         
   LPAW   =        T    paw PP                                                                      
   EAUG   =  322.069                                                                                
   DEXC   =    0.000                                                                                
   RMAX   =    1.950    core radius for proj-oper                                                   
   RAUG   =    1.300    factor for augmentation sphere                                              
   RDEP   =    1.993    radius for radial grids                                                     
   RDEPT  =    1.837    core radius for aug-charge                                                  
                                                                                                    
   Atomic configuration                                                                             
    6 entries                                                                                       
     n  l   j            E        occ.                                                              
     1  0  0.50     -1785.8828   2.0000                                                             
     2  0  0.50      -139.4969   2.0000                                                             
     2  1  1.50       -95.5546   6.0000                                                             
     3  0  0.50       -10.8127   2.0000                                                             
     3  1  0.50        -4.0811   2.0000                                                             
     3  2  1.50        -4.0817   0.0000                                                             
   Description                                                                                      
     l       E           TYP  RCUT    TYP  RCUT                                                     
     0    -10.8127223     23  1.900                                                                 
     0     -7.6451159     23  1.900                                                                 
     1     -4.0811372     23  1.900                                                                 
     1      2.4879257     23  1.900                                                                 
     2     -4.0817478      7  1.900                                                                 
  local pseudopotential read in
  partial core-charges read in
  partial kinetic energy density read in
  atomic valenz-charges read in
  non local Contribution for L=           0  read in
    real space projection operators read in
  non local Contribution for L=           0  read in
    real space projection operators read in
  non local Contribution for L=           1  read in
    real space projection operators read in
  non local Contribution for L=           1  read in
    real space projection operators read in
    PAW grid and wavefunctions read in
 
   number of l-projection  operators is LMAX  =           4
   number of lm-projection operators is LMMAX =           8
 
  PAW_PBE Si 05Jan2001                  :
 energy of atom  1       EATOM= -103.0669
 kinetic energy error for atom=    0.0013 (will be added to EATOM!!)
 
 
 POSCAR: Si1
  positions in direct lattice
  No initial velocities read in
 exchange correlation table for  LEXCH =        8
   RHO(1)=    0.500       N(1)  =     2000
   RHO(2)=  100.500       N(2)  =     4000
 


--------------------------------------------------------------------------------------------------------


 ion  position               nearest neighbor table
   1  0.000  0.000  0.000-
 
  LATTYP: Found a body centered cubic cell.
 ALAT       =     3.1174507978
  
  Lattice vectors:
  
 A1 = (   1.5587253989,   1.5587253989,   1.5587253989)
 A2 = (   1.5587253989,  -1.5587253989,  -1.5587253989)
 A3 = (  -1.5587253989,   1.5587253989,  -1.5587253989)


Analysis of symmetry for initial positions (statically):
=====================================================================
 Subroutine PRICEL returns:
 Original cell was already a primitive cell.
 

 Routine SETGRP: Setting up the symmetry group for a 
 body centered cubic supercell.


 Subroutine GETGRP returns: Found 48 space group operations
 (whereof 48 operations were pure point group operations)
 out of a pool of 48 trial point group operations.


The static configuration has the point symmetry O_h .


Analysis of symmetry for dynamics (positions and initial velocities):
=====================================================================
 Subroutine PRICEL returns:
 Original cell was already a primitive cell.
 

 Routine SETGRP: Setting up the symmetry group for a 
 body centered cubic supercell.


 Subroutine GETGRP returns: Found 48 space group operations
 (whereof 48 operations were pure point group operations)
 out of a pool of 48 trial point group operations.


The dynamic configuration has the point symmetry O_h .


 Subroutine INISYM returns: Found 48 space group operations
 (whereof 48 operations are pure point group operations),
 and found     1 'primitive' translations


----------------------------------------------------------------------------------------

                                     Primitive cell                                     

  volume of cell :      15.1485

  direct lattice vectors                    reciprocal lattice vectors
     1.558725399  1.558725399  1.558725399     0.320774910  0.320774910  0.000000000
     1.558725399 -1.558725399 -1.558725399     0.320774910  0.000000000 -0.320774910
    -1.558725399  1.558725399 -1.558725399     0.000000000  0.320774910 -0.320774910

  length of vectors
     2.699791586  2.699791586  2.699791586     0.453644229  0.453644229  0.453644229

  position of ions in fractional coordinates (direct lattice)
     0.000000000  0.000000000  0.000000000

  ion indices of the primitive-cell ions
   primitive index   ion index
                 1           1

----------------------------------------------------------------------------------------

 
 
 KPOINTS: Automatic                               

Automatic generation of k-mesh.
 Grid dimensions read from file:
 generate k-points for:   11   11   11

 Generating k-lattice:

  Cartesian coordinates                     Fractional coordinates (reciprocal lattice)
     0.029161355  0.029161355  0.000000000     0.090909091  0.000000000  0.000000000
     0.029161355  0.000000000 -0.029161355     0.000000000  0.090909091  0.000000000
     0.000000000  0.029161355 -0.029161355     0.000000000  0.000000000  0.090909091

  Length of vectors
     0.041240384  0.041240384  0.041240384

  Shift w.r.t. Gamma in fractional coordinates (k-lattice)
     0.000000000  0.000000000  0.000000000

 
 Subroutine IBZKPT returns following result:
 ===========================================
 
 Found     56 irreducible k-points:
 
 Following reciprocal coordinates:
            Coordinates               Weight
  0.000000  0.000000  0.000000      1.000000
  0.090909  0.000000  0.000000     12.000000
  0.181818  0.000000  0.000000     12.000000
  0.272727  0.000000  0.000000     12.000000
  0.363636  0.000000  0.000000     12.000000
  0.454545  0.000000  0.000000     12.000000
  0.090909  0.090909  0.000000     24.000000
  0.181818  0.090909  0.000000     48.000000
  0.272727  0.090909 -0.000000     48.000000
  0.363636  0.090909  0.000000     48.000000
  0.454545  0.090909  0.000000     24.000000
  0.181818  0.181818  0.000000     24.000000
  0.272727  0.181818 -0.000000     48.000000
  0.363636  0.181818  0.000000     48.000000
  0.272727  0.272727  0.000000     24.000000
  0.363636  0.272727 -0.000000     24.000000
  0.090909  0.090909  0.090909      8.000000
  0.181818  0.090909  0.090909     24.000000
  0.272727  0.090909  0.090909     24.000000
  0.363636  0.090909  0.090909     24.000000
 -0.090909  0.090909  0.090909      6.000000
  0.181818  0.181818  0.090909     24.000000
  0.272727  0.181818  0.090909     48.000000
  0.363636  0.181818  0.090909     24.000000
 -0.181818  0.181818  0.090909     24.000000
  0.272727  0.272727  0.090909     24.000000
 -0.272727  0.272727  0.090909     24.000000
 -0.181818  0.272727  0.090909     24.000000
 -0.363636  0.363636  0.090909     24.000000
 -0.272727  0.363636  0.090909     48.000000
 -0.454545  0.454545  0.090909     24.000000
 -0.363636  0.454545  0.090909     48.000000
 -0.272727  0.454545  0.090909     24.000000
 -0.454545 -0.454545  0.090909     24.000000
 -0.363636 -0.454545  0.090909     48.000000
 -0.363636 -0.363636  0.090909      8.000000
  0.181818  0.181818  0.181818      8.000000
  0.272727  0.181818  0.181818     24.000000
 -0.181818  0.181818  0.181818      6.000000
  0.272727  0.272727  0.181818      8.000000
 -0.272727  0.272727  0.181818     24.000000
 -0.363636  0.363636  0.181818     24.000000
 -0.272727  0.363636  0.181818     24.000000
 -0.454545  0.454545  0.181818     24.000000
 -0.363636  0.454545  0.181818     48.000000
 -0.454545 -0.454545  0.181818     24.000000
 -0.363636 -0.454545  0.181818     24.000000
 -0.272727  0.272727  0.272727      6.000000
 -0.363636  0.363636  0.272727     24.000000
 -0.454545  0.454545  0.272727     24.000000
 -0.363636  0.454545  0.272727     24.000000
 -0.454545 -0.454545  0.272727     24.000000
 -0.363636  0.363636  0.363636      6.000000
 -0.454545  0.454545  0.363636     24.000000
 -0.454545 -0.454545  0.363636      8.000000
 -0.454545  0.454545  0.454545      6.000000
 
 Following cartesian coordinates:
            Coordinates               Weight
  0.000000  0.000000  0.000000      1.000000
  0.030036  0.030036  0.000000     12.000000
  0.060072  0.060072  0.000000     12.000000
  0.090109  0.090109  0.000000     12.000000
  0.120145  0.120145  0.000000     12.000000
  0.150181  0.150181  0.000000     12.000000
  0.060072  0.030036 -0.030036     24.000000
  0.090109  0.060072 -0.030036     48.000000
  0.120145  0.090109 -0.030036     48.000000
  0.150181  0.120145 -0.030036     48.000000
  0.180217  0.150181 -0.030036     24.000000
  0.120145  0.060072 -0.060072     24.000000
  0.150181  0.090109 -0.060072     48.000000
  0.180217  0.120145 -0.060072     48.000000
  0.180217  0.090109 -0.090109     24.000000
  0.210253  0.120145 -0.090109     24.000000
  0.060072  0.060072 -0.060072      8.000000
  0.090109  0.090109 -0.060072     24.000000
  0.120145  0.120145 -0.060072     24.000000
  0.150181  0.150181 -0.060072     24.000000
  0.000000  0.000000 -0.060072      6.000000
  0.120145  0.090109 -0.090109     24.000000
  0.150181  0.120145 -0.090109     48.000000
  0.180217  0.150181 -0.090109     24.000000
  0.000000 -0.030036 -0.090109     24.000000
  0.180217  0.120145 -0.120145     24.000000
  0.000000 -0.060072 -0.120145     24.000000
  0.030036 -0.030036 -0.120145     24.000000
  0.000000 -0.090109 -0.150181     24.000000
  0.030036 -0.060072 -0.150181     48.000000
  0.000000 -0.120145 -0.180217     24.000000
  0.030036 -0.090109 -0.180217     48.000000
  0.060072 -0.060072 -0.180217     24.000000
 -0.300362 -0.120145  0.120145     24.000000
 -0.270326 -0.090109  0.120145     48.000000
 -0.240290 -0.090109  0.090109      8.000000
  0.120145  0.120145 -0.120145      8.000000
  0.150181  0.150181 -0.120145     24.000000
  0.000000  0.000000 -0.120145      6.000000
  0.180217  0.150181 -0.150181      8.000000
  0.000000 -0.030036 -0.150181     24.000000
  0.000000 -0.060072 -0.180217     24.000000
  0.030036 -0.030036 -0.180217     24.000000
  0.000000 -0.090109 -0.210253     24.000000
  0.030036 -0.060072 -0.210253     48.000000
 -0.300362 -0.090109  0.090109     24.000000
 -0.270326 -0.060072  0.090109     24.000000
  0.000000  0.000000 -0.180217      6.000000
  0.000000 -0.030036 -0.210253     24.000000
  0.000000 -0.060072 -0.240290     24.000000
  0.030036 -0.030036 -0.240290     24.000000
 -0.300362 -0.060072  0.060072     24.000000
  0.000000  0.000000 -0.240290      6.000000
  0.000000 -0.030036 -0.270326     24.000000
 -0.300362 -0.030036  0.030036      8.000000
  0.000000  0.000000 -0.300362      6.000000
 


--------------------------------------------------------------------------------------------------------




 Dimension of arrays:
   k-points           NKPTS =     56   k-points in BZ     NKDIM =     56   number of bands    NBANDS=      8
   number of dos      NEDOS =    301   number of ions     NIONS =      1
   non local maximal  LDIM  =      4   non local SUM 2l+1 LMDIM =      8
   total plane-waves  NPLWV =   4096
   max r-space proj   IRMAX =      1   max aug-charges    IRDMAX=  72515
   dimension x,y,z NGX =    16 NGY =   16 NGZ =   16
   dimension x,y,z NGXF=    32 NGYF=   32 NGZF=   32
   support grid    NGXF=    64 NGYF=   64 NGZF=   64
   ions per type =               1
   NGX,Y,Z   is equivalent  to a cutoff of   9.85,  9.85,  9.85 a.u.
   NGXF,Y,Z  is equivalent  to a cutoff of  19.70, 19.70, 19.70 a.u.

 SYSTEM =  unknown system                          
 POSCAR =  Si1                                     

 Startparameter for this run:
   NWRITE =      2    write-flag & timer
   PREC   = accura    normal or accurate (medium, high low for compatibility)
   ISTART =      0    job   : 0-new  1-cont  2-samecut
   ICHARG =      2    charge: 1-file 2-atom 10-const
   ISPIN  =      1    spin polarized calculation?
   LNONCOLLINEAR =      F non collinear calculations
   LSORBIT =      F    spin-orbit coupling
   INIWAV =      1    electr: 0-lowe 1-rand  2-diag
   LASPH  =      T    aspherical Exc in radial PAW
   METAGGA=      F    non-selfconsistent MetaGGA calc.

 Electronic Relaxation 1
   ENCUT  =  350.0 eV  25.72 Ry    5.07 a.u.   4.12  4.12  4.12*2*pi/ulx,y,z
   ENINI  =  350.0     initial cutoff
   ENAUG  =  322.1 eV  augmentation charge cutoff
   NELM   =     90;   NELMIN=  6; NELMDL= -5     # of ELM steps 
   EDIFF  = 0.1E-05   stopping-criterion for ELM
   LREAL  =      F    real-space projection
   NLSPLINE    = F    spline interpolate recip. space projectors
   LCOMPAT=      F    compatible to vasp.4.4
   GGA_COMPAT  = T    GGA compatible to vasp.4.4-vasp.4.6
   LMAXPAW     = -100 max onsite density
   LMAXMIX     =    2 max onsite mixed and CHGCAR
   VOSKOWN=      0    Vosko Wilk Nusair interpolation
   ROPT   =    0.00000
 Ionic relaxation
   EDIFFG = -.2E-02   stopping-criterion for IOM
   NSW    =    100    number of steps for IOM
   NBLOCK =      1;   KBLOCK =    100    inner block; outer block 
   IBRION =      2    ionic relax: 0-MD 1-quasi-New 2-CG
   NFREE  =      1    steps in history (QN), initial steepest desc. (CG)
   ISIF   =      2    stress and relaxation
   IWAVPR =     11    prediction:  0-non 1-charg 2-wave 3-comb
   ISYM   =      2    0-nonsym 1-usesym 2-fastsym
   LCORR  =      T    Harris-Foulkes like correction to forces

   POTIM  = 0.5000    time-step for ionic-motion
   TEIN   =    0.0    initial temperature
   TEBEG  =    0.0;   TEEND  =   0.0 temperature during run
   SMASS  =  -3.00    Nose mass-parameter (am)
   estimated Nose-frequenzy (Omega)   =  0.10E-29 period in steps = 0.13E+47 mass=  -0.167E-27a.u.
   SCALEE = 1.0000    scale energy and forces
   NPACO  =    256;   APACO  = 16.0  distance and # of slots for P.C.
   PSTRESS=    0.0 pullay stress

  Mass of Ions in am
   POMASS =  28.09
  Ionic Valenz
   ZVAL   =   4.00
  Atomic Wigner-Seitz radii
   RWIGS  =  -1.00
  virtual crystal weights 
   VCA    =   1.00
   NELECT =       4.0000    total number of electrons
   NUPDOWN=      -1.0000    fix difference up-down

 DOS related values:
   EMIN   =  10.00;   EMAX   =-10.00  energy-range for DOS
   EFERMI =   0.00
   ISMEAR =     0;   SIGMA  =   0.05  broadening in eV -4-tet -1-fermi 0-gaus

 Electronic relaxation 2 (details)
   IALGO  =     38    algorithm
   LDIAG  =      T    sub-space diagonalisation (order eigenvalues)
   LSUBROT=      F    optimize rotation matrix (better conditioning)
   TURBO    =      0    0=normal 1=particle mesh
   IRESTART =      0    0=no restart 2=restart with 2 vectors
   NREBOOT  =      0    no. of reboots
   NMIN     =      0    reboot dimension
   EREF     =   0.00    reference energy to select bands
   IMIX   =      4    mixing-type and parameters
     AMIX     =   0.40;   BMIX     =  1.00
     AMIX_MAG =   1.60;   BMIX_MAG =  1.00
     AMIN     =   0.10
     WC   =   100.;   INIMIX=   1;  MIXPRE=   1;  MAXMIX= -45

 Intra band minimization:
   WEIMIN = 0.0010     energy-eigenvalue tresh-hold
   EBREAK =  0.31E-07  absolut break condition
   DEPER  =   0.30     relativ break condition  

   TIME   =   0.40     timestep for ELM

  volume/ion in A,a.u.               =      15.15       102.23
  Fermi-wavevector in a.u.,A,eV,Ry     =   1.050280  1.984742 15.008433  1.103089
  Thomas-Fermi vector in A             =   2.185277
 
 Write flags
   LWAVE        =      F    write WAVECAR
   LDOWNSAMPLE  =      F    k-point downsampling of WAVECAR
   LCHARG       =      F    write CHGCAR
   LVTOT        =      F    write LOCPOT, total local potential
   LVHAR        =      F    write LOCPOT, Hartree potential only
   LELF         =      F    write electronic localiz. function (ELF)
   LORBIT       =      0    0 simple, 1 ext, 2 COOP (PROOUT), +10 PAW based schemes


 Dipole corrections
   LMONO  =      F    monopole corrections only (constant potential shift)
   LDIPOL =      F    correct potential (dipole corrections)
   IDIPOL =      0    1-x, 2-y, 3-z, 4-all directions 
   EPSILON=  1.0000000 bulk dielectric constant

 Exchange correlation treatment:
   GGA     =    --    GGA type
   LEXCH   =     8    internal setting for exchange type
   VOSKOWN=      0    Vosko Wilk Nusair interpolation
   LHFCALC =     F    Hartree Fock is set to
   LHFONE  =     F    Hartree Fock one center treatment
   AEXX    =    0.0000 exact exchange contribution

 Linear response parameters
   LEPSILON=     F    determine dielectric tensor
   LRPA    =     F    only Hartree local field effects (RPA)
   LNABLA  =     F    use nabla operator in PAW spheres
   LVEL    =     F    velocity operator in full k-point grid
   LINTERFAST=   F  fast interpolation
   KINTER  =     0    interpolate to denser k-point grid
   CSHIFT  =0.1000    complex shift for real part using Kramers Kronig
   OMEGAMAX=  -1.0    maximum frequency
   DEG_THRESHOLD= 0.2000000E-02 threshold for treating states as degnerate
   RTIME   =   -0.100 relaxation time in fs
  (WPLASMAI=    0.000 imaginary part of plasma frequency in eV, 0.658/RTIME)
   DFIELD  = 0.0000000 0.0000000 0.0000000 field for delta impulse in time
 
 Orbital magnetization related:
   ORBITALMAG=     F  switch on orbital magnetization
   LCHIMAG   =     F  perturbation theory with respect to B field
   DQ        =  0.001000  dq finite difference perturbation B field
   LLRAUG    =     F  two centre corrections for induced B field



--------------------------------------------------------------------------------------------------------


 conjugate gradient relaxation of ions
 charge density and potential will be updated during run
 non-spin polarized calculation
 Variant of blocked Davidson
 Davidson routine will perform the subspace rotation
 perform sub-space diagonalisation
    after iterative eigenvector-optimisation
 modified Broyden-mixing scheme, WC =      100.0
 initial mixing is a Kerker type mixing with AMIX =  0.4000 and BMIX =      1.0000
 Hartree-type preconditioning will be used
 using additional bands            6
 reciprocal scheme for non local part
 use partial core corrections
 calculate Harris-corrections to forces 
   (improved forces if not selfconsistent)
 use gradient corrections 
 use of overlap-Matrix (Vanderbilt PP)
 Gauss-broadening in eV      SIGMA  =   0.05


--------------------------------------------------------------------------------------------------------


  energy-cutoff  :      350.00
  volume of cell :       15.15
      direct lattice vectors                 reciprocal lattice vectors
     1.558725399  1.558725399  1.558725399     0.320774910  0.320774910  0.000000000
     1.558725399 -1.558725399 -1.558725399     0.320774910  0.000000000 -0.320774910
    -1.558725399  1.558725399 -1.558725399     0.000000000  0.320774910 -0.320774910

  length of vectors
     2.699791586  2.699791586  2.699791586     0.453644229  0.453644229  0.453644229


 
 k-points in units of 2pi/SCALE and weight: Automatic                               
   0.00000000  0.00000000  0.00000000       0.001
   0.03003620  0.03003620  0.00000000       0.009
   0.06007239  0.06007239  0.00000000       0.009
   0.09010859  0.09010859  0.00000000       0.009
   0.12014478  0.12014478  0.00000000       0.009
   0.15018098  0.15018098  0.00000000       0.009
   0.06007239  0.03003620 -0.03003620       0.018
   0.09010859  0.06007239 -0.03003620       0.036
   0.12014478  0.09010859 -0.03003620       0.036
   0.15018098  0.12014478 -0.03003620       0.036
   0.18021718  0.15018098 -0.03003620       0.018
   0.12014478  0.06007239 -0.06007239       0.018
   0.15018098  0.09010859 -0.06007239       0.036
   0.18021718  0.12014478 -0.06007239       0.036
   0.18021718  0.09010859 -0.09010859       0.018
   0.21025337  0.12014478 -0.09010859       0.018
   0.06007239  0.06007239 -0.06007239       0.006
   0.09010859  0.09010859 -0.06007239       0.018
   0.12014478  0.12014478 -0.06007239       0.018
   0.15018098  0.15018098 -0.06007239       0.018
   0.00000000  0.00000000 -0.06007239       0.005
   0.12014478  0.09010859 -0.09010859       0.018
   0.15018098  0.12014478 -0.09010859       0.036
   0.18021718  0.15018098 -0.09010859       0.018
   0.00000000 -0.03003620 -0.09010859       0.018
   0.18021718  0.12014478 -0.12014478       0.018
   0.00000000 -0.06007239 -0.12014478       0.018
   0.03003620 -0.03003620 -0.12014478       0.018
   0.00000000 -0.09010859 -0.15018098       0.018
   0.03003620 -0.06007239 -0.15018098       0.036
   0.00000000 -0.12014478 -0.18021718       0.018
   0.03003620 -0.09010859 -0.18021718       0.036
   0.06007239 -0.06007239 -0.18021718       0.018
  -0.30036196 -0.12014478  0.12014478       0.018
  -0.27032577 -0.09010859  0.12014478       0.036
  -0.24028957 -0.09010859  0.09010859       0.006
   0.12014478  0.12014478 -0.12014478       0.006
   0.15018098  0.15018098 -0.12014478       0.018
   0.00000000  0.00000000 -0.12014478       0.005
   0.18021718  0.15018098 -0.15018098       0.006
   0.00000000 -0.03003620 -0.15018098       0.018
   0.00000000 -0.06007239 -0.18021718       0.018
   0.03003620 -0.03003620 -0.18021718       0.018
   0.00000000 -0.09010859 -0.21025337       0.018
   0.03003620 -0.06007239 -0.21025337       0.036
  -0.30036196 -0.09010859  0.09010859       0.018
  -0.27032577 -0.06007239  0.09010859       0.018
   0.00000000  0.00000000 -0.18021718       0.005
   0.00000000 -0.03003620 -0.21025337       0.018
   0.00000000 -0.06007239 -0.24028957       0.018
   0.03003620 -0.03003620 -0.24028957       0.018
  -0.30036196 -0.06007239  0.06007239       0.018
   0.00000000  0.00000000 -0.24028957       0.005
   0.00000000 -0.03003620 -0.27032577       0.018
  -0.30036196 -0.03003620  0.03003620       0.006
   0.00000000  0.00000000 -0.30036196       0.005
 
 k-points in reciprocal lattice and weights: Automatic                               
   0.00000000  0.00000000  0.00000000       0.001
   0.09090909  0.00000000  0.00000000       0.009
   0.18181818  0.00000000  0.00000000       0.009
   0.27272727  0.00000000  0.00000000       0.009
   0.36363636  0.00000000  0.00000000       0.009
   0.45454545  0.00000000  0.00000000       0.009
   0.09090909  0.09090909  0.00000000       0.018
   0.18181818  0.09090909  0.00000000       0.036
   0.27272727  0.09090909 -0.00000000       0.036
   0.36363636  0.09090909  0.00000000       0.036
   0.45454545  0.09090909  0.00000000       0.018
   0.18181818  0.18181818  0.00000000       0.018
   0.27272727  0.18181818 -0.00000000       0.036
   0.36363636  0.18181818  0.00000000       0.036
   0.27272727  0.27272727  0.00000000       0.018
   0.36363636  0.27272727 -0.00000000       0.018
   0.09090909  0.09090909  0.09090909       0.006
   0.18181818  0.09090909  0.09090909       0.018
   0.27272727  0.09090909  0.09090909       0.018
   0.36363636  0.09090909  0.09090909       0.018
  -0.09090909  0.09090909  0.09090909       0.005
   0.18181818  0.18181818  0.09090909       0.018
   0.27272727  0.18181818  0.09090909       0.036
   0.36363636  0.18181818  0.09090909       0.018
  -0.18181818  0.18181818  0.09090909       0.018
   0.27272727  0.27272727  0.09090909       0.018
  -0.27272727  0.27272727  0.09090909       0.018
  -0.18181818  0.27272727  0.09090909       0.018
  -0.36363636  0.36363636  0.09090909       0.018
  -0.27272727  0.36363636  0.09090909       0.036
  -0.45454545  0.45454545  0.09090909       0.018
  -0.36363636  0.45454545  0.09090909       0.036
  -0.27272727  0.45454545  0.09090909       0.018
  -0.45454545 -0.45454545  0.09090909       0.018
  -0.36363636 -0.45454545  0.09090909       0.036
  -0.36363636 -0.36363636  0.09090909       0.006
   0.18181818  0.18181818  0.18181818       0.006
   0.27272727  0.18181818  0.18181818       0.018
  -0.18181818  0.18181818  0.18181818       0.005
   0.27272727  0.27272727  0.18181818       0.006
  -0.27272727  0.27272727  0.18181818       0.018
  -0.36363636  0.36363636  0.18181818       0.018
  -0.27272727  0.36363636  0.18181818       0.018
  -0.45454545  0.45454545  0.18181818       0.018
  -0.36363636  0.45454545  0.18181818       0.036
  -0.45454545 -0.45454545  0.18181818       0.018
  -0.36363636 -0.45454545  0.18181818       0.018
  -0.27272727  0.27272727  0.27272727       0.005
  -0.36363636  0.36363636  0.27272727       0.018
  -0.45454545  0.45454545  0.27272727       0.018
  -0.36363636  0.45454545  0.27272727       0.018
  -0.45454545 -0.45454545  0.27272727       0.018
  -0.36363636  0.36363636  0.36363636       0.005
  -0.45454545  0.45454545  0.36363636       0.018
  -0.45454545 -0.45454545  0.36363636       0.006
  -0.45454545  0.45454545  0.45454545       0.005
 
 position of ions in fractional coordinates (direct lattice) 
   0.00000000  0.00000000  0.00000000
 
 position of ions in cartesian coordinates  (Angst):
   0.00000000  0.00000000  0.00000000
 


--------------------------------------------------------------------------------------------------------


 k-point   1 :   0.0000 0.0000 0.0000  plane waves:     225
 k-point   2 :   0.0909 0.0000 0.0000  plane waves:     219
 k-point   3 :   0.1818 0.0000 0.0000  plane waves:     225
 k-point   4 :   0.2727 0.0000 0.0000  plane waves:     223
 k-point   5 :   0.3636 0.0000 0.0000  plane waves:     220
 k-point   6 :   0.4545 0.0000 0.0000  plane waves:     228
 k-point   7 :   0.0909 0.0909 0.0000  plane waves:     221
 k-point   8 :   0.1818 0.0909 0.0000  plane waves:     218
 k-point   9 :   0.2727 0.0909-0.0000  plane waves:     224
 k-point  10 :   0.3636 0.0909 0.0000  plane waves:     229
 k-point  11 :   0.4545 0.0909 0.0000  plane waves:     226
 k-point  12 :   0.1818 0.1818 0.0000  plane waves:     226
 k-point  13 :   0.2727 0.1818-0.0000  plane waves:     224
 k-point  14 :   0.3636 0.1818 0.0000  plane waves:     225
 k-point  15 :   0.2727 0.2727 0.0000  plane waves:     222
 k-point  16 :   0.3636 0.2727-0.0000  plane waves:     226
 k-point  17 :   0.0909 0.0909 0.0909  plane waves:     216
 k-point  18 :   0.1818 0.0909 0.0909  plane waves:     220
 k-point  19 :   0.2727 0.0909 0.0909  plane waves:     225
 k-point  20 :   0.3636 0.0909 0.0909  plane waves:     222
 k-point  21 :  -0.0909 0.0909 0.0909  plane waves:     217
 k-point  22 :   0.1818 0.1818 0.0909  plane waves:     228
 k-point  23 :   0.2727 0.1818 0.0909  plane waves:     227
 k-point  24 :   0.3636 0.1818 0.0909  plane waves:     222
 k-point  25 :  -0.1818 0.1818 0.0909  plane waves:     218
 k-point  26 :   0.2727 0.2727 0.0909  plane waves:     226
 k-point  27 :  -0.2727 0.2727 0.0909  plane waves:     226
 k-point  28 :  -0.1818 0.2727 0.0909  plane waves:     222
 k-point  29 :  -0.3636 0.3636 0.0909  plane waves:     227
 k-point  30 :  -0.2727 0.3636 0.0909  plane waves:     228
 k-point  31 :  -0.4545 0.4545 0.0909  plane waves:     228
 k-point  32 :  -0.3636 0.4545 0.0909  plane waves:     227
 k-point  33 :  -0.2727 0.4545 0.0909  plane waves:     223
 k-point  34 :  -0.4545-0.4545 0.0909  plane waves:     221
 k-point  35 :  -0.3636-0.4545 0.0909  plane waves:     224
 k-point  36 :  -0.3636-0.3636 0.0909  plane waves:     225
 k-point  37 :   0.1818 0.1818 0.1818  plane waves:     228
 k-point  38 :   0.2727 0.1818 0.1818  plane waves:     226
 k-point  39 :  -0.1818 0.1818 0.1818  plane waves:     217
 k-point  40 :   0.2727 0.2727 0.1818  plane waves:     228
 k-point  41 :  -0.2727 0.2727 0.1818  plane waves:     224
 k-point  42 :  -0.3636 0.3636 0.1818  plane waves:     225
 k-point  43 :  -0.2727 0.3636 0.1818  plane waves:     228
 k-point  44 :  -0.4545 0.4545 0.1818  plane waves:     222
 k-point  45 :  -0.3636 0.4545 0.1818  plane waves:     225
 k-point  46 :  -0.4545-0.4545 0.1818  plane waves:     230
 k-point  47 :  -0.3636-0.4545 0.1818  plane waves:     229
 k-point  48 :  -0.2727 0.2727 0.2727  plane waves:     229
 k-point  49 :  -0.3636 0.3636 0.2727  plane waves:     229
 k-point  50 :  -0.4545 0.4545 0.2727  plane waves:     229
 k-point  51 :  -0.3636 0.4545 0.2727  plane waves:     225
 k-point  52 :  -0.4545-0.4545 0.2727  plane waves:     230
 k-point  53 :  -0.3636 0.3636 0.3636  plane waves:     229
 k-point  54 :  -0.4545 0.4545 0.3636  plane waves:     232
 k-point  55 :  -0.4545-0.4545 0.3636  plane waves:     236
 k-point  56 :  -0.4545 0.4545 0.4545  plane waves:     236

 maximum and minimum number of plane-waves per node :       236      216

 maximum number of plane-waves:       236
 maximum index in each direction: 
   IXMAX=    4   IYMAX=    4   IZMAX=    4
   IXMIN=   -4   IYMIN=   -4   IZMIN=   -4


 serial   3D FFT for wavefunctions
 parallel 3D FFT for charge:
    minimum data exchange during FFTs selected (reduces bandwidth)


 total amount of memory used by VASP MPI-rank0    33112. kBytes
=======================================================================

   base      :      30000. kBytes
   nonl-proj :        849. kBytes
   fftplans  :       1246. kBytes
   grid      :        577. kBytes
   one-center:          3. kBytes
   wavefun   :        437. kBytes
 
     INWAV:  cpu time    0.0000: real time    0.0005
 Broyden mixing: mesh for mixing (old mesh)
   NGX =  9   NGY =  9   NGZ =  9
  (NGX  = 32   NGY  = 32   NGZ  = 32)
  gives a total of    729 points

 initial charge density was supplied:
 charge density of overlapping atoms calculated
 number of electron       4.0000000 magnetization 
 keeping initial charge density in first step


--------------------------------------------------------------------------------------------------------


 Maximum index for augmentation-charges        17503 (set IRDMAX)


--------------------------------------------------------------------------------------------------------


 First call to EWALD:  gamma=   0.716
 Maximum number of real-space cells 3x 3x 3
 Maximum number of reciprocal cells 3x 3x 3

    FEWALD:  cpu time    0.0030: real time    0.0034


--------------------------------------- Iteration      1(   1)  ---------------------------------------


    POTLOK:  cpu time    0.0100: real time    0.0126
    SETDIJ:  cpu time    0.1610: real time    0.1628
     EDDAV:  cpu time    0.1660: real time    0.1660
       DOS:  cpu time    0.0020: real time    0.0012
    --------------------------------------------
      LOOP:  cpu time    0.3389: real time    0.3430

 eigenvalue-minimisations  :   976
 total energy-change (2. order) :-0.3421398E+01  (-0.1385448E+03)
 number of electron       4.0000000 magnetization 
 augmentation part        4.0000000 magnetization 

 Free energy of the ion-electron system (eV)
  ---------------------------------------------------
  alpha Z        PSCENC =         2.22221296
  Ewald energy   TEWEN  =      -134.47958737
  -Hartree energ DENC   =        -0.67247217
  -exchange      EXHF   =         0.00000000
  -V(xc)+E(xc)   XCENC  =        -8.92790871
  PAW double counting   =        88.12379961      -70.53051779
  entropy T*S    EENTRO =        -0.00051948
  eigenvalues    EBANDS =        17.77796752
  atomic energy  EATOM  =       103.06562707
  Solvation  Ediel_sol  =         0.00000000
  ---------------------------------------------------
  free energy    TOTEN  =        -3.42139835 eV

  energy without entropy =       -3.42087888  energy(sigma->0) =       -3.42113862


--------------------------------------------------------------------------------------------------------




--------------------------------------- Iteration      1(   2)  ---------------------------------------


     EDDAV:  cpu time    0.2400: real time    0.2557
       DOS:  cpu time    0.0010: real time    0.0011
    --------------------------------------------
      LOOP:  cpu time    0.2420: real time    0.2568

 eigenvalue-minimisations  :  1376
 total energy-change (2. order) :-0.1464889E+01  (-0.1432529E+01)
 number of electron       4.0000000 magnetization 
 augmentation part        4.0000000 magnetization 

 Free energy of the ion-electron system (eV)
  ---------------------------------------------------
  alpha Z        PSCENC =         2.22221296
  Ewald energy   TEWEN  =      -134.47958737
  -Hartree energ DENC   =        -0.67247217
  -exchange      EXHF   =         0.00000000
  -V(xc)+E(xc)   XCENC  =        -8.92790871
  PAW double counting   =        88.12379961      -70.53051779
  entropy T*S    EENTRO =        -0.00106669
  eigenvalues    EBANDS =        16.31362595
  atomic energy  EATOM  =       103.06562707
  Solvation  Ediel_sol  =         0.00000000
  ---------------------------------------------------
  free energy    TOTEN  =        -4.88628714 eV

  energy without entropy =       -4.88522045  energy(sigma->0) =       -4.88575379


--------------------------------------------------------------------------------------------------------




--------------------------------------- Iteration      1(   3)  ---------------------------------------


     EDDAV:  cpu time    0.1720: real time    0.1794
       DOS:  cpu time    0.0010: real time    0.0012
    --------------------------------------------
      LOOP:  cpu time    0.1730: real time    0.1806

 eigenvalue-minimisations  :  1000
 total energy-change (2. order) :-0.7360954E-02  (-0.7352425E-02)
 number of electron       4.0000000 magnetization 
 augmentation part        4.0000000 magnetization 

 Free energy of the ion-electron system (eV)
  ---------------------------------------------------
  alpha Z        PSCENC =         2.22221296
  Ewald energy   TEWEN  =      -134.47958737
  -Hartree energ DENC   =        -0.67247217
  -exchange      EXHF   =         0.00000000
  -V(xc)+E(xc)   XCENC  =        -8.92790871
  PAW double counting   =        88.12379961      -70.53051779
  entropy T*S    EENTRO =        -0.00097581
  eigenvalues    EBANDS =        16.30617411
  atomic energy  EATOM  =       103.06562707
  Solvation  Ediel_sol  =         0.00000000
  ---------------------------------------------------
  free energy    TOTEN  =        -4.89364809 eV

  energy without entropy =       -4.89267229  energy(sigma->0) =       -4.89316019


--------------------------------------------------------------------------------------------------------




--------------------------------------- Iteration      1(   4)  ---------------------------------------


     EDDAV:  cpu time    0.2500: real time    0.2581
       DOS:  cpu time    0.0010: real time    0.0011
    --------------------------------------------
      LOOP:  cpu time    0.2510: real time    0.2592

 eigenvalue-minimisations  :  1408
 total energy-change (2. order) :-0.6544571E-05  (-0.6544374E-05)
 number of electron       4.0000000 magnetization 
 augmentation part        4.0000000 magnetization 

 Free energy of the ion-electron system (eV)
  ---------------------------------------------------
  alpha Z        PSCENC =         2.22221296
  Ewald energy   TEWEN  =      -134.47958737
  -Hartree energ DENC   =        -0.67247217
  -exchange      EXHF   =         0.00000000
  -V(xc)+E(xc)   XCENC  =        -8.92790871
  PAW double counting   =        88.12379961      -70.53051779
  entropy T*S    EENTRO =        -0.00097574
  eigenvalues    EBANDS =        16.30616750
  atomic energy  EATOM  =       103.06562707
  Solvation  Ediel_sol  =         0.00000000
  ---------------------------------------------------
  free energy    TOTEN  =        -4.89365464 eV

  energy without entropy =       -4.89267890  energy(sigma->0) =       -4.89316677


--------------------------------------------------------------------------------------------------------




--------------------------------------- Iteration      1(   5)  ---------------------------------------


     EDDAV:  cpu time    0.1780: real time    0.1845
       DOS:  cpu time    0.0000: real time    0.0012
    CHARGE:  cpu time    0.0130: real time    0.0126
    MIXING:  cpu time    0.0000: real time    0.0008
    --------------------------------------------
      LOOP:  cpu time    0.1910: real time    0.1990

 eigenvalue-minimisations  :  1032
 total energy-change (2. order) :-0.1968345E-09  (-0.1457702E-08)
 number of electron       4.0000000 magnetization 
 augmentation part       -0.2418112 magnetization 

 Broyden mixing:
  rms(total) = 0.24154E+00    rms(broyden)= 0.24154E+00
  rms(prec ) = 0.37679E+00
  weight for this iteration     100.00

 Free energy of the ion-electron system (eV)
  ---------------------------------------------------
  alpha Z        PSCENC =         2.22221296
  Ewald energy   TEWEN  =      -134.47958737
  -Hartree energ DENC   =        -0.67247217
  -exchange      EXHF   =         0.00000000
  -V(xc)+E(xc)   XCENC  =        -8.92790871
  PAW double counting   =        88.12379961      -70.53051779
  entropy T*S    EENTRO =        -0.00097574
  eigenvalues    EBANDS =        16.30616750
  atomic energy  EATOM  =       103.06562707
  Solvation  Ediel_sol  =         0.00000000
  ---------------------------------------------------
  free energy    TOTEN  =        -4.89365464 eV

  energy without entropy =       -4.89267890  energy(sigma->0) =       -4.89316677


--------------------------------------------------------------------------------------------------------




--------------------------------------- Iteration      1(   6)  ---------------------------------------


    POTLOK:  cpu time    0.0110: real time    0.0177
    SETDIJ:  cpu time    0.1620: real time    0.1620
     EDDAV:  cpu time    0.1550: real time    0.1551
       DOS:  cpu time    0.0010: real time    0.0012
    CHARGE:  cpu time    0.0100: real time    0.0111
    MIXING:  cpu time    0.0020: real time    0.0008
    --------------------------------------------
      LOOP:  cpu time    0.3399: real time    0.3479

 eigenvalue-minimisations  :   928
 total energy-change (2. order) : 0.1095276E-01  (-0.4098015E-03)
 number of electron       4.0000000 magnetization 
 augmentation part       -0.2439010 magnetization 

 Broyden mixing:
  rms(total) = 0.13294E+00    rms(broyden)= 0.13294E+00
  rms(prec ) = 0.21757E+00
  weight for this iteration     100.00

 eigenvalues of (default mixing * dielectric matrix)
  average eigenvalue GAMMA=   2.2106
  2.2106

 Free energy of the ion-electron system (eV)
  ---------------------------------------------------
  alpha Z        PSCENC =         2.22221296
  Ewald energy   TEWEN  =      -134.47958737
  -Hartree energ DENC   =        -0.58317937
  -exchange      EXHF   =         0.00000000
  -V(xc)+E(xc)   XCENC  =        -8.91286324
  PAW double counting   =       158.45196425     -140.85661118
  entropy T*S    EENTRO =        -0.00102409
  eigenvalues    EBANDS =        16.21075909
  atomic energy  EATOM  =       103.06562707
  Solvation  Ediel_sol  =         0.00000000
  ---------------------------------------------------
  free energy    TOTEN  =        -4.88270188 eV

  energy without entropy =       -4.88167779  energy(sigma->0) =       -4.88218984


--------------------------------------------------------------------------------------------------------




--------------------------------------- Iteration      1(   7)  ---------------------------------------


    POTLOK:  cpu time    0.0100: real time    0.0257
    SETDIJ:  cpu time    0.1610: real time    0.1614
     EDDAV:  cpu time    0.1650: real time    0.1646
       DOS:  cpu time    0.0010: real time    0.0012
    CHARGE:  cpu time    0.0110: real time    0.0111
    MIXING:  cpu time    0.0000: real time    0.0008
    --------------------------------------------
      LOOP:  cpu time    0.3489: real time    0.3647

 eigenvalue-minimisations  :   976
 total energy-change (2. order) : 0.6080621E-02  (-0.8070312E-03)
 number of electron       4.0000000 magnetization 
 augmentation part       -0.2469091 magnetization 

 Broyden mixing:
  rms(total) = 0.12962E-01    rms(broyden)= 0.12962E-01
  rms(prec ) = 0.16992E-01
  weight for this iteration     100.00

 eigenvalues of (default mixing * dielectric matrix)
  average eigenvalue GAMMA=   2.4212
  2.4212  2.4212

 Free energy of the ion-electron system (eV)
  ---------------------------------------------------
  alpha Z        PSCENC =         2.22221296
  Ewald energy   TEWEN  =      -134.47958737
  -Hartree energ DENC   =        -0.48263519
  -exchange      EXHF   =         0.00000000
  -V(xc)+E(xc)   XCENC  =        -8.88700145
  PAW double counting   =       287.50450369     -269.91039531
  entropy T*S    EENTRO =        -0.00109457
  eigenvalues    EBANDS =        16.09174890
  atomic energy  EATOM  =       103.06562707
  Solvation  Ediel_sol  =         0.00000000
  ---------------------------------------------------
  free energy    TOTEN  =        -4.87662126 eV

  energy without entropy =       -4.87552669  energy(sigma->0) =       -4.87607398


--------------------------------------------------------------------------------------------------------




--------------------------------------- Iteration      1(   8)  ---------------------------------------


    POTLOK:  cpu time    0.0110: real time    0.0191
    SETDIJ:  cpu time    0.1620: real time    0.1617
     EDDAV:  cpu time    0.2220: real time    0.2220
       DOS:  cpu time    0.0000: real time    0.0012
    CHARGE:  cpu time    0.0110: real time    0.0111
    MIXING:  cpu time    0.0010: real time    0.0007
    --------------------------------------------
      LOOP:  cpu time    0.4059: real time    0.4160

 eigenvalue-minimisations  :  1272
 total energy-change (2. order) : 0.1464592E-04  (-0.3728373E-05)
 number of electron       4.0000000 magnetization 
 augmentation part       -0.2469882 magnetization 

 Broyden mixing:
  rms(total) = 0.13379E-02    rms(broyden)= 0.13378E-02
  rms(prec ) = 0.20946E-02
  weight for this iteration     100.00

 eigenvalues of (default mixing * dielectric matrix)
  average eigenvalue GAMMA=   2.0200
  0.9876  2.3944  2.6779

 Free energy of the ion-electron system (eV)
  ---------------------------------------------------
  alpha Z        PSCENC =         2.22221296
  Ewald energy   TEWEN  =      -134.47958737
  -Hartree energ DENC   =        -0.48297867
  -exchange      EXHF   =         0.00000000
  -V(xc)+E(xc)   XCENC  =        -8.88343113
  PAW double counting   =       274.37712842     -256.78952301
  entropy T*S    EENTRO =        -0.00109691
  eigenvalues    EBANDS =        16.09504202
  atomic energy  EATOM  =       103.06562707
  Solvation  Ediel_sol  =         0.00000000
  ---------------------------------------------------
  free energy    TOTEN  =        -4.87660661 eV

  energy without entropy =       -4.87550970  energy(sigma->0) =       -4.87605816


--------------------------------------------------------------------------------------------------------




--------------------------------------- Iteration      1(   9)  ---------------------------------------


    POTLOK:  cpu time    0.0110: real time    0.0179
    SETDIJ:  cpu time    0.1620: real time    0.1621
     EDDAV:  cpu time    0.1880: real time    0.1878
       DOS:  cpu time    0.0000: real time    0.0014
    --------------------------------------------
      LOOP:  cpu time    0.3619: real time    0.3690

 eigenvalue-minimisations  :  1088
 total energy-change (2. order) :-0.7389891E-06  (-0.4723672E-07)
 number of electron       4.0000000 magnetization 
 augmentation part       -0.2469882 magnetization 

 Free energy of the ion-electron system (eV)
  ---------------------------------------------------
  alpha Z        PSCENC =         2.22221296
  Ewald energy   TEWEN  =      -134.47958737
  -Hartree energ DENC   =        -0.48283753
  -exchange      EXHF   =         0.00000000
  -V(xc)+E(xc)   XCENC  =        -8.88297942
  PAW double counting   =       272.85920857     -255.27218593
  entropy T*S    EENTRO =        -0.00109753
  eigenvalues    EBANDS =        16.09503183
  atomic energy  EATOM  =       103.06562707
  Solvation  Ediel_sol  =         0.00000000
  ---------------------------------------------------
  free energy    TOTEN  =        -4.87660735 eV

  energy without entropy =       -4.87550982  energy(sigma->0) =       -4.87605859


--------------------------------------------------------------------------------------------------------




 average (electrostatic) potential at core
  the test charge radii are     0.9892
  (the norm of the test charge is              1.0000)
       1 -80.5197
 
 
 
 E-fermi :   9.4497     XC(G=0): -11.0130     alpha+bet :-15.8330

 Fermi energy:         9.4496541112

 k-point     1 :       0.0000    0.0000    0.0000
  band No.  band energies     occupation 
      1      -4.4530      2.00000
      2      20.3906      0.00000
      3      20.3906      0.00000
      4      20.3906      0.00000
      5      21.8509      0.00000
      6      21.8509      0.00000
      7      21.8509      0.00000
      8      25.4640      0.00000

 k-point     2 :       0.0909    0.0000    0.0000
  band No.  band energies     occupation 
      1      -4.2061      2.00000
      2      18.0704      0.00000
      3      18.9007      0.00000
      4      20.0747      0.00000
      5      21.1033      0.00000
      6      22.5842      0.00000
      7      23.7629      0.00000
      8      24.3440      0.00000

 k-point     3 :       0.1818    0.0000    0.0000
  band No.  band energies     occupation 
      1      -3.4671      2.00000
      2      14.4288      0.00000
      3      17.2679      0.00000
      4      19.2896      0.00000
      5      19.7137      0.00000
      6      21.5785      0.00000
      7      25.0412      0.00000
      8      25.3661      0.00000

 k-point     4 :       0.2727    0.0000    0.0000
  band No.  band energies     occupation 
      1      -2.2415      2.00000
      2      10.7367      0.00000
      3      16.0231      0.00000
      4      18.4149      0.00000
      5      18.4606      0.00000
      6      20.4022      0.00000
      7      26.1401      0.00000
      8      26.4369      0.00000

 k-point     5 :       0.3636    0.0000    0.0000
  band No.  band energies     occupation 
      1      -0.5394      2.00000
      2       7.3180      2.00000
      3      15.1908      0.00000
      4      17.5697      0.00000
      5      17.7330      0.00000
      6      19.5681      0.00000
      7      27.4275      0.00000
      8      28.0706      0.00000

 k-point     6 :       0.4545    0.0000    0.0000
  band No.  band energies     occupation 
      1       1.6145      2.00000
      2       4.2913      2.00000
      3      14.7742      0.00000
      4      17.1093      0.00000
      5      17.3700      0.00000
      6      19.1392      0.00000
      7      28.9524      0.00000
      8      29.5855      0.00000

 k-point     7 :       0.0909    0.0909    0.0000
  band No.  band energies     occupation 
      1      -3.7131      2.00000
      2      16.1062      0.00000
      3      16.7307      0.00000
      4      18.6273      0.00000
      5      21.3152      0.00000
      6      22.6871      0.00000
      7      23.8721      0.00000
      8      25.0387      0.00000

 k-point     8 :       0.1818    0.0909    0.0000
  band No.  band energies     occupation 
      1      -2.7308      2.00000
      2      12.7020      0.00000
      3      14.9881      0.00000
      4      17.3805      0.00000
      5      20.6602      0.00000
      6      22.1329      0.00000
      7      24.4342      0.00000
      8      26.8255      0.00000

 k-point     9 :       0.2727    0.0909   -0.0000
  band No.  band energies     occupation 
      1      -1.2667      2.00000
      2       9.1510      2.00000
      3      13.8905      0.00000
      4      16.3921      0.00000
      5      19.7855      0.00000
      6      21.6280      0.00000
      7      25.2973      0.00000
      8      28.6322      0.00000

 k-point    10 :       0.3636    0.0909    0.0000
  band No.  band energies     occupation 
      1       0.6655      2.00000
      2       5.9235      2.00000
      3      13.2322      0.00000
      4      15.7710      0.00000
      5      19.1862      0.00000
      6      21.2092      0.00000
      7      26.7693      0.00000
      8      29.6785      0.00000

 k-point    11 :       0.4545    0.0909    0.0000
  band No.  band energies     occupation 
      1       2.8077      2.00000
      2       3.3447      2.00000
      3      13.0122      0.00000
      4      15.5609      0.00000
      5      18.9799      0.00000
      6      21.0517      0.00000
      7      28.4597      0.00000
      8      28.6902      0.00000

 k-point    12 :       0.1818    0.1818    0.0000
  band No.  band energies     occupation 
      1      -1.5097      2.00000
      2      11.1562      0.00000
      3      11.6527      0.00000
      4      16.1981      0.00000
      5      21.1969      0.00000
      6      22.2096      0.00000
      7      25.9612      0.00000
      8      27.1249      0.00000

 k-point    13 :       0.2727    0.1818   -0.0000
  band No.  band energies     occupation 
      1       0.1862      2.00000
      2       7.9957      2.00000
      3      10.5247      0.00000
      4      15.3835      0.00000
      5      20.8899      0.00000
      6      22.9361      0.00000
      7      26.1991      0.00000
      8      28.8409      0.00000

 k-point    14 :       0.3636    0.1818    0.0000
  band No.  band energies     occupation 
      1       2.3324      2.00000
      2       4.9934      2.00000
      3      10.0611      0.00000
      4      14.9654      0.00000
      5      20.5452      0.00000
      6      23.7480      0.00000
      7      26.5841      0.00000
      8      28.3232      0.00000

 k-point    15 :       0.2727    0.2727    0.0000
  band No.  band energies     occupation 
      1       2.1023      2.00000
      2       7.1086      2.00000
      3       7.5407      2.00000
      4      14.7704      0.00000
      5      22.0710      0.00000
      6      23.1083      0.00000
      7      26.8705      0.00000
      8      29.0847      0.00000

 k-point    16 :       0.3636    0.2727   -0.0000
  band No.  band energies     occupation 
      1       4.2235      2.00000
      2       4.7486      2.00000
      3       7.1182      2.00000
      4      14.5620      0.00000
      5      22.2352      0.00000
      6      24.2593      0.00000
      7      25.3314      0.00000
      8      29.9181      0.00000

 k-point    17 :       0.0909    0.0909    0.0909
  band No.  band energies     occupation 
      1      -2.9760      2.00000
      2      14.2542      0.00000
      3      15.2709      0.00000
      4      15.2709      0.00000
      5      23.1276      0.00000
      6      23.1276      0.00000
      7      25.2986      0.00000
      8      25.2986      0.00000

 k-point    18 :       0.1818    0.0909    0.0909
  band No.  band energies     occupation 
      1      -1.7534      2.00000
      2      11.1540      0.00000
      3      13.3675      0.00000
      4      14.0142      0.00000
      5      22.9755      0.00000
      6      23.4243      0.00000
      7      26.3831      0.00000
      8      26.5592      0.00000

 k-point    19 :       0.2727    0.0909    0.0909
  band No.  band energies     occupation 
      1      -0.0554      2.00000
      2       7.7763      2.00000
      3      12.4486      0.00000
      4      13.1392      0.00000
      5      22.6126      0.00000
      6      22.8787      0.00000
      7      27.8448      0.00000
      8      28.2268      0.00000

 k-point    20 :       0.3636    0.0909    0.0909
  band No.  band energies     occupation 
      1       2.0937      2.00000
      2       4.7616      2.00000
      3      11.9998      0.00000
      4      12.6941      0.00000
      5      22.3576      0.00000
      6      22.5407      0.00000
      7      29.2604      0.00000
      8      29.8083      0.00000

 k-point    21 :      -0.0909    0.0909    0.0909
  band No.  band energies     occupation 
      1      -3.9594      2.00000
      2      17.6061      0.00000
      3      17.6061      0.00000
      4      18.7283      0.00000
      5      21.9042      0.00000
      6      22.3402      0.00000
      7      23.4901      0.00000
      8      23.4901      0.00000

 k-point    22 :       0.1818    0.1818    0.0909
  band No.  band energies     occupation 
      1      -0.2966      2.00000
      2       9.8061      0.00000
      3      10.3350      0.00000
      4      12.6341      0.00000
      5      23.9871      0.00000
      6      24.9202      0.00000
      7      27.0549      0.00000
      8      27.9288      0.00000

 k-point    23 :       0.2727    0.1818    0.0909
  band No.  band energies     occupation 
      1       1.6260      2.00000
      2       6.8445      2.00000
      3       9.4102      1.73536
      4      11.9573      0.00000
      5      24.1131      0.00000
      6      25.4660      0.00000
      7      28.1168      0.00000
      8      29.5205      0.00000

 k-point    24 :       0.3636    0.1818    0.0909
  band No.  band energies     occupation 
      1       3.7592      2.00000
      2       4.2859      2.00000
      3       9.1730      2.00000
      4      11.7325      0.00000
      5      24.0423      0.00000
      6      25.6528      0.00000
      7      29.0134      0.00000
      8      29.6979      0.00000

 k-point    25 :      -0.1818    0.1818    0.0909
  band No.  band energies     occupation 
      1      -3.2213      2.00000
      2      14.5541      0.00000
      3      15.9811      0.00000
      4      18.0082      0.00000
      5      20.6068      0.00000
      6      21.4079      0.00000
      7      23.7620      0.00000
      8      25.9255      0.00000

 k-point    26 :       0.2727    0.2727    0.0909
  band No.  band energies     occupation 
      1       3.7464      2.00000
      2       6.1972      2.00000
      3       6.6266      2.00000
      4      11.4998      0.00000
      5      25.2709      0.00000
      6      26.6565      0.00000
      7      28.2833      0.00000
      8      30.2934      0.00000

 k-point    27 :      -0.2727    0.2727    0.0909
  band No.  band energies     occupation 
      1      -1.9971      2.00000
      2      10.9405      0.00000
      3      14.7075      0.00000
      4      17.1238      0.00000
      5      20.2117      0.00000
      6      20.5660      0.00000
      7      23.6017      0.00000
      8      29.0799      0.00000

 k-point    28 :      -0.1818    0.2727    0.0909
  band No.  band energies     occupation 
      1      -2.2412      2.00000
      2      12.8677      0.00000
      3      13.2579      0.00000
      4      17.5214      0.00000
      5      19.4998      0.00000
      6      21.0258      0.00000
      7      25.3595      0.00000
      8      26.3516      0.00000

 k-point    29 :      -0.3636    0.3636    0.0909
  band No.  band energies     occupation 
      1      -0.2971      2.00000
      2       7.5433      2.00000
      3      13.8475      0.00000
      4      16.3550      0.00000
      5      19.3561      0.00000
      6      20.6101      0.00000
      7      24.2085      0.00000
      8      29.3820      0.00000

 k-point    30 :      -0.2727    0.3636    0.0909
  band No.  band energies     occupation 
      1      -0.7806      2.00000
      2       9.5765      0.00033
      3      11.9779      0.00000
      4      17.0221      0.00000
      5      19.4980      0.00000
      6      20.5670      0.00000
      7      25.1388      0.00000
      8      28.2323      0.00000

 k-point    31 :      -0.4545    0.4545    0.0909
  band No.  band energies     occupation 
      1       1.8543      2.00000
      2       4.5247      2.00000
      3      13.4154      0.00000
      4      15.9430      0.00000
      5      18.9172      0.00000
      6      20.5107      0.00000
      7      25.7057      0.00000
      8      27.7241      0.00000

 k-point    32 :      -0.3636    0.4545    0.0909
  band No.  band energies     occupation 
      1       1.1467      2.00000
      2       6.3814      2.00000
      3      11.3009      0.00000
      4      16.5061      0.00000
      5      19.1678      0.00000
      6      21.4693      0.00000
      7      24.6775      0.00000
      8      27.3541      0.00000

 k-point    33 :      -0.2727    0.4545    0.0909
  band No.  band energies     occupation 
      1       0.9086      2.00000
      2       8.4769      2.00000
      3       8.8836      2.00000
      4      17.2699      0.00000
      5      19.6649      0.00000
      6      20.0556      0.00000
      7      25.8060      0.00000
      8      28.1176      0.00000

 k-point    34 :      -0.4545   -0.4545    0.0909
  band No.  band energies     occupation 
      1       3.2892      2.00000
      2       3.8082      2.00000
      3      11.0759      0.00000
      4      16.3164      0.00000
      5      18.9893      0.00000
      6      22.2032      0.00000
      7      24.5428      0.00000
      8      26.3553      0.00000

 k-point    35 :      -0.3636   -0.4545    0.0909
  band No.  band energies     occupation 
      1       3.0450      2.00000
      2       5.6822      2.00000
      3       8.2391      2.00000
      4      17.1372      0.00000
      5      19.5173      0.00000
      6      21.3143      0.00000
      7      23.5955      0.00000
      8      28.8473      0.00000

 k-point    36 :      -0.3636   -0.3636    0.0909
  band No.  band energies     occupation 
      1       4.9845      2.00000
      2       5.6679      2.00000
      3       5.6679      2.00000
      4      17.2252      0.00000
      5      20.8457      0.00000
      6      21.4241      0.00000
      7      21.4241      0.00000
      8      31.7890      0.00000

 k-point    37 :       0.1818    0.1818    0.1818
  band No.  band energies     occupation 
      1       1.3882      2.00000
      2       8.7155      2.00000
      3       9.4326      1.37020
      4       9.4326      1.37020
      5      26.5642      0.00000
      6      26.5642      0.00000
      7      28.6731      0.00000
      8      28.6731      0.00000

 k-point    38 :       0.2727    0.1818    0.1818
  band No.  band energies     occupation 
      1       3.5179      2.00000
      2       6.1503      2.00000
      3       8.5440      2.00000
      4       8.9767      2.00000
      5      27.1698      0.00000
      6      27.5037      0.00000
      7      29.9024      0.00000
      8      30.1197      0.00000

 k-point    39 :      -0.1818    0.1818    0.1818
  band No.  band energies     occupation 
      1      -2.4857      2.00000
      2      14.3344      0.00000
      3      14.3344      0.00000
      4      15.9756      0.00000
      5      18.0289      0.00000
      6      23.7800      0.00000
      7      25.1615      0.00000
      8      25.1615      0.00000

 k-point    40 :       0.2727    0.2727    0.1818
  band No.  band energies     occupation 
      1       5.4111      2.00000
      2       6.1660      2.00000
      3       6.1660      2.00000
      4       8.5538      2.00000
      5      28.2508      0.00000
      6      29.5854      0.00000
      7      29.5854      0.00000
      8      31.0381      0.00000

 k-point    41 :      -0.2727    0.2727    0.1818
  band No.  band energies     occupation 
      1      -1.2659      2.00000
      2      11.5014      0.00000
      3      13.0398      0.00000
      4      15.3260      0.00000
      5      17.4598      0.00000
      6      23.1698      0.00000
      7      25.1485      0.00000
      8      27.8686      0.00000

 k-point    42 :      -0.3636    0.3636    0.1818
  band No.  band energies     occupation 
      1       0.4280      2.00000
      2       8.2080      2.00000
      3      12.1658      0.00000
      4      14.6219      0.00000
      5      18.5237      0.00000
      6      22.3674      0.00000
      7      24.1536      0.00000
      8      26.9013      0.00000

 k-point    43 :      -0.2727    0.3636    0.1818
  band No.  band energies     occupation 
      1       0.1876      2.00000
      2      10.2329      0.00000
      3      10.5505      0.00000
      4      15.3469      0.00000
      5      16.6831      0.00000
      6      22.9279      0.00000
      7      25.1791      0.00000
      8      27.5161      0.00000

 k-point    44 :      -0.4545    0.4545    0.1818
  band No.  band energies     occupation 
      1       2.5713      2.00000
      2       5.2207      2.00000
      3      11.7268      0.00000
      4      14.2011      0.00000
      5      19.9935      0.00000
      6      21.9467      0.00000
      7      22.7768      0.00000
      8      25.9893      0.00000

 k-point    45 :      -0.3636    0.4545    0.1818
  band No.  band energies     occupation 
      1       2.1044      2.00000
      2       7.2803      2.00000
      3       9.7295      0.00000
      4      15.1587      0.00000
      5      17.7363      0.00000
      6      21.9428      0.00000
      7      23.1765      0.00000
      8      28.0852      0.00000

 k-point    46 :      -0.4545   -0.4545    0.1818
  band No.  band energies     occupation 
      1       4.2433      2.00000
      2       4.7298      2.00000
      3       9.4990      0.16315
      4      14.9850      0.00000
      5      19.1070      0.00000
      6      20.5346      0.00000
      7      22.6210      0.00000
      8      28.0605      0.00000

 k-point    47 :      -0.3636   -0.4545    0.1818
  band No.  band energies     occupation 
      1       4.2178      2.00000
      2       6.6542      2.00000
      3       7.0234      2.00000
      4      16.3667      0.00000
      5      17.8321      0.00000
      6      19.7929      0.00000
      7      22.5652      0.00000
      8      30.8672      0.00000

 k-point    48 :      -0.2727    0.2727    0.2727
  band No.  band energies     occupation 
      1      -0.0534      2.00000
      2      11.7333      0.00000
      3      11.7333      0.00000
      4      13.5323      0.00000
      5      15.0562      0.00000
      6      24.8148      0.00000
      7      26.1407      0.00000
      8      27.3152      0.00000

 k-point    49 :      -0.3636    0.3636    0.2727
  band No.  band energies     occupation 
      1       1.6290      2.00000
      2       9.2480      2.00000
      3      10.8524      0.00000
      4      13.1547      0.00000
      5      15.1208      0.00000
      6      21.9727      0.00000
      7      25.8490      0.00000
      8      28.0993      0.00000

 k-point    50 :      -0.4545    0.4545    0.2727
  band No.  band energies     occupation 
      1       3.7559      2.00000
      2       6.3625      2.00000
      3      10.4101      0.00000
      4      12.8025      0.00000
      5      16.7868      0.00000
      6      19.3489      0.00000
      7      25.4571      0.00000
      8      28.2115      0.00000

 k-point    51 :      -0.3636    0.4545    0.2727
  band No.  band energies     occupation 
      1       3.5266      2.00000
      2       8.4278      2.00000
      3       8.7225      2.00000
      4      13.6679      0.00000
      5      14.7667      0.00000
      6      19.0846      0.00000
      7      26.1664      0.00000
      8      30.2896      0.00000

 k-point    52 :      -0.4545   -0.4545    0.2727
  band No.  band energies     occupation 
      1       5.6461      2.00000
      2       6.0905      2.00000
      3       8.3646      2.00000
      4      13.8058      0.00000
      5      16.1024      0.00000
      6      16.8982      0.00000
      7      26.0474      0.00000
      8      30.8913      0.00000

 k-point    53 :      -0.3636    0.3636    0.3636
  band No.  band energies     occupation 
      1       3.2926      2.00000
      2       9.9678      0.00000
      3       9.9678      0.00000
      4      11.7678      0.00000
      5      13.0606      0.00000
      6      18.8543      0.00000
      7      29.3294      0.00000
      8      30.0921      0.00000

 k-point    54 :      -0.4545    0.4545    0.3636
  band No.  band energies     occupation 
      1       5.3862      2.00000
      2       7.8827      2.00000
      3       9.5241      0.03533
      4      11.7591      0.00000
      5      13.6840      0.00000
      6      16.0687      0.00000
      7      29.2886      0.00000
      8      30.9952      0.00000

 k-point    55 :      -0.4545   -0.4545    0.3636
  band No.  band energies     occupation 
      1       7.3254      2.00000
      2       7.8037      2.00000
      3       7.8037      2.00000
      4      12.4561      0.00000
      5      13.8001      0.00000
      6      13.8001      0.00000
      7      29.7948      0.00000
      8      33.1522      0.00000

 k-point    56 :      -0.4545    0.4545    0.4545
  band No.  band energies     occupation 
      1       7.3898      2.00000
      2       9.0796      2.00000
      3       9.0796      2.00000
      4      10.7449      0.00000
      5      12.0607      0.00000
      6      13.3135      0.00000
      7      32.7848      0.00000
      8      32.9698      0.00000


--------------------------------------------------------------------------------------------------------


 soft charge-density along one line, spin component           1
         0         1         2         3         4         5         6         7         8         9
 total charge-density along one line
 
 pseudopotential strength for first ion, spin component:           1
 18.039  25.165   0.000   0.000   0.000   0.000   0.000   0.000
 25.165  35.112   0.000   0.000   0.000   0.000   0.000   0.000
  0.000   0.000   4.106  -0.000   0.000   7.650  -0.000   0.000
  0.000   0.000  -0.000   4.106  -0.000  -0.000   7.650  -0.000
  0.000   0.000   0.000  -0.000   4.106   0.000  -0.000   7.650
  0.000   0.000   7.650  -0.000   0.000  14.263  -0.000   0.000
  0.000   0.000  -0.000   7.650  -0.000  -0.000  14.263  -0.000
  0.000   0.000   0.000  -0.000   7.650   0.000  -0.000  14.263
 total augmentation occupancy for first ion, spin component:           1
  4.498  -1.772   0.000   0.000   0.000   0.000   0.000   0.000
 -1.772   1.128   0.000   0.000   0.000   0.000   0.000   0.000
  0.000   0.000   2.179   0.000   0.000  -0.498   0.000  -0.000
  0.000   0.000   0.000   2.179   0.000   0.000  -0.498  -0.000
  0.000   0.000   0.000   0.000   2.179   0.000  -0.000  -0.498
  0.000   0.000  -0.498   0.000   0.000   0.127  -0.000   0.000
  0.000   0.000   0.000  -0.498  -0.000  -0.000   0.127   0.000
  0.000   0.000   0.000  -0.000  -0.498   0.000   0.000   0.127


------------------------ aborting loop because EDIFF is reached ----------------------------------------


    CHARGE:  cpu time    0.0110: real time    0.0110
    FORLOC:  cpu time    0.0000: real time    0.0005
    FORNL :  cpu time    0.0340: real time    0.0341
    STRESS:  cpu time    0.2080: real time    0.2079
    FORCOR:  cpu time    0.0100: real time    0.0094
    FORHAR:  cpu time    0.0010: real time    0.0019
    MIXING:  cpu time    0.0000: real time    0.0005
    OFIELD:  cpu time    0.0000: real time    0.0002

  FORCE on cell =-STRESS in cart. coord.  units (eV):
  Direction    XX          YY          ZZ          XY          YZ          ZX
  --------------------------------------------------------------------------------------
  Alpha Z     2.22221     2.22221     2.22221
  Ewald     -44.82653   -44.82653   -44.82653    -0.00000     0.00000    -0.00000
  Hartree     0.16094     0.16094     0.16094    -0.00000     0.00000     0.00000
  E(xc)     -12.55491   -12.55491   -12.55491     0.00000    -0.00000    -0.00000
  Local      -5.37897    -5.37897    -5.37897    -0.00001     0.00001     0.00001
  n-local    38.55513    38.35574    38.18464    -0.99129    -0.93617     0.38969
  augment    -6.29741    -6.29741    -6.29741     0.00001    -0.00001    -0.00001
  Kinetic    24.20249    33.79409    25.94938    12.25847    11.65388    -5.29193
  Fock        0.00000     0.00000     0.00000     0.00000     0.00000     0.00000
  -------------------------------------------------------------------------------------
  Total      -0.32751    -0.32751    -0.32751     0.00000     0.00000     0.00000
  in kB     -34.63922   -34.63922   -34.63922     0.00000     0.00000     0.00000
  external pressure =      -34.64 kB  Pullay stress =        0.00 kB


 VOLUME and BASIS-vectors are now :
 -----------------------------------------------------------------------------
  energy-cutoff  :      350.00
  volume of cell :       15.15
      direct lattice vectors                 reciprocal lattice vectors
     1.558725399  1.558725399  1.558725399     0.320774910  0.320774910  0.000000000
     1.558725399 -1.558725399 -1.558725399     0.320774910  0.000000000 -0.320774910
    -1.558725399  1.558725399 -1.558725399     0.000000000  0.320774910 -0.320774910

  length of vectors
     2.699791586  2.699791586  2.699791586     0.453644229  0.453644229  0.453644229


 FORCES acting on ions
    electron-ion (+dipol)            ewald-force                    non-local-force                 convergence-correction
 -----------------------------------------------------------------------------------------------
   0.834E-15 0.333E-15 0.716E-15   -.613E-15 0.454E-15 0.285E-16   -.132E-22 0.132E-22 0.132E-22   -.173E-16 -.193E-16 -.510E-17
 -----------------------------------------------------------------------------------------------
   0.834E-15 0.333E-15 0.716E-15   -.613E-15 0.454E-15 0.285E-16   -.132E-22 0.132E-22 0.132E-22   -.173E-16 -.193E-16 -.510E-17
 
 
 POSITION                                       TOTAL-FORCE (eV/Angst)
 -----------------------------------------------------------------------------------
      0.00000      0.00000      0.00000        -0.000000      0.000000      0.000000
 -----------------------------------------------------------------------------------
    total drift:                                0.000000      0.000000      0.000000


--------------------------------------------------------------------------------------------------------



  FREE ENERGIE OF THE ION-ELECTRON SYSTEM (eV)
  ---------------------------------------------------
  free  energy   TOTEN  =        -4.87660735 eV

  energy  without entropy=       -4.87550982  energy(sigma->0) =       -4.87605859
 


--------------------------------------------------------------------------------------------------------


    POTLOK:  cpu time    0.1750: real time    0.1813


--------------------------------------------------------------------------------------------------------




--------------------------------------------------------------------------------------------------------


  
 reached required accuracy - stopping structural energy minimisation
     LOOP+:  cpu time    3.2785: real time    3.4421
    4ORBIT:  cpu time    0.0000: real time    0.0000

 total amount of memory used by VASP MPI-rank0    33112. kBytes
=======================================================================

   base      :      30000. kBytes
   nonl-proj :        849. kBytes
   fftplans  :       1246. kBytes
   grid      :        577. kBytes
   one-center:          3. kBytes
   wavefun   :        437. kBytes
 
  
  
 General timing and accounting informations for this job:
 ========================================================
  
                  Total CPU time used (sec):        3.805
                            User time (sec):        3.603
                          System time (sec):        0.202
                         Elapsed time (sec):        4.544
  
                   Maximum memory used (kb):       50784.
                   Average memory used (kb):          N/A
  
                          Minor page faults:         8962
                          Major page faults:            1
                 Voluntary context switches:         9741
