 running on    4 total cores
 distrk:  each k-point on    4 cores,    1 groups
 distr:  one band on    1 cores,    4 groups
 vasp.6.2.0 18Jan21 (build Aug 12 2022 13:00:08) complex                        
  
 POSCAR found type information on POSCAR Si
 POSCAR found :  1 types and       1 ions
 scaLAPACK will be used
 LDA part: xc-table for Pade appr. of Perdew
 POSCAR, INCAR and KPOINTS ok, starting setup
 FFT: planning ...
 WAVECAR not read
 entering main loop
       N       E                     dE             d eps       ncg     rms          rms(c)
DAV:   1    -0.342139835416E+01   -0.34214E+01   -0.13854E+03   976   0.269E+02
DAV:   2    -0.488628713740E+01   -0.14649E+01   -0.14325E+01  1376   0.228E+01
DAV:   3    -0.489364809104E+01   -0.73610E-02   -0.73524E-02  1000   0.158E+00
DAV:   4    -0.489365463561E+01   -0.65446E-05   -0.65444E-05  1408   0.497E-02
DAV:   5    -0.489365463581E+01   -0.19683E-09   -0.14577E-08  1032   0.458E-04    0.242E+00
DAV:   6    -0.488270187926E+01    0.10953E-01   -0.40980E-03   928   0.279E-01    0.133E+00
DAV:   7    -0.487662125861E+01    0.60806E-02   -0.80703E-03   976   0.390E-01    0.130E-01
DAV:   8    -0.487660661269E+01    0.14646E-04   -0.37284E-05  1272   0.456E-02    0.134E-02
DAV:   9    -0.487660735168E+01   -0.73899E-06   -0.47237E-07  1088   0.390E-03
   1 F= -.48766074E+01 E0= -.48760586E+01  d E =-.487661E+01
 curvature:   0.00 expect dE= 0.000E+00 dE for cont linesearch  0.000E+00
 trial: gam= 0.00000 g(F)=  0.779E-65 g(S)=  0.000E+00 ort = 0.000E+00 (trialstep = 0.100E+01)
 search vector abs. value=  0.100E-09
 reached required accuracy - stopping structural energy minimisation
