<?xml version="1.0" encoding="ISO-8859-1"?>
<modeling>
 <generator>
  <i name="program" type="string">vasp </i>
  <i name="version" type="string">6.2.0  </i>
  <i name="subversion" type="string">18Jan21 (build Aug 12 2022 13:00:08) complex                          parallel </i>
  <i name="platform" type="string">LinuxIFC </i>
  <i name="date" type="string">2024 11 05 </i>
  <i name="time" type="string">05:45:41 </i>
 </generator>
 <incar>
  <i type="int" name="ISTART">     0</i>
  <i type="string" name="PREC">Accurate      (Accurate strictly avoids</i>
  <i type="logical" name="ADDGRID"> T  </i>
  <i type="int" name="ISPIN">     1</i>
  <i type="int" name="NELM">    90</i>
  <i type="int" name="NELMIN">     6</i>
  <i type="int" name="IBRION">     2</i>
  <i name="EDIFF">      0.00000100</i>
  <i name="EDIFFG">     -0.00200000</i>
  <i type="int" name="NSW">   100</i>
  <i type="int" name="ISIF">     2</i>
  <i type="int" name="ISYM">     2</i>
  <i name="ENCUT">    350.00000000</i>
  <i type="logical" name="LREAL"> F  </i>
  <i type="int" name="ISMEAR">     0</i>
  <i name="SIGMA">      0.05000000</i>
  <i type="logical" name="LWAVE"> F  </i>
  <i type="logical" name="LCHARG"> F  </i>
  <i type="logical" name="LASPH"> T  </i>
 </incar>
 <primitive_cell>
  <structure name="primitive_cell" >
   <crystal>
    <varray name="basis" >
     <v>       1.55872540       1.55872540       1.55872540 </v>
     <v>       1.55872540      -1.55872540      -1.55872540 </v>
     <v>      -1.55872540       1.55872540      -1.55872540 </v>
    </varray>
    <i name="volume">     15.14847197 </i>
    <varray name="rec_basis" >
     <v>       0.32077491       0.32077491       0.00000000 </v>
     <v>       0.32077491       0.00000000      -0.32077491 </v>
     <v>       0.00000000       0.32077491      -0.32077491 </v>
    </varray>
   </crystal>
   <varray name="positions" >
    <v>       0.00000000       0.00000000       0.00000000 </v>
   </varray>
  </structure>
  <varray name="primitive_index" >
   <v type="int" >        1 </v>
  </varray>
 </primitive_cell>
 <kpoints>
  <generation param="Monkhorst-Pack">
   <v type="int" name="divisions">      11       11       11 </v>
   <v name="usershift">      0.00000000       0.00000000       0.00000000 </v>
   <v name="genvec1">      0.09090909       0.00000000       0.00000000 </v>
   <v name="genvec2">      0.00000000       0.09090909       0.00000000 </v>
   <v name="genvec3">      0.00000000       0.00000000       0.09090909 </v>
   <v name="shift">      0.00000000       0.00000000       0.00000000 </v>
  </generation>
  <varray name="kpointlist" >
   <v>       0.00000000       0.00000000       0.00000000 </v>
   <v>       0.09090909       0.00000000       0.00000000 </v>
   <v>       0.18181818       0.00000000       0.00000000 </v>
   <v>       0.27272727       0.00000000       0.00000000 </v>
   <v>       0.36363636       0.00000000       0.00000000 </v>
   <v>       0.45454545       0.00000000       0.00000000 </v>
   <v>       0.09090909       0.09090909       0.00000000 </v>
   <v>       0.18181818       0.09090909       0.00000000 </v>
   <v>       0.27272727       0.09090909      -0.00000000 </v>
   <v>       0.36363636       0.09090909       0.00000000 </v>
   <v>       0.45454545       0.09090909       0.00000000 </v>
   <v>       0.18181818       0.18181818       0.00000000 </v>
   <v>       0.27272727       0.18181818      -0.00000000 </v>
   <v>       0.36363636       0.18181818       0.00000000 </v>
   <v>       0.27272727       0.27272727       0.00000000 </v>
   <v>       0.36363636       0.27272727      -0.00000000 </v>
   <v>       0.09090909       0.09090909       0.09090909 </v>
   <v>       0.18181818       0.09090909       0.09090909 </v>
   <v>       0.27272727       0.09090909       0.09090909 </v>
   <v>       0.36363636       0.09090909       0.09090909 </v>
   <v>      -0.09090909       0.09090909       0.09090909 </v>
   <v>       0.18181818       0.18181818       0.09090909 </v>
   <v>       0.27272727       0.18181818       0.09090909 </v>
   <v>       0.36363636       0.18181818       0.09090909 </v>
   <v>      -0.18181818       0.18181818       0.09090909 </v>
   <v>       0.27272727       0.27272727       0.09090909 </v>
   <v>      -0.27272727       0.27272727       0.09090909 </v>
   <v>      -0.18181818       0.27272727       0.09090909 </v>
   <v>      -0.36363636       0.36363636       0.09090909 </v>
   <v>      -0.27272727       0.36363636       0.09090909 </v>
   <v>      -0.45454545       0.45454545       0.09090909 </v>
   <v>      -0.36363636       0.45454545       0.09090909 </v>
   <v>      -0.27272727       0.45454545       0.09090909 </v>
   <v>      -0.45454545      -0.45454545       0.09090909 </v>
   <v>      -0.36363636      -0.45454545       0.09090909 </v>
   <v>      -0.36363636      -0.36363636       0.09090909 </v>
   <v>       0.18181818       0.18181818       0.18181818 </v>
   <v>       0.27272727       0.18181818       0.18181818 </v>
   <v>      -0.18181818       0.18181818       0.18181818 </v>
   <v>       0.27272727       0.27272727       0.18181818 </v>
   <v>      -0.27272727       0.27272727       0.18181818 </v>
   <v>      -0.36363636       0.36363636       0.18181818 </v>
   <v>      -0.27272727       0.36363636       0.18181818 </v>
   <v>      -0.45454545       0.45454545       0.18181818 </v>
   <v>      -0.36363636       0.45454545       0.18181818 </v>
   <v>      -0.45454545      -0.45454545       0.18181818 </v>
   <v>      -0.36363636      -0.45454545       0.18181818 </v>
   <v>      -0.27272727       0.27272727       0.27272727 </v>
   <v>      -0.36363636       0.36363636       0.27272727 </v>
   <v>      -0.45454545       0.45454545       0.27272727 </v>
   <v>      -0.36363636       0.45454545       0.27272727 </v>
   <v>      -0.45454545      -0.45454545       0.27272727 </v>
   <v>      -0.36363636       0.36363636       0.36363636 </v>
   <v>      -0.45454545       0.45454545       0.36363636 </v>
   <v>      -0.45454545      -0.45454545       0.36363636 </v>
   <v>      -0.45454545       0.45454545       0.45454545 </v>
  </varray>
  <varray name="weights" >
   <v>       0.00075131 </v>
   <v>       0.00901578 </v>
   <v>       0.00901578 </v>
   <v>       0.00901578 </v>
   <v>       0.00901578 </v>
   <v>       0.00901578 </v>
   <v>       0.01803156 </v>
   <v>       0.03606311 </v>
   <v>       0.03606311 </v>
   <v>       0.03606311 </v>
   <v>       0.01803156 </v>
   <v>       0.01803156 </v>
   <v>       0.03606311 </v>
   <v>       0.03606311 </v>
   <v>       0.01803156 </v>
   <v>       0.01803156 </v>
   <v>       0.00601052 </v>
   <v>       0.01803156 </v>
   <v>       0.01803156 </v>
   <v>       0.01803156 </v>
   <v>       0.00450789 </v>
   <v>       0.01803156 </v>
   <v>       0.03606311 </v>
   <v>       0.01803156 </v>
   <v>       0.01803156 </v>
   <v>       0.01803156 </v>
   <v>       0.01803156 </v>
   <v>       0.01803156 </v>
   <v>       0.01803156 </v>
   <v>       0.03606311 </v>
   <v>       0.01803156 </v>
   <v>       0.03606311 </v>
   <v>       0.01803156 </v>
   <v>       0.01803156 </v>
   <v>       0.03606311 </v>
   <v>       0.00601052 </v>
   <v>       0.00601052 </v>
   <v>       0.01803156 </v>
   <v>       0.00450789 </v>
   <v>       0.00601052 </v>
   <v>       0.01803156 </v>
   <v>       0.01803156 </v>
   <v>       0.01803156 </v>
   <v>       0.01803156 </v>
   <v>       0.03606311 </v>
   <v>       0.01803156 </v>
   <v>       0.01803156 </v>
   <v>       0.00450789 </v>
   <v>       0.01803156 </v>
   <v>       0.01803156 </v>
   <v>       0.01803156 </v>
   <v>       0.01803156 </v>
   <v>       0.00450789 </v>
   <v>       0.01803156 </v>
   <v>       0.00601052 </v>
   <v>       0.00450789 </v>
  </varray>
 </kpoints>
 <parameters>
  <separator name="general" >
   <i type="string" name="SYSTEM">unknown system</i>
   <i type="logical" name="LCOMPAT"> F  </i>
  </separator>
  <separator name="electronic" >
   <i type="string" name="PREC">accura</i>
   <i name="ENMAX">    350.00000000</i>
   <i name="ENAUG">    322.06900000</i>
   <i name="EDIFF">      0.00000100</i>
   <i type="int" name="IALGO">    38</i>
   <i type="int" name="IWAVPR">    11</i>
   <i type="int" name="NBANDS">     8</i>
   <i type="int" name="NBANDSLOW">    -1</i>
   <i type="int" name="NBANDSHIGH">    -1</i>
   <i name="NELECT">      4.00000000</i>
   <i type="int" name="TURBO">     0</i>
   <i type="int" name="IRESTART">     0</i>
   <i type="int" name="NREBOOT">     0</i>
   <i type="int" name="NMIN">     0</i>
   <i name="EREF">      0.00000000</i>
   <separator name="electronic smearing" >
    <i type="int" name="ISMEAR">     0</i>
    <i name="SIGMA">      0.05000000</i>
    <i name="KSPACING">      0.50000000</i>
    <i type="logical" name="KGAMMA"> T  </i>
    <i type="logical" name="KBLOWUP"> T  </i>
   </separator>
   <separator name="electronic projectors" >
    <i type="logical" name="LREAL"> F  </i>
    <v name="ROPT">      0.00000000</v>
    <i type="int" name="LMAXPAW">  -100</i>
    <i type="int" name="LMAXMIX">     2</i>
    <i type="logical" name="NLSPLINE"> F  </i>
   </separator>
   <separator name="electronic startup" >
    <i type="int" name="ISTART">     0</i>
    <i type="int" name="ICHARG">     2</i>
    <i type="int" name="INIWAV">     1</i>
   </separator>
   <separator name="electronic spin" >
    <i type="int" name="ISPIN">     1</i>
    <i type="logical" name="LNONCOLLINEAR"> F  </i>
    <v name="MAGMOM">      1.00000000</v>
    <i name="NUPDOWN">     -1.00000000</i>
    <i type="logical" name="LSORBIT"> F  </i>
    <v name="SAXIS">      0.00000000      0.00000000      1.00000000</v>
    <i type="logical" name="LSPIRAL"> F  </i>
    <v name="QSPIRAL">      0.00000000      0.00000000      0.00000000</v>
    <i type="logical" name="LZEROZ"> F  </i>
   </separator>
   <separator name="electronic exchange-correlation" >
    <i type="logical" name="LASPH"> T  </i>
    <i type="logical" name="LMETAGGA"> F  </i>
   </separator>
   <separator name="electronic convergence" >
    <i type="int" name="NELM">    90</i>
    <i type="int" name="NELMDL">    -5</i>
    <i type="int" name="NELMIN">     6</i>
    <i name="ENINI">    350.00000000</i>
    <separator name="electronic convergence detail" >
     <i type="logical" name="LDIAG"> T  </i>
     <i type="logical" name="LSUBROT"> F  </i>
     <i name="WEIMIN">      0.00100000</i>
     <i name="EBREAK">      0.00000003</i>
     <i name="DEPER">      0.30000000</i>
     <i type="int" name="NRMM">     4</i>
     <i name="TIME">      0.40000000</i>
    </separator>
   </separator>
   <separator name="electronic mixer" >
    <i name="AMIX">      0.40000000</i>
    <i name="BMIX">      1.00000000</i>
    <i name="AMIN">      0.10000000</i>
    <i name="AMIX_MAG">      1.60000000</i>
    <i name="BMIX_MAG">      1.00000000</i>
    <separator name="electronic mixer details" >
     <i type="int" name="IMIX">     4</i>
     <i type="logical" name="MIXFIRST"> F  </i>
     <i type="int" name="MAXMIX">   -45</i>
     <i name="WC">    100.00000000</i>
     <i type="int" name="INIMIX">     1</i>
     <i type="int" name="MIXPRE">     1</i>
     <i type="int" name="MREMOVE">     5</i>
    </separator>
   </separator>
   <separator name="electronic dipolcorrection" >
    <i type="logical" name="LDIPOL"> F  </i>
    <i type="logical" name="LMONO"> F  </i>
    <i type="int" name="IDIPOL">     0</i>
    <i name="EPSILON">      1.00000000</i>
    <v name="DIPOL">   -100.00000000   -100.00000000   -100.00000000</v>
    <i name="EFIELD">      0.00000000</i>
   </separator>
  </separator>
  <separator name="grids" >
   <i type="int" name="NGX">    16</i>
   <i type="int" name="NGY">    16</i>
   <i type="int" name="NGZ">    16</i>
   <i type="int" name="NGXF">    32</i>
   <i type="int" name="NGYF">    32</i>
   <i type="int" name="NGZF">    32</i>
   <i type="logical" name="ADDGRID"> T  </i>
  </separator>
  <separator name="ionic" >
   <i type="int" name="NSW">   100</i>
   <i type="int" name="IBRION">     2</i>
   <i type="int" name="MDALGO">     0</i>
   <i type="int" name="ISIF">     2</i>
   <i name="PSTRESS">      0.00000000</i>
   <i name="EDIFFG">     -0.00200000</i>
   <i type="int" name="NFREE">     1</i>
   <i name="POTIM">      0.50000000</i>
   <i name="SMASS">     -3.00000000</i>
   <i name="SCALEE">      1.00000000</i>
  </separator>
  <separator name="ionic md" >
   <i name="TEBEG">      0.00010000</i>
   <i name="TEEND">      0.00010000</i>
   <i type="int" name="NBLOCK">     1</i>
   <i type="int" name="KBLOCK">   100</i>
   <i type="int" name="NPACO">   256</i>
   <i name="APACO">     16.00000000</i>
  </separator>
  <separator name="symmetry" >
   <i type="int" name="ISYM">     2</i>
   <i name="SYMPREC">      0.00001000</i>
  </separator>
  <separator name="dos" >
   <i type="int" name="LORBIT">     0</i>
   <v name="RWIGS">     -1.00000000</v>
   <i type="int" name="NEDOS">   301</i>
   <i name="EMIN">     10.00000000</i>
   <i name="EMAX">    -10.00000000</i>
   <i name="EFERMI">      0.00000000</i>
  </separator>
  <separator name="writing" >
   <i type="int" name="NWRITE">     2</i>
   <i type="logical" name="LWAVE"> F  </i>
   <i type="logical" name="LDOWNSAMPLE"> F  </i>
   <i type="logical" name="LCHARG"> F  </i>
   <i type="logical" name="LPARD"> F  </i>
   <i type="logical" name="LVTOT"> F  </i>
   <i type="logical" name="LVHAR"> F  </i>
   <i type="logical" name="LELF"> F  </i>
   <i type="logical" name="LOPTICS"> F  </i>
   <v name="STM">      0.00000000      0.00000000      0.00000000      0.00000000      0.00000000      0.00000000      0.00000000</v>
  </separator>
  <separator name="performance" >
   <i type="int" name="NPAR">     4</i>
   <i type="int" name="NSIM">     4</i>
   <i type="int" name="NBLK">    -1</i>
   <i type="logical" name="LPLANE"> T  </i>
   <i type="logical" name="LSCALAPACK"> T  </i>
   <i type="logical" name="LSCAAWARE"> F  </i>
   <i type="logical" name="LSCALU"> F  </i>
   <i type="logical" name="LASYNC"> F  </i>
   <i type="logical" name="LORBITALREAL"> F  </i>
  </separator>
  <separator name="miscellaneous" >
   <i type="int" name="IDIOT">     3</i>
   <i type="int" name="PHON_NSTRUCT">    -1</i>
   <i type="logical" name="LMUSIC"> F  </i>
   <v name="POMASS">     28.08500000</v>
   <v name="DARWINR">      0.00000000</v>
   <v name="DARWINV">      1.00000000</v>
   <i type="logical" name="LCORR"> T  </i>
  </separator>
  <i type="logical" name="GGA_COMPAT"> T  </i>
  <i type="logical" name="LBERRY"> F  </i>
  <i type="int" name="ICORELEVEL">     0</i>
  <i type="logical" name="LDAU"> F  </i>
  <i type="int" name="I_CONSTRAINED_M">     0</i>
  <separator name="electronic exchange-correlation" >
   <i type="string" name="GGA">--</i>
   <i type="int" name="VOSKOWN">     0</i>
   <i type="logical" name="LHFCALC"> F  </i>
   <i type="string" name="PRECFOCK"></i>
   <i type="logical" name="LSYMGRAD"> F  </i>
   <i type="logical" name="LHFONE"> F  </i>
   <i type="logical" name="LRHFCALC"> F  </i>
   <i type="logical" name="LTHOMAS"> F  </i>
   <i type="logical" name="LMODELHF"> F  </i>
   <i type="logical" name="LFOCKACE"> F  </i>
   <i name="ENCUT4O">     -1.00000000</i>
   <i type="int" name="EXXOEP">     0</i>
   <i type="int" name="FOURORBIT">     0</i>
   <i name="AEXX">      0.00000000</i>
   <i name="HFALPHA">      0.00000000</i>
   <i name="MCALPHA">      0.00000000</i>
   <i name="ALDAX">      1.00000000</i>
   <i name="AGGAX">      1.00000000</i>
   <i name="ALDAC">      1.00000000</i>
   <i name="AGGAC">      1.00000000</i>
   <i type="int" name="NKREDX">     1</i>
   <i type="int" name="NKREDY">     1</i>
   <i type="int" name="NKREDZ">     1</i>
   <i type="logical" name="SHIFTRED"> F  </i>
   <i type="logical" name="ODDONLY"> F  </i>
   <i type="logical" name="EVENONLY"> F  </i>
   <i type="int" name="LMAXFOCK">     0</i>
   <i type="int" name="NMAXFOCKAE">     0</i>
   <i type="logical" name="LFOCKAEDFT"> F  </i>
   <i name="HFSCREEN">      0.00000000</i>
   <i name="HFSCREENC">      0.00000000</i>
   <i type="int" name="NBANDSGWLOW">     0</i>
  </separator>
  <separator name="vdW DFT" >
   <i type="logical" name="LUSE_VDW"> F  </i>
   <i name="Zab_VDW">     -0.84910000</i>
   <i name="PARAM1">      0.12340000</i>
   <i name="PARAM2">      1.00000000</i>
   <i name="PARAM3">      0.00000000</i>
  </separator>
  <separator name="model GW" >
   <i type="int" name="MODEL_GW">     0</i>
   <i name="MODEL_EPS0">      9.08908318</i>
   <i name="MODEL_ALPHA">      1.00000000</i>
  </separator>
  <separator name="linear response parameters" >
   <i type="logical" name="LEPSILON"> F  </i>
   <i type="logical" name="LRPA"> F  </i>
   <i type="logical" name="LNABLA"> F  </i>
   <i type="logical" name="LVEL"> F  </i>
   <i type="int" name="KINTER">     0</i>
   <i name="CSHIFT">      0.10000000</i>
   <i name="OMEGAMAX">     -1.00000000</i>
   <i name="DEG_THRESHOLD">      0.00200000</i>
   <i name="RTIME">     -0.10000000</i>
   <i name="WPLASMAI">      0.00000000</i>
   <v name="DFIELD">      0.00000000      0.00000000      0.00000000</v>
   <v name="WPLASMA">      0.00000000      0.00000000      0.00000000      0.00000000      0.00000000      0.00000000      0.00000000      0.00000000      0.00000000</v>
  </separator>
  <separator name="orbital magnetization" >
   <i type="logical" name="NUCIND"> F  </i>
   <v name="MAGPOS">      0.00000000      0.00000000      0.00000000</v>
   <i type="logical" name="LNICSALL"> T  </i>
   <i type="logical" name="ORBITALMAG"> F  </i>
   <i type="logical" name="LMAGBLOCH"> F  </i>
   <i type="logical" name="LCHIMAG"> F  </i>
   <i type="logical" name="LGAUGE"> T  </i>
   <i type="int" name="MAGATOM">     0</i>
   <v name="MAGDIPOL">      0.00000000      0.00000000      0.00000000</v>
   <v name="AVECCONST">      0.00000000      0.00000000      0.00000000</v>
  </separator>
  <separator name="response functions" >
   <i type="logical" name="LFINITE_TEMPERATURE"> F  </i>
   <i type="logical" name="LADDER"> F  </i>
   <i type="logical" name="LRPAFORCE"> F  </i>
   <i type="logical" name="LFXC"> F  </i>
   <i type="logical" name="LHARTREE"> T  </i>
   <i type="int" name="IBSE">     0</i>
   <v type="int" name="KPOINT">    -1     0     0     0</v>
   <i type="logical" name="LTCTC"> F  </i>
   <i type="logical" name="LTCTE"> F  </i>
   <i type="logical" name="LTETE"> F  </i>
   <i type="logical" name="LTRIPLET"> F  </i>
   <i type="logical" name="LFXCEPS"> F  </i>
   <i type="logical" name="LFXHEG"> F  </i>
   <i type="int" name="NATURALO">     2</i>
   <i type="logical" name="LHOLEGF"> F  </i>
   <i type="logical" name="L2ORDER"> F  </i>
   <i type="logical" name="LDMP1"> F  </i>
   <i type="logical" name="LMP2LT"> F  </i>
   <i type="logical" name="LSMP2LT"> F  </i>
   <i type="logical" name="LGWLF"> F  </i>
   <i name="ENCUTGW">     -2.00000000</i>
   <i name="ENCUTGWSOFT">     -2.00000000</i>
   <i name="ENCUTLF">     -1.00000000</i>
   <i type="logical" name="LESF_SPLINES"> F  </i>
   <i type="int" name="LMAXMP2">    -1</i>
   <i name="SCISSOR">      0.00000000</i>
   <i type="int" name="NOMEGA">     0</i>
   <i type="int" name="NOMEGAR">     0</i>
   <i type="int" name="NBANDSGW">    -1</i>
   <i type="int" name="NBANDSO">    -1</i>
   <i type="int" name="NBANDSV">    -1</i>
   <i type="int" name="NELM">    90</i>
   <i type="int" name="NELMHF">     1</i>
   <i type="int" name="DIM">     3</i>
   <i type="int" name="IESPILON">     4</i>
   <i type="int" name="ANTIRES">     0</i>
   <i name="OMEGAMAX">    -30.00000000</i>
   <i name="OMEGAMIN">    -30.00000000</i>
   <i name="OMEGATL">   -200.00000000</i>
   <i type="int" name="OMEGAGRID">     0</i>
   <i name="CSHIFT">     -0.10000000</i>
   <i type="logical" name="LSELFENERGY"> F  </i>
   <i type="logical" name="LSPECTRAL"> F  </i>
   <i type="logical" name="LSPECTRALGW"> F  </i>
   <i type="logical" name="LSINGLES"> F  </i>
   <i type="logical" name="LFERMIGW"> F  </i>
   <i type="logical" name="ODDONLYGW"> F  </i>
   <i type="logical" name="EVENONLYGW"> F  </i>
   <i type="int" name="NKREDLFX">     1</i>
   <i type="int" name="NKREDLFY">     1</i>
   <i type="int" name="NKREDLFZ">     1</i>
   <i type="int" name="MAXMEM">  2800</i>
   <i type="int" name="TELESCOPE">     0</i>
   <i type="int" name="NTAUPAR">    -1</i>
   <i type="int" name="NOMEGAPAR">    -1</i>
   <i name="DAMP_NEWTON">      0.80000001</i>
   <i name="LAMBDA">      1.00000000</i>
  </separator>
  <separator name="External order field" >
   <i name="OFIELD_KAPPA">      0.00000000</i>
   <v name="OFIELD_K">      0.00000000      0.00000000      0.00000000</v>
   <i name="OFIELD_Q6_NEAR">      0.00000000</i>
   <i name="OFIELD_Q6_FAR">      0.00000000</i>
   <i name="OFIELD_A">      0.00000000</i>
  </separator>
 </parameters>
 <atominfo>
  <atoms>       1 </atoms>
  <types>       1 </types>
  <array name="atoms" >
   <dimension dim="1">ion</dimension>
   <field type="string">element</field>
   <field type="int">atomtype</field>
   <set>
    <rc><c>Si</c><c>   1</c></rc>
   </set>
  </array>
  <array name="atomtypes" >
   <dimension dim="1">type</dimension>
   <field type="int">atomspertype</field>
   <field type="string">element</field>
   <field>mass</field>
   <field>valence</field>
   <field type="string">pseudopotential</field>
   <set>
    <rc><c>   1</c><c>Si</c><c>     28.08500000</c><c>      4.00000000</c><c>  PAW_PBE Si 05Jan2001                  </c></rc>
   </set>
  </array>
 </atominfo>
 <structure name="initialpos" >
  <crystal>
   <varray name="basis" >
    <v>       1.55872540       1.55872540       1.55872540 </v>
    <v>       1.55872540      -1.55872540      -1.55872540 </v>
    <v>      -1.55872540       1.55872540      -1.55872540 </v>
   </varray>
   <i name="volume">     15.14847197 </i>
   <varray name="rec_basis" >
    <v>       0.32077491       0.32077491       0.00000000 </v>
    <v>       0.32077491       0.00000000      -0.32077491 </v>
    <v>       0.00000000       0.32077491      -0.32077491 </v>
   </varray>
  </crystal>
  <varray name="positions" >
   <v>       0.00000000       0.00000000       0.00000000 </v>
  </varray>
 </structure>
 <calculation>
  <scstep>
   <time name="dav">    0.17    0.17</time>
   <time name="total">    0.34    0.34</time>
   <energy>
    <i name="alphaZ">      2.22221296 </i>
    <i name="ewald">   -134.47958737 </i>
    <i name="hartreedc">     -0.67247217 </i>
    <i name="XCdc">     -8.92790871 </i>
    <i name="pawpsdc">     88.12379961 </i>
    <i name="pawaedc">    -70.53051779 </i>
    <i name="eentropy">     -0.00051948 </i>
    <i name="bandstr">     17.77796752 </i>
    <i name="atom">    103.06562707 </i>
    <i name="e_fr_energy">     -3.42139835 </i>
    <i name="e_wo_entrp">     -3.42087888 </i>
    <i name="e_0_energy">     -3.42113862 </i>
   </energy>
  </scstep>
  <scstep>
   <time name="dav">    0.24    0.26</time>
   <time name="total">    0.24    0.26</time>
   <energy>
    <i name="e_fr_energy">     -4.88628714 </i>
    <i name="e_wo_entrp">     -4.88522045 </i>
    <i name="e_0_energy">     -4.88575379 </i>
   </energy>
  </scstep>
  <scstep>
   <time name="dav">    0.17    0.18</time>
   <time name="total">    0.17    0.18</time>
   <energy>
    <i name="e_fr_energy">     -4.89364809 </i>
    <i name="e_wo_entrp">     -4.89267229 </i>
    <i name="e_0_energy">     -4.89316019 </i>
   </energy>
  </scstep>
  <scstep>
   <time name="dav">    0.25    0.26</time>
   <time name="total">    0.25    0.26</time>
   <energy>
    <i name="e_fr_energy">     -4.89365464 </i>
    <i name="e_wo_entrp">     -4.89267890 </i>
    <i name="e_0_energy">     -4.89316677 </i>
   </energy>
  </scstep>
  <scstep>
   <time name="dav">    0.18    0.18</time>
   <time name="total">    0.19    0.20</time>
   <energy>
    <i name="e_fr_energy">     -4.89365464 </i>
    <i name="e_wo_entrp">     -4.89267890 </i>
    <i name="e_0_energy">     -4.89316677 </i>
   </energy>
  </scstep>
  <scstep>
   <time name="dav">    0.15    0.16</time>
   <time name="total">    0.34    0.35</time>
   <energy>
    <i name="e_fr_energy">     -4.88270188 </i>
    <i name="e_wo_entrp">     -4.88167779 </i>
    <i name="e_0_energy">     -4.88218984 </i>
   </energy>
  </scstep>
  <scstep>
   <time name="dav">    0.16    0.16</time>
   <time name="total">    0.35    0.36</time>
   <energy>
    <i name="e_fr_energy">     -4.87662126 </i>
    <i name="e_wo_entrp">     -4.87552669 </i>
    <i name="e_0_energy">     -4.87607398 </i>
   </energy>
  </scstep>
  <scstep>
   <time name="dav">    0.22    0.22</time>
   <time name="total">    0.41    0.42</time>
   <energy>
    <i name="e_fr_energy">     -4.87660661 </i>
    <i name="e_wo_entrp">     -4.87550970 </i>
    <i name="e_0_energy">     -4.87605816 </i>
   </energy>
  </scstep>
  <scstep>
   <time name="dav">    0.19    0.19</time>
   <time name="total">    0.36    0.37</time>
   <energy>
    <i name="alphaZ">      2.22221296 </i>
    <i name="ewald">   -134.47958737 </i>
    <i name="hartreedc">     -0.48283753 </i>
    <i name="XCdc">     -8.88297942 </i>
    <i name="pawpsdc">    272.85920857 </i>
    <i name="pawaedc">   -255.27218593 </i>
    <i name="eentropy">     -0.00109753 </i>
    <i name="bandstr">     16.09503183 </i>
    <i name="atom">    103.06562707 </i>
    <i name="e_fr_energy">     -4.87660735 </i>
    <i name="e_wo_entrp">     -4.87550982 </i>
    <i name="e_0_energy">     -4.87605859 </i>
   </energy>
  </scstep>
  <structure>
   <crystal>
    <varray name="basis" >
     <v>       1.55872540       1.55872540       1.55872540 </v>
     <v>       1.55872540      -1.55872540      -1.55872540 </v>
     <v>      -1.55872540       1.55872540      -1.55872540 </v>
    </varray>
    <i name="volume">     15.14847197 </i>
    <varray name="rec_basis" >
     <v>       0.32077491       0.32077491       0.00000000 </v>
     <v>       0.32077491       0.00000000      -0.32077491 </v>
     <v>       0.00000000       0.32077491      -0.32077491 </v>
    </varray>
   </crystal>
   <varray name="positions" >
    <v>       0.00000000       0.00000000       0.00000000 </v>
   </varray>
  </structure>
  <varray name="forces" >
   <v>      -0.00000000       0.00000000       0.00000000 </v>
  </varray>
  <varray name="stress" >
   <v>     -34.63922136      -0.00000000       0.00000000 </v>
   <v>       0.00000000     -34.63922136      -0.00000000 </v>
   <v>      -0.00000000       0.00000000     -34.63922136 </v>
  </varray>
  <energy>
   <i name="e_fr_energy">     -4.87660735 </i>
   <i name="e_wo_entrp">     -4.87550982 </i>
   <i name="e_0_energy">     -4.87605859 </i>
  </energy>
  <time name="totalsc">    3.28    3.44</time>
  <eigenvalues>
   <array>
    <dimension dim="1">band</dimension>
    <dimension dim="2">kpoint</dimension>
    <dimension dim="3">spin</dimension>
    <field>eigene</field>
    <field>occ</field>
    <set>
     <set comment="spin 1">
      <set comment="kpoint 1">
       <r>   -4.4530    1.0000 </r>
       <r>   20.3906    0.0000 </r>
       <r>   20.3906    0.0000 </r>
       <r>   20.3906    0.0000 </r>
       <r>   21.8509    0.0000 </r>
       <r>   21.8509    0.0000 </r>
       <r>   21.8509    0.0000 </r>
       <r>   25.4640    0.0000 </r>
      </set>
      <set comment="kpoint 2">
       <r>   -4.2061    1.0000 </r>
       <r>   18.0704    0.0000 </r>
       <r>   18.9007    0.0000 </r>
       <r>   20.0747    0.0000 </r>
       <r>   21.1033    0.0000 </r>
       <r>   22.5842    0.0000 </r>
       <r>   23.7629    0.0000 </r>
       <r>   24.3440    0.0000 </r>
      </set>
      <set comment="kpoint 3">
       <r>   -3.4671    1.0000 </r>
       <r>   14.4288    0.0000 </r>
       <r>   17.2679    0.0000 </r>
       <r>   19.2896    0.0000 </r>
       <r>   19.7137    0.0000 </r>
       <r>   21.5785    0.0000 </r>
       <r>   25.0412    0.0000 </r>
       <r>   25.3661    0.0000 </r>
      </set>
      <set comment="kpoint 4">
       <r>   -2.2415    1.0000 </r>
       <r>   10.7367    0.0000 </r>
       <r>   16.0231    0.0000 </r>
       <r>   18.4149    0.0000 </r>
       <r>   18.4606    0.0000 </r>
       <r>   20.4022    0.0000 </r>
       <r>   26.1401    0.0000 </r>
       <r>   26.4369    0.0000 </r>
      </set>
      <set comment="kpoint 5">
       <r>   -0.5394    1.0000 </r>
       <r>    7.3180    1.0000 </r>
       <r>   15.1908    0.0000 </r>
       <r>   17.5697    0.0000 </r>
       <r>   17.7330    0.0000 </r>
       <r>   19.5681    0.0000 </r>
       <r>   27.4275    0.0000 </r>
       <r>   28.0706    0.0000 </r>
      </set>
      <set comment="kpoint 6">
       <r>    1.6145    1.0000 </r>
       <r>    4.2913    1.0000 </r>
       <r>   14.7742    0.0000 </r>
       <r>   17.1093    0.0000 </r>
       <r>   17.3700    0.0000 </r>
       <r>   19.1392    0.0000 </r>
       <r>   28.9524    0.0000 </r>
       <r>   29.5855    0.0000 </r>
      </set>
      <set comment="kpoint 7">
       <r>   -3.7131    1.0000 </r>
       <r>   16.1062    0.0000 </r>
       <r>   16.7307    0.0000 </r>
       <r>   18.6273    0.0000 </r>
       <r>   21.3152    0.0000 </r>
       <r>   22.6871    0.0000 </r>
       <r>   23.8721    0.0000 </r>
       <r>   25.0387    0.0000 </r>
      </set>
      <set comment="kpoint 8">
       <r>   -2.7308    1.0000 </r>
       <r>   12.7020    0.0000 </r>
       <r>   14.9881    0.0000 </r>
       <r>   17.3805    0.0000 </r>
       <r>   20.6602    0.0000 </r>
       <r>   22.1329    0.0000 </r>
       <r>   24.4342    0.0000 </r>
       <r>   26.8255    0.0000 </r>
      </set>
      <set comment="kpoint 9">
       <r>   -1.2667    1.0000 </r>
       <r>    9.1510    1.0000 </r>
       <r>   13.8905    0.0000 </r>
       <r>   16.3921    0.0000 </r>
       <r>   19.7855    0.0000 </r>
       <r>   21.6280    0.0000 </r>
       <r>   25.2973    0.0000 </r>
       <r>   28.6322    0.0000 </r>
      </set>
      <set comment="kpoint 10">
       <r>    0.6655    1.0000 </r>
       <r>    5.9235    1.0000 </r>
       <r>   13.2322    0.0000 </r>
       <r>   15.7710    0.0000 </r>
       <r>   19.1862    0.0000 </r>
       <r>   21.2092    0.0000 </r>
       <r>   26.7693    0.0000 </r>
       <r>   29.6785    0.0000 </r>
      </set>
      <set comment="kpoint 11">
       <r>    2.8077    1.0000 </r>
       <r>    3.3447    1.0000 </r>
       <r>   13.0122    0.0000 </r>
       <r>   15.5609    0.0000 </r>
       <r>   18.9799    0.0000 </r>
       <r>   21.0517    0.0000 </r>
       <r>   28.4597    0.0000 </r>
       <r>   28.6902    0.0000 </r>
      </set>
      <set comment="kpoint 12">
       <r>   -1.5097    1.0000 </r>
       <r>   11.1562    0.0000 </r>
       <r>   11.6527    0.0000 </r>
       <r>   16.1981    0.0000 </r>
       <r>   21.1969    0.0000 </r>
       <r>   22.2096    0.0000 </r>
       <r>   25.9612    0.0000 </r>
       <r>   27.1249    0.0000 </r>
      </set>
      <set comment="kpoint 13">
       <r>    0.1862    1.0000 </r>
       <r>    7.9957    1.0000 </r>
       <r>   10.5247    0.0000 </r>
       <r>   15.3835    0.0000 </r>
       <r>   20.8899    0.0000 </r>
       <r>   22.9361    0.0000 </r>
       <r>   26.1991    0.0000 </r>
       <r>   28.8409    0.0000 </r>
      </set>
      <set comment="kpoint 14">
       <r>    2.3324    1.0000 </r>
       <r>    4.9934    1.0000 </r>
       <r>   10.0611    0.0000 </r>
       <r>   14.9654    0.0000 </r>
       <r>   20.5452    0.0000 </r>
       <r>   23.7480    0.0000 </r>
       <r>   26.5841    0.0000 </r>
       <r>   28.3232    0.0000 </r>
      </set>
      <set comment="kpoint 15">
       <r>    2.1023    1.0000 </r>
       <r>    7.1086    1.0000 </r>
       <r>    7.5407    1.0000 </r>
       <r>   14.7704    0.0000 </r>
       <r>   22.0710    0.0000 </r>
       <r>   23.1083    0.0000 </r>
       <r>   26.8705    0.0000 </r>
       <r>   29.0847    0.0000 </r>
      </set>
      <set comment="kpoint 16">
       <r>    4.2235    1.0000 </r>
       <r>    4.7486    1.0000 </r>
       <r>    7.1182    1.0000 </r>
       <r>   14.5620    0.0000 </r>
       <r>   22.2352    0.0000 </r>
       <r>   24.2593    0.0000 </r>
       <r>   25.3314    0.0000 </r>
       <r>   29.9181    0.0000 </r>
      </set>
      <set comment="kpoint 17">
       <r>   -2.9760    1.0000 </r>
       <r>   14.2542    0.0000 </r>
       <r>   15.2709    0.0000 </r>
       <r>   15.2709    0.0000 </r>
       <r>   23.1276    0.0000 </r>
       <r>   23.1276    0.0000 </r>
       <r>   25.2986    0.0000 </r>
       <r>   25.2986    0.0000 </r>
      </set>
      <set comment="kpoint 18">
       <r>   -1.7534    1.0000 </r>
       <r>   11.1540    0.0000 </r>
       <r>   13.3675    0.0000 </r>
       <r>   14.0142    0.0000 </r>
       <r>   22.9755    0.0000 </r>
       <r>   23.4243    0.0000 </r>
       <r>   26.3831    0.0000 </r>
       <r>   26.5592    0.0000 </r>
      </set>
      <set comment="kpoint 19">
       <r>   -0.0554    1.0000 </r>
       <r>    7.7763    1.0000 </r>
       <r>   12.4486    0.0000 </r>
       <r>   13.1392    0.0000 </r>
       <r>   22.6126    0.0000 </r>
       <r>   22.8787    0.0000 </r>
       <r>   27.8448    0.0000 </r>
       <r>   28.2268    0.0000 </r>
      </set>
      <set comment="kpoint 20">
       <r>    2.0937    1.0000 </r>
       <r>    4.7616    1.0000 </r>
       <r>   11.9998    0.0000 </r>
       <r>   12.6941    0.0000 </r>
       <r>   22.3576    0.0000 </r>
       <r>   22.5407    0.0000 </r>
       <r>   29.2604    0.0000 </r>
       <r>   29.8083    0.0000 </r>
      </set>
      <set comment="kpoint 21">
       <r>   -3.9594    1.0000 </r>
       <r>   17.6061    0.0000 </r>
       <r>   17.6061    0.0000 </r>
       <r>   18.7283    0.0000 </r>
       <r>   21.9042    0.0000 </r>
       <r>   22.3402    0.0000 </r>
       <r>   23.4901    0.0000 </r>
       <r>   23.4901    0.0000 </r>
      </set>
      <set comment="kpoint 22">
       <r>   -0.2966    1.0000 </r>
       <r>    9.8061    0.0000 </r>
       <r>   10.3350    0.0000 </r>
       <r>   12.6341    0.0000 </r>
       <r>   23.9871    0.0000 </r>
       <r>   24.9202    0.0000 </r>
       <r>   27.0549    0.0000 </r>
       <r>   27.9288    0.0000 </r>
      </set>
      <set comment="kpoint 23">
       <r>    1.6260    1.0000 </r>
       <r>    6.8445    1.0000 </r>
       <r>    9.4102    0.8677 </r>
       <r>   11.9573    0.0000 </r>
       <r>   24.1131    0.0000 </r>
       <r>   25.4660    0.0000 </r>
       <r>   28.1168    0.0000 </r>
       <r>   29.5205    0.0000 </r>
      </set>
      <set comment="kpoint 24">
       <r>    3.7592    1.0000 </r>
       <r>    4.2859    1.0000 </r>
       <r>    9.1730    1.0000 </r>
       <r>   11.7325    0.0000 </r>
       <r>   24.0423    0.0000 </r>
       <r>   25.6528    0.0000 </r>
       <r>   29.0134    0.0000 </r>
       <r>   29.6979    0.0000 </r>
      </set>
      <set comment="kpoint 25">
       <r>   -3.2213    1.0000 </r>
       <r>   14.5541    0.0000 </r>
       <r>   15.9811    0.0000 </r>
       <r>   18.0082    0.0000 </r>
       <r>   20.6068    0.0000 </r>
       <r>   21.4079    0.0000 </r>
       <r>   23.7620    0.0000 </r>
       <r>   25.9255    0.0000 </r>
      </set>
      <set comment="kpoint 26">
       <r>    3.7464    1.0000 </r>
       <r>    6.1972    1.0000 </r>
       <r>    6.6266    1.0000 </r>
       <r>   11.4998    0.0000 </r>
       <r>   25.2709    0.0000 </r>
       <r>   26.6565    0.0000 </r>
       <r>   28.2833    0.0000 </r>
       <r>   30.2934    0.0000 </r>
      </set>
      <set comment="kpoint 27">
       <r>   -1.9971    1.0000 </r>
       <r>   10.9405    0.0000 </r>
       <r>   14.7075    0.0000 </r>
       <r>   17.1238    0.0000 </r>
       <r>   20.2117    0.0000 </r>
       <r>   20.5660    0.0000 </r>
       <r>   23.6017    0.0000 </r>
       <r>   29.0799    0.0000 </r>
      </set>
      <set comment="kpoint 28">
       <r>   -2.2412    1.0000 </r>
       <r>   12.8677    0.0000 </r>
       <r>   13.2579    0.0000 </r>
       <r>   17.5214    0.0000 </r>
       <r>   19.4998    0.0000 </r>
       <r>   21.0258    0.0000 </r>
       <r>   25.3595    0.0000 </r>
       <r>   26.3516    0.0000 </r>
      </set>
      <set comment="kpoint 29">
       <r>   -0.2971    1.0000 </r>
       <r>    7.5433    1.0000 </r>
       <r>   13.8475    0.0000 </r>
       <r>   16.3550    0.0000 </r>
       <r>   19.3561    0.0000 </r>
       <r>   20.6101    0.0000 </r>
       <r>   24.2085    0.0000 </r>
       <r>   29.3820    0.0000 </r>
      </set>
      <set comment="kpoint 30">
       <r>   -0.7806    1.0000 </r>
       <r>    9.5765    0.0002 </r>
       <r>   11.9779    0.0000 </r>
       <r>   17.0221    0.0000 </r>
       <r>   19.4980    0.0000 </r>
       <r>   20.5670    0.0000 </r>
       <r>   25.1388    0.0000 </r>
       <r>   28.2323    0.0000 </r>
      </set>
      <set comment="kpoint 31">
       <r>    1.8543    1.0000 </r>
       <r>    4.5247    1.0000 </r>
       <r>   13.4154    0.0000 </r>
       <r>   15.9430    0.0000 </r>
       <r>   18.9172    0.0000 </r>
       <r>   20.5107    0.0000 </r>
       <r>   25.7057    0.0000 </r>
       <r>   27.7241    0.0000 </r>
      </set>
      <set comment="kpoint 32">
       <r>    1.1467    1.0000 </r>
       <r>    6.3814    1.0000 </r>
       <r>   11.3009    0.0000 </r>
       <r>   16.5061    0.0000 </r>
       <r>   19.1678    0.0000 </r>
       <r>   21.4693    0.0000 </r>
       <r>   24.6775    0.0000 </r>
       <r>   27.3541    0.0000 </r>
      </set>
      <set comment="kpoint 33">
       <r>    0.9086    1.0000 </r>
       <r>    8.4769    1.0000 </r>
       <r>    8.8836    1.0000 </r>
       <r>   17.2699    0.0000 </r>
       <r>   19.6649    0.0000 </r>
       <r>   20.0556    0.0000 </r>
       <r>   25.8060    0.0000 </r>
       <r>   28.1176    0.0000 </r>
      </set>
      <set comment="kpoint 34">
       <r>    3.2892    1.0000 </r>
       <r>    3.8082    1.0000 </r>
       <r>   11.0759    0.0000 </r>
       <r>   16.3164    0.0000 </r>
       <r>   18.9893    0.0000 </r>
       <r>   22.2032    0.0000 </r>
       <r>   24.5428    0.0000 </r>
       <r>   26.3553    0.0000 </r>
      </set>
      <set comment="kpoint 35">
       <r>    3.0450    1.0000 </r>
       <r>    5.6822    1.0000 </r>
       <r>    8.2391    1.0000 </r>
       <r>   17.1372    0.0000 </r>
       <r>   19.5173    0.0000 </r>
       <r>   21.3143    0.0000 </r>
       <r>   23.5955    0.0000 </r>
       <r>   28.8473    0.0000 </r>
      </set>
      <set comment="kpoint 36">
       <r>    4.9845    1.0000 </r>
       <r>    5.6679    1.0000 </r>
       <r>    5.6679    1.0000 </r>
       <r>   17.2252    0.0000 </r>
       <r>   20.8457    0.0000 </r>
       <r>   21.4241    0.0000 </r>
       <r>   21.4241    0.0000 </r>
       <r>   31.7890    0.0000 </r>
      </set>
      <set comment="kpoint 37">
       <r>    1.3882    1.0000 </r>
       <r>    8.7155    1.0000 </r>
       <r>    9.4326    0.6851 </r>
       <r>    9.4326    0.6851 </r>
       <r>   26.5642    0.0000 </r>
       <r>   26.5642    0.0000 </r>
       <r>   28.6731    0.0000 </r>
       <r>   28.6731    0.0000 </r>
      </set>
      <set comment="kpoint 38">
       <r>    3.5179    1.0000 </r>
       <r>    6.1503    1.0000 </r>
       <r>    8.5440    1.0000 </r>
       <r>    8.9767    1.0000 </r>
       <r>   27.1698    0.0000 </r>
       <r>   27.5037    0.0000 </r>
       <r>   29.9024    0.0000 </r>
       <r>   30.1197    0.0000 </r>
      </set>
      <set comment="kpoint 39">
       <r>   -2.4857    1.0000 </r>
       <r>   14.3344    0.0000 </r>
       <r>   14.3344    0.0000 </r>
       <r>   15.9756    0.0000 </r>
       <r>   18.0289    0.0000 </r>
       <r>   23.7800    0.0000 </r>
       <r>   25.1615    0.0000 </r>
       <r>   25.1615    0.0000 </r>
      </set>
      <set comment="kpoint 40">
       <r>    5.4111    1.0000 </r>
       <r>    6.1660    1.0000 </r>
       <r>    6.1660    1.0000 </r>
       <r>    8.5538    1.0000 </r>
       <r>   28.2508    0.0000 </r>
       <r>   29.5854    0.0000 </r>
       <r>   29.5854    0.0000 </r>
       <r>   31.0381    0.0000 </r>
      </set>
      <set comment="kpoint 41">
       <r>   -1.2659    1.0000 </r>
       <r>   11.5014    0.0000 </r>
       <r>   13.0398    0.0000 </r>
       <r>   15.3260    0.0000 </r>
       <r>   17.4598    0.0000 </r>
       <r>   23.1698    0.0000 </r>
       <r>   25.1485    0.0000 </r>
       <r>   27.8686    0.0000 </r>
      </set>
      <set comment="kpoint 42">
       <r>    0.4280    1.0000 </r>
       <r>    8.2080    1.0000 </r>
       <r>   12.1658    0.0000 </r>
       <r>   14.6219    0.0000 </r>
       <r>   18.5237    0.0000 </r>
       <r>   22.3674    0.0000 </r>
       <r>   24.1536    0.0000 </r>
       <r>   26.9013    0.0000 </r>
      </set>
      <set comment="kpoint 43">
       <r>    0.1876    1.0000 </r>
       <r>   10.2329    0.0000 </r>
       <r>   10.5505    0.0000 </r>
       <r>   15.3469    0.0000 </r>
       <r>   16.6831    0.0000 </r>
       <r>   22.9279    0.0000 </r>
       <r>   25.1791    0.0000 </r>
       <r>   27.5161    0.0000 </r>
      </set>
      <set comment="kpoint 44">
       <r>    2.5713    1.0000 </r>
       <r>    5.2207    1.0000 </r>
       <r>   11.7268    0.0000 </r>
       <r>   14.2011    0.0000 </r>
       <r>   19.9935    0.0000 </r>
       <r>   21.9467    0.0000 </r>
       <r>   22.7768    0.0000 </r>
       <r>   25.9893    0.0000 </r>
      </set>
      <set comment="kpoint 45">
       <r>    2.1044    1.0000 </r>
       <r>    7.2803    1.0000 </r>
       <r>    9.7295    0.0000 </r>
       <r>   15.1587    0.0000 </r>
       <r>   17.7363    0.0000 </r>
       <r>   21.9428    0.0000 </r>
       <r>   23.1765    0.0000 </r>
       <r>   28.0852    0.0000 </r>
      </set>
      <set comment="kpoint 46">
       <r>    4.2433    1.0000 </r>
       <r>    4.7298    1.0000 </r>
       <r>    9.4990    0.0816 </r>
       <r>   14.9850    0.0000 </r>
       <r>   19.1070    0.0000 </r>
       <r>   20.5346    0.0000 </r>
       <r>   22.6210    0.0000 </r>
       <r>   28.0605    0.0000 </r>
      </set>
      <set comment="kpoint 47">
       <r>    4.2178    1.0000 </r>
       <r>    6.6542    1.0000 </r>
       <r>    7.0234    1.0000 </r>
       <r>   16.3667    0.0000 </r>
       <r>   17.8321    0.0000 </r>
       <r>   19.7929    0.0000 </r>
       <r>   22.5652    0.0000 </r>
       <r>   30.8672    0.0000 </r>
      </set>
      <set comment="kpoint 48">
       <r>   -0.0534    1.0000 </r>
       <r>   11.7333    0.0000 </r>
       <r>   11.7333    0.0000 </r>
       <r>   13.5323    0.0000 </r>
       <r>   15.0562    0.0000 </r>
       <r>   24.8148    0.0000 </r>
       <r>   26.1407    0.0000 </r>
       <r>   27.3152    0.0000 </r>
      </set>
      <set comment="kpoint 49">
       <r>    1.6290    1.0000 </r>
       <r>    9.2480    1.0000 </r>
       <r>   10.8524    0.0000 </r>
       <r>   13.1547    0.0000 </r>
       <r>   15.1208    0.0000 </r>
       <r>   21.9727    0.0000 </r>
       <r>   25.8490    0.0000 </r>
       <r>   28.0993    0.0000 </r>
      </set>
      <set comment="kpoint 50">
       <r>    3.7559    1.0000 </r>
       <r>    6.3625    1.0000 </r>
       <r>   10.4101    0.0000 </r>
       <r>   12.8025    0.0000 </r>
       <r>   16.7868    0.0000 </r>
       <r>   19.3489    0.0000 </r>
       <r>   25.4571    0.0000 </r>
       <r>   28.2115    0.0000 </r>
      </set>
      <set comment="kpoint 51">
       <r>    3.5266    1.0000 </r>
       <r>    8.4278    1.0000 </r>
       <r>    8.7225    1.0000 </r>
       <r>   13.6679    0.0000 </r>
       <r>   14.7667    0.0000 </r>
       <r>   19.0846    0.0000 </r>
       <r>   26.1664    0.0000 </r>
       <r>   30.2896    0.0000 </r>
      </set>
      <set comment="kpoint 52">
       <r>    5.6461    1.0000 </r>
       <r>    6.0905    1.0000 </r>
       <r>    8.3646    1.0000 </r>
       <r>   13.8058    0.0000 </r>
       <r>   16.1024    0.0000 </r>
       <r>   16.8982    0.0000 </r>
       <r>   26.0474    0.0000 </r>
       <r>   30.8913    0.0000 </r>
      </set>
      <set comment="kpoint 53">
       <r>    3.2926    1.0000 </r>
       <r>    9.9678    0.0000 </r>
       <r>    9.9678    0.0000 </r>
       <r>   11.7678    0.0000 </r>
       <r>   13.0606    0.0000 </r>
       <r>   18.8543    0.0000 </r>
       <r>   29.3294    0.0000 </r>
       <r>   30.0921    0.0000 </r>
      </set>
      <set comment="kpoint 54">
       <r>    5.3862    1.0000 </r>
       <r>    7.8827    1.0000 </r>
       <r>    9.5241    0.0177 </r>
       <r>   11.7591    0.0000 </r>
       <r>   13.6840    0.0000 </r>
       <r>   16.0687    0.0000 </r>
       <r>   29.2886    0.0000 </r>
       <r>   30.9952    0.0000 </r>
      </set>
      <set comment="kpoint 55">
       <r>    7.3254    1.0000 </r>
       <r>    7.8037    1.0000 </r>
       <r>    7.8037    1.0000 </r>
       <r>   12.4561    0.0000 </r>
       <r>   13.8001    0.0000 </r>
       <r>   13.8001    0.0000 </r>
       <r>   29.7948    0.0000 </r>
       <r>   33.1522    0.0000 </r>
      </set>
      <set comment="kpoint 56">
       <r>    7.3898    1.0000 </r>
       <r>    9.0796    1.0000 </r>
       <r>    9.0796    1.0000 </r>
       <r>   10.7449    0.0000 </r>
       <r>   12.0607    0.0000 </r>
       <r>   13.3135    0.0000 </r>
       <r>   32.7848    0.0000 </r>
       <r>   32.9698    0.0000 </r>
      </set>
     </set>
    </set>
   </array>
  </eigenvalues>
  <separator name="orbital magnetization" >
   <v name="MAGDIPOLOUT">      0.00000000      0.00000000      0.00000000</v>
  </separator>
  <dos>
   <i name="efermi">      9.44965411 </i>
   <total>
    <array>
     <dimension dim="1">gridpoints</dimension>
     <dimension dim="2">spin</dimension>
     <field>energy</field>
     <field>total</field>
     <field>integrated</field>
     <set>
      <set comment="spin 1">
       <r>    -6.3332     0.0000     0.0000 </r>
       <r>    -6.1953     0.0000     0.0000 </r>
       <r>    -6.0575     0.0000     0.0000 </r>
       <r>    -5.9196     0.0000     0.0000 </r>
       <r>    -5.7817     0.0000     0.0000 </r>
       <r>    -5.6438     0.0000     0.0000 </r>
       <r>    -5.5059     0.0000     0.0000 </r>
       <r>    -5.3680     0.0000     0.0000 </r>
       <r>    -5.2301     0.0000     0.0000 </r>
       <r>    -5.0923     0.0000     0.0000 </r>
       <r>    -4.9544     0.0000     0.0000 </r>
       <r>    -4.8165     0.0000     0.0000 </r>
       <r>    -4.6786     0.0000     0.0000 </r>
       <r>    -4.5407     0.0001     0.0000 </r>
       <r>    -4.4028     0.0100     0.0014 </r>
       <r>    -4.2649     0.0071     0.0024 </r>
       <r>    -4.1271     0.1228     0.0193 </r>
       <r>    -3.9892     0.0147     0.0213 </r>
       <r>    -3.8513     0.0523     0.0285 </r>
       <r>    -3.7134     0.1299     0.0465 </r>
       <r>    -3.5755     0.1318     0.0646 </r>
       <r>    -3.4376     0.1042     0.0790 </r>
       <r>    -3.2997     0.0299     0.0831 </r>
       <r>    -3.1619     0.2459     0.1170 </r>
       <r>    -3.0240     0.0198     0.1198 </r>
       <r>    -2.8861     0.0791     0.1307 </r>
       <r>    -2.7482     0.1633     0.1532 </r>
       <r>    -2.6103     0.3601     0.2028 </r>
       <r>    -2.4724     0.0424     0.2087 </r>
       <r>    -2.3345     0.0248     0.2121 </r>
       <r>    -2.1967     0.3502     0.2604 </r>
       <r>    -2.0588     0.0511     0.2674 </r>
       <r>    -1.9209     0.2469     0.3015 </r>
       <r>    -1.7830     0.0567     0.3093 </r>
       <r>    -1.6451     0.2086     0.3381 </r>
       <r>    -1.5072     0.1385     0.3571 </r>
       <r>    -1.3693     0.1248     0.3743 </r>
       <r>    -1.2315     0.6566     0.4649 </r>
       <r>    -1.0936     0.1267     0.4823 </r>
       <r>    -0.9557     0.0000     0.4823 </r>
       <r>    -0.8178     0.0766     0.4929 </r>
       <r>    -0.6799     0.4453     0.5543 </r>
       <r>    -0.5420     0.0627     0.5630 </r>
       <r>    -0.4041     0.0698     0.5726 </r>
       <r>    -0.2663     0.4212     0.6307 </r>
       <r>    -0.1284     0.1075     0.6455 </r>
       <r>     0.0095     0.3096     0.6882 </r>
       <r>     0.1474     0.1159     0.7042 </r>
       <r>     0.2853     0.6778     0.7976 </r>
       <r>     0.4232     0.1186     0.8140 </r>
       <r>     0.5611     0.1458     0.8341 </r>
       <r>     0.6989     0.4323     0.8937 </r>
       <r>     0.8368     0.0956     0.9068 </r>
       <r>     0.9747     0.2480     0.9410 </r>
       <r>     1.1126     0.0954     0.9542 </r>
       <r>     1.2505     0.4348     1.0142 </r>
       <r>     1.3884     0.0446     1.0203 </r>
       <r>     1.5263     0.0460     1.0266 </r>
       <r>     1.6641     0.7872     1.1352 </r>
       <r>     1.8020     0.1439     1.1550 </r>
       <r>     1.9399     0.2413     1.1883 </r>
       <r>     2.0778     0.2697     1.2255 </r>
       <r>     2.2157     0.7781     1.3328 </r>
       <r>     2.3536     0.3801     1.3852 </r>
       <r>     2.4915     0.1465     1.4054 </r>
       <r>     2.6293     0.2452     1.4392 </r>
       <r>     2.7672     0.0461     1.4456 </r>
       <r>     2.9051     0.2278     1.4770 </r>
       <r>     3.0430     0.2504     1.5115 </r>
       <r>     3.1809     0.2737     1.5493 </r>
       <r>     3.3188     0.3196     1.5933 </r>
       <r>     3.4567     0.2855     1.6327 </r>
       <r>     3.5945     0.4950     1.7009 </r>
       <r>     3.7324     0.2309     1.7328 </r>
       <r>     3.8703     0.8156     1.8452 </r>
       <r>     4.0082     0.0108     1.8467 </r>
       <r>     4.1461     0.0101     1.8481 </r>
       <r>     4.2840     0.9021     1.9725 </r>
       <r>     4.4219     0.2652     2.0091 </r>
       <r>     4.5597     0.2191     2.0393 </r>
       <r>     4.6976     0.1182     2.0556 </r>
       <r>     4.8355     0.7014     2.1523 </r>
       <r>     4.9734     0.1891     2.1784 </r>
       <r>     5.1113     0.4281     2.2374 </r>
       <r>     5.2492     0.2066     2.2659 </r>
       <r>     5.3871     0.2098     2.2948 </r>
       <r>     5.5249     0.1938     2.3216 </r>
       <r>     5.6628     0.4082     2.3778 </r>
       <r>     5.8007     0.5507     2.4538 </r>
       <r>     5.9386     0.3481     2.5018 </r>
       <r>     6.0765     0.2713     2.5392 </r>
       <r>     6.2144     0.7566     2.6435 </r>
       <r>     6.3523     0.3144     2.6869 </r>
       <r>     6.4901     0.5758     2.7663 </r>
       <r>     6.6280     0.1956     2.7932 </r>
       <r>     6.7659     0.3347     2.8394 </r>
       <r>     6.9038     0.4921     2.9072 </r>
       <r>     7.0417     0.2184     2.9374 </r>
       <r>     7.1796     0.5751     3.0166 </r>
       <r>     7.3175     0.5637     3.0944 </r>
       <r>     7.4553     0.2599     3.1302 </r>
       <r>     7.5932     0.4829     3.1968 </r>
       <r>     7.7311     0.0683     3.2062 </r>
       <r>     7.8690     0.4908     3.2739 </r>
       <r>     8.0069     0.5032     3.3433 </r>
       <r>     8.1448     0.2083     3.3720 </r>
       <r>     8.2827     0.7142     3.4705 </r>
       <r>     8.4206     0.4295     3.5297 </r>
       <r>     8.5584     0.6313     3.6168 </r>
       <r>     8.6963     0.2169     3.6467 </r>
       <r>     8.8342     0.2841     3.6858 </r>
       <r>     8.9721     0.3562     3.7350 </r>
       <r>     9.1100     0.3252     3.7798 </r>
       <r>     9.2479     0.8602     3.8984 </r>
       <r>     9.3858     0.2815     3.9372 </r>
       <r>     9.5236     0.9149     4.0634 </r>
       <r>     9.6615     0.6946     4.1592 </r>
       <r>     9.7994     0.6118     4.2435 </r>
       <r>     9.9373     0.1883     4.2695 </r>
       <r>    10.0752     0.4478     4.3312 </r>
       <r>    10.2131     0.2559     4.3665 </r>
       <r>    10.3510     0.3748     4.4182 </r>
       <r>    10.4888     0.4230     4.4765 </r>
       <r>    10.6267     0.6912     4.5718 </r>
       <r>    10.7646     0.1559     4.5933 </r>
       <r>    10.9025     0.3233     4.6379 </r>
       <r>    11.0404     0.2859     4.6773 </r>
       <r>    11.1783     0.6094     4.7613 </r>
       <r>    11.3162     0.4833     4.8280 </r>
       <r>    11.4540     0.2232     4.8588 </r>
       <r>    11.5919     0.4827     4.9253 </r>
       <r>    11.7298     0.6343     5.0128 </r>
       <r>    11.8677     0.6023     5.0958 </r>
       <r>    12.0056     1.0363     5.2387 </r>
       <r>    12.1435     0.4021     5.2942 </r>
       <r>    12.2814     0.1930     5.3208 </r>
       <r>    12.4192     0.0662     5.3299 </r>
       <r>    12.5571     0.2861     5.3694 </r>
       <r>    12.6950     0.6010     5.4522 </r>
       <r>    12.8329     0.6949     5.5480 </r>
       <r>    12.9708     0.3081     5.5905 </r>
       <r>    13.1087     0.6133     5.6751 </r>
       <r>    13.2466     0.9025     5.7995 </r>
       <r>    13.3844     0.6351     5.8871 </r>
       <r>    13.5223     0.3209     5.9313 </r>
       <r>    13.6602     0.2140     5.9608 </r>
       <r>    13.7981     0.5643     6.0386 </r>
       <r>    13.9360     0.9557     6.1704 </r>
       <r>    14.0739     0.2996     6.2117 </r>
       <r>    14.2118     0.1837     6.2371 </r>
       <r>    14.3496     0.2655     6.2737 </r>
       <r>    14.4875     0.1792     6.2984 </r>
       <r>    14.6254     0.6456     6.3874 </r>
       <r>    14.7633     0.6598     6.4784 </r>
       <r>    14.9012     0.4124     6.5352 </r>
       <r>    15.0391     1.2418     6.7065 </r>
       <r>    15.1770     0.7649     6.8119 </r>
       <r>    15.3148     0.5731     6.8910 </r>
       <r>    15.4527     0.8919     7.0139 </r>
       <r>    15.5906     0.2225     7.0446 </r>
       <r>    15.7285     0.1122     7.0601 </r>
       <r>    15.8664     0.4655     7.1243 </r>
       <r>    16.0043     0.5437     7.1993 </r>
       <r>    16.1422     0.8931     7.3224 </r>
       <r>    16.2800     0.3701     7.3734 </r>
       <r>    16.4179     1.1158     7.5273 </r>
       <r>    16.5558     0.6294     7.6141 </r>
       <r>    16.6937     0.2432     7.6476 </r>
       <r>    16.8316     0.5636     7.7253 </r>
       <r>    16.9695     0.3111     7.7682 </r>
       <r>    17.1074     0.7397     7.8702 </r>
       <r>    17.2452     0.8281     7.9844 </r>
       <r>    17.3831     0.6855     8.0789 </r>
       <r>    17.5210     0.6808     8.1728 </r>
       <r>    17.6589     0.3927     8.2269 </r>
       <r>    17.7968     0.6678     8.3190 </r>
       <r>    17.9347     0.2521     8.3538 </r>
       <r>    18.0726     0.3747     8.4054 </r>
       <r>    18.2104     0.0783     8.4162 </r>
       <r>    18.3483     0.0040     8.4168 </r>
       <r>    18.4862     0.2618     8.4529 </r>
       <r>    18.6241     0.3782     8.5050 </r>
       <r>    18.7620     0.1951     8.5319 </r>
       <r>    18.8999     0.2203     8.5623 </r>
       <r>    19.0378     0.7667     8.6680 </r>
       <r>    19.1756     1.1384     8.8250 </r>
       <r>    19.3135     0.7356     8.9264 </r>
       <r>    19.4514     0.5710     9.0052 </r>
       <r>    19.5893     1.3055     9.1852 </r>
       <r>    19.7272     0.4168     9.2426 </r>
       <r>    19.8651     0.7949     9.3522 </r>
       <r>    20.0030     0.1908     9.3786 </r>
       <r>    20.1408     0.4746     9.4440 </r>
       <r>    20.2787     0.2542     9.4791 </r>
       <r>    20.4166     0.1200     9.4956 </r>
       <r>    20.5545     1.1073     9.6483 </r>
       <r>    20.6924     1.7212     9.8856 </r>
       <r>    20.8303     0.1523     9.9066 </r>
       <r>    20.9682     0.5662     9.9847 </r>
       <r>    21.1060     0.5667    10.0628 </r>
       <r>    21.2439     0.7717    10.1692 </r>
       <r>    21.3818     0.9374    10.2985 </r>
       <r>    21.5197     0.8634    10.4175 </r>
       <r>    21.6576     0.5811    10.4976 </r>
       <r>    21.7955     0.1089    10.5127 </r>
       <r>    21.9334     0.4155    10.5700 </r>
       <r>    22.0712     0.8787    10.6911 </r>
       <r>    22.2091     0.9623    10.8238 </r>
       <r>    22.3470     0.6660    10.9156 </r>
       <r>    22.4849     0.3957    10.9702 </r>
       <r>    22.6228     0.9069    11.0953 </r>
       <r>    22.7607     0.5932    11.1771 </r>
       <r>    22.8986     0.5004    11.2460 </r>
       <r>    23.0364     0.9829    11.3816 </r>
       <r>    23.1743     0.8103    11.4933 </r>
       <r>    23.3122     0.4165    11.5507 </r>
       <r>    23.4501     0.2175    11.5807 </r>
       <r>    23.5880     0.4830    11.6473 </r>
       <r>    23.7259     0.6787    11.7409 </r>
       <r>    23.8638     0.8832    11.8627 </r>
       <r>    24.0016     0.3622    11.9126 </r>
       <r>    24.1395     0.8182    12.0254 </r>
       <r>    24.2774     0.7248    12.1254 </r>
       <r>    24.4153     0.3653    12.1758 </r>
       <r>    24.5532     0.5317    12.2491 </r>
       <r>    24.6911     0.4405    12.3098 </r>
       <r>    24.8290     0.2275    12.3412 </r>
       <r>    24.9668     0.2661    12.3779 </r>
       <r>    25.1047     0.5237    12.4501 </r>
       <r>    25.2426     1.1482    12.6084 </r>
       <r>    25.3805     1.3895    12.8000 </r>
       <r>    25.5184     0.8851    12.9220 </r>
       <r>    25.6563     0.2100    12.9510 </r>
       <r>    25.7942     0.4716    13.0160 </r>
       <r>    25.9320     0.6272    13.1025 </r>
       <r>    26.0699     0.7650    13.2080 </r>
       <r>    26.2078     0.7993    13.3182 </r>
       <r>    26.3457     0.5027    13.3875 </r>
       <r>    26.4836     0.6550    13.4778 </r>
       <r>    26.6215     0.9112    13.6035 </r>
       <r>    26.7594     0.5345    13.6772 </r>
       <r>    26.8972     1.1370    13.8339 </r>
       <r>    27.0351     0.2895    13.8739 </r>
       <r>    27.1730     0.5637    13.9516 </r>
       <r>    27.3109     0.2319    13.9835 </r>
       <r>    27.4488     0.6169    14.0686 </r>
       <r>    27.5867     0.5292    14.1416 </r>
       <r>    27.7246     0.1406    14.1610 </r>
       <r>    27.8624     0.4309    14.2204 </r>
       <r>    28.0003     0.4975    14.2890 </r>
       <r>    28.1382     1.6625    14.5182 </r>
       <r>    28.2761     1.4684    14.7207 </r>
       <r>    28.4140     0.7573    14.8251 </r>
       <r>    28.5519     0.2435    14.8587 </r>
       <r>    28.6898     0.7396    14.9607 </r>
       <r>    28.8276     0.5513    15.0367 </r>
       <r>    28.9655     0.8166    15.1493 </r>
       <r>    29.1034     0.6627    15.2406 </r>
       <r>    29.2413     0.2466    15.2747 </r>
       <r>    29.3792     0.6033    15.3578 </r>
       <r>    29.5171     0.3950    15.4123 </r>
       <r>    29.6550     0.7329    15.5134 </r>
       <r>    29.7928     0.7578    15.6179 </r>
       <r>    29.9307     0.5950    15.6999 </r>
       <r>    30.0686     0.1855    15.7255 </r>
       <r>    30.2065     0.2933    15.7659 </r>
       <r>    30.3444     0.4853    15.8328 </r>
       <r>    30.4823     0.0354    15.8377 </r>
       <r>    30.6202     0.0000    15.8377 </r>
       <r>    30.7580     0.0003    15.8378 </r>
       <r>    30.8959     0.3519    15.8863 </r>
       <r>    31.0338     0.4360    15.9464 </r>
       <r>    31.1717     0.0837    15.9579 </r>
       <r>    31.3096     0.0000    15.9579 </r>
       <r>    31.4475     0.0000    15.9579 </r>
       <r>    31.5854     0.0000    15.9579 </r>
       <r>    31.7232     0.0027    15.9583 </r>
       <r>    31.8611     0.0826    15.9697 </r>
       <r>    31.9990     0.0018    15.9699 </r>
       <r>    32.1369     0.0000    15.9699 </r>
       <r>    32.2748     0.0000    15.9699 </r>
       <r>    32.4127     0.0000    15.9699 </r>
       <r>    32.5506     0.0000    15.9699 </r>
       <r>    32.6884     0.0002    15.9700 </r>
       <r>    32.8263     0.0573    15.9779 </r>
       <r>    32.9642     0.0365    15.9829 </r>
       <r>    33.1021     0.0436    15.9889 </r>
       <r>    33.2400     0.0798    15.9999 </r>
       <r>    33.3779     0.0006    16.0000 </r>
       <r>    33.5158     0.0000    16.0000 </r>
       <r>    33.6536     0.0000    16.0000 </r>
       <r>    33.7915     0.0000    16.0000 </r>
       <r>    33.9294     0.0000    16.0000 </r>
       <r>    34.0673     0.0000    16.0000 </r>
       <r>    34.2052     0.0000    16.0000 </r>
       <r>    34.3431     0.0000    16.0000 </r>
       <r>    34.4810     0.0000    16.0000 </r>
       <r>    34.6188     0.0000    16.0000 </r>
       <r>    34.7567     0.0000    16.0000 </r>
       <r>    34.8946     0.0000    16.0000 </r>
       <r>    35.0325     0.0000    16.0000 </r>
      </set>
     </set>
    </array>
   </total>
  </dos>
 </calculation>
 <structure name="finalpos" >
  <crystal>
   <varray name="basis" >
    <v>       1.55872540       1.55872540       1.55872540 </v>
    <v>       1.55872540      -1.55872540      -1.55872540 </v>
    <v>      -1.55872540       1.55872540      -1.55872540 </v>
   </varray>
   <i name="volume">     15.14847197 </i>
   <varray name="rec_basis" >
    <v>       0.32077491       0.32077491       0.00000000 </v>
    <v>       0.32077491       0.00000000      -0.32077491 </v>
    <v>       0.00000000       0.32077491      -0.32077491 </v>
   </varray>
  </crystal>
  <varray name="positions" >
   <v>       0.00000000       0.00000000       0.00000000 </v>
  </varray>
 </structure>
</modeling>
