unknown system                          
           1
     1.558725    1.558725    1.558725
     1.558725   -1.558725   -1.558725
    -1.558725    1.558725   -1.558725
   Si
     1
Direct configuration=     1
   0.00000000  0.00000000  0.00000000
