   1   1   0   0
  0.1386300E+02  0.2621157E-09  0.2621157E-09  0.2621157E-09  0.5000000E-15
  1.000000000000000E-004
  CAR 
 unknown system                          
     36.22797403     -6.18670002  301      9.87580700      1.00000000
     -6.187  0.0000E+00  0.0000E+00
     -6.045  0.0000E+00  0.0000E+00
     -5.904  0.0000E+00  0.0000E+00
     -5.763  0.0000E+00  0.0000E+00
     -5.621  0.0000E+00  0.0000E+00
     -5.480  0.0000E+00  0.0000E+00
     -5.338  0.0000E+00  0.0000E+00
     -5.197  0.0000E+00  0.0000E+00
     -5.056  0.0000E+00  0.0000E+00
     -4.914  0.0000E+00  0.0000E+00
     -4.773  0.0000E+00  0.0000E+00
     -4.631  0.0000E+00  0.0000E+00
     -4.490  0.6220E-14  0.8795E-15
     -4.349  0.1133E-05  0.1602E-06
     -4.207  0.1984E-03  0.2822E-04
     -4.066  0.3581E-03  0.7884E-04
     -3.925  0.7518E-03  0.1851E-03
     -3.783  0.4967E-03  0.2554E-03
     -3.642  0.1137E-02  0.4161E-03
     -3.500  0.9673E-03  0.5528E-03
     -3.359  0.1983E-03  0.5809E-03
     -3.218  0.1695E-02  0.8205E-03
     -3.076  0.1340E-02  0.1010E-02
     -2.935  0.1008E-02  0.1153E-02
     -2.794  0.8826E-03  0.1277E-02
     -2.652  0.1312E-02  0.1463E-02
     -2.511  0.2405E-02  0.1803E-02
     -2.369  0.5916E-03  0.1886E-02
     -2.228  0.2079E-02  0.2180E-02
     -2.087  0.1345E-02  0.2371E-02
     -1.945  0.2750E-03  0.2409E-02
     -1.804  0.3255E-02  0.2870E-02
     -1.662  0.1551E-02  0.3089E-02
     -1.521  0.1707E-02  0.3330E-02
     -1.380  0.1500E-02  0.3542E-02
     -1.238  0.1996E-02  0.3825E-02
     -1.097  0.2475E-02  0.4174E-02
     -0.956  0.5558E-03  0.4253E-02
     -0.814  0.2569E-02  0.4616E-02
     -0.673  0.3063E-02  0.5049E-02
     -0.531  0.6051E-03  0.5135E-02
     -0.390  0.3259E-02  0.5596E-02
     -0.249  0.1881E-02  0.5862E-02
     -0.107  0.2196E-02  0.6172E-02
      0.034  0.1400E-02  0.6370E-02
      0.176  0.2258E-02  0.6689E-02
      0.317  0.3216E-02  0.7144E-02
      0.458  0.1427E-02  0.7346E-02
      0.600  0.3786E-02  0.7881E-02
      0.741  0.2278E-02  0.8203E-02
      0.882  0.5772E-03  0.8285E-02
      1.024  0.4951E-02  0.8985E-02
      1.165  0.2126E-02  0.9285E-02
      1.307  0.8502E-03  0.9405E-02
      1.448  0.1587E-02  0.9630E-02
      1.589  0.3226E-02  0.1009E-01
      1.731  0.5113E-02  0.1081E-01
      1.872  0.2004E-02  0.1109E-01
      2.013  0.3480E-02  0.1158E-01
      2.155  0.2718E-02  0.1197E-01
      2.296  0.8741E-03  0.1209E-01
      2.438  0.3342E-02  0.1256E-01
      2.579  0.4183E-02  0.1316E-01
      2.720  0.9406E-03  0.1329E-01
      2.862  0.2751E-02  0.1368E-01
      3.003  0.3363E-02  0.1415E-01
      3.145  0.3682E-02  0.1467E-01
      3.286  0.4443E-02  0.1530E-01
      3.427  0.3046E-02  0.1573E-01
      3.569  0.3359E-02  0.1621E-01
      3.710  0.1931E-02  0.1648E-01
      3.851  0.1115E-02  0.1664E-01
      3.993  0.5070E-02  0.1735E-01
      4.134  0.2051E-02  0.1764E-01
      4.276  0.1728E-02  0.1789E-01
      4.417  0.4676E-02  0.1855E-01
      4.558  0.4362E-02  0.1917E-01
      4.700  0.4601E-02  0.1982E-01
      4.841  0.1634E-02  0.2005E-01
      4.982  0.4623E-02  0.2070E-01
      5.124  0.2311E-02  0.2103E-01
      5.265  0.2907E-02  0.2144E-01
      5.407  0.5019E-02  0.2215E-01
      5.548  0.6972E-03  0.2225E-01
      5.689  0.3456E-02  0.2274E-01
      5.831  0.7445E-02  0.2379E-01
      5.972  0.2090E-02  0.2408E-01
      6.114  0.1031E-02  0.2423E-01
      6.255  0.5154E-02  0.2496E-01
      6.396  0.3802E-02  0.2550E-01
      6.538  0.3278E-02  0.2596E-01
      6.679  0.6077E-02  0.2682E-01
      6.820  0.3553E-02  0.2732E-01
      6.962  0.2442E-02  0.2767E-01
      7.103  0.3219E-02  0.2812E-01
      7.245  0.4200E-02  0.2872E-01
      7.386  0.3646E-02  0.2923E-01
      7.527  0.3647E-02  0.2975E-01
      7.669  0.4959E-02  0.3045E-01
      7.810  0.3685E-02  0.3097E-01
      7.952  0.4585E-02  0.3162E-01
      8.093  0.4128E-02  0.3220E-01
      8.234  0.1734E-02  0.3245E-01
      8.376  0.3621E-02  0.3296E-01
      8.517  0.8085E-02  0.3410E-01
      8.658  0.3006E-02  0.3453E-01
      8.800  0.5466E-02  0.3530E-01
      8.941  0.3358E-02  0.3577E-01
      9.083  0.4705E-02  0.3644E-01
      9.224  0.3563E-02  0.3694E-01
      9.365  0.4339E-02  0.3756E-01
      9.507  0.3770E-02  0.3809E-01
      9.648  0.4306E-02  0.3870E-01
      9.789  0.5300E-02  0.3945E-01
      9.931  0.5313E-02  0.4020E-01
     10.072  0.3974E-02  0.4076E-01
     10.214  0.4976E-02  0.4146E-01
     10.355  0.4752E-02  0.4214E-01
     10.496  0.6129E-02  0.4300E-01
     10.638  0.3136E-02  0.4345E-01
     10.779  0.6972E-02  0.4443E-01
     10.921  0.9821E-03  0.4457E-01
     11.062  0.2605E-02  0.4494E-01
     11.203  0.7577E-02  0.4601E-01
     11.345  0.4528E-02  0.4665E-01
     11.486  0.3753E-02  0.4718E-01
     11.627  0.3248E-02  0.4764E-01
     11.769  0.3230E-02  0.4810E-01
     11.910  0.3147E-02  0.4854E-01
     12.052  0.6845E-02  0.4951E-01
     12.193  0.2434E-02  0.4985E-01
     12.334  0.5878E-02  0.5068E-01
     12.476  0.4841E-02  0.5137E-01
     12.617  0.7370E-02  0.5241E-01
     12.759  0.1811E-02  0.5267E-01
     12.900  0.5130E-02  0.5339E-01
     13.041  0.5492E-02  0.5417E-01
     13.183  0.3804E-02  0.5471E-01
     13.324  0.3494E-02  0.5520E-01
     13.465  0.6073E-02  0.5606E-01
     13.607  0.1532E-02  0.5627E-01
     13.748  0.4737E-02  0.5694E-01
     13.890  0.8873E-02  0.5820E-01
     14.031  0.4547E-02  0.5884E-01
     14.172  0.6422E-02  0.5975E-01
     14.314  0.2918E-02  0.6016E-01
     14.455  0.2935E-02  0.6058E-01
     14.596  0.3954E-02  0.6114E-01
     14.738  0.6789E-02  0.6210E-01
     14.879  0.7038E-02  0.6309E-01
     15.021  0.5980E-02  0.6394E-01
     15.162  0.5320E-02  0.6469E-01
     15.303  0.6499E-02  0.6561E-01
     15.445  0.4178E-02  0.6620E-01
     15.586  0.3439E-02  0.6668E-01
     15.728  0.7041E-02  0.6768E-01
     15.869  0.4075E-02  0.6826E-01
     16.010  0.3392E-02  0.6874E-01
     16.152  0.3622E-02  0.6925E-01
     16.293  0.4891E-02  0.6994E-01
     16.434  0.6835E-02  0.7091E-01
     16.576  0.4918E-02  0.7160E-01
     16.717  0.8950E-02  0.7287E-01
     16.859  0.8627E-02  0.7409E-01
     17.000  0.5511E-02  0.7487E-01
     17.141  0.6493E-02  0.7578E-01
     17.283  0.3769E-02  0.7632E-01
     17.424  0.7119E-02  0.7732E-01
     17.566  0.4598E-02  0.7797E-01
     17.707  0.5276E-02  0.7872E-01
     17.848  0.4852E-02  0.7940E-01
     17.990  0.9149E-02  0.8070E-01
     18.131  0.6489E-02  0.8162E-01
     18.272  0.2153E-02  0.8192E-01
     18.414  0.2704E-02  0.8230E-01
     18.555  0.5009E-02  0.8301E-01
     18.697  0.2090E-02  0.8331E-01
     18.838  0.4819E-02  0.8399E-01
     18.979  0.4268E-02  0.8459E-01
     19.121  0.2668E-02  0.8497E-01
     19.262  0.5840E-02  0.8579E-01
     19.403  0.1674E-02  0.8603E-01
     19.545  0.4170E-02  0.8662E-01
     19.686  0.5922E-02  0.8746E-01
     19.828  0.9093E-02  0.8874E-01
     19.969  0.6114E-02  0.8961E-01
     20.110  0.4509E-02  0.9024E-01
     20.252  0.9244E-02  0.9155E-01
     20.393  0.6080E-02  0.9241E-01
     20.535  0.2702E-02  0.9279E-01
     20.676  0.2201E-02  0.9310E-01
     20.817  0.7308E-02  0.9414E-01
     20.959  0.4878E-02  0.9483E-01
     21.100  0.6961E-02  0.9581E-01
     21.241  0.6368E-02  0.9671E-01
     21.383  0.1002E-01  0.9813E-01
     21.524  0.5567E-02  0.9892E-01
     21.666  0.5752E-02  0.9973E-01
     21.807  0.7464E-02  0.1008E+00
     21.948  0.7642E-02  0.1019E+00
     22.090  0.7661E-02  0.1029E+00
     22.231  0.4516E-02  0.1036E+00
     22.373  0.1002E-01  0.1050E+00
     22.514  0.8120E-02  0.1062E+00
     22.655  0.5769E-02  0.1070E+00
     22.797  0.1082E-01  0.1085E+00
     22.938  0.6230E-02  0.1094E+00
     23.079  0.2707E-02  0.1098E+00
     23.221  0.5291E-02  0.1105E+00
     23.362  0.6508E-02  0.1114E+00
     23.504  0.5394E-02  0.1122E+00
     23.645  0.2887E-02  0.1126E+00
     23.786  0.5687E-02  0.1134E+00
     23.928  0.2624E-02  0.1138E+00
     24.069  0.5462E-02  0.1145E+00
     24.210  0.3648E-02  0.1151E+00
     24.352  0.4265E-02  0.1157E+00
     24.493  0.7499E-02  0.1167E+00
     24.635  0.1120E-01  0.1183E+00
     24.776  0.1017E-01  0.1197E+00
     24.917  0.4438E-02  0.1204E+00
     25.059  0.5729E-02  0.1212E+00
     25.200  0.4558E-02  0.1218E+00
     25.342  0.6290E-02  0.1227E+00
     25.483  0.5192E-02  0.1235E+00
     25.624  0.7186E-02  0.1245E+00
     25.766  0.1082E-01  0.1260E+00
     25.907  0.6383E-02  0.1269E+00
     26.048  0.2912E-02  0.1273E+00
     26.190  0.6208E-02  0.1282E+00
     26.331  0.4055E-02  0.1288E+00
     26.473  0.4903E-02  0.1295E+00
     26.614  0.2531E-02  0.1298E+00
     26.755  0.7219E-02  0.1308E+00
     26.897  0.8330E-02  0.1320E+00
     27.038  0.8114E-02  0.1332E+00
     27.180  0.9440E-02  0.1345E+00
     27.321  0.4180E-02  0.1351E+00
     27.462  0.6983E-02  0.1361E+00
     27.604  0.4880E-02  0.1368E+00
     27.745  0.2681E-02  0.1371E+00
     27.886  0.7823E-02  0.1382E+00
     28.028  0.1074E-01  0.1398E+00
     28.169  0.5479E-02  0.1405E+00
     28.311  0.7707E-02  0.1416E+00
     28.452  0.3520E-02  0.1421E+00
     28.593  0.8253E-02  0.1433E+00
     28.735  0.1460E-02  0.1435E+00
     28.876  0.6909E-02  0.1445E+00
     29.017  0.7192E-02  0.1455E+00
     29.159  0.8884E-02  0.1467E+00
     29.300  0.4660E-02  0.1474E+00
     29.442  0.1144E-01  0.1490E+00
     29.583  0.8311E-02  0.1502E+00
     29.724  0.2632E-02  0.1506E+00
     29.866  0.7942E-02  0.1517E+00
     30.007  0.7465E-02  0.1527E+00
     30.149  0.3204E-02  0.1532E+00
     30.290  0.4668E-02  0.1539E+00
     30.431  0.7441E-02  0.1549E+00
     30.573  0.7749E-02  0.1560E+00
     30.714  0.3757E-02  0.1565E+00
     30.855  0.4432E-02  0.1572E+00
     30.997  0.1815E-02  0.1574E+00
     31.138  0.2910E-02  0.1578E+00
     31.280  0.2942E-02  0.1583E+00
     31.421  0.2891E-02  0.1587E+00
     31.562  0.8571E-03  0.1588E+00
     31.704  0.7131E-03  0.1589E+00
     31.845  0.1524E-02  0.1591E+00
     31.987  0.1016E-02  0.1592E+00
     32.128  0.4798E-04  0.1592E+00
     32.269  0.2773E-03  0.1593E+00
     32.411  0.3391E-03  0.1593E+00
     32.552  0.8963E-03  0.1595E+00
     32.693  0.3501E-03  0.1595E+00
     32.835  0.7489E-03  0.1596E+00
     32.976  0.3596E-03  0.1597E+00
     33.118  0.1039E-02  0.1598E+00
     33.259  0.5218E-03  0.1599E+00
     33.400  0.9109E-04  0.1599E+00
     33.542  0.1244E-08  0.1599E+00
     33.683  0.0000E+00  0.1599E+00
     33.824  0.4438E-16  0.1599E+00
     33.966  0.1207E-06  0.1599E+00
     34.107  0.1608E-03  0.1599E+00
     34.249  0.2513E-03  0.1600E+00
     34.390  0.2770E-03  0.1600E+00
     34.531  0.1511E-05  0.1600E+00
     34.673  0.8294E-14  0.1600E+00
     34.814  0.0000E+00  0.1600E+00
     34.956  0.0000E+00  0.1600E+00
     35.097  0.0000E+00  0.1600E+00
     35.238  0.0000E+00  0.1600E+00
     35.380  0.0000E+00  0.1600E+00
     35.521  0.0000E+00  0.1600E+00
     35.662  0.0000E+00  0.1600E+00
     35.804  0.0000E+00  0.1600E+00
     35.945  0.0000E+00  0.1600E+00
     36.087  0.0000E+00  0.1600E+00
     36.228  0.0000E+00  0.1600E+00
