    1    1  100    1
  0.1386300E+02  0.2621157E-09  0.2621157E-09  0.2621157E-09  0.5000000E-15
  1.000000000000000E-004
  CAR 
 unknown system                          
      4    140      8
 
  0.3125000E-01  0.3125000E-01  0.3125000E-01  0.1953125E-02
    1       -4.139238   1.000000
    2       19.392887   0.000000
    3       20.236392   0.000000
    4       20.236392   0.000000
    5       22.750829   0.000000
    6       22.750829   0.000000
    7       24.197395   0.000000
    8       25.538696   0.000000
 
  0.9375000E-01  0.3125000E-01  0.3125000E-01  0.5859375E-02
    1       -3.781109   1.000000
    2       17.388777   0.000000
    3       18.562600   0.000000
    4       19.454537   0.000000
    5       22.237898   0.000000
    6       23.334167   0.000000
    7       24.999689   0.000000
    8       25.758953   0.000000
 
  0.1562500E+00  0.3125000E-01  0.3125000E-01  0.5859375E-02
    1       -3.185626   1.000000
    2       14.815327   0.000000
    3       17.385189   0.000000
    4       18.543362   0.000000
    5       21.606022   0.000000
    6       22.702367   0.000000
    7       25.774561   0.000000
    8       26.149153   0.000000
 
  0.2187500E+00  0.3125000E-01  0.3125000E-01  0.5859375E-02
    1       -2.354877   1.000000
    2       12.203893   0.000000
    3       16.459034   0.000000
    4       17.692178   0.000000
    5       20.947621   0.000000
    6       21.921380   0.000000
    7       26.689778   0.000000
    8       26.801471   0.000000
 
  0.2812500E+00  0.3125000E-01  0.3125000E-01  0.5859375E-02
    1       -1.291774   1.000000
    2        9.703106   0.999999
    3       15.743087   0.000000
    4       16.990395   0.000000
    5       20.363959   0.000000
    6       21.264510   0.000000
    7       27.475343   0.000000
    8       27.935989   0.000000
 
  0.3437500E+00  0.3125000E-01  0.3125000E-01  0.5859375E-02
    1       -0.000553   1.000000
    2        7.364847   1.000000
    3       15.232520   0.000000
    4       16.472967   0.000000
    5       19.916880   0.000000
    6       20.773985   0.000000
    7       28.459118   0.000000
    8       29.134461   0.000000
 
  0.4062500E+00  0.3125000E-01  0.3125000E-01  0.5859375E-02
    1        1.511576   1.000000
    2        5.219179   1.000000
    3       14.926172   0.000000
    4       16.158115   0.000000
    5       19.639396   0.000000
    6       20.474010   0.000000
    7       29.534342   0.000000
    8       30.259892   0.000000
 
  0.4687500E+00  0.3125000E-01  0.3125000E-01  0.2929688E-02
    1        3.056899   1.000000
    2        3.461866   1.000000
    3       14.824025   0.000000
    4       16.051786   0.000000
    5       19.545156   0.000000
    6       20.372833   0.000000
    7       30.203041   0.000000
    8       30.814600   0.000000
 
 -0.3125000E-01  0.3125000E-01  0.3125000E-01  0.1464844E-02
    1       -4.258760   1.000000
    2       20.562225   0.000000
    3       20.562225   0.000000
    4       21.012011   0.000000
    5       22.515051   0.000000
    6       22.995216   0.000000
    7       22.995216   0.000000
    8       25.316424   0.000000
 
  0.9375000E-01  0.9375000E-01  0.3125000E-01  0.5859375E-02
    1       -3.304592   1.000000
    2       15.992213   0.000000
    3       16.631750   0.000000
    4       18.067329   0.000000
    5       22.655868   0.000000
    6       23.742296   0.000000
    7       24.976904   0.000000
    8       26.106880   0.000000
 
  0.1562500E+00  0.9375000E-01  0.3125000E-01  0.1171875E-01
    1       -2.591879   1.000000
    2       13.658137   0.000000
    3       15.325189   0.000000
    4       17.089779   0.000000
    5       22.393736   0.000000
    6       23.522771   0.000000
    7       25.545247   0.000000
    8       27.021183   0.000000
 
  0.2187500E+00  0.9375000E-01  0.3125000E-01  0.1171875E-01
    1       -1.645439   1.000000
    2       11.121070   0.000000
    3       14.462175   0.000000
    4       16.286358   0.000000
    5       21.880687   0.000000
    6       23.140270   0.000000
    7       26.208603   0.000000
    8       28.262426   0.000000
 
  0.2812500E+00  0.9375000E-01  0.3125000E-01  0.1171875E-01
    1       -0.468799   1.000000
    2        8.705207   1.000000
    3       13.822957   0.000000
    4       15.669225   0.000000
    5       21.385446   0.000000
    6       22.769762   0.000000
    7       27.091226   0.000000
    8       29.461597   0.000000
 
  0.3437500E+00  0.9375000E-01  0.3125000E-01  0.1171875E-01
    1        0.932938   1.000000
    2        6.464117   1.000000
    3       13.396423   0.000000
    4       15.252175   0.000000
    5       21.024903   0.000000
    6       22.481880   0.000000
    7       28.187736   0.000000
    8       30.424560   0.000000
 
  0.4062500E+00  0.9375000E-01  0.3125000E-01  0.1171875E-01
    1        2.545051   1.000000
    2        4.429531   1.000000
    3       13.182647   0.000000
    4       15.041799   0.000000
    5       20.837704   0.000000
    6       22.327423   0.000000
    7       29.376474   0.000000
    8       30.467540   0.000000
 
 -0.9375000E-01  0.9375000E-01  0.3125000E-01  0.5859375E-02
    1       -4.019803   1.000000
    2       18.642133   0.000000
    3       19.321278   0.000000
    4       20.650914   0.000000
    5       21.932862   0.000000
    6       23.440163   0.000000
    7       24.321450   0.000000
    8       24.501235   0.000000
 
  0.1562500E+00  0.1562500E+00  0.3125000E-01  0.5859375E-02
    1       -1.763475   1.000000
    2       12.522199   0.000000
    3       12.958202   0.000000
    4       16.163757   0.000000
    5       22.748173   0.000000
    6       23.791478   0.000000
    7       26.320076   0.000000
    8       27.540680   0.000000
 
  0.2187500E+00  0.1562500E+00  0.3125000E-01  0.1171875E-01
    1       -0.703343   1.000000
    2       10.238367   0.000000
    3       12.005579   0.000000
    4       15.447124   0.000000
    5       22.607331   0.000000
    6       24.040407   0.000000
    7       26.772612   0.000000
    8       28.859877   0.000000
 
  0.2812500E+00  0.1562500E+00  0.3125000E-01  0.1171875E-01
    1        0.584301   1.000000
    2        7.922403   1.000000
    3       11.450397   0.000000
    4       14.928639   0.000000
    5       22.266498   0.000000
    6       24.375389   0.000000
    7       27.169576   0.000000
    8       30.154733   0.000000
 
  0.3437500E+00  0.1562500E+00  0.3125000E-01  0.1171875E-01
    1        2.092346   1.000000
    2        5.786072   1.000000
    3       11.119372   0.000000
    4       14.614304   0.000000
    5       22.016713   0.000000
    6       24.517068   0.000000
    7       27.986902   0.000000
    8       30.197087   0.000000
 
  0.4062500E+00  0.1562500E+00  0.3125000E-01  0.5859375E-02
    1        3.639168   1.000000
    2        4.028726   1.000000
    3       11.009307   0.000000
    4       14.509030   0.000000
    5       21.928808   0.000000
    6       24.541585   0.000000
    7       28.844834   0.000000
    8       29.458806   0.000000
 
 -0.1562500E+00  0.1562500E+00  0.3125000E-01  0.5859375E-02
    1       -3.542707   1.000000
    2       16.110637   0.000000
    3       18.140069   0.000000
    4       20.122504   0.000000
    5       20.963189   0.000000
    6       22.670385   0.000000
    7       24.617405   0.000000
    8       26.469475   0.000000
 
 -0.9375000E-01  0.1562500E+00  0.3125000E-01  0.5859375E-02
    1       -3.661864   1.000000
    2       17.250081   0.000000
    3       17.647605   0.000000
    4       19.917011   0.000000
    5       21.823778   0.000000
    6       22.890911   0.000000
    7       24.425357   0.000000
    8       25.362022   0.000000
 
  0.2187500E+00  0.2187500E+00  0.3125000E-01  0.5859375E-02
    1        0.467870   1.000000
    2        9.425807   1.000000
    3        9.766191   0.999034
    4       14.828173   0.000000
    5       23.226162   0.000000
    6       24.205133   0.000000
    7       28.306315   0.000000
    8       28.871085   0.000000
 
  0.2812500E+00  0.2187500E+00  0.3125000E-01  0.1171875E-01
    1        1.863088   1.000000
    2        7.355587   1.000000
    3        9.167130   1.000000
    4       14.411747   0.000000
    5       23.271756   0.000000
    6       24.899368   0.000000
    7       28.300533   0.000000
    8       29.738401   0.000000
 
  0.3437500E+00  0.2187500E+00  0.3125000E-01  0.1171875E-01
    1        3.468199   1.000000
    2        5.337809   1.000000
    3        8.937886   1.000000
    4       14.201826   0.000000
    5       23.169115   0.000000
    6       25.704399   0.000000
    7       27.898677   0.000000
    8       29.814393   0.000000
 
 -0.2187500E+00  0.2187500E+00  0.3125000E-01  0.5859375E-02
    1       -2.829161   1.000000
    2       13.474015   0.000000
    3       17.135767   0.000000
    4       19.459645   0.000000
    5       20.005310   0.000000
    6       21.871137   0.000000
    7       25.135047   0.000000
    8       27.539314   0.000000
 
 -0.1562500E+00  0.2187500E+00  0.3125000E-01  0.1171875E-01
    1       -3.066700   1.000000
    2       14.879492   0.000000
    3       16.380238   0.000000
    4       19.215393   0.000000
    5       21.196927   0.000000
    6       22.386302   0.000000
    7       24.691387   0.000000
    8       26.853114   0.000000
 
  0.2812500E+00  0.2812500E+00  0.3125000E-01  0.5859375E-02
    1        3.359882   1.000000
    2        6.878193   1.000000
    3        7.190175   1.000000
    4       14.099373   0.000000
    5       24.114073   0.000000
    6       25.216927   0.000000
    7       27.801578   0.000000
    8       30.722509   0.000000
 
  0.3437500E+00  0.2812500E+00  0.3125000E-01  0.5859375E-02
    1        4.893651   1.000000
    2        5.273296   1.000000
    3        6.940777   1.000000
    4       13.994982   0.000000
    5       24.308721   0.000000
    6       25.947572   0.000000
    7       26.817090   0.000000
    8       31.420677   0.000000
 
 -0.2812500E+00  0.2812500E+00  0.3125000E-01  0.5859375E-02
    1       -1.881665   1.000000
    2       10.906591   0.000000
    3       16.326020   0.000000
    4       18.815201   0.000000
    5       19.179253   0.000000
    6       21.191385   0.000000
    7       25.856725   0.000000
    8       28.472450   0.000000
 
 -0.2187500E+00  0.2812500E+00  0.3125000E-01  0.1171875E-01
    1       -2.236417   1.000000
    2       12.297939   0.000000
    3       15.439019   0.000000
    4       18.488696   0.000000
    5       20.407776   0.000000
    6       22.216705   0.000000
    7       24.794649   0.000000
    8       28.564182   0.000000
 
 -0.1562500E+00  0.2812500E+00  0.3125000E-01  0.5859375E-02
    1       -2.354798   1.000000
    2       13.661719   0.000000
    3       14.061903   0.000000
    4       18.497382   0.000000
    5       21.233905   0.000000
    6       21.950363   0.000000
    7       25.831226   0.000000
    8       27.040908   0.000000
 
 -0.3437500E+00  0.3437500E+00  0.3125000E-01  0.5859375E-02
    1       -0.703691   1.000000
    2        8.483417   1.000000
    3       15.717398   0.000000
    4       18.285743   0.000000
    5       18.540049   0.000000
    6       20.652725   0.000000
    7       26.806698   0.000000
    8       29.506452   0.000000
 
 -0.2812500E+00  0.3437500E+00  0.3125000E-01  0.1171875E-01
    1       -1.173916   1.000000
    2        9.807976   0.972480
    3       14.705719   0.000000
    4       17.856044   0.000000
    5       19.713847   0.000000
    6       22.007324   0.000000
    7       25.280475   0.000000
    8       29.835391   0.000000
 
 -0.2187500E+00  0.3437500E+00  0.3125000E-01  0.1171875E-01
    1       -1.409421   1.000000
    2       11.315428   0.000000
    3       13.028770   0.000000
    4       17.826390   0.000000
    5       20.789632   0.000000
    6       22.190302   0.000000
    7       25.953659   0.000000
    8       28.501573   0.000000
 
 -0.4062500E+00  0.4062500E+00  0.3125000E-01  0.5859375E-02
    1        0.699463   1.000000
    2        6.237799   1.000000
    3       15.310867   0.000000
    4       17.915484   0.000000
    5       18.105436   0.000000
    6       20.274322   0.000000
    7       27.949180   0.000000
    8       30.381651   0.000000
 
 -0.3437500E+00  0.4062500E+00  0.3125000E-01  0.1171875E-01
    1        0.116549   1.000000
    2        7.474666   1.000000
    3       14.179685   0.000000
    4       17.380838   0.000000
    5       19.193840   0.000000
    6       21.752810   0.000000
    7       26.164559   0.000000
    8       30.488927   0.000000
 
 -0.2812500E+00  0.4062500E+00  0.3125000E-01  0.1171875E-01
    1       -0.234142   1.000000
    2        8.919260   1.000000
    3       12.372195   0.000000
    4       17.276543   0.000000
    5       20.240614   0.000000
    6       22.774881   0.000000
    7       25.858553   0.000000
    8       29.846181   0.000000
 
 -0.2187500E+00  0.4062500E+00  0.3125000E-01  0.5859375E-02
    1       -0.351209   1.000000
    2       10.402513   0.000000
    3       10.733989   0.000000
    4       17.237836   0.000000
    5       21.281860   0.000000
    6       21.937241   0.000000
    7       27.644342   0.000000
    8       28.221996   0.000000
 
 -0.4687500E+00  0.4687500E+00  0.3125000E-01  0.5859375E-02
    1        2.313004   1.000000
    2        4.200901   1.000000
    3       15.107607   0.000000
    4       17.726316   0.000000
    5       17.887282   0.000000
    6       20.082281   0.000000
    7       29.191663   0.000000
    8       30.336441   0.000000
 
 -0.4062500E+00  0.4687500E+00  0.3125000E-01  0.1171875E-01
    1        1.627814   1.000000
    2        5.331833   1.000000
    3       13.863451   0.000000
    4       17.089086   0.000000
    5       18.876263   0.000000
    6       21.561869   0.000000
    7       27.337808   0.000000
    8       29.966038   0.000000
 
 -0.3437500E+00  0.4687500E+00  0.3125000E-01  0.1171875E-01
    1        1.165878   1.000000
    2        6.686156   1.000000
    3       11.936420   0.000000
    4       16.894651   0.000000
    5       19.842724   0.000000
    6       23.248291   0.000000
    7       26.169182   0.000000
    8       29.593815   0.000000
 
 -0.2812500E+00  0.4687500E+00  0.3125000E-01  0.1171875E-01
    1        0.934054   1.000000
    2        8.243792   1.000000
    3       10.031584   0.000005
    4       16.780021   0.000000
    5       21.085066   0.000000
    6       22.660566   0.000000
    7       27.403587   0.000000
    8       29.053241   0.000000
 
 -0.4687500E+00 -0.4687500E+00  0.3125000E-01  0.5859375E-02
    1        3.173947   1.000000
    2        3.574153   1.000000
    3       13.757867   0.000000
    4       16.990870   0.000000
    5       18.769701   0.000000
    6       21.491654   0.000000
    7       28.529099   0.000000
    8       28.835761   0.000000
 
 -0.4062500E+00 -0.4687500E+00  0.3125000E-01  0.1171875E-01
    1        2.776248   1.000000
    2        4.655826   1.000000
    3       11.718453   0.000000
    4       16.700144   0.000000
    5       19.638754   0.000000
    6       23.447586   0.000000
    7       26.976303   0.000000
    8       28.464795   0.000000
 
 -0.3437500E+00 -0.4687500E+00  0.3125000E-01  0.1171875E-01
    1        2.439185   1.000000
    2        6.120786   1.000000
    3        9.692980   1.000000
    4       16.494417   0.000000
    5       20.827646   0.000000
    6       23.705023   0.000000
    7       26.659673   0.000000
    8       28.934775   0.000000
 
 -0.2812500E+00 -0.4687500E+00  0.3125000E-01  0.5859375E-02
    1        2.325295   1.000000
    2        7.658171   1.000000
    3        7.962606   1.000000
    4       16.418764   0.000000
    5       21.937563   0.000000
    6       22.664822   0.000000
    7       26.872959   0.000000
    8       29.920112   0.000000
 
 -0.4062500E+00 -0.4062500E+00  0.3125000E-01  0.5859375E-02
    1        3.986805   1.000000
    2        4.365019   1.000000
    3        9.580751   1.000000
    4       16.397612   0.000000
    5       20.735433   0.000000
    6       24.376002   0.000000
    7       26.087479   0.000000
    8       28.753867   0.000000
 
 -0.3437500E+00 -0.4062500E+00  0.3125000E-01  0.1171875E-01
    1        3.925173   1.000000
    2        5.782425   1.000000
    3        7.600489   1.000000
    4       16.230910   0.000000
    5       22.021517   0.000000
    6       23.686997   0.000000
    7       25.433602   0.000000
    8       30.653678   0.000000
 
 -0.3437500E+00 -0.3437500E+00  0.3125000E-01  0.1953125E-02
    1        5.328566   1.000000
    2        5.830870   1.000000
    3        5.830870   1.000000
    4       16.139936   0.000000
    5       22.838946   0.000000
    6       24.068524   0.000000
    7       24.068524   0.000000
    8       32.582479   0.000000
 
  0.9375000E-01  0.9375000E-01  0.9375000E-01  0.1953125E-02
    1       -2.710502   1.000000
    2       14.718079   0.000000
    3       15.585695   0.000000
    4       15.585695   0.000000
    5       24.018818   0.000000
    6       24.018818   0.000000
    7       26.044877   0.000000
    8       26.044877   0.000000
 
  0.1562500E+00  0.9375000E-01  0.9375000E-01  0.5859375E-02
    1       -1.881638   1.000000
    2       12.593598   0.000000
    3       14.146092   0.000000
    4       14.666572   0.000000
    5       23.957212   0.000000
    6       24.430768   0.000000
    7       26.670869   0.000000
    8       26.999457   0.000000
 
  0.2187500E+00  0.9375000E-01  0.9375000E-01  0.5859375E-02
    1       -0.820906   1.000000
    2       10.138582   0.000000
    3       13.360525   0.000000
    4       13.927891   0.000000
    5       23.728618   0.000000
    6       24.099669   0.000000
    7       27.875240   0.000000
    8       27.962101   0.000000
 
  0.2812500E+00  0.9375000E-01  0.9375000E-01  0.5859375E-02
    1        0.467540   1.000000
    2        7.813771   1.000000
    3       12.819575   0.000000
    4       13.391180   0.000000
    5       23.470735   0.000000
    6       23.736869   0.000000
    7       28.845153   0.000000
    8       29.287167   0.000000
 
  0.3437500E+00  0.9375000E-01  0.9375000E-01  0.5859375E-02
    1        1.976547   1.000000
    2        5.674034   1.000000
    3       12.496465   0.000000
    4       13.065686   0.000000
    5       23.281734   0.000000
    6       23.492812   0.000000
    7       29.855732   0.000000
    8       30.463238   0.000000
 
  0.4062500E+00  0.9375000E-01  0.9375000E-01  0.2929688E-02
    1        3.522965   1.000000
    2        3.916509   1.000000
    3       12.388844   0.000000
    4       12.956420   0.000000
    5       23.213361   0.000000
    6       23.408161   0.000000
    7       30.419965   0.000000
    8       31.017653   0.000000
 
 -0.9375000E-01  0.9375000E-01  0.9375000E-01  0.1464844E-02
    1       -3.781083   1.000000
    2       18.154767   0.000000
    3       18.154767   0.000000
    4       19.470789   0.000000
    5       22.335118   0.000000
    6       22.973654   0.000000
    7       24.312960   0.000000
    8       24.312960   0.000000
 
  0.1562500E+00  0.1562500E+00  0.9375000E-01  0.5859375E-02
    1       -0.938394   1.000000
    2       11.553157   0.000000
    3       12.007948   0.000000
    4       13.593183   0.000000
    5       24.625073   0.000000
    6       25.373607   0.000000
    7       27.139265   0.000000
    8       27.931434   0.000000
 
  0.2187500E+00  0.1562500E+00  0.9375000E-01  0.1171875E-01
    1        0.234276   1.000000
    2        9.359903   1.000000
    3       11.148111   0.000000
    4       12.940337   0.000000
    5       24.721122   0.000000
    6       25.640105   0.000000
    7       28.024862   0.000000
    8       29.138996   0.000000
 
  0.2812500E+00  0.1562500E+00  0.9375000E-01  0.1171875E-01
    1        1.631377   1.000000
    2        7.139120   1.000000
    3       10.698395   0.000000
    4       12.506691   0.000000
    5       24.583447   0.000000
    6       25.705960   0.000000
    7       28.937461   0.000000
    8       30.388884   0.000000
 
  0.3437500E+00  0.1562500E+00  0.9375000E-01  0.1171875E-01
    1        3.238738   1.000000
    2        5.113393   1.000000
    3       10.475962   0.000000
    4       12.289651   0.000000
    5       24.472516   0.000000
    6       25.703650   0.000000
    7       29.900585   0.000000
    8       30.811612   0.000000
 
 -0.1562500E+00  0.1562500E+00  0.9375000E-01  0.5859375E-02
    1       -3.304537   1.000000
    2       16.163045   0.000000
    3       16.975090   0.000000
    4       18.917105   0.000000
    5       21.273120   0.000000
    6       22.470844   0.000000
    7       24.599418   0.000000
    8       25.834338   0.000000
 
  0.2187500E+00  0.2187500E+00  0.9375000E-01  0.5859375E-02
    1        1.515933   1.000000
    2        8.652963   1.000000
    3        8.999750   1.000000
    4       12.390324   0.000000
    5       25.408261   0.000000
    6       26.418098   0.000000
    7       29.141014   0.000000
    8       29.594382   0.000000
 
  0.2812500E+00  0.2187500E+00  0.9375000E-01  0.1171875E-01
    1        3.016927   1.000000
    2        6.684310   1.000000
    3        8.507898   1.000000
    4       12.063991   0.000000
    5       25.624777   0.000000
    6       27.043217   0.000000
    7       29.435558   0.000000
    8       30.501016   0.000000
 
  0.3437500E+00  0.2187500E+00  0.9375000E-01  0.5859375E-02
    1        4.559533   1.000000
    2        4.937552   1.000000
    3        8.390650   1.000000
    4       11.955310   0.000000
    5       25.636937   0.000000
    6       27.400792   0.000000
    7       29.407077   0.000000
    8       30.790273   0.000000
 
 -0.2187500E+00  0.2187500E+00  0.9375000E-01  0.5859375E-02
    1       -2.591791   1.000000
    2       13.638001   0.000000
    3       15.955987   0.000000
    4       18.335449   0.000000
    5       21.042965   0.000000
    6       21.586265   0.000000
    7       24.439699   0.000000
    8       27.990647   0.000000
 
 -0.1562500E+00  0.2187500E+00  0.9375000E-01  0.5859375E-02
    1       -2.710377   1.000000
    2       14.915364   0.000000
    3       15.181684   0.000000
    4       18.421289   0.000000
    5       20.313430   0.000000
    6       22.246924   0.000000
    7       25.552405   0.000000
    8       26.370532   0.000000
 
  0.2812500E+00  0.2812500E+00  0.9375000E-01  0.5859375E-02
    1        4.605552   1.000000
    2        6.329250   1.000000
    3        6.634455   1.000000
    4       11.845937   0.000000
    5       26.369934   0.000000
    6       27.750575   0.000000
    7       28.893577   0.000000
    8       31.583695   0.000000
 
 -0.2812500E+00  0.2812500E+00  0.9375000E-01  0.5859375E-02
    1       -1.645322   1.000000
    2       11.106898   0.000000
    3       15.129562   0.000000
    4       17.662192   0.000000
    5       20.797151   0.000000
    6       21.202435   0.000000
    7       24.337176   0.000000
    8       30.046327   0.000000
 
 -0.2187500E+00  0.2812500E+00  0.9375000E-01  0.1171875E-01
    1       -1.881453   1.000000
    2       12.565224   0.000000
    3       14.123321   0.000000
    4       18.011670   0.000000
    5       20.158928   0.000000
    6       21.608135   0.000000
    7       25.510357   0.000000
    8       28.083308   0.000000
 
 -0.3437500E+00  0.3437500E+00  0.9375000E-01  0.5859375E-02
    1       -0.468772   1.000000
    2        8.697939   1.000000
    3       14.505546   0.000000
    4       17.088884   0.000000
    5       20.179414   0.000000
    6       21.328728   0.000000
    7       24.649915   0.000000
    8       30.333657   0.000000
 
 -0.2812500E+00  0.3437500E+00  0.9375000E-01  0.1171875E-01
    1       -0.820771   1.000000
    2       10.117939   0.000000
    3       13.374784   0.000000
    4       17.459573   0.000000
    5       20.298372   0.000000
    6       21.334233   0.000000
    7       25.163338   0.000000
    8       29.553695   0.000000
 
 -0.2187500E+00  0.3437500E+00  0.9375000E-01  0.5859375E-02
    1       -0.938237   1.000000
    2       11.563580   0.000000
    3       11.868593   0.000000
    4       18.072148   0.000000
    5       19.811980   0.000000
    6       21.143012   0.000000
    7       27.167118   0.000000
    8       27.719532   0.000000
 
 -0.4062500E+00  0.4062500E+00  0.9375000E-01  0.5859375E-02
    1        0.932815   1.000000
    2        6.460483   1.000000
    3       14.088296   0.000000
    4       16.687821   0.000000
    5       19.760673   0.000000
    6       21.316843   0.000000
    7       25.464369   0.000000
    8       29.495457   0.000000
 
 -0.3437500E+00  0.4062500E+00  0.9375000E-01  0.1171875E-01
    1        0.467414   1.000000
    2        7.802701   1.000000
    3       12.839745   0.000000
    4       16.994885   0.000000
    5       20.061662   0.000000
    6       21.781319   0.000000
    7       25.002941   0.000000
    8       29.070438   0.000000
 
 -0.2812500E+00  0.4062500E+00  0.9375000E-01  0.1171875E-01
    1        0.234198   1.000000
    2        9.338116   1.000000
    3       11.075265   0.000000
    4       17.840909   0.000000
    5       19.942702   0.000000
    6       21.010329   0.000000
    7       26.749065   0.000000
    8       28.507506   0.000000
 
 -0.4687500E+00  0.4687500E+00  0.9375000E-01  0.5859375E-02
    1        2.544687   1.000000
    2        4.427581   1.000000
    3       13.879159   0.000000
    4       16.483090   0.000000
    5       19.548586   0.000000
    6       21.270351   0.000000
    7       26.626466   0.000000
    8       28.124493   0.000000
 
 -0.4062500E+00  0.4687500E+00  0.9375000E-01  0.1171875E-01
    1        1.975923   1.000000
    2        5.668599   1.000000
    3       12.517602   0.000000
    4       16.701013   0.000000
    5       19.810911   0.000000
    6       22.294536   0.000000
    7       25.257562   0.000000
    8       27.820454   0.000000
 
 -0.3437500E+00  0.4687500E+00  0.9375000E-01  0.1171875E-01
    1        1.630693   1.000000
    2        7.126976   1.000000
    3       10.631030   0.000000
    4       17.549210   0.000000
    5       19.814852   0.000000
    6       21.739319   0.000000
    7       25.785771   0.000000
    8       28.248886   0.000000
 
 -0.2812500E+00  0.4687500E+00  0.9375000E-01  0.5859375E-02
    1        1.515267   1.000000
    2        8.649942   1.000000
    3        8.940382   1.000000
    4       17.992629   0.000000
    5       20.234451   0.000000
    6       20.719081   0.000000
    7       26.139383   0.000000
    8       29.264148   0.000000
 
 -0.4687500E+00 -0.4687500E+00  0.9375000E-01  0.5859375E-02
    1        3.524150   1.000000
    2        3.910682   1.000000
    3       12.410176   0.000000
    4       16.601073   0.000000
    5       19.718707   0.000000
    6       22.482497   0.000000
    7       25.701503   0.000000
    8       26.984461   0.000000
 
 -0.4062500E+00 -0.4687500E+00  0.9375000E-01  0.1171875E-01
    1        3.237279   1.000000
    2        5.106624   1.000000
    3       10.409790   0.000000
    4       17.380699   0.000000
    5       19.667772   0.000000
    6       22.775077   0.000000
    7       24.686053   0.000000
    8       27.924484   0.000000
 
 -0.3437500E+00 -0.4687500E+00  0.9375000E-01  0.1171875E-01
    1        3.015119   1.000000
    2        6.672100   1.000000
    3        8.473276   1.000000
    4       17.914737   0.000000
    5       20.233357   0.000000
    6       21.489170   0.000000
    7       24.535046   0.000000
    8       29.925605   0.000000
 
 -0.4062500E+00 -0.4062500E+00  0.9375000E-01  0.5859375E-02
    1        4.561853   1.000000
    2        4.923662   1.000000
    3        8.357737   1.000000
    4       17.865024   0.000000
    5       20.154525   0.000000
    6       22.572234   0.000000
    7       23.249083   0.000000
    8       30.017313   0.000000
 
 -0.3437500E+00 -0.4062500E+00  0.9375000E-01  0.5859375E-02
    1        4.602615   1.000000
    2        6.324217   1.000000
    3        6.606291   1.000000
    4       17.974413   0.000000
    5       21.276078   0.000000
    6       21.402699   0.000000
    7       22.885983   0.000000
    8       31.810066   0.000000
 
  0.1562500E+00  0.1562500E+00  0.1562500E+00  0.1953125E-02
    1        0.117433   1.000000
    2       10.653813   0.000000
    3       11.250414   0.000000
    4       11.250414   0.000000
    5       26.257693   0.000000
    6       26.257693   0.000000
    7       28.324675   0.000000
    8       28.324675   0.000000
 
  0.2187500E+00  0.1562500E+00  0.1562500E+00  0.5859375E-02
    1        1.399996   1.000000
    2        8.688926   1.000000
    3       10.347014   0.000000
    4       10.703348   0.000000
    5       26.639657   0.000000
    6       26.946460   0.000000
    7       29.363309   0.000000
    8       29.445268   0.000000
 
  0.2812500E+00  0.1562500E+00  0.1562500E+00  0.5859375E-02
    1        2.902231   1.000000
    2        6.576939   1.000000
    3        9.997249   0.000296
    4       10.373527   0.000000
    5       26.775136   0.000000
    6       27.004582   0.000000
    7       30.361725   0.000000
    8       30.679383   0.000000
 
  0.3437500E+00  0.1562500E+00  0.1562500E+00  0.2929688E-02
    1        4.446312   1.000000
    2        4.825486   1.000000
    3        9.884133   0.406909
    4       10.263397   0.000000
    5       26.803904   0.000000
    6       26.991159   0.000000
    7       30.786054   0.000000
    8       31.321436   0.000000
 
 -0.1562500E+00  0.1562500E+00  0.1562500E+00  0.1464844E-02
    1       -2.829028   1.000000
    2       15.783811   0.000000
    3       15.783811   0.000000
    4       17.529340   0.000000
    5       19.531159   0.000000
    6       23.904562   0.000000
    7       25.461271   0.000000
    8       25.461271   0.000000
 