 running on    4 total cores
 distrk:  each k-point on    4 cores,    1 groups
 distr:  one band on    1 cores,    4 groups
 vasp.6.2.0 18Jan21 (build Aug 12 2022 13:00:08) complex                        
  
 POSCAR found type information on POSCAR Si
 POSCAR found :  1 types and       1 ions
 scaLAPACK will be used
 LDA part: xc-table for Pade appr. of Perdew
 POSCAR, INCAR and KPOINTS ok, starting setup
 FFT: planning ...
 WAVECAR not read
 entering main loop
       N       E                     dE             d eps       ncg     rms          rms(c)
DAV:   1    -0.319962818183E+01   -0.31996E+01   -0.15138E+03  2544   0.282E+02
DAV:   2    -0.489572525948E+01   -0.16961E+01   -0.16653E+01  3384   0.246E+01
DAV:   3    -0.490295436208E+01   -0.72291E-02   -0.72285E-02  2496   0.163E+00
DAV:   4    -0.490295972079E+01   -0.53587E-05   -0.53588E-05  3440   0.455E-02
DAV:   5    -0.490295972316E+01   -0.23653E-08   -0.13115E-08  2536   0.453E-04    0.286E+00
DAV:   6    -0.489144655195E+01    0.11513E-01   -0.36193E-03  2328   0.266E-01    0.159E+00
DAV:   7    -0.488486921951E+01    0.65773E-02   -0.72321E-03  2408   0.377E-01    0.136E-01
DAV:   8    -0.488484808202E+01    0.21137E-04   -0.32812E-05  3320   0.435E-02    0.105E-02
DAV:   9    -0.488484862831E+01   -0.54630E-06   -0.39581E-07  2504   0.355E-03
   1 F= -.48848486E+01 E0= -.48845590E+01  d E =-.488485E+01
 curvature:   0.00 expect dE= 0.000E+00 dE for cont linesearch  0.000E+00
 trial: gam= 0.00000 g(F)=  0.859E-67 g(S)=  0.340E-01 ort = 0.000E+00 (trialstep = 0.100E+01)
 search vector abs. value=  0.340E-01
 bond charge predicted
       N       E                     dE             d eps       ncg     rms          rms(c)
DAV:   1    -0.490552632326E+01   -0.20678E-01   -0.49517E-01  2264   0.279E+00    0.660E-01
DAV:   2    -0.490007653803E+01    0.54498E-02   -0.27022E-03  2568   0.376E-01    0.377E-01
DAV:   3    -0.489688529615E+01    0.31912E-02   -0.35575E-03  2432   0.252E-01    0.115E-01
DAV:   4    -0.489688192173E+01    0.33744E-05   -0.63854E-06  2880   0.221E-02    0.960E-02
DAV:   5    -0.489686947759E+01    0.12444E-04   -0.12553E-06  2736   0.753E-03    0.165E-02
DAV:   6    -0.489686989051E+01   -0.41292E-06   -0.24454E-08  1176   0.126E-03
   2 F= -.48968699E+01 E0= -.48965633E+01  d E =-.120213E-01
 trial-energy change:   -0.012021  1 .order   -0.012819   -0.034041    0.008403
 step:   0.7829(harm=  0.8020)  dis= 0.00000  next Energy=    -4.897790 (dE=-0.129E-01)
 bond charge predicted
       N       E                     dE             d eps       ncg     rms          rms(c)
DAV:   1    -0.489817218402E+01   -0.13027E-02   -0.24058E-02  2256   0.624E-01    0.143E-01
DAV:   2    -0.489790803124E+01    0.26415E-03   -0.12770E-04  2592   0.822E-02    0.809E-02
DAV:   3    -0.489775557236E+01    0.15246E-03   -0.17146E-04  2432   0.554E-02    0.270E-02
DAV:   4    -0.489775565034E+01   -0.77982E-07   -0.29911E-07  2696   0.482E-03    0.232E-02
DAV:   5    -0.489775637242E+01   -0.72207E-06   -0.65121E-08  1248   0.179E-03    0.442E-03
DAV:   6    -0.489775622854E+01    0.14388E-06   -0.25612E-09  1144   0.423E-04
   3 F= -.48977562E+01 E0= -.48974040E+01  d E =-.129076E-01
 curvature:  -0.40 expect dE=-0.230E-06 dE for cont linesearch -0.230E-06
 trial: gam=-0.00411 g(F)=  0.247E-64 g(S)=  0.579E-06 ort = 0.140E-03 (trialstep = 0.957E+00)
 search vector abs. value=  0.110E-09
 reached required accuracy - stopping structural energy minimisation
