   2   2   0   0
  0.2016476E+02  0.3849278E-09  0.3849279E-09  0.3849278E-09  0.5000000E-15
  1.000000000000000E-004
  CAR 
 unknown system                          
     16.57269528     -7.27390064  301      5.84296913      1.00000000
     -7.274  0.0000E+00  0.0000E+00
     -7.194  0.0000E+00  0.0000E+00
     -7.115  0.0000E+00  0.0000E+00
     -7.035  0.0000E+00  0.0000E+00
     -6.956  0.0000E+00  0.0000E+00
     -6.876  0.0000E+00  0.0000E+00
     -6.797  0.0000E+00  0.0000E+00
     -6.717  0.0000E+00  0.0000E+00
     -6.638  0.0000E+00  0.0000E+00
     -6.559  0.0000E+00  0.0000E+00
     -6.479  0.7870E-20  0.6256E-21
     -6.400  0.8213E-13  0.6529E-14
     -6.320  0.7806E-08  0.6205E-09
     -6.241  0.8823E-05  0.7020E-06
     -6.161  0.2690E-03  0.2208E-04
     -6.082  0.9207E-03  0.9527E-04
     -6.002  0.1383E-02  0.2052E-03
     -5.923  0.1713E-02  0.3414E-03
     -5.843  0.1998E-02  0.5001E-03
     -5.764  0.2274E-02  0.6809E-03
     -5.684  0.2453E-02  0.8759E-03
     -5.605  0.2732E-02  0.1093E-02
     -5.525  0.2900E-02  0.1324E-02
     -5.446  0.3091E-02  0.1569E-02
     -5.366  0.3281E-02  0.1830E-02
     -5.287  0.3542E-02  0.2112E-02
     -5.207  0.3542E-02  0.2393E-02
     -5.128  0.3965E-02  0.2708E-02
     -5.048  0.3905E-02  0.3019E-02
     -4.969  0.4257E-02  0.3357E-02
     -4.889  0.4410E-02  0.3708E-02
     -4.810  0.4373E-02  0.4055E-02
     -4.730  0.5017E-02  0.4454E-02
     -4.651  0.4722E-02  0.4829E-02
     -4.571  0.5174E-02  0.5241E-02
     -4.492  0.5423E-02  0.5672E-02
     -4.412  0.5478E-02  0.6107E-02
     -4.333  0.5682E-02  0.6559E-02
     -4.253  0.6373E-02  0.7065E-02
     -4.174  0.6095E-02  0.7550E-02
     -4.094  0.6699E-02  0.8082E-02
     -4.015  0.7296E-02  0.8662E-02
     -3.935  0.8078E-02  0.9304E-02
     -3.856  0.8307E-02  0.9965E-02
     -3.776  0.9375E-02  0.1071E-01
     -3.697  0.8556E-02  0.1139E-01
     -3.617  0.8298E-02  0.1205E-01
     -3.538  0.7644E-02  0.1266E-01
     -3.458  0.8348E-02  0.1332E-01
     -3.379  0.7387E-02  0.1391E-01
     -3.299  0.6862E-02  0.1445E-01
     -3.220  0.7109E-02  0.1502E-01
     -3.140  0.6660E-02  0.1555E-01
     -3.061  0.6646E-02  0.1608E-01
     -2.982  0.5647E-02  0.1653E-01
     -2.902  0.5394E-02  0.1695E-01
     -2.823  0.6383E-02  0.1746E-01
     -2.743  0.5136E-02  0.1787E-01
     -2.664  0.3734E-02  0.1817E-01
     -2.584  0.4796E-02  0.1855E-01
     -2.505  0.5256E-02  0.1897E-01
     -2.425  0.3030E-02  0.1921E-01
     -2.346  0.2438E-02  0.1940E-01
     -2.266  0.3516E-02  0.1968E-01
     -2.187  0.2711E-02  0.1989E-01
     -2.107  0.1064E-02  0.1998E-01
     -2.028  0.2631E-03  0.2000E-01
     -1.948  0.6223E-03  0.2005E-01
     -1.869  0.2468E-02  0.2025E-01
     -1.789  0.2462E-02  0.2044E-01
     -1.710  0.1534E-02  0.2056E-01
     -1.630  0.1996E-02  0.2072E-01
     -1.551  0.5776E-02  0.2118E-01
     -1.471  0.4384E-02  0.2153E-01
     -1.392  0.3029E-02  0.2177E-01
     -1.312  0.4242E-02  0.2211E-01
     -1.233  0.9142E-02  0.2283E-01
     -1.153  0.9770E-02  0.2361E-01
     -1.074  0.1504E-01  0.2481E-01
     -0.994  0.1454E-01  0.2596E-01
     -0.915  0.1150E-01  0.2688E-01
     -0.835  0.9988E-02  0.2767E-01
     -0.756  0.7888E-02  0.2830E-01
     -0.676  0.6834E-02  0.2884E-01
     -0.597  0.7477E-02  0.2944E-01
     -0.517  0.6424E-02  0.2995E-01
     -0.438  0.6886E-02  0.3049E-01
     -0.358  0.4590E-02  0.3086E-01
     -0.279  0.6105E-02  0.3134E-01
     -0.199  0.4322E-02  0.3169E-01
     -0.120  0.5913E-02  0.3216E-01
     -0.040  0.4447E-02  0.3251E-01
      0.039  0.3511E-02  0.3279E-01
      0.119  0.5316E-02  0.3321E-01
      0.198  0.2987E-02  0.3345E-01
      0.278  0.4502E-02  0.3381E-01
      0.357  0.4117E-02  0.3413E-01
      0.436  0.2174E-02  0.3431E-01
      0.516  0.4287E-02  0.3465E-01
      0.595  0.3270E-02  0.3491E-01
      0.675  0.2185E-02  0.3508E-01
      0.754  0.4207E-02  0.3542E-01
      0.834  0.2271E-02  0.3560E-01
      0.913  0.1895E-02  0.3575E-01
      0.993  0.3718E-02  0.3604E-01
      1.072  0.2405E-02  0.3623E-01
      1.152  0.1527E-02  0.3636E-01
      1.231  0.3121E-02  0.3660E-01
      1.311  0.2498E-02  0.3680E-01
      1.390  0.4149E-02  0.3713E-01
      1.470  0.7869E-02  0.3776E-01
      1.549  0.9737E-02  0.3853E-01
      1.629  0.1124E-01  0.3942E-01
      1.708  0.1231E-01  0.4040E-01
      1.788  0.1253E-01  0.4140E-01
      1.867  0.1004E-01  0.4220E-01
      1.947  0.1082E-01  0.4306E-01
      2.026  0.1095E-01  0.4393E-01
      2.106  0.9614E-02  0.4469E-01
      2.185  0.1070E-01  0.4554E-01
      2.265  0.1068E-01  0.4639E-01
      2.344  0.1108E-01  0.4727E-01
      2.424  0.1025E-01  0.4809E-01
      2.503  0.1194E-01  0.4904E-01
      2.583  0.1130E-01  0.4993E-01
      2.662  0.1257E-01  0.5093E-01
      2.742  0.1259E-01  0.5194E-01
      2.821  0.1423E-01  0.5307E-01
      2.901  0.1524E-01  0.5428E-01
      2.980  0.1535E-01  0.5550E-01
      3.060  0.1552E-01  0.5673E-01
      3.139  0.1427E-01  0.5787E-01
      3.219  0.1558E-01  0.5910E-01
      3.298  0.1370E-01  0.6019E-01
      3.378  0.1453E-01  0.6135E-01
      3.457  0.1404E-01  0.6246E-01
      3.537  0.1385E-01  0.6356E-01
      3.616  0.1308E-01  0.6460E-01
      3.696  0.1418E-01  0.6573E-01
      3.775  0.1227E-01  0.6671E-01
      3.855  0.1343E-01  0.6777E-01
      3.934  0.1276E-01  0.6879E-01
      4.013  0.1212E-01  0.6975E-01
      4.093  0.1253E-01  0.7075E-01
      4.172  0.1213E-01  0.7171E-01
      4.252  0.1170E-01  0.7264E-01
      4.331  0.1190E-01  0.7359E-01
      4.411  0.1131E-01  0.7449E-01
      4.490  0.1045E-01  0.7532E-01
      4.570  0.8728E-02  0.7601E-01
      4.649  0.7288E-02  0.7659E-01
      4.729  0.6797E-02  0.7713E-01
      4.808  0.5667E-02  0.7758E-01
      4.888  0.5295E-02  0.7800E-01
      4.967  0.4591E-02  0.7837E-01
      5.047  0.4218E-02  0.7870E-01
      5.126  0.3489E-02  0.7898E-01
      5.206  0.3312E-02  0.7924E-01
      5.285  0.2759E-02  0.7946E-01
      5.365  0.2270E-02  0.7964E-01
      5.444  0.2007E-02  0.7980E-01
      5.524  0.1400E-02  0.7991E-01
      5.603  0.8883E-03  0.7999E-01
      5.683  0.1827E-03  0.8000E-01
      5.762  0.3426E-05  0.8000E-01
      5.842  0.1225E-08  0.8000E-01
      5.921  0.4186E-14  0.8000E-01
      6.001  0.2239E-16  0.8000E-01
      6.080  0.4049E-10  0.8000E-01
      6.160  0.6095E-06  0.8000E-01
      6.239  0.1052E-03  0.8001E-01
      6.319  0.6288E-03  0.8006E-01
      6.398  0.1614E-02  0.8019E-01
      6.478  0.2068E-02  0.8035E-01
      6.557  0.3047E-02  0.8059E-01
      6.637  0.3637E-02  0.8088E-01
      6.716  0.3625E-02  0.8117E-01
      6.796  0.4455E-02  0.8152E-01
      6.875  0.5297E-02  0.8195E-01
      6.955  0.4975E-02  0.8234E-01
      7.034  0.5418E-02  0.8277E-01
      7.114  0.6743E-02  0.8331E-01
      7.193  0.6934E-02  0.8386E-01
      7.273  0.7846E-02  0.8448E-01
      7.352  0.8190E-02  0.8513E-01
      7.432  0.9208E-02  0.8587E-01
      7.511  0.1085E-01  0.8673E-01
      7.590  0.1036E-01  0.8755E-01
      7.670  0.1180E-01  0.8849E-01
      7.749  0.1372E-01  0.8958E-01
      7.829  0.1557E-01  0.9082E-01
      7.908  0.1643E-01  0.9212E-01
      7.988  0.1636E-01  0.9342E-01
      8.067  0.1490E-01  0.9461E-01
      8.147  0.1595E-01  0.9588E-01
      8.226  0.1368E-01  0.9696E-01
      8.306  0.1274E-01  0.9798E-01
      8.385  0.1204E-01  0.9893E-01
      8.465  0.1104E-01  0.9981E-01
      8.544  0.1205E-01  0.1008E+00
      8.624  0.1069E-01  0.1016E+00
      8.703  0.9659E-02  0.1024E+00
      8.783  0.1172E-01  0.1033E+00
      8.862  0.1425E-01  0.1045E+00
      8.942  0.2298E-01  0.1063E+00
      9.021  0.2485E-01  0.1083E+00
      9.101  0.1873E-01  0.1097E+00
      9.180  0.1624E-01  0.1110E+00
      9.260  0.1672E-01  0.1124E+00
      9.339  0.1687E-01  0.1137E+00
      9.419  0.1717E-01  0.1151E+00
      9.498  0.1620E-01  0.1164E+00
      9.578  0.1507E-01  0.1176E+00
      9.657  0.1331E-01  0.1186E+00
      9.737  0.1133E-01  0.1195E+00
      9.816  0.1183E-01  0.1205E+00
      9.896  0.1274E-01  0.1215E+00
      9.975  0.1298E-01  0.1225E+00
     10.055  0.1216E-01  0.1235E+00
     10.134  0.1128E-01  0.1244E+00
     10.214  0.1391E-01  0.1255E+00
     10.293  0.1558E-01  0.1267E+00
     10.373  0.1393E-01  0.1278E+00
     10.452  0.1131E-01  0.1287E+00
     10.532  0.1120E-01  0.1296E+00
     10.611  0.1236E-01  0.1306E+00
     10.691  0.1471E-01  0.1318E+00
     10.770  0.1151E-01  0.1327E+00
     10.850  0.1107E-01  0.1335E+00
     10.929  0.1122E-01  0.1344E+00
     11.008  0.1292E-01  0.1355E+00
     11.088  0.1163E-01  0.1364E+00
     11.167  0.1259E-01  0.1374E+00
     11.247  0.1018E-01  0.1382E+00
     11.326  0.1065E-01  0.1390E+00
     11.406  0.1085E-01  0.1399E+00
     11.485  0.1206E-01  0.1409E+00
     11.565  0.1069E-01  0.1417E+00
     11.644  0.9666E-02  0.1425E+00
     11.724  0.9892E-02  0.1433E+00
     11.803  0.8981E-02  0.1440E+00
     11.883  0.1069E-01  0.1448E+00
     11.962  0.1011E-01  0.1456E+00
     12.042  0.9850E-02  0.1464E+00
     12.121  0.9615E-02  0.1472E+00
     12.201  0.7043E-02  0.1477E+00
     12.280  0.9342E-02  0.1485E+00
     12.360  0.9775E-02  0.1493E+00
     12.439  0.9921E-02  0.1501E+00
     12.519  0.7919E-02  0.1507E+00
     12.598  0.6843E-02  0.1512E+00
     12.678  0.6638E-02  0.1518E+00
     12.757  0.6766E-02  0.1523E+00
     12.837  0.8474E-02  0.1530E+00
     12.916  0.6730E-02  0.1535E+00
     12.996  0.4774E-02  0.1539E+00
     13.075  0.5068E-02  0.1543E+00
     13.155  0.5811E-02  0.1547E+00
     13.234  0.6269E-02  0.1552E+00
     13.314  0.6224E-02  0.1557E+00
     13.393  0.4461E-02  0.1561E+00
     13.473  0.5599E-02  0.1565E+00
     13.552  0.5919E-02  0.1570E+00
     13.632  0.4557E-02  0.1574E+00
     13.711  0.5684E-02  0.1578E+00
     13.791  0.2543E-02  0.1580E+00
     13.870  0.1323E-02  0.1581E+00
     13.950  0.2519E-02  0.1583E+00
     14.029  0.2502E-02  0.1585E+00
     14.109  0.2672E-02  0.1587E+00
     14.188  0.1406E-02  0.1589E+00
     14.268  0.9652E-03  0.1589E+00
     14.347  0.1599E-02  0.1591E+00
     14.427  0.1931E-02  0.1592E+00
     14.506  0.1836E-02  0.1594E+00
     14.585  0.9633E-03  0.1594E+00
     14.665  0.4647E-03  0.1595E+00
     14.744  0.1036E-02  0.1596E+00
     14.824  0.1443E-02  0.1597E+00
     14.903  0.9751E-03  0.1597E+00
     14.983  0.5925E-03  0.1598E+00
     15.062  0.1544E-03  0.1598E+00
     15.142  0.7128E-03  0.1599E+00
     15.221  0.7670E-03  0.1599E+00
     15.301  0.3536E-03  0.1600E+00
     15.380  0.1394E-03  0.1600E+00
     15.460  0.2671E-03  0.1600E+00
     15.539  0.1957E-03  0.1600E+00
     15.619  0.1428E-04  0.1600E+00
     15.698  0.1836E-07  0.1600E+00
     15.778  0.2255E-12  0.1600E+00
     15.857  0.3148E-19  0.1600E+00
     15.937  0.0000E+00  0.1600E+00
     16.016  0.0000E+00  0.1600E+00
     16.096  0.0000E+00  0.1600E+00
     16.175  0.0000E+00  0.1600E+00
     16.255  0.0000E+00  0.1600E+00
     16.334  0.0000E+00  0.1600E+00
     16.414  0.0000E+00  0.1600E+00
     16.493  0.0000E+00  0.1600E+00
     16.573  0.0000E+00  0.1600E+00
