    2    2  100    1
  0.2016476E+02  0.3849278E-09  0.3849279E-09  0.3849278E-09  0.5000000E-15
  1.000000000000000E-004
  CAR 
 unknown system                          
      8   1012      8
 
  0.2272727E-01  0.2272727E-01  0.2272727E-01  0.1878287E-03
    1       -6.189964   1.000000
    2        5.542275   1.000000
    3        5.612059   1.000000
    4        5.612062   1.000000
    5        8.198127   0.000000
    6        8.198134   0.000000
    7        8.200859   0.000000
    8        8.814134   0.000000
 
  0.6818182E-01  0.2272727E-01  0.2272727E-01  0.5634861E-03
    1       -6.154440   1.000000
    2        5.199019   1.000000
    3        5.475539   1.000000
    4        5.596446   1.000000
    5        8.234177   0.000000
    6        8.248582   0.000000
    7        8.322788   0.000000
    8        9.096461   0.000000
 
  0.1136364E+00  0.2272727E-01  0.2272727E-01  0.5634861E-03
    1       -6.065910   1.000000
    2        4.496092   1.000000
    3        5.313120   1.000000
    4        5.499512   1.000000
    5        8.192477   0.000000
    6        8.386960   0.000000
    7        8.531557   0.000000
    8        9.737367   0.000000
 
  0.1590909E+00  0.2272727E-01  0.2272727E-01  0.5634861E-03
    1       -5.925284   1.000000
    2        3.677559   1.000000
    3        5.131934   1.000000
    4        5.350987   1.000000
    5        8.044515   0.000000
    6        8.606837   0.000000
    7        8.789005   0.000000
    8       10.510889   0.000000
 
  0.2045455E+00  0.2272727E-01  0.2272727E-01  0.5634861E-03
    1       -5.734081   1.000000
    2        2.834692   1.000000
    3        4.952398   1.000000
    4        5.181388   1.000000
    5        7.868030   0.000000
    6        8.829898   0.000000
    7        9.022401   0.000000
    8       11.299674   0.000000
 
  0.2500000E+00  0.2272727E-01  0.2272727E-01  0.5634861E-03
    1       -5.495038   1.000000
    2        2.005486   1.000000
    3        4.788446   1.000000
    4        5.011671   1.000000
    5        7.690993   0.000000
    6        8.997167   0.000000
    7        9.176790   0.000000
    8       12.040133   0.000000
 
  0.2954545E+00  0.2272727E-01  0.2272727E-01  0.5634861E-03
    1       -5.212702   1.000000
    2        1.211639   1.000000
    3        4.648132   1.000000
    4        4.854678   1.000000
    5        7.528760   0.000000
    6        9.077966   0.000000
    7        9.229518   0.000000
    8       12.673140   0.000000
 
  0.3409091E+00  0.2272727E-01  0.2272727E-01  0.5634861E-03
    1       -4.895282   1.000000
    2        0.470667   1.000000
    3        4.535757   1.000000
    4        4.717694   1.000000
    5        7.390403   0.000000
    6        9.083463   0.000000
    7        9.200359   0.000000
    8       13.180546   0.000000
 
  0.3863636E+00  0.2272727E-01  0.2272727E-01  0.5634861E-03
    1       -4.558426   1.000000
    2       -0.196130   1.000000
    3        4.453387   1.000000
    4        4.604805   1.000000
    5        7.280844   0.000000
    6        9.050126   0.000000
    7        9.129558   0.000000
    8       13.424670   0.000000
 
  0.4318182E+00  0.2272727E-01  0.2272727E-01  0.5634861E-03
    1       -4.234149   1.000000
    2       -0.753320   1.000000
    3        4.401787   1.000000
    4        4.518340   1.000000
    5        7.202869   0.000000
    6        9.012208   0.000000
    7        9.052687   0.000000
    8       13.415216   0.000000
 
  0.4772727E+00  0.2272727E-01  0.2272727E-01  0.5634861E-03
    1       -3.986954   1.000000
    2       -1.134285   1.000000
    3        4.380979   1.000000
    4        4.459802   1.000000
    5        7.158211   0.000000
    6        8.992433   0.000000
    7        8.992942   0.000000
    8       13.369264   0.000000
 
 -0.4772727E+00  0.2272727E-01  0.2272727E-01  0.5634861E-03
    1       -3.913405   1.000000
    2       -1.241363   1.000000
    3        4.390517   1.000000
    4        4.430184   1.000000
    5        7.147084   0.000000
    6        8.962202   0.000000
    7        9.001905   0.000000
    8       13.354259   0.000000
 
 -0.4318182E+00  0.2272727E-01  0.2272727E-01  0.5634861E-03
    1       -4.054996   1.000000
    2       -1.032770   1.000000
    3        4.429775   1.000000
    4        4.430275   1.000000
    5        7.169967   0.000000
    6        8.963764   0.000000
    7        9.042941   0.000000
    8       13.379240   0.000000
 
 -0.3863636E+00  0.2272727E-01  0.2272727E-01  0.5634861E-03
    1       -4.337702   1.000000
    2       -0.583079   1.000000
    3        4.460652   1.000000
    4        4.497880   1.000000
    5        7.226176   0.000000
    6        8.992338   0.000000
    7        9.109517   0.000000
    8       13.413144   0.000000
 
 -0.3409091E+00  0.2272727E-01  0.2272727E-01  0.5634861E-03
    1       -4.671368   1.000000
    2        0.016088   1.000000
    3        4.521633   1.000000
    4        4.593776   1.000000
    5        7.315222   0.000000
    6        9.033332   0.000000
    7        9.186468   0.000000
    8       13.276723   0.000000
 
 -0.2954545E+00  0.2272727E-01  0.2272727E-01  0.5634861E-03
    1       -5.004211   1.000000
    2        0.710567   1.000000
    3        4.612969   1.000000
    4        4.715790   1.000000
    5        7.434978   0.000000
    6        9.059405   0.000000
    7        9.246678   0.000000
    8       12.824828   0.000000
 
 -0.2500000E+00  0.2272727E-01  0.2272727E-01  0.5634861E-03
    1       -5.311203   1.000000
    2        1.471223   1.000000
    3        4.733498   1.000000
    4        4.861162   1.000000
    5        7.582035   0.000000
    6        9.033244   0.000000
    7        9.252332   0.000000
    8       12.345814   0.000000
 
 -0.2045455E+00  0.2272727E-01  0.2272727E-01  0.5634861E-03
    1       -5.579788   1.000000
    2        2.278915   1.000000
    3        4.880461   1.000000
    4        5.025011   1.000000
    5        7.750215   0.000000
    6        8.922508   0.000000
    7        9.167738   0.000000
    8       11.770525   0.000000
 
 -0.1590909E+00  0.2272727E-01  0.2272727E-01  0.5634861E-03
    1       -5.803285   1.000000
    2        3.115812   1.000000
    3        5.048265   1.000000
    4        5.198435   1.000000
    5        7.928177   0.000000
    6        8.729867   0.000000
    7        8.986277   0.000000
    8       11.031323   0.000000
 
 -0.1136364E+00  0.2272727E-01  0.2272727E-01  0.5634861E-03
    1       -5.977864   1.000000
    2        3.957080   1.000000
    3        5.227042   1.000000
    4        5.366030   1.000000
    5        8.095490   0.000000
    6        8.502510   0.000000
    7        8.742007   0.000000
    8       10.241433   0.000000
 
 -0.6818182E-01  0.2272727E-01  0.2272727E-01  0.5634861E-03
    1       -6.101262   1.000000
    2        4.754624   1.000000
    3        5.399559   1.000000
    4        5.502890   1.000000
    5        8.197109   0.000000
    6        8.327524   0.000000
    7        8.491640   0.000000
    8        9.490804   0.000000
 
 -0.2272727E-01  0.2272727E-01  0.2272727E-01  0.5634861E-03
    1       -6.172194   1.000000
    2        5.389688   1.000000
    3        5.538968   1.000000
    4        5.575359   1.000000
    5        8.155856   0.000000
    6        8.278646   0.000000
    7        8.292998   0.000000
    8        8.943963   0.000000
 
  0.6818182E-01  0.6818182E-01  0.2272727E-01  0.5634861E-03
    1       -6.136660   1.000000
    2        5.162050   1.000000
    3        5.407106   1.000000
    4        5.457559   1.000000
    5        8.073571   0.000000
    6        8.434210   0.000000
    7        8.468690   0.000000
    8        9.167131   0.000000
 
  0.1136364E+00  0.6818182E-01  0.2272727E-01  0.1126972E-02
    1       -6.065763   1.000000
    2        4.664871   1.000000
    3        5.172400   1.000000
    4        5.405884   1.000000
    5        8.052673   0.000000
    6        8.547271   0.000000
    7        8.680776   0.000000
    8        9.629022   0.000000
 
  0.1590909E+00  0.6818182E-01  0.2272727E-01  0.1126972E-02
    1       -5.942450   1.000000
    2        3.914404   1.000000
    3        4.963452   1.000000
    4        5.306456   1.000000
    5        8.123531   0.000000
    6        8.518461   0.000000
    7        8.961424   0.000000
    8       10.299865   0.000000
 
  0.2045455E+00  0.6818182E-01  0.2272727E-01  0.1126972E-02
    1       -5.767975   1.000000
    2        3.096840   1.000000
    3        4.770385   1.000000
    4        5.154391   1.000000
    5        8.105669   0.000000
    6        8.596660   0.000000
    7        9.222546   0.000000
    8       10.929827   0.000000
 
  0.2500000E+00  0.6818182E-01  0.2272727E-01  0.1126972E-02
    1       -5.544616   1.000000
    2        2.273932   1.000000
    3        4.598679   1.000000
    4        4.980326   1.000000
    5        7.978523   0.000000
    6        8.765763   0.000000
    7        9.406856   0.000000
    8       11.370039   0.000000
 
  0.2954545E+00  0.6818182E-01  0.2272727E-01  0.1126972E-02
    1       -5.276167   1.000000
    2        1.475116   1.000000
    3        4.453520   1.000000
    4        4.806789   1.000000
    5        7.830040   0.000000
    6        8.893169   0.000000
    7        9.482183   0.000000
    8       11.714819   0.000000
 
  0.3409091E+00  0.6818182E-01  0.2272727E-01  0.1126972E-02
    1       -4.969294   1.000000
    2        0.720363   1.000000
    3        4.337090   1.000000
    4        4.648343   1.000000
    5        7.692478   0.000000
    6        8.941908   0.000000
    7        9.460251   0.000000
    8       12.142001   0.000000
 
  0.3863636E+00  0.6818182E-01  0.2272727E-01  0.1126972E-02
    1       -4.636484   1.000000
    2        0.029723   1.000000
    3        4.248156   1.000000
    4        4.515623   1.000000
    5        7.577649   0.000000
    6        8.936216   0.000000
    7        9.381021   0.000000
    8       12.669607   0.000000
 
  0.4318182E+00  0.6818182E-01  0.2272727E-01  0.1126972E-02
    1       -4.302689   1.000000
    2       -0.567090   1.000000
    3        4.181854   1.000000
    4        4.418562   1.000000
    5        7.491217   0.000000
    6        8.914003   0.000000
    7        9.284700   0.000000
    8       13.181683   0.000000
 
  0.4772727E+00  0.6818182E-01  0.2272727E-01  0.1126972E-02
    1       -4.019659   1.000000
    2       -1.015657   1.000000
    3        4.131222   1.000000
    4        4.366814   1.000000
    5        7.435944   0.000000
    6        8.901624   0.000000
    7        9.200346   0.000000
    8       13.436507   0.000000
 
 -0.4772727E+00  0.6818182E-01  0.2272727E-01  0.1126972E-02
    1       -3.877809   1.000000
    2       -1.223885   1.000000
    3        4.094068   1.000000
    4        4.363931   1.000000
    5        7.413215   0.000000
    6        8.910635   0.000000
    7        9.146973   0.000000
    8       13.488983   0.000000
 
 -0.4318182E+00  0.6818182E-01  0.2272727E-01  0.1126972E-02
    1       -3.951627   1.000000
    2       -1.116744   1.000000
    3        4.075747   1.000000
    4        4.404909   1.000000
    5        7.423633   0.000000
    6        8.938545   0.000000
    7        9.137866   0.000000
    8       13.493061   0.000000
 
 -0.3863636E+00  0.6818182E-01  0.2272727E-01  0.1126972E-02
    1       -4.199268   1.000000
    2       -0.736355   1.000000
    3        4.083028   1.000000
    4        4.482712   1.000000
    5        7.466918   0.000000
    6        8.974389   0.000000
    7        9.178815   0.000000
    8       13.418628   0.000000
 
 -0.3409091E+00  0.6818182E-01  0.2272727E-01  0.1126972E-02
    1       -4.523774   1.000000
    2       -0.180971   1.000000
    3        4.120456   1.000000
    4        4.591699   1.000000
    5        7.542321   0.000000
    6        9.007639   0.000000
    7        9.256694   0.000000
    8       13.074023   0.000000
 
 -0.2954545E+00  0.6818182E-01  0.2272727E-01  0.1126972E-02
    1       -4.860620   1.000000
    2        0.482512   1.000000
    3        4.190602   1.000000
    4        4.727098   1.000000
    5        7.648177   0.000000
    6        9.024012   0.000000
    7        9.339223   0.000000
    8       12.549423   0.000000
 
 -0.2500000E+00  0.6818182E-01  0.2272727E-01  0.1126972E-02
    1       -5.177911   1.000000
    2        1.218131   1.000000
    3        4.294584   1.000000
    4        4.883677   1.000000
    5        7.780947   0.000000
    6        8.994083   0.000000
    7        9.382216   0.000000
    8       12.071227   0.000000
 
 -0.2045455E+00  0.6818182E-01  0.2272727E-01  0.1126972E-02
    1       -5.460082   1.000000
    2        2.003490   1.000000
    3        4.432278   1.000000
    4        5.054216   1.000000
    5        7.934469   0.000000
    6        8.886892   0.000000
    7        9.335764   0.000000
    8       11.661034   0.000000
 
 -0.1590909E+00  0.6818182E-01  0.2272727E-01  0.1126972E-02
    1       -5.698947   1.000000
    2        2.818582   1.000000
    3        4.602409   1.000000
    4        5.227242   1.000000
    5        8.096134   0.000000
    6        8.704635   0.000000
    7        9.171650   0.000000
    8       11.191039   0.000000
 
 -0.1136364E+00  0.6818182E-01  0.2272727E-01  0.1126972E-02
    1       -5.890003   1.000000
    2        3.635392   1.000000
    3        4.803326   1.000000
    4        5.384362   1.000000
    5        8.232016   0.000000
    6        8.509163   0.000000
    7        8.912642   0.000000
    8       10.578177   0.000000
 
 -0.6818182E-01  0.6818182E-01  0.2272727E-01  0.1126972E-02
    1       -6.030514   1.000000
    2        4.395677   1.000000
    3        5.039939   1.000000
    4        5.498127   1.000000
    5        8.221634   0.000000
    6        8.456720   0.000000
    7        8.622951   0.000000
    8        9.906420   0.000000
 
 -0.2272727E-01  0.6818182E-01  0.2272727E-01  0.1126972E-02
    1       -6.118950   1.000000
    2        4.949738   1.000000
    3        5.344137   1.000000
    4        5.540309   1.000000
    5        8.163741   0.000000
    6        8.372410   0.000000
    7        8.453737   0.000000
    8        9.342959   0.000000
 
  0.1136364E+00  0.1136364E+00  0.2272727E-01  0.5634861E-03
    1       -6.012512   1.000000
    2        4.558991   1.000000
    3        5.041884   1.000000
    4        5.081888   1.000000
    5        7.820288   0.000000
    6        8.925659   0.000000
    7        8.985030   0.000000
    8        9.708480   0.000000
 
  0.1590909E+00  0.1136364E+00  0.2272727E-01  0.1126972E-02
    1       -5.906626   1.000000
    2        4.026796   1.000000
    3        4.771034   1.000000
    4        5.000596   1.000000
    5        7.764749   0.000000
    6        9.054486   0.000000
    7        9.269006   0.000000
    8       10.116531   0.000000
 
  0.2045455E+00  0.1136364E+00  0.2272727E-01  0.1126972E-02
    1       -5.749151   1.000000
    2        3.295801   1.000000
    3        4.549791   1.000000
    4        4.885778   1.000000
    5        7.850654   0.000000
    6        8.997533   0.000000
    7        9.562320   0.000000
    8       10.497241   0.000000
 
  0.2500000E+00  0.1136364E+00  0.2272727E-01  0.1126972E-02
    1       -5.541980   1.000000
    2        2.512519   1.000000
    3        4.360046   1.000000
    4        4.722858   1.000000
    5        7.966330   0.000000
    6        8.955179   0.000000
    7        9.786088   0.000000
    8       10.658058   0.000000
 
  0.2954545E+00  0.1136364E+00  0.2272727E-01  0.1126972E-02
    1       -5.288255   1.000000
    2        1.729831   1.000000
    3        4.196132   1.000000
    4        4.545912   1.000000
    5        8.006642   0.000000
    6        8.970947   0.000000
    7        9.896708   0.000000
    8       10.804109   0.000000
 
  0.3409091E+00  0.1136364E+00  0.2272727E-01  0.1126972E-02
    1       -4.993404   1.000000
    2        0.976117   1.000000
    3        4.052903   1.000000
    4        4.384743   1.000000
    5        7.965356   0.000000
    6        8.991871   0.000000
    7        9.894610   0.000000
    8       11.109433   0.000000
 
  0.3863636E+00  0.1136364E+00  0.2272727E-01  0.1126972E-02
    1       -4.667405   1.000000
    2        0.273527   1.000000
    3        3.922062   1.000000
    4        4.262406   1.000000
    5        7.893050   0.000000
    6        8.976477   0.000000
    7        9.816482   0.000000
    8       11.597924   0.000000
 
  0.4318182E+00  0.1136364E+00  0.2272727E-01  0.1126972E-02
    1       -4.329726   1.000000
    2       -0.351155   1.000000
    3        3.799078   1.000000
    4        4.192026   1.000000
    5        7.825947   0.000000
    6        8.943007   0.000000
    7        9.705115   0.000000
    8       12.216193   0.000000
 
  0.4772727E+00  0.1136364E+00  0.2272727E-01  0.1126972E-02
    1       -4.021066   1.000000
    2       -0.853003   1.000000
    3        3.688530   1.000000
    4        4.173737   1.000000
    5        7.780644   0.000000
    6        8.918445   0.000000
    7        9.593072   0.000000
    8       12.888010   0.000000
 
 -0.4772727E+00  0.1136364E+00  0.2272727E-01  0.1126972E-02
    1       -3.820105   1.000000
    2       -1.150763   1.000000
    3        3.599006   1.000000
    4        4.201573   1.000000
    5        7.764415   0.000000
    6        8.918495   0.000000
    7        9.500961   0.000000
    8       13.474291   0.000000
 
 -0.4318182E+00  0.1136364E+00  0.2272727E-01  0.1126972E-02
    1       -3.820935   1.000000
    2       -1.149269   1.000000
    3        3.537575   1.000000
    4        4.269498   1.000000
    5        7.779289   0.000000
    6        8.947934   0.000000
    7        9.440367   0.000000
    8       13.713158   0.000000
 
 -0.3863636E+00  0.1136364E+00  0.2272727E-01  0.1126972E-02
    1       -4.023013   1.000000
    2       -0.849131   1.000000
    3        3.509260   1.000000
    4        4.372506   1.000000
    5        7.825268   0.000000
    6        9.002132   0.000000
    7        9.416858   0.000000
    8       13.494561   0.000000
 
 -0.3409091E+00  0.1136364E+00  0.2272727E-01  0.1126972E-02
    1       -4.332025   1.000000
    2       -0.345999   1.000000
    3        3.517636   1.000000
    4        4.505732   1.000000
    5        7.900593   0.000000
    6        9.064265   0.000000
    7        9.430368   0.000000
    8       12.936866   0.000000
 
 -0.2954545E+00  0.1136364E+00  0.2272727E-01  0.1126972E-02
    1       -4.669632   1.000000
    2        0.278805   1.000000
    3        3.565773   1.000000
    4        4.663780   1.000000
    5        8.002644   0.000000
    6        9.103577   0.000000
    7        9.471469   0.000000
    8       12.332977   0.000000
 
 -0.2500000E+00  0.1136364E+00  0.2272727E-01  0.1126972E-02
    1       -4.995393   1.000000
    2        0.979443   1.000000
    3        3.656516   1.000000
    4        4.839657   1.000000
    5        8.127402   0.000000
    6        9.081703   0.000000
    7        9.506135   0.000000
    8       11.818311   0.000000
 
 -0.2045455E+00  0.1136364E+00  0.2272727E-01  0.1126972E-02
    1       -5.289939   1.000000
    2        1.726289   1.000000
    3        3.794205   1.000000
    4        5.023484   1.000000
    5        8.267391   0.000000
    6        8.970571   0.000000
    7        9.466950   0.000000
    8       11.439388   0.000000
 
 -0.1590909E+00  0.1136364E+00  0.2272727E-01  0.1126972E-02
    1       -5.543350   1.000000
    2        2.488830   1.000000
    3        3.988161   1.000000
    4        5.200273   1.000000
    5        8.405259   0.000000
    6        8.781247   0.000000
    7        9.293482   0.000000
    8       11.175604   0.000000
 
 -0.1136364E+00  0.1136364E+00  0.2272727E-01  0.1126972E-02
    1       -5.750207   1.000000
    2        3.214313   1.000000
    3        4.263789   1.000000
    4        5.347487   1.000000
    5        8.463537   0.000000
    6        8.613233   0.000000
    7        9.016301   0.000000
    8       10.893548   0.000000
 
 -0.6818182E-01  0.1136364E+00  0.2272727E-01  0.1126972E-02
    1       -5.907373   1.000000
    2        3.805829   1.000000
    3        4.669969   1.000000
    4        5.435366   1.000000
    5        8.324554   0.000000
    6        8.535762   0.000000
    7        8.809047   0.000000
    8       10.475933   0.000000
 
 -0.2272727E-01  0.1136364E+00  0.2272727E-01  0.1126972E-02
    1       -6.012957   1.000000
    2        4.212038   1.000000
    3        5.152693   1.000000
    4        5.442081   1.000000
    5        8.191110   0.000000
    6        8.406682   0.000000
    7        8.708906   0.000000
    8       10.025381   0.000000
 
  0.1590909E+00  0.1590909E+00  0.2272727E-01  0.5634861E-03
    1       -5.818116   1.000000
    2        3.844343   1.000000
    3        4.630029   1.000000
    4        4.648999   1.000000
    5        7.503111   0.000000
    6        9.543748   0.000000
    7        9.631139   0.000000
    8       10.001204   0.000000
 
  0.2045455E+00  0.1590909E+00  0.2272727E-01  0.1126972E-02
    1       -5.677747   1.000000
    2        3.328361   1.000000
    3        4.354946   1.000000
    4        4.542855   1.000000
    5        7.440302   0.000000
    6        9.588635   0.000000
    7        9.955852   0.000000
    8       10.142982   0.000000
 
  0.2500000E+00  0.1590909E+00  0.2272727E-01  0.1126972E-02
    1       -5.487088   1.000000
    2        2.653510   1.000000
    3        4.127131   1.000000
    4        4.404119   1.000000
    5        7.536934   0.000000
    6        9.488467   0.000000
    7       10.188739   0.000000
    8       10.234371   0.000000
 
  0.2954545E+00  0.1590909E+00  0.2272727E-01  0.1126972E-02
    1       -5.248704   1.000000
    2        1.928463   1.000000
    3        3.924520   1.000000
    4        4.239708   1.000000
    5        7.680300   0.000000
    6        9.477605   0.000000
    7       10.145424   0.000000
    8       10.401858   0.000000
 
  0.3409091E+00  0.1590909E+00  0.2272727E-01  0.1126972E-02
    1       -4.967053   1.000000
    2        1.203319   1.000000
    3        3.729916   1.000000
    4        4.093156   1.000000
    5        7.768982   0.000000
    6        9.537438   0.000000
    7       10.203933   0.000000
    8       10.445380   0.000000
 
  0.3863636E+00  0.1590909E+00  0.2272727E-01  0.1126972E-02
    1       -4.650095   1.000000
    2        0.508762   1.000000
    3        3.537530   1.000000
    4        3.992105   1.000000
    5        7.786844   0.000000
    6        9.522927   0.000000
    7       10.365667   0.000000
    8       10.573839   0.000000
 
  0.4318182E+00  0.1590909E+00  0.2272727E-01  0.1126972E-02
    1       -4.313049   1.000000
    2       -0.127078   1.000000
    3        3.354573   1.000000
    4        3.942517   1.000000
    5        7.775407   0.000000
    6        9.448245   0.000000
    7       10.262775   0.000000
    8       11.146773   0.000000
 
  0.4772727E+00  0.1590909E+00  0.2272727E-01  0.1126972E-02
    1       -3.987540   1.000000
    2       -0.665040   1.000000
    3        3.191726   1.000000
    4        3.941120   1.000000
    5        7.771255   0.000000
    6        9.372114   0.000000
    7       10.137720   0.000000
    8       11.856097   0.000000
 
 -0.4772727E+00  0.1590909E+00  0.2272727E-01  0.1126972E-02
    1       -3.738694   1.000000
    2       -1.035654   1.000000
    3        3.057387   1.000000
    4        3.983729   1.000000
    5        7.793673   0.000000
    6        9.316550   0.000000
    7       10.022250   0.000000
    8       12.635743   0.000000
 
 -0.4318182E+00  0.1590909E+00  0.2272727E-01  0.1126972E-02
    1       -3.666484   1.000000
    2       -1.136724   1.000000
    3        2.957632   1.000000
    4        4.066556   1.000000
    5        7.849727   0.000000
    6        9.288636   0.000000
    7        9.930812   0.000000
    8       13.430577   0.000000
 
 -0.3863636E+00  0.1590909E+00  0.2272727E-01  0.1126972E-02
    1       -3.813044   1.000000
    2       -0.925926   1.000000
    3        2.897142   1.000000
    4        4.185496   1.000000
    5        7.939540   0.000000
    6        9.288581   0.000000
    7        9.868647   0.000000
    8       13.546133   0.000000
 
 -0.3409091E+00  0.1590909E+00  0.2272727E-01  0.1126972E-02
    1       -4.099447   1.000000
    2       -0.483948   1.000000
    3        2.880286   1.000000
    4        4.335977   1.000000
    5        8.058979   0.000000
    6        9.308606   0.000000
    7        9.834274   0.000000
    8       12.841817   0.000000
 
 -0.2954545E+00  0.1590909E+00  0.2272727E-01  0.1126972E-02
    1       -4.434021   1.000000
    2        0.092923   1.000000
    3        2.912089   1.000000
    4        4.511861   1.000000
    5        8.200801   0.000000
    6        9.325300   0.000000
    7        9.817999   0.000000
    8       12.177194   0.000000
 
 -0.2500000E+00  0.1590909E+00  0.2272727E-01  0.1126972E-02
    1       -4.766079   1.000000
    2        0.744365   1.000000
    3        3.000194   1.000000
    4        4.704736   1.000000
    5        8.355274   0.000000
    6        9.291139   0.000000
    7        9.797434   0.000000
    8       11.623186   0.000000
 
 -0.2045455E+00  0.1590909E+00  0.2272727E-01  0.1126972E-02
    1       -5.071470   1.000000
    2        1.425978   1.000000
    3        3.159793   1.000000
    4        4.902413   1.000000
    5        8.508816   0.000000
    6        9.154142   0.000000
    7        9.716060   0.000000
    8       11.241843   0.000000
 
 -0.1590909E+00  0.1590909E+00  0.2272727E-01  0.1126972E-02
    1       -5.338285   1.000000
    2        2.082599   1.000000
    3        3.423864   1.000000
    4        5.086663   1.000000
    5        8.634370   0.000000
    6        8.918471   0.000000
    7        9.505966   0.000000
    8       11.082989   0.000000
 
 -0.1136364E+00  0.1590909E+00  0.2272727E-01  0.1126972E-02
    1       -5.560052   1.000000
    2        2.637101   1.000000
    3        3.843097   1.000000
    4        5.231503   1.000000
    5        8.596272   0.000000
    6        8.717985   0.000000
    7        9.247657   0.000000
    8       11.064899   0.000000
 
 -0.6818182E-01  0.1590909E+00  0.2272727E-01  0.1126972E-02
    1       -5.733109   1.000000
    2        3.055676   1.000000
    3        4.405956   1.000000
    4        5.305830   1.000000
    5        8.309753   0.000000
    6        8.634876   0.000000
    7        9.104515   0.000000
    8       10.995459   0.000000
 
 -0.2272727E-01  0.1590909E+00  0.2272727E-01  0.1126972E-02
    1       -5.855287   1.000000
    2        3.388758   1.000000
    3        4.962095   1.000000
    4        5.292437   1.000000
    5        8.064756   0.000000
    6        8.596017   0.000000
    7        8.974503   0.000000
    8       10.772802   0.000000
 
  0.2045455E+00  0.2045455E+00  0.2272727E-01  0.5634861E-03
    1       -5.554409   1.000000
    2        3.077245   1.000000
    3        4.227828   1.000000
    4        4.229925   1.000000
    5        7.175301   0.000000
    6        9.569660   0.000000
    7       10.332610   0.000000
    8       10.348608   0.000000
 
  0.2500000E+00  0.2045455E+00  0.2272727E-01  0.1126972E-02
    1       -5.380353   1.000000
    2        2.590162   1.000000
    3        3.961891   1.000000
    4        4.110073   1.000000
    5        7.123615   0.000000
    6        9.313591   0.000000
    7       10.559132   0.000000
    8       10.698932   0.000000
 
  0.2954545E+00  0.2045455E+00  0.2272727E-01  0.1126972E-02
    1       -5.157715   1.000000
    2        1.985573   1.000000
    3        3.712941   1.000000
    4        3.963378   1.000000
    5        7.236102   0.000000
    6        9.173952   0.000000
    7       10.573173   0.000000
    8       10.945412   0.000000
 
  0.3409091E+00  0.2045455E+00  0.2272727E-01  0.1126972E-02
    1       -4.890144   1.000000
    2        1.335938   1.000000
    3        3.457730   1.000000
    4        3.829650   1.000000
    5        7.386018   0.000000
    6        9.242091   0.000000
    7       10.483912   0.000000
    8       11.049563   0.000000
 
  0.3863636E+00  0.2045455E+00  0.2272727E-01  0.1126972E-02
    1       -4.583979   1.000000
    2        0.684384   1.000000
    3        3.199614   1.000000
    4        3.738681   1.000000
    5        7.474732   0.000000
    6        9.566350   0.000000
    7       10.359568   0.000000
    8       11.028668   0.000000
 
  0.4318182E+00  0.2045455E+00  0.2272727E-01  0.1126972E-02
    1       -4.251142   1.000000
    2        0.064629   1.000000
    3        2.955129   1.000000
    4        3.695576   1.000000
    5        7.505995   0.000000
    6       10.108421   0.000000
    7       10.231293   0.000000
    8       10.931179   0.000000
 
  0.4772727E+00  0.2045455E+00  0.2272727E-01  0.1126972E-02
    1       -3.916050   1.000000
    2       -0.485591   1.000000
    3        2.737771   1.000000
    4        3.698765   1.000000
    5        7.527214   0.000000
    6       10.114249   0.000000
    7       10.793245   0.000000
    8       10.808518   0.000000
 
 -0.4772727E+00  0.2045455E+00  0.2272727E-01  0.1126972E-02
    1       -3.630761   1.000000
    2       -0.906206   1.000000
    3        2.556181   1.000000
    4        3.745838   1.000000
    5        7.570598   0.000000
    6       10.016072   0.000000
    7       10.675632   0.000000
    8       11.586327   0.000000
 
 -0.4318182E+00  0.2045455E+00  0.2272727E-01  0.1126972E-02
    1       -3.490696   1.000000
    2       -1.097710   1.000000
    3        2.416459   1.000000
    4        3.834058   1.000000
    5        7.649848   0.000000
    6        9.940303   0.000000
    7       10.565265   0.000000
    8       12.438315   0.000000
 