       N       E                     dE             d eps       ncg     rms          rms(c)
DAV:   1     0.133815021123E+01    0.13382E+01   -0.25759E+03 16296   0.580E+02
DAV:   2    -0.108814924481E+02   -0.12220E+02   -0.11743E+02 25256   0.657E+01
DAV:   3    -0.110209168822E+02   -0.13942E+00   -0.13942E+00 20672   0.888E+00
DAV:   4    -0.110214621313E+02   -0.54525E-03   -0.54525E-03 25776   0.584E-01
DAV:   5    -0.110214626340E+02   -0.50269E-06   -0.50267E-06 21616   0.139E-02    0.486E+00
DAV:   6    -0.108999577292E+02    0.12150E+00   -0.80033E-02 19440   0.147E+00    0.297E+00
DAV:   7    -0.108444130659E+02    0.55545E-01   -0.15201E-01 20904   0.216E+00    0.185E-01
DAV:   8    -0.108454711163E+02   -0.10581E-02   -0.38087E-03 18608   0.459E-01    0.741E-02
DAV:   9    -0.108456648267E+02   -0.19371E-03   -0.19096E-04 24456   0.107E-01    0.571E-02
DAV:  10    -0.108456897071E+02   -0.24880E-04   -0.29144E-05 19056   0.403E-02    0.940E-03
DAV:  11    -0.108456894138E+02    0.29331E-06   -0.59350E-07 22688   0.527E-03
   1 F= -.10845689E+02 E0= -.10845689E+02  d E =-.108457E+02
       N       E                     dE             d eps       ncg     rms          rms(c)
DAV:   1    -0.108494697250E+02   -0.37800E-02   -0.10421E-01 20528   0.181E+00    0.302E-01
DAV:   2    -0.108477033428E+02    0.17664E-02   -0.14745E-03 22488   0.255E-01    0.183E-01
DAV:   3    -0.108467731268E+02    0.93022E-03   -0.19223E-03 19152   0.221E-01    0.603E-02
DAV:   4    -0.108467730902E+02    0.36618E-07   -0.19412E-05 23736   0.394E-02    0.539E-02
DAV:   5    -0.108467667194E+02    0.63707E-05   -0.50407E-06 19160   0.164E-02    0.130E-02
DAV:   6    -0.108467668957E+02   -0.17623E-06   -0.52965E-08 10840   0.217E-03
   2 F= -.10846767E+02 E0= -.10846767E+02  d E =-.107748E-02
       N       E                     dE             d eps       ncg     rms          rms(c)
DAV:   1    -0.108481026125E+02   -0.13359E-02   -0.17507E-02 20328   0.747E-01    0.126E-01
DAV:   2    -0.108478111811E+02    0.29143E-03   -0.24442E-04 22648   0.104E-01    0.759E-02
DAV:   3    -0.108476639285E+02    0.14725E-03   -0.32041E-04 19032   0.905E-02    0.250E-02
DAV:   4    -0.108476645406E+02   -0.61213E-06   -0.32422E-06 23104   0.161E-02    0.225E-02
DAV:   5    -0.108476663043E+02   -0.17637E-05   -0.82125E-07 17592   0.669E-03    0.596E-03
DAV:   6    -0.108476662374E+02    0.66878E-07   -0.10498E-08  8888   0.952E-04
   3 F= -.10847666E+02 E0= -.10847666E+02  d E =-.197682E-02
