 vasp.6.2.0 18Jan21 (build Aug 12 2022 13:00:08) complex                        
  
 executed on             LinuxIFC date 2024.11.03  22:11:33
 running on    4 total cores
 distrk:  each k-point on    4 cores,    1 groups
 distr:  one band on NCORE=   1 cores,    4 groups


--------------------------------------------------------------------------------------------------------


 INCAR:
   ISTART = 0            (Read existing wavefunction, if there)
   ISPIN = 1            (Non-Spin polarised DFT)
   LREAL = .FALSE.       (Projection operators: automatic)
   LWAVE = .FALSE.        (Write WAVECAR or not)
   LCHARG = .FALSE.        (Write CHGCAR or not)
   ADDGRID = .TRUE.        (Increase grid, helps GGA convergence)
   LASPH = .TRUE.        (Give more accurate total energies and band structure calculations)
   PREC = Accurate      (Accurate strictly avoids any aliasing or wrap around errors)
   ENCUT = 350          (Cut-off energy for plane wave basis set, in eV)
   ISMEAR = 0            (Gaussian smearing, metals:1)
   SIGMA = 0.05         (Smearing value in eV, metals:0.2)
   NELM = 90           (Max electronic SCF steps)
   NELMIN = 6            (Min electronic SCF steps)
   EDIFF = 1E-06        (SCF energy convergence, in eV)
   NSW = 100          (Max ionic steps)
   IBRION = 2            (Algorithm: 0-MD, 1-Quasi-New, 2-CG)
   ISIF = 3            (Stress/relaxation: 2-Ions, 3-Shape/Ions/V, 4-Shape/Ions)
   EDIFFG = -2E-03        (Ionic convergence, eV/AA)
   ISYM = 2              (Symmetry: 0\=none, 2\=GGA, 3\=hybrids)

 POTCAR:    PAW_PBE Si 05Jan2001                  
 POTCAR:    PAW_PBE Si 05Jan2001                  
   VRHFIN =Si: s2p2                                                                                 
   LEXCH  = PE                                                                                      
   EATOM  =   103.0669 eV,    7.5752 Ry                                                             
                                                                                                    
   TITEL  = PAW_PBE Si 05Jan2001                                                                    
   LULTRA =        F    use ultrasoft PP ?                                                          
   IUNSCR =        1    unscreen: 0-lin 1-nonlin 2-no                                               
   RPACOR =    1.500    partial core radius                                                         
   POMASS =   28.085; ZVAL   =    4.000    mass and valenz                                          
   RCORE  =    1.900    outmost cutoff radius                                                       
   RWIGS  =    2.480; RWIGS  =    1.312    wigner-seitz radius (au A)                               
   ENMAX  =  245.345; ENMIN  =  184.009 eV                                                          
   ICORE  =        2    local potential                                                             
   LCOR   =        T    correct aug charges                                                         
   LPAW   =        T    paw PP                                                                      
   EAUG   =  322.069                                                                                
   DEXC   =    0.000                                                                                
   RMAX   =    1.950    core radius for proj-oper                                                   
   RAUG   =    1.300    factor for augmentation sphere                                              
   RDEP   =    1.993    radius for radial grids                                                     
   RDEPT  =    1.837    core radius for aug-charge                                                  
                                                                                                    
   Atomic configuration                                                                             
    6 entries                                                                                       
     n  l   j            E        occ.                                                              
     1  0  0.50     -1785.8828   2.0000                                                             
     2  0  0.50      -139.4969   2.0000                                                             
     2  1  1.50       -95.5546   6.0000                                                             
     3  0  0.50       -10.8127   2.0000                                                             
     3  1  0.50        -4.0811   2.0000                                                             
     3  2  1.50        -4.0817   0.0000                                                             
   Description                                                                                      
     l       E           TYP  RCUT    TYP  RCUT                                                     
     0    -10.8127223     23  1.900                                                                 
     0     -7.6451159     23  1.900                                                                 
     1     -4.0811372     23  1.900                                                                 
     1      2.4879257     23  1.900                                                                 
     2     -4.0817478      7  1.900                                                                 
  local pseudopotential read in
  partial core-charges read in
  partial kinetic energy density read in
  atomic valenz-charges read in
  non local Contribution for L=           0  read in
    real space projection operators read in
  non local Contribution for L=           0  read in
    real space projection operators read in
  non local Contribution for L=           1  read in
    real space projection operators read in
  non local Contribution for L=           1  read in
    real space projection operators read in
    PAW grid and wavefunctions read in
 
   number of l-projection  operators is LMAX  =           4
   number of lm-projection operators is LMMAX =           8
 
  PAW_PBE Si 05Jan2001                  :
 energy of atom  1       EATOM= -103.0669
 kinetic energy error for atom=    0.0013 (will be added to EATOM!!)
 
 
 POSCAR: Si2
  positions in direct lattice
  No initial velocities read in
 exchange correlation table for  LEXCH =        8
   RHO(1)=    0.500       N(1)  =     2000
   RHO(2)=  100.500       N(2)  =     4000
 


--------------------------------------------------------------------------------------------------------


 ion  position               nearest neighbor table
   1  0.875  0.875  0.875-   2 2.36   2 2.36   2 2.36   2 2.36
   2  0.125  0.125  0.125-   1 2.36   1 2.36   1 2.36   1 2.36
 
  LATTYP: Found a face centered cubic cell.
 ALAT       =     5.4437031493
  
  Lattice vectors:
  
 A1 = (   3.3335730000,   0.0000000000,   1.9246390000)
 A2 = (   1.1111910000,   3.1429240000,   1.9246390000)
 A3 = (   0.0000000000,   0.0000000000,   3.8492780000)


Analysis of symmetry for initial positions (statically):
=====================================================================
 Subroutine PRICEL returns:
 Original cell was already a primitive cell.
 

 Routine SETGRP: Setting up the symmetry group for a 
 face centered cubic supercell.


 Subroutine GETGRP returns: Found 48 space group operations
 (whereof 12 operations were pure point group operations)
 out of a pool of 48 trial point group operations.


The static configuration has the point symmetry D_3d.
 The point group associated with its full space group is O_h .


Analysis of symmetry for dynamics (positions and initial velocities):
=====================================================================
 Subroutine PRICEL returns:
 Original cell was already a primitive cell.
 

 Routine SETGRP: Setting up the symmetry group for a 
 face centered cubic supercell.


 Subroutine GETGRP returns: Found 48 space group operations
 (whereof 12 operations were pure point group operations)
 out of a pool of 48 trial point group operations.


The dynamic configuration has the point symmetry D_3d.
 The point group associated with its full space group is O_h .


 Subroutine INISYM returns: Found 48 space group operations
 (whereof 12 operations are pure point group operations),
 and found     1 'primitive' translations


----------------------------------------------------------------------------------------

                                     Primitive cell                                     

  volume of cell :      40.3295

  direct lattice vectors                    reciprocal lattice vectors
     3.333573000  0.000000000  1.924639000     0.299978432 -0.106058350  0.000000000
     1.111191000  3.142924000  1.924639000     0.000000000  0.318175050  0.000000000
     0.000000000  0.000000000  3.849278000    -0.149989216 -0.106058350  0.259788979

  length of vectors
     3.849278403  3.849279412  3.849278000     0.318175161  0.318175050  0.318175190

  position of ions in fractional coordinates (direct lattice)
     0.875000000  0.875000000  0.875000000
     0.125000000  0.125000000  0.125000000

  ion indices of the primitive-cell ions
   primitive index   ion index
                 1           1
                 2           2

----------------------------------------------------------------------------------------

 
 
 KPOINTS: Automatic                               

Automatic generation of k-mesh.
 Grid dimensions read from file:
 generate k-points for:   22   22   22

 Generating k-lattice:

  Cartesian coordinates                     Fractional coordinates (reciprocal lattice)
     0.013635383 -0.004820834  0.000000000     0.045454545  0.000000000  0.000000000
     0.000000000  0.014462502  0.000000000     0.000000000  0.045454545  0.000000000
    -0.006817692 -0.004820834  0.011808590     0.000000000  0.000000000  0.045454545

  Length of vectors
     0.014462507  0.014462502  0.014462509

  Shift w.r.t. Gamma in fractional coordinates (k-lattice)
     0.500000000  0.500000000  0.500000000

 
 Subroutine IBZKPT returns following result:
 ===========================================
 
 Found   1012 irreducible k-points:
 
 Following reciprocal coordinates:
            Coordinates               Weight
  0.022727  0.022727  0.022727      8.000000
  0.068182  0.022727  0.022727     24.000000
  0.113636  0.022727  0.022727     24.000000
  0.159091  0.022727  0.022727     24.000000
  0.204545  0.022727  0.022727     24.000000
  0.250000  0.022727  0.022727     24.000000
  0.295455  0.022727  0.022727     24.000000
  0.340909  0.022727  0.022727     24.000000
  0.386364  0.022727  0.022727     24.000000
  0.431818  0.022727  0.022727     24.000000
  0.477273  0.022727  0.022727     24.000000
 -0.477273  0.022727  0.022727     24.000000
 -0.431818  0.022727  0.022727     24.000000
 -0.386364  0.022727  0.022727     24.000000
 -0.340909  0.022727  0.022727     24.000000
 -0.295455  0.022727  0.022727     24.000000
 -0.250000  0.022727  0.022727     24.000000
 -0.204545  0.022727  0.022727     24.000000
 -0.159091  0.022727  0.022727     24.000000
 -0.113636  0.022727  0.022727     24.000000
 -0.068182  0.022727  0.022727     24.000000
 -0.022727  0.022727  0.022727     24.000000
  0.068182  0.068182  0.022727     24.000000
  0.113636  0.068182  0.022727     48.000000
  0.159091  0.068182  0.022727     48.000000
  0.204545  0.068182  0.022727     48.000000
  0.250000  0.068182  0.022727     48.000000
  0.295455  0.068182  0.022727     48.000000
  0.340909  0.068182  0.022727     48.000000
  0.386364  0.068182  0.022727     48.000000
  0.431818  0.068182  0.022727     48.000000
  0.477273  0.068182  0.022727     48.000000
 -0.477273  0.068182  0.022727     48.000000
 -0.431818  0.068182  0.022727     48.000000
 -0.386364  0.068182  0.022727     48.000000
 -0.340909  0.068182  0.022727     48.000000
 -0.295455  0.068182  0.022727     48.000000
 -0.250000  0.068182  0.022727     48.000000
 -0.204545  0.068182  0.022727     48.000000
 -0.159091  0.068182  0.022727     48.000000
 -0.113636  0.068182  0.022727     48.000000
 -0.068182  0.068182  0.022727     48.000000
 -0.022727  0.068182  0.022727     48.000000
  0.113636  0.113636  0.022727     24.000000
  0.159091  0.113636  0.022727     48.000000
  0.204545  0.113636  0.022727     48.000000
  0.250000  0.113636  0.022727     48.000000
  0.295455  0.113636  0.022727     48.000000
  0.340909  0.113636  0.022727     48.000000
  0.386364  0.113636  0.022727     48.000000
  0.431818  0.113636  0.022727     48.000000
  0.477273  0.113636  0.022727     48.000000
 -0.477273  0.113636  0.022727     48.000000
 -0.431818  0.113636  0.022727     48.000000
 -0.386364  0.113636  0.022727     48.000000
 -0.340909  0.113636  0.022727     48.000000
 -0.295455  0.113636  0.022727     48.000000
 -0.250000  0.113636  0.022727     48.000000
 -0.204545  0.113636  0.022727     48.000000
 -0.159091  0.113636  0.022727     48.000000
 -0.113636  0.113636  0.022727     48.000000
 -0.068182  0.113636  0.022727     48.000000
 -0.022727  0.113636  0.022727     48.000000
  0.159091  0.159091  0.022727     24.000000
  0.204545  0.159091  0.022727     48.000000
  0.250000  0.159091  0.022727     48.000000
  0.295455  0.159091  0.022727     48.000000
  0.340909  0.159091  0.022727     48.000000
  0.386364  0.159091  0.022727     48.000000
  0.431818  0.159091  0.022727     48.000000
  0.477273  0.159091  0.022727     48.000000
 -0.477273  0.159091  0.022727     48.000000
 -0.431818  0.159091  0.022727     48.000000
 -0.386364  0.159091  0.022727     48.000000
 -0.340909  0.159091  0.022727     48.000000
 -0.295455  0.159091  0.022727     48.000000
 -0.250000  0.159091  0.022727     48.000000
 -0.204545  0.159091  0.022727     48.000000
 -0.159091  0.159091  0.022727     48.000000
 -0.113636  0.159091  0.022727     48.000000
 -0.068182  0.159091  0.022727     48.000000
 -0.022727  0.159091  0.022727     48.000000
  0.204545  0.204545  0.022727     24.000000
  0.250000  0.204545  0.022727     48.000000
  0.295455  0.204545  0.022727     48.000000
  0.340909  0.204545  0.022727     48.000000
  0.386364  0.204545  0.022727     48.000000
  0.431818  0.204545  0.022727     48.000000
  0.477273  0.204545  0.022727     48.000000
 -0.477273  0.204545  0.022727     48.000000
 -0.431818  0.204545  0.022727     48.000000
 -0.386364  0.204545  0.022727     48.000000
 -0.340909  0.204545  0.022727     48.000000
 -0.295455  0.204545  0.022727     48.000000
 -0.250000  0.204545  0.022727     48.000000
 -0.204545  0.204545  0.022727     48.000000
 -0.159091  0.204545  0.022727     48.000000
 -0.113636  0.204545  0.022727     48.000000
 -0.068182  0.204545  0.022727     48.000000
 -0.022727  0.204545  0.022727     48.000000
  0.250000  0.250000  0.022727     24.000000
  0.295455  0.250000  0.022727     48.000000
  0.340909  0.250000  0.022727     48.000000
  0.386364  0.250000  0.022727     48.000000
  0.431818  0.250000  0.022727     48.000000
  0.477273  0.250000  0.022727     48.000000
 -0.477273  0.250000  0.022727     48.000000
 -0.431818  0.250000  0.022727     48.000000
 -0.386364  0.250000  0.022727     48.000000
 -0.340909  0.250000  0.022727     48.000000
 -0.295455  0.250000  0.022727     48.000000
 -0.250000  0.250000  0.022727     48.000000
 -0.204545  0.250000  0.022727     48.000000
 -0.159091  0.250000  0.022727     48.000000
 -0.113636  0.250000  0.022727     48.000000
 -0.068182  0.250000  0.022727     48.000000
 -0.022727  0.250000  0.022727     48.000000
  0.295455  0.295455  0.022727     24.000000
  0.340909  0.295455  0.022727     48.000000
  0.386364  0.295455  0.022727     48.000000
  0.431818  0.295455  0.022727     48.000000
  0.477273  0.295455  0.022727     48.000000
 -0.477273  0.295455  0.022727     48.000000
 -0.431818  0.295455  0.022727     48.000000
 -0.386364  0.295455  0.022727     48.000000
 -0.340909  0.295455  0.022727     48.000000
 -0.295455  0.295455  0.022727     48.000000
 -0.250000  0.295455  0.022727     48.000000
 -0.204545  0.295455  0.022727     48.000000
 -0.159091  0.295455  0.022727     48.000000
 -0.113636  0.295455  0.022727     48.000000
 -0.068182  0.295455  0.022727     48.000000
 -0.022727  0.295455  0.022727     48.000000
  0.340909  0.340909  0.022727     24.000000
  0.386364  0.340909  0.022727     48.000000
  0.431818  0.340909  0.022727     48.000000
  0.477273  0.340909  0.022727     48.000000
 -0.477273  0.340909  0.022727     48.000000
 -0.431818  0.340909  0.022727     48.000000
 -0.386364  0.340909  0.022727     48.000000
 -0.340909  0.340909  0.022727     48.000000
 -0.295455  0.340909  0.022727     48.000000
 -0.250000  0.340909  0.022727     48.000000
 -0.204545  0.340909  0.022727     48.000000
 -0.159091  0.340909  0.022727     48.000000
 -0.113636  0.340909  0.022727     48.000000
 -0.068182  0.340909  0.022727     48.000000
 -0.022727  0.340909  0.022727     48.000000
  0.386364  0.386364  0.022727     24.000000
  0.431818  0.386364  0.022727     48.000000
  0.477273  0.386364  0.022727     48.000000
 -0.477273  0.386364  0.022727     48.000000
 -0.431818  0.386364  0.022727     48.000000
 -0.386364  0.386364  0.022727     48.000000
 -0.340909  0.386364  0.022727     48.000000
 -0.295455  0.386364  0.022727     48.000000
 -0.250000  0.386364  0.022727     48.000000
 -0.204545  0.386364  0.022727     48.000000
 -0.159091  0.386364  0.022727     48.000000
 -0.113636  0.386364  0.022727     48.000000
 -0.068182  0.386364  0.022727     48.000000
 -0.022727  0.386364  0.022727     48.000000
  0.431818  0.431818  0.022727     24.000000
  0.477273  0.431818  0.022727     48.000000
 -0.477273  0.431818  0.022727     48.000000
 -0.431818  0.431818  0.022727     48.000000
 -0.386364  0.431818  0.022727     48.000000
 -0.340909  0.431818  0.022727     48.000000
 -0.295455  0.431818  0.022727     48.000000
 -0.250000  0.431818  0.022727     48.000000
 -0.204545  0.431818  0.022727     48.000000
 -0.159091  0.431818  0.022727     48.000000
 -0.113636  0.431818  0.022727     48.000000
 -0.068182  0.431818  0.022727     48.000000
 -0.022727  0.431818  0.022727     48.000000
  0.477273  0.477273  0.022727     24.000000
 -0.477273  0.477273  0.022727     48.000000
 -0.431818  0.477273  0.022727     48.000000
 -0.386364  0.477273  0.022727     48.000000
 -0.340909  0.477273  0.022727     48.000000
 -0.295455  0.477273  0.022727     48.000000
 -0.250000  0.477273  0.022727     48.000000
 -0.204545  0.477273  0.022727     48.000000
 -0.159091  0.477273  0.022727     48.000000
 -0.113636  0.477273  0.022727     48.000000
 -0.068182  0.477273  0.022727     48.000000
 -0.022727  0.477273  0.022727     48.000000
 -0.477273 -0.477273  0.022727     24.000000
 -0.431818 -0.477273  0.022727     48.000000
 -0.386364 -0.477273  0.022727     48.000000
 -0.340909 -0.477273  0.022727     48.000000
 -0.295455 -0.477273  0.022727     48.000000
 -0.250000 -0.477273  0.022727     48.000000
 -0.204545 -0.477273  0.022727     48.000000
 -0.159091 -0.477273  0.022727     48.000000
 -0.113636 -0.477273  0.022727     48.000000
 -0.068182 -0.477273  0.022727     48.000000
 -0.431818 -0.431818  0.022727     24.000000
 -0.386364 -0.431818  0.022727     48.000000
 -0.340909 -0.431818  0.022727     48.000000
 -0.295455 -0.431818  0.022727     48.000000
 -0.250000 -0.431818  0.022727     48.000000
 -0.204545 -0.431818  0.022727     48.000000
 -0.159091 -0.431818  0.022727     48.000000
 -0.113636 -0.431818  0.022727     48.000000
 -0.068182 -0.431818  0.022727     48.000000
 -0.386364 -0.386364  0.022727     24.000000
 -0.340909 -0.386364  0.022727     48.000000
 -0.295455 -0.386364  0.022727     48.000000
 -0.250000 -0.386364  0.022727     48.000000
 -0.204545 -0.386364  0.022727     48.000000
 -0.159091 -0.386364  0.022727     48.000000
 -0.113636 -0.386364  0.022727     48.000000
 -0.068182 -0.386364  0.022727     48.000000
 -0.340909 -0.340909  0.022727     24.000000
 -0.295455 -0.340909  0.022727     48.000000
 -0.250000 -0.340909  0.022727     48.000000
 -0.204545 -0.340909  0.022727     48.000000
 -0.159091 -0.340909  0.022727     48.000000
 -0.113636 -0.340909  0.022727     48.000000
 -0.068182 -0.340909  0.022727     48.000000
 -0.295455 -0.295455  0.022727     24.000000
 -0.250000 -0.295455  0.022727     48.000000
 -0.204545 -0.295455  0.022727     48.000000
 -0.159091 -0.295455  0.022727     48.000000
 -0.113636 -0.295455  0.022727     48.000000
 -0.068182 -0.295455  0.022727     48.000000
 -0.250000 -0.250000  0.022727     24.000000
 -0.204545 -0.250000  0.022727     48.000000
 -0.159091 -0.250000  0.022727     48.000000
 -0.113636 -0.250000  0.022727     48.000000
 -0.068182 -0.250000  0.022727     48.000000
 -0.204545 -0.204545  0.022727     24.000000
 -0.159091 -0.204545  0.022727     48.000000
 -0.113636 -0.204545  0.022727     48.000000
 -0.068182 -0.204545  0.022727     48.000000
 -0.159091 -0.159091  0.022727     24.000000
 -0.113636 -0.159091  0.022727     48.000000
 -0.068182 -0.159091  0.022727     48.000000
 -0.113636 -0.113636  0.022727     24.000000
 -0.068182 -0.113636  0.022727     48.000000
 -0.068182 -0.068182  0.022727     24.000000
  0.068182  0.068182  0.068182      8.000000
  0.113636  0.068182  0.068182     24.000000
  0.159091  0.068182  0.068182     24.000000
  0.204545  0.068182  0.068182     24.000000
  0.250000  0.068182  0.068182     24.000000
  0.295455  0.068182  0.068182     24.000000
  0.340909  0.068182  0.068182     24.000000
  0.386364  0.068182  0.068182     24.000000
  0.431818  0.068182  0.068182     24.000000
  0.477273  0.068182  0.068182     24.000000
 -0.477273  0.068182  0.068182     24.000000
 -0.431818  0.068182  0.068182     24.000000
 -0.386364  0.068182  0.068182     24.000000
 -0.340909  0.068182  0.068182     24.000000
 -0.295455  0.068182  0.068182     24.000000
 -0.250000  0.068182  0.068182     24.000000
 -0.204545  0.068182  0.068182     24.000000
 -0.159091  0.068182  0.068182     24.000000
 -0.113636  0.068182  0.068182     24.000000
 -0.068182  0.068182  0.068182     24.000000
  0.113636  0.113636  0.068182     24.000000
  0.159091  0.113636  0.068182     48.000000
  0.204545  0.113636  0.068182     48.000000
  0.250000  0.113636  0.068182     48.000000
  0.295455  0.113636  0.068182     48.000000
  0.340909  0.113636  0.068182     48.000000
  0.386364  0.113636  0.068182     48.000000
  0.431818  0.113636  0.068182     48.000000
  0.477273  0.113636  0.068182     48.000000
 -0.477273  0.113636  0.068182     48.000000
 -0.431818  0.113636  0.068182     48.000000
 -0.386364  0.113636  0.068182     48.000000
 -0.340909  0.113636  0.068182     48.000000
 -0.295455  0.113636  0.068182     48.000000
 -0.250000  0.113636  0.068182     48.000000
 -0.204545  0.113636  0.068182     48.000000
 -0.159091  0.113636  0.068182     48.000000
 -0.113636  0.113636  0.068182     48.000000
 -0.068182  0.113636  0.068182     48.000000
  0.159091  0.159091  0.068182     24.000000
  0.204545  0.159091  0.068182     48.000000
  0.250000  0.159091  0.068182     48.000000
  0.295455  0.159091  0.068182     48.000000
  0.340909  0.159091  0.068182     48.000000
  0.386364  0.159091  0.068182     48.000000
  0.431818  0.159091  0.068182     48.000000
  0.477273  0.159091  0.068182     48.000000
 -0.477273  0.159091  0.068182     48.000000
 -0.431818  0.159091  0.068182     48.000000
 -0.386364  0.159091  0.068182     48.000000
 -0.340909  0.159091  0.068182     48.000000
 -0.295455  0.159091  0.068182     48.000000
 -0.250000  0.159091  0.068182     48.000000
 -0.204545  0.159091  0.068182     48.000000
 -0.159091  0.159091  0.068182     48.000000
 -0.113636  0.159091  0.068182     48.000000
 -0.068182  0.159091  0.068182     48.000000
  0.204545  0.204545  0.068182     24.000000
  0.250000  0.204545  0.068182     48.000000
  0.295455  0.204545  0.068182     48.000000
  0.340909  0.204545  0.068182     48.000000
  0.386364  0.204545  0.068182     48.000000
  0.431818  0.204545  0.068182     48.000000
  0.477273  0.204545  0.068182     48.000000
 -0.477273  0.204545  0.068182     48.000000
 -0.431818  0.204545  0.068182     48.000000
 -0.386364  0.204545  0.068182     48.000000
 -0.340909  0.204545  0.068182     48.000000
 -0.295455  0.204545  0.068182     48.000000
 -0.250000  0.204545  0.068182     48.000000
 -0.204545  0.204545  0.068182     48.000000
 -0.159091  0.204545  0.068182     48.000000
 -0.113636  0.204545  0.068182     48.000000
 -0.068182  0.204545  0.068182     48.000000
  0.250000  0.250000  0.068182     24.000000
  0.295455  0.250000  0.068182     48.000000
  0.340909  0.250000  0.068182     48.000000
  0.386364  0.250000  0.068182     48.000000
  0.431818  0.250000  0.068182     48.000000
  0.477273  0.250000  0.068182     48.000000
 -0.477273  0.250000  0.068182     48.000000
 -0.431818  0.250000  0.068182     48.000000
 -0.386364  0.250000  0.068182     48.000000
 -0.340909  0.250000  0.068182     48.000000
 -0.295455  0.250000  0.068182     48.000000
 -0.250000  0.250000  0.068182     48.000000
 -0.204545  0.250000  0.068182     48.000000
 -0.159091  0.250000  0.068182     48.000000
 -0.113636  0.250000  0.068182     48.000000
 -0.068182  0.250000  0.068182     48.000000
  0.295455  0.295455  0.068182     24.000000
  0.340909  0.295455  0.068182     48.000000
  0.386364  0.295455  0.068182     48.000000
  0.431818  0.295455  0.068182     48.000000
  0.477273  0.295455  0.068182     48.000000
 -0.477273  0.295455  0.068182     48.000000
 -0.431818  0.295455  0.068182     48.000000
 -0.386364  0.295455  0.068182     48.000000
 -0.340909  0.295455  0.068182     48.000000
 -0.295455  0.295455  0.068182     48.000000
 -0.250000  0.295455  0.068182     48.000000
 -0.204545  0.295455  0.068182     48.000000
 -0.159091  0.295455  0.068182     48.000000
 -0.113636  0.295455  0.068182     48.000000
 -0.068182  0.295455  0.068182     48.000000
  0.340909  0.340909  0.068182     24.000000
  0.386364  0.340909  0.068182     48.000000
  0.431818  0.340909  0.068182     48.000000
  0.477273  0.340909  0.068182     48.000000
 -0.477273  0.340909  0.068182     48.000000
 -0.431818  0.340909  0.068182     48.000000
 -0.386364  0.340909  0.068182     48.000000
 -0.340909  0.340909  0.068182     48.000000
 -0.295455  0.340909  0.068182     48.000000
 -0.250000  0.340909  0.068182     48.000000
 -0.204545  0.340909  0.068182     48.000000
 -0.159091  0.340909  0.068182     48.000000
 -0.113636  0.340909  0.068182     48.000000
 -0.068182  0.340909  0.068182     48.000000
  0.386364  0.386364  0.068182     24.000000
  0.431818  0.386364  0.068182     48.000000
  0.477273  0.386364  0.068182     48.000000
 -0.477273  0.386364  0.068182     48.000000
 -0.431818  0.386364  0.068182     48.000000
 -0.386364  0.386364  0.068182     48.000000
 -0.340909  0.386364  0.068182     48.000000
 -0.295455  0.386364  0.068182     48.000000
 -0.250000  0.386364  0.068182     48.000000
 -0.204545  0.386364  0.068182     48.000000
 -0.159091  0.386364  0.068182     48.000000
 -0.113636  0.386364  0.068182     48.000000
 -0.068182  0.386364  0.068182     48.000000
  0.431818  0.431818  0.068182     24.000000
  0.477273  0.431818  0.068182     48.000000
 -0.477273  0.431818  0.068182     48.000000
 -0.431818  0.431818  0.068182     48.000000
 -0.386364  0.431818  0.068182     48.000000
 -0.340909  0.431818  0.068182     48.000000
 -0.295455  0.431818  0.068182     48.000000
 -0.250000  0.431818  0.068182     48.000000
 -0.204545  0.431818  0.068182     48.000000
 -0.159091  0.431818  0.068182     48.000000
 -0.113636  0.431818  0.068182     48.000000
 -0.068182  0.431818  0.068182     48.000000
  0.477273  0.477273  0.068182     24.000000
 -0.477273  0.477273  0.068182     48.000000
 -0.431818  0.477273  0.068182     48.000000
 -0.386364  0.477273  0.068182     48.000000
 -0.340909  0.477273  0.068182     48.000000
 -0.295455  0.477273  0.068182     48.000000
 -0.250000  0.477273  0.068182     48.000000
 -0.204545  0.477273  0.068182     48.000000
 -0.159091  0.477273  0.068182     48.000000
 -0.113636  0.477273  0.068182     48.000000
 -0.068182  0.477273  0.068182     48.000000
 -0.477273 -0.477273  0.068182     24.000000
 -0.431818 -0.477273  0.068182     48.000000
 -0.386364 -0.477273  0.068182     48.000000
 -0.340909 -0.477273  0.068182     48.000000
 -0.295455 -0.477273  0.068182     48.000000
 -0.250000 -0.477273  0.068182     48.000000
 -0.204545 -0.477273  0.068182     48.000000
 -0.159091 -0.477273  0.068182     48.000000
 -0.113636 -0.477273  0.068182     48.000000
 -0.431818 -0.431818  0.068182     24.000000
 -0.386364 -0.431818  0.068182     48.000000
 -0.340909 -0.431818  0.068182     48.000000
 -0.295455 -0.431818  0.068182     48.000000
 -0.250000 -0.431818  0.068182     48.000000
 -0.204545 -0.431818  0.068182     48.000000
 -0.159091 -0.431818  0.068182     48.000000
 -0.113636 -0.431818  0.068182     48.000000
 -0.386364 -0.386364  0.068182     24.000000
 -0.340909 -0.386364  0.068182     48.000000
 -0.295455 -0.386364  0.068182     48.000000
 -0.250000 -0.386364  0.068182     48.000000
 -0.204545 -0.386364  0.068182     48.000000
 -0.159091 -0.386364  0.068182     48.000000
 -0.113636 -0.386364  0.068182     48.000000
 -0.340909 -0.340909  0.068182     24.000000
 -0.295455 -0.340909  0.068182     48.000000
 -0.250000 -0.340909  0.068182     48.000000
 -0.204545 -0.340909  0.068182     48.000000
 -0.159091 -0.340909  0.068182     48.000000
 -0.113636 -0.340909  0.068182     48.000000
 -0.295455 -0.295455  0.068182     24.000000
 -0.250000 -0.295455  0.068182     48.000000
 -0.204545 -0.295455  0.068182     48.000000
 -0.159091 -0.295455  0.068182     48.000000
 -0.113636 -0.295455  0.068182     48.000000
 -0.250000 -0.250000  0.068182     24.000000
 -0.204545 -0.250000  0.068182     48.000000
 -0.159091 -0.250000  0.068182     48.000000
 -0.113636 -0.250000  0.068182     48.000000
 -0.204545 -0.204545  0.068182     24.000000
 -0.159091 -0.204545  0.068182     48.000000
 -0.113636 -0.204545  0.068182     48.000000
 -0.159091 -0.159091  0.068182     24.000000
 -0.113636 -0.159091  0.068182     48.000000
 -0.113636 -0.113636  0.068182     24.000000
  0.113636  0.113636  0.113636      8.000000
  0.159091  0.113636  0.113636     24.000000
  0.204545  0.113636  0.113636     24.000000
  0.250000  0.113636  0.113636     24.000000
  0.295455  0.113636  0.113636     24.000000
  0.340909  0.113636  0.113636     24.000000
  0.386364  0.113636  0.113636     24.000000
  0.431818  0.113636  0.113636     24.000000
  0.477273  0.113636  0.113636     24.000000
 -0.477273  0.113636  0.113636     24.000000
 -0.431818  0.113636  0.113636     24.000000
 -0.386364  0.113636  0.113636     24.000000
 -0.340909  0.113636  0.113636     24.000000
 -0.295455  0.113636  0.113636     24.000000
 -0.250000  0.113636  0.113636     24.000000
 -0.204545  0.113636  0.113636     24.000000
 -0.159091  0.113636  0.113636     24.000000
 -0.113636  0.113636  0.113636     24.000000
  0.159091  0.159091  0.113636     24.000000
  0.204545  0.159091  0.113636     48.000000
  0.250000  0.159091  0.113636     48.000000
  0.295455  0.159091  0.113636     48.000000
  0.340909  0.159091  0.113636     48.000000
  0.386364  0.159091  0.113636     48.000000
  0.431818  0.159091  0.113636     48.000000
  0.477273  0.159091  0.113636     48.000000
 -0.477273  0.159091  0.113636     48.000000
 -0.431818  0.159091  0.113636     48.000000
 -0.386364  0.159091  0.113636     48.000000
 -0.340909  0.159091  0.113636     48.000000
 -0.295455  0.159091  0.113636     48.000000
 -0.250000  0.159091  0.113636     48.000000
 -0.204545  0.159091  0.113636     48.000000
 -0.159091  0.159091  0.113636     48.000000
 -0.113636  0.159091  0.113636     48.000000
  0.204545  0.204545  0.113636     24.000000
  0.250000  0.204545  0.113636     48.000000
  0.295455  0.204545  0.113636     48.000000
  0.340909  0.204545  0.113636     48.000000
  0.386364  0.204545  0.113636     48.000000
  0.431818  0.204545  0.113636     48.000000
  0.477273  0.204545  0.113636     48.000000
 -0.477273  0.204545  0.113636     48.000000
 -0.431818  0.204545  0.113636     48.000000
 -0.386364  0.204545  0.113636     48.000000
 -0.340909  0.204545  0.113636     48.000000
 -0.295455  0.204545  0.113636     48.000000
 -0.250000  0.204545  0.113636     48.000000
 -0.204545  0.204545  0.113636     48.000000
 -0.159091  0.204545  0.113636     48.000000
 -0.113636  0.204545  0.113636     48.000000
  0.250000  0.250000  0.113636     24.000000
  0.295455  0.250000  0.113636     48.000000
  0.340909  0.250000  0.113636     48.000000
  0.386364  0.250000  0.113636     48.000000
  0.431818  0.250000  0.113636     48.000000
  0.477273  0.250000  0.113636     48.000000
 -0.477273  0.250000  0.113636     48.000000
 -0.431818  0.250000  0.113636     48.000000
 -0.386364  0.250000  0.113636     48.000000
 -0.340909  0.250000  0.113636     48.000000
 -0.295455  0.250000  0.113636     48.000000
 -0.250000  0.250000  0.113636     48.000000
 -0.204545  0.250000  0.113636     48.000000
 -0.159091  0.250000  0.113636     48.000000
 -0.113636  0.250000  0.113636     48.000000
  0.295455  0.295455  0.113636     24.000000
  0.340909  0.295455  0.113636     48.000000
  0.386364  0.295455  0.113636     48.000000
  0.431818  0.295455  0.113636     48.000000
  0.477273  0.295455  0.113636     48.000000
 -0.477273  0.295455  0.113636     48.000000
 -0.431818  0.295455  0.113636     48.000000
 -0.386364  0.295455  0.113636     48.000000
 -0.340909  0.295455  0.113636     48.000000
 -0.295455  0.295455  0.113636     48.000000
 -0.250000  0.295455  0.113636     48.000000
 -0.204545  0.295455  0.113636     48.000000
 -0.159091  0.295455  0.113636     48.000000
 -0.113636  0.295455  0.113636     48.000000
  0.340909  0.340909  0.113636     24.000000
  0.386364  0.340909  0.113636     48.000000
  0.431818  0.340909  0.113636     48.000000
  0.477273  0.340909  0.113636     48.000000
 -0.477273  0.340909  0.113636     48.000000
 -0.431818  0.340909  0.113636     48.000000
 -0.386364  0.340909  0.113636     48.000000
 -0.340909  0.340909  0.113636     48.000000
 -0.295455  0.340909  0.113636     48.000000
 -0.250000  0.340909  0.113636     48.000000
 -0.204545  0.340909  0.113636     48.000000
 -0.159091  0.340909  0.113636     48.000000
 -0.113636  0.340909  0.113636     48.000000
  0.386364  0.386364  0.113636     24.000000
  0.431818  0.386364  0.113636     48.000000
  0.477273  0.386364  0.113636     48.000000
 -0.477273  0.386364  0.113636     48.000000
 -0.431818  0.386364  0.113636     48.000000
 -0.386364  0.386364  0.113636     48.000000
 -0.340909  0.386364  0.113636     48.000000
 -0.295455  0.386364  0.113636     48.000000
 -0.250000  0.386364  0.113636     48.000000
 -0.204545  0.386364  0.113636     48.000000
 -0.159091  0.386364  0.113636     48.000000
 -0.113636  0.386364  0.113636     48.000000
  0.431818  0.431818  0.113636     24.000000
  0.477273  0.431818  0.113636     48.000000
 -0.477273  0.431818  0.113636     48.000000
 -0.431818  0.431818  0.113636     48.000000
 -0.386364  0.431818  0.113636     48.000000
 -0.340909  0.431818  0.113636     48.000000
 -0.295455  0.431818  0.113636     48.000000
 -0.250000  0.431818  0.113636     48.000000
 -0.204545  0.431818  0.113636     48.000000
 -0.159091  0.431818  0.113636     48.000000
 -0.113636  0.431818  0.113636     48.000000
  0.477273  0.477273  0.113636     24.000000
 -0.477273  0.477273  0.113636     48.000000
 -0.431818  0.477273  0.113636     48.000000
 -0.386364  0.477273  0.113636     48.000000
 -0.340909  0.477273  0.113636     48.000000
 -0.295455  0.477273  0.113636     48.000000
 -0.250000  0.477273  0.113636     48.000000
 -0.204545  0.477273  0.113636     48.000000
 -0.159091  0.477273  0.113636     48.000000
 -0.113636  0.477273  0.113636     48.000000
 -0.477273 -0.477273  0.113636     24.000000
 -0.431818 -0.477273  0.113636     48.000000
 -0.386364 -0.477273  0.113636     48.000000
 -0.340909 -0.477273  0.113636     48.000000
 -0.295455 -0.477273  0.113636     48.000000
 -0.250000 -0.477273  0.113636     48.000000
 -0.204545 -0.477273  0.113636     48.000000
 -0.159091 -0.477273  0.113636     48.000000
 -0.431818 -0.431818  0.113636     24.000000
 -0.386364 -0.431818  0.113636     48.000000
 -0.340909 -0.431818  0.113636     48.000000
 -0.295455 -0.431818  0.113636     48.000000
 -0.250000 -0.431818  0.113636     48.000000
 -0.204545 -0.431818  0.113636     48.000000
 -0.159091 -0.431818  0.113636     48.000000
 -0.386364 -0.386364  0.113636     24.000000
 -0.340909 -0.386364  0.113636     48.000000
 -0.295455 -0.386364  0.113636     48.000000
 -0.250000 -0.386364  0.113636     48.000000
 -0.204545 -0.386364  0.113636     48.000000
 -0.159091 -0.386364  0.113636     48.000000
 -0.340909 -0.340909  0.113636     24.000000
 -0.295455 -0.340909  0.113636     48.000000
 -0.250000 -0.340909  0.113636     48.000000
 -0.204545 -0.340909  0.113636     48.000000
 -0.159091 -0.340909  0.113636     48.000000
 -0.295455 -0.295455  0.113636     24.000000
 -0.250000 -0.295455  0.113636     48.000000
 -0.204545 -0.295455  0.113636     48.000000
 -0.159091 -0.295455  0.113636     48.000000
 -0.250000 -0.250000  0.113636     24.000000
 -0.204545 -0.250000  0.113636     48.000000
 -0.159091 -0.250000  0.113636     48.000000
 -0.204545 -0.204545  0.113636     24.000000
 -0.159091 -0.204545  0.113636     48.000000
 -0.159091 -0.159091  0.113636     24.000000
  0.159091  0.159091  0.159091      8.000000
  0.204545  0.159091  0.159091     24.000000
  0.250000  0.159091  0.159091     24.000000
  0.295455  0.159091  0.159091     24.000000
  0.340909  0.159091  0.159091     24.000000
  0.386364  0.159091  0.159091     24.000000
  0.431818  0.159091  0.159091     24.000000
  0.477273  0.159091  0.159091     24.000000
 -0.477273  0.159091  0.159091     24.000000
 -0.431818  0.159091  0.159091     24.000000
 -0.386364  0.159091  0.159091     24.000000
 -0.340909  0.159091  0.159091     24.000000
 -0.295455  0.159091  0.159091     24.000000
 -0.250000  0.159091  0.159091     24.000000
 -0.204545  0.159091  0.159091     24.000000
 -0.159091  0.159091  0.159091     24.000000
  0.204545  0.204545  0.159091     24.000000
  0.250000  0.204545  0.159091     48.000000
  0.295455  0.204545  0.159091     48.000000
  0.340909  0.204545  0.159091     48.000000
  0.386364  0.204545  0.159091     48.000000
  0.431818  0.204545  0.159091     48.000000
  0.477273  0.204545  0.159091     48.000000
 -0.477273  0.204545  0.159091     48.000000
 -0.431818  0.204545  0.159091     48.000000
 -0.386364  0.204545  0.159091     48.000000
 -0.340909  0.204545  0.159091     48.000000
 -0.295455  0.204545  0.159091     48.000000
 -0.250000  0.204545  0.159091     48.000000
 -0.204545  0.204545  0.159091     48.000000
 -0.159091  0.204545  0.159091     48.000000
  0.250000  0.250000  0.159091     24.000000
  0.295455  0.250000  0.159091     48.000000
  0.340909  0.250000  0.159091     48.000000
  0.386364  0.250000  0.159091     48.000000
  0.431818  0.250000  0.159091     48.000000
  0.477273  0.250000  0.159091     48.000000
 -0.477273  0.250000  0.159091     48.000000
 -0.431818  0.250000  0.159091     48.000000
 -0.386364  0.250000  0.159091     48.000000
 -0.340909  0.250000  0.159091     48.000000
 -0.295455  0.250000  0.159091     48.000000
 -0.250000  0.250000  0.159091     48.000000
 -0.204545  0.250000  0.159091     48.000000
 -0.159091  0.250000  0.159091     48.000000
  0.295455  0.295455  0.159091     24.000000
  0.340909  0.295455  0.159091     48.000000
  0.386364  0.295455  0.159091     48.000000
  0.431818  0.295455  0.159091     48.000000
  0.477273  0.295455  0.159091     48.000000
 -0.477273  0.295455  0.159091     48.000000
 -0.431818  0.295455  0.159091     48.000000
 -0.386364  0.295455  0.159091     48.000000
 -0.340909  0.295455  0.159091     48.000000
 -0.295455  0.295455  0.159091     48.000000
 -0.250000  0.295455  0.159091     48.000000
 -0.204545  0.295455  0.159091     48.000000
 -0.159091  0.295455  0.159091     48.000000
  0.340909  0.340909  0.159091     24.000000
  0.386364  0.340909  0.159091     48.000000
  0.431818  0.340909  0.159091     48.000000
  0.477273  0.340909  0.159091     48.000000
 -0.477273  0.340909  0.159091     48.000000
 -0.431818  0.340909  0.159091     48.000000
 -0.386364  0.340909  0.159091     48.000000
 -0.340909  0.340909  0.159091     48.000000
 -0.295455  0.340909  0.159091     48.000000
 -0.250000  0.340909  0.159091     48.000000
 -0.204545  0.340909  0.159091     48.000000
 -0.159091  0.340909  0.159091     48.000000
  0.386364  0.386364  0.159091     24.000000
  0.431818  0.386364  0.159091     48.000000
  0.477273  0.386364  0.159091     48.000000
 -0.477273  0.386364  0.159091     48.000000
 -0.431818  0.386364  0.159091     48.000000
 -0.386364  0.386364  0.159091     48.000000
 -0.340909  0.386364  0.159091     48.000000
 -0.295455  0.386364  0.159091     48.000000
 -0.250000  0.386364  0.159091     48.000000
 -0.204545  0.386364  0.159091     48.000000
 -0.159091  0.386364  0.159091     48.000000
  0.431818  0.431818  0.159091     24.000000
  0.477273  0.431818  0.159091     48.000000
 -0.477273  0.431818  0.159091     48.000000
 -0.431818  0.431818  0.159091     48.000000
 -0.386364  0.431818  0.159091     48.000000
 -0.340909  0.431818  0.159091     48.000000
 -0.295455  0.431818  0.159091     48.000000
 -0.250000  0.431818  0.159091     48.000000
 -0.204545  0.431818  0.159091     48.000000
 -0.159091  0.431818  0.159091     48.000000
  0.477273  0.477273  0.159091     24.000000
 -0.477273  0.477273  0.159091     48.000000
 -0.431818  0.477273  0.159091     48.000000
 -0.386364  0.477273  0.159091     48.000000
 -0.340909  0.477273  0.159091     48.000000
 -0.295455  0.477273  0.159091     48.000000
 -0.250000  0.477273  0.159091     48.000000
 -0.204545  0.477273  0.159091     48.000000
 -0.159091  0.477273  0.159091     48.000000
 -0.477273 -0.477273  0.159091     24.000000
 -0.431818 -0.477273  0.159091     48.000000
 -0.386364 -0.477273  0.159091     48.000000
 -0.340909 -0.477273  0.159091     48.000000
 -0.295455 -0.477273  0.159091     48.000000
 -0.250000 -0.477273  0.159091     48.000000
 -0.204545 -0.477273  0.159091     48.000000
 -0.431818 -0.431818  0.159091     24.000000
 -0.386364 -0.431818  0.159091     48.000000
 -0.340909 -0.431818  0.159091     48.000000
 -0.295455 -0.431818  0.159091     48.000000
 -0.250000 -0.431818  0.159091     48.000000
 -0.204545 -0.431818  0.159091     48.000000
 -0.386364 -0.386364  0.159091     24.000000
 -0.340909 -0.386364  0.159091     48.000000
 -0.295455 -0.386364  0.159091     48.000000
 -0.250000 -0.386364  0.159091     48.000000
 -0.204545 -0.386364  0.159091     48.000000
 -0.340909 -0.340909  0.159091     24.000000
 -0.295455 -0.340909  0.159091     48.000000
 -0.250000 -0.340909  0.159091     48.000000
 -0.204545 -0.340909  0.159091     48.000000
 -0.295455 -0.295455  0.159091     24.000000
 -0.250000 -0.295455  0.159091     48.000000
 -0.204545 -0.295455  0.159091     48.000000
 -0.250000 -0.250000  0.159091     24.000000
 -0.204545 -0.250000  0.159091     48.000000
 -0.204545 -0.204545  0.159091     24.000000
  0.204545  0.204545  0.204545      8.000000
  0.250000  0.204545  0.204545     24.000000
  0.295455  0.204545  0.204545     24.000000
  0.340909  0.204545  0.204545     24.000000
  0.386364  0.204545  0.204545     24.000000
  0.431818  0.204545  0.204545     24.000000
  0.477273  0.204545  0.204545     24.000000
 -0.477273  0.204545  0.204545     24.000000
 -0.431818  0.204545  0.204545     24.000000
 -0.386364  0.204545  0.204545     24.000000
 -0.340909  0.204545  0.204545     24.000000
 -0.295455  0.204545  0.204545     24.000000
 -0.250000  0.204545  0.204545     24.000000
 -0.204545  0.204545  0.204545     24.000000
  0.250000  0.250000  0.204545     24.000000
  0.295455  0.250000  0.204545     48.000000
  0.340909  0.250000  0.204545     48.000000
  0.386364  0.250000  0.204545     48.000000
  0.431818  0.250000  0.204545     48.000000
  0.477273  0.250000  0.204545     48.000000
 -0.477273  0.250000  0.204545     48.000000
 -0.431818  0.250000  0.204545     48.000000
 -0.386364  0.250000  0.204545     48.000000
 -0.340909  0.250000  0.204545     48.000000
 -0.295455  0.250000  0.204545     48.000000
 -0.250000  0.250000  0.204545     48.000000
 -0.204545  0.250000  0.204545     48.000000
  0.295455  0.295455  0.204545     24.000000
  0.340909  0.295455  0.204545     48.000000
  0.386364  0.295455  0.204545     48.000000
  0.431818  0.295455  0.204545     48.000000
  0.477273  0.295455  0.204545     48.000000
 -0.477273  0.295455  0.204545     48.000000
 -0.431818  0.295455  0.204545     48.000000
 -0.386364  0.295455  0.204545     48.000000
 -0.340909  0.295455  0.204545     48.000000
 -0.295455  0.295455  0.204545     48.000000
 -0.250000  0.295455  0.204545     48.000000
 -0.204545  0.295455  0.204545     48.000000
  0.340909  0.340909  0.204545     24.000000
  0.386364  0.340909  0.204545     48.000000
  0.431818  0.340909  0.204545     48.000000
  0.477273  0.340909  0.204545     48.000000
 -0.477273  0.340909  0.204545     48.000000
 -0.431818  0.340909  0.204545     48.000000
 -0.386364  0.340909  0.204545     48.000000
 -0.340909  0.340909  0.204545     48.000000
 -0.295455  0.340909  0.204545     48.000000
 -0.250000  0.340909  0.204545     48.000000
 -0.204545  0.340909  0.204545     48.000000
  0.386364  0.386364  0.204545     24.000000
  0.431818  0.386364  0.204545     48.000000
  0.477273  0.386364  0.204545     48.000000
 -0.477273  0.386364  0.204545     48.000000
 -0.431818  0.386364  0.204545     48.000000
 -0.386364  0.386364  0.204545     48.000000
 -0.340909  0.386364  0.204545     48.000000
 -0.295455  0.386364  0.204545     48.000000
 -0.250000  0.386364  0.204545     48.000000
 -0.204545  0.386364  0.204545     48.000000
  0.431818  0.431818  0.204545     24.000000
  0.477273  0.431818  0.204545     48.000000
 -0.477273  0.431818  0.204545     48.000000
 -0.431818  0.431818  0.204545     48.000000
 -0.386364  0.431818  0.204545     48.000000
 -0.340909  0.431818  0.204545     48.000000
 -0.295455  0.431818  0.204545     48.000000
 -0.250000  0.431818  0.204545     48.000000
 -0.204545  0.431818  0.204545     48.000000
  0.477273  0.477273  0.204545     24.000000
 -0.477273  0.477273  0.204545     48.000000
 -0.431818  0.477273  0.204545     48.000000
 -0.386364  0.477273  0.204545     48.000000
 -0.340909  0.477273  0.204545     48.000000
 -0.295455  0.477273  0.204545     48.000000
 -0.250000  0.477273  0.204545     48.000000
 -0.204545  0.477273  0.204545     48.000000
 -0.477273 -0.477273  0.204545     24.000000
 -0.431818 -0.477273  0.204545     48.000000
 -0.386364 -0.477273  0.204545     48.000000
 -0.340909 -0.477273  0.204545     48.000000
 -0.295455 -0.477273  0.204545     48.000000
 -0.250000 -0.477273  0.204545     48.000000
 -0.431818 -0.431818  0.204545     24.000000
 -0.386364 -0.431818  0.204545     48.000000
 -0.340909 -0.431818  0.204545     48.000000
 -0.295455 -0.431818  0.204545     48.000000
 -0.250000 -0.431818  0.204545     48.000000
 -0.386364 -0.386364  0.204545     24.000000
 -0.340909 -0.386364  0.204545     48.000000
 -0.295455 -0.386364  0.204545     48.000000
 -0.250000 -0.386364  0.204545     48.000000
 -0.340909 -0.340909  0.204545     24.000000
 -0.295455 -0.340909  0.204545     48.000000
 -0.250000 -0.340909  0.204545     48.000000
 -0.295455 -0.295455  0.204545     24.000000
 -0.250000 -0.295455  0.204545     48.000000
 -0.250000 -0.250000  0.204545     24.000000
  0.250000  0.250000  0.250000      8.000000
  0.295455  0.250000  0.250000     24.000000
  0.340909  0.250000  0.250000     24.000000
  0.386364  0.250000  0.250000     24.000000
  0.431818  0.250000  0.250000     24.000000
  0.477273  0.250000  0.250000     24.000000
 -0.477273  0.250000  0.250000     24.000000
 -0.431818  0.250000  0.250000     24.000000
 -0.386364  0.250000  0.250000     24.000000
 -0.340909  0.250000  0.250000     24.000000
 -0.295455  0.250000  0.250000     24.000000
 -0.250000  0.250000  0.250000     24.000000
  0.295455  0.295455  0.250000     24.000000
  0.340909  0.295455  0.250000     48.000000
  0.386364  0.295455  0.250000     48.000000
  0.431818  0.295455  0.250000     48.000000
  0.477273  0.295455  0.250000     48.000000
 -0.477273  0.295455  0.250000     48.000000
 -0.431818  0.295455  0.250000     48.000000
 -0.386364  0.295455  0.250000     48.000000
 -0.340909  0.295455  0.250000     48.000000
 -0.295455  0.295455  0.250000     48.000000
 -0.250000  0.295455  0.250000     48.000000
  0.340909  0.340909  0.250000     24.000000
  0.386364  0.340909  0.250000     48.000000
  0.431818  0.340909  0.250000     48.000000
  0.477273  0.340909  0.250000     48.000000
 -0.477273  0.340909  0.250000     48.000000
 -0.431818  0.340909  0.250000     48.000000
 -0.386364  0.340909  0.250000     48.000000
 -0.340909  0.340909  0.250000     48.000000
 -0.295455  0.340909  0.250000     48.000000
 -0.250000  0.340909  0.250000     48.000000
  0.386364  0.386364  0.250000     24.000000
  0.431818  0.386364  0.250000     48.000000
  0.477273  0.386364  0.250000     48.000000
 -0.477273  0.386364  0.250000     48.000000
 -0.431818  0.386364  0.250000     48.000000
 -0.386364  0.386364  0.250000     48.000000
 -0.340909  0.386364  0.250000     48.000000
 -0.295455  0.386364  0.250000     48.000000
 -0.250000  0.386364  0.250000     48.000000
  0.431818  0.431818  0.250000     24.000000
  0.477273  0.431818  0.250000     48.000000
 -0.477273  0.431818  0.250000     48.000000
 -0.431818  0.431818  0.250000     48.000000
 -0.386364  0.431818  0.250000     48.000000
 -0.340909  0.431818  0.250000     48.000000
 -0.295455  0.431818  0.250000     48.000000
 -0.250000  0.431818  0.250000     48.000000
  0.477273  0.477273  0.250000     24.000000
 -0.477273  0.477273  0.250000     48.000000
 -0.431818  0.477273  0.250000     48.000000
 -0.386364  0.477273  0.250000     48.000000
 -0.340909  0.477273  0.250000     48.000000
 -0.295455  0.477273  0.250000     48.000000
 -0.250000  0.477273  0.250000     48.000000
 -0.477273 -0.477273  0.250000     24.000000
 -0.431818 -0.477273  0.250000     48.000000
 -0.386364 -0.477273  0.250000     48.000000
 -0.340909 -0.477273  0.250000     48.000000
 -0.295455 -0.477273  0.250000     48.000000
 -0.431818 -0.431818  0.250000     24.000000
 -0.386364 -0.431818  0.250000     48.000000
 -0.340909 -0.431818  0.250000     48.000000
 -0.295455 -0.431818  0.250000     48.000000
 -0.386364 -0.386364  0.250000     24.000000
 -0.340909 -0.386364  0.250000     48.000000
 -0.295455 -0.386364  0.250000     48.000000
 -0.340909 -0.340909  0.250000     24.000000
 -0.295455 -0.340909  0.250000     48.000000
 -0.295455 -0.295455  0.250000     24.000000
  0.295455  0.295455  0.295455      8.000000
  0.340909  0.295455  0.295455     24.000000
  0.386364  0.295455  0.295455     24.000000
  0.431818  0.295455  0.295455     24.000000
  0.477273  0.295455  0.295455     24.000000
 -0.477273  0.295455  0.295455     24.000000
 -0.431818  0.295455  0.295455     24.000000
 -0.386364  0.295455  0.295455     24.000000
 -0.340909  0.295455  0.295455     24.000000
 -0.295455  0.295455  0.295455     24.000000
  0.340909  0.340909  0.295455     24.000000
  0.386364  0.340909  0.295455     48.000000
  0.431818  0.340909  0.295455     48.000000
  0.477273  0.340909  0.295455     48.000000
 -0.477273  0.340909  0.295455     48.000000
 -0.431818  0.340909  0.295455     48.000000
 -0.386364  0.340909  0.295455     48.000000
 -0.340909  0.340909  0.295455     48.000000
 -0.295455  0.340909  0.295455     48.000000
  0.386364  0.386364  0.295455     24.000000
  0.431818  0.386364  0.295455     48.000000
  0.477273  0.386364  0.295455     48.000000
 -0.477273  0.386364  0.295455     48.000000
 -0.431818  0.386364  0.295455     48.000000
 -0.386364  0.386364  0.295455     48.000000
 -0.340909  0.386364  0.295455     48.000000
 -0.295455  0.386364  0.295455     48.000000
  0.431818  0.431818  0.295455     24.000000
  0.477273  0.431818  0.295455     48.000000
 -0.477273  0.431818  0.295455     48.000000
 -0.431818  0.431818  0.295455     48.000000
 -0.386364  0.431818  0.295455     48.000000
 -0.340909  0.431818  0.295455     48.000000
 -0.295455  0.431818  0.295455     48.000000
  0.477273  0.477273  0.295455     24.000000
 -0.477273  0.477273  0.295455     48.000000
 -0.431818  0.477273  0.295455     48.000000
 -0.386364  0.477273  0.295455     48.000000
 -0.340909  0.477273  0.295455     48.000000
 -0.295455  0.477273  0.295455     48.000000
 -0.477273 -0.477273  0.295455     24.000000
 -0.431818 -0.477273  0.295455     48.000000
 -0.386364 -0.477273  0.295455     48.000000
 -0.340909 -0.477273  0.295455     48.000000
 -0.431818 -0.431818  0.295455     24.000000
 -0.386364 -0.431818  0.295455     48.000000
 -0.340909 -0.431818  0.295455     48.000000
 -0.386364 -0.386364  0.295455     24.000000
 -0.340909 -0.386364  0.295455     48.000000
 -0.340909 -0.340909  0.295455     24.000000
  0.340909  0.340909  0.340909      8.000000
  0.386364  0.340909  0.340909     24.000000
  0.431818  0.340909  0.340909     24.000000
  0.477273  0.340909  0.340909     24.000000
 -0.477273  0.340909  0.340909     24.000000
 -0.431818  0.340909  0.340909     24.000000
 -0.386364  0.340909  0.340909     24.000000
 -0.340909  0.340909  0.340909     24.000000
  0.386364  0.386364  0.340909     24.000000
  0.431818  0.386364  0.340909     48.000000
  0.477273  0.386364  0.340909     48.000000
 -0.477273  0.386364  0.340909     48.000000
 -0.431818  0.386364  0.340909     48.000000
 -0.386364  0.386364  0.340909     48.000000
 -0.340909  0.386364  0.340909     48.000000
  0.431818  0.431818  0.340909     24.000000
  0.477273  0.431818  0.340909     48.000000
 -0.477273  0.431818  0.340909     48.000000
 -0.431818  0.431818  0.340909     48.000000
 -0.386364  0.431818  0.340909     48.000000
 -0.340909  0.431818  0.340909     48.000000
  0.477273  0.477273  0.340909     24.000000
 -0.477273  0.477273  0.340909     48.000000
 -0.431818  0.477273  0.340909     48.000000
 -0.386364  0.477273  0.340909     48.000000
 -0.340909  0.477273  0.340909     48.000000
 -0.477273 -0.477273  0.340909     24.000000
 -0.431818 -0.477273  0.340909     48.000000
 -0.386364 -0.477273  0.340909     48.000000
 -0.431818 -0.431818  0.340909     24.000000
 -0.386364 -0.431818  0.340909     48.000000
 -0.386364 -0.386364  0.340909     24.000000
  0.386364  0.386364  0.386364      8.000000
  0.431818  0.386364  0.386364     24.000000
  0.477273  0.386364  0.386364     24.000000
 -0.477273  0.386364  0.386364     24.000000
 -0.431818  0.386364  0.386364     24.000000
 -0.386364  0.386364  0.386364     24.000000
  0.431818  0.431818  0.386364     24.000000
  0.477273  0.431818  0.386364     48.000000
 -0.477273  0.431818  0.386364     48.000000
 -0.431818  0.431818  0.386364     48.000000
 -0.386364  0.431818  0.386364     48.000000
  0.477273  0.477273  0.386364     24.000000
 -0.477273  0.477273  0.386364     48.000000
 -0.431818  0.477273  0.386364     48.000000
 -0.386364  0.477273  0.386364     48.000000
 -0.477273 -0.477273  0.386364     24.000000
 -0.431818 -0.477273  0.386364     48.000000
 -0.431818 -0.431818  0.386364     24.000000
  0.431818  0.431818  0.431818      8.000000
  0.477273  0.431818  0.431818     24.000000
 -0.477273  0.431818  0.431818     24.000000
 -0.431818  0.431818  0.431818     24.000000
  0.477273  0.477273  0.431818     24.000000
 -0.477273  0.477273  0.431818     48.000000
 -0.431818  0.477273  0.431818     48.000000
 -0.477273 -0.477273  0.431818     24.000000
  0.477273  0.477273  0.477273      8.000000
 -0.477273  0.477273  0.477273     24.000000
 
 Following cartesian coordinates:
            Coordinates               Weight
  0.003409  0.002410  0.005904      8.000000
  0.017044 -0.002410  0.005904     24.000000
  0.030680 -0.007231  0.005904     24.000000
  0.044315 -0.012052  0.005904     24.000000
  0.057950 -0.016873  0.005904     24.000000
  0.071586 -0.021694  0.005904     24.000000
  0.085221 -0.026515  0.005904     24.000000
  0.098857 -0.031335  0.005904     24.000000
  0.112492 -0.036156  0.005904     24.000000
  0.126127 -0.040977  0.005904     24.000000
  0.139763 -0.045798  0.005904     24.000000
 -0.146580  0.055440  0.005904     24.000000
 -0.132945  0.050619  0.005904     24.000000
 -0.119310  0.045798  0.005904     24.000000
 -0.105674  0.040977  0.005904     24.000000
 -0.092039  0.036156  0.005904     24.000000
 -0.078403  0.031335  0.005904     24.000000
 -0.064768  0.026515  0.005904     24.000000
 -0.051133  0.021694  0.005904     24.000000
 -0.037497  0.016873  0.005904     24.000000
 -0.023862  0.012052  0.005904     24.000000
 -0.010227  0.007231  0.005904     24.000000
  0.017044  0.012052  0.005904     24.000000
  0.030680  0.007231  0.005904     48.000000
  0.044315  0.002410  0.005904     48.000000
  0.057950 -0.002410  0.005904     48.000000
  0.071586 -0.007231  0.005904     48.000000
  0.085221 -0.012052  0.005904     48.000000
  0.098857 -0.016873  0.005904     48.000000
  0.112492 -0.021694  0.005904     48.000000
  0.126127 -0.026515  0.005904     48.000000
  0.139763 -0.031335  0.005904     48.000000
 -0.146580  0.069902  0.005904     48.000000
 -0.132945  0.065081  0.005904     48.000000
 -0.119310  0.060260  0.005904     48.000000
 -0.105674  0.055440  0.005904     48.000000
 -0.092039  0.050619  0.005904     48.000000
 -0.078403  0.045798  0.005904     48.000000
 -0.064768  0.040977  0.005904     48.000000
 -0.051133  0.036156  0.005904     48.000000
 -0.037497  0.031335  0.005904     48.000000
 -0.023862  0.026515  0.005904     48.000000
 -0.010227  0.021694  0.005904     48.000000
  0.030680  0.021694  0.005904     24.000000
  0.044315  0.016873  0.005904     48.000000
  0.057950  0.012052  0.005904     48.000000
  0.071586  0.007231  0.005904     48.000000
  0.085221  0.002410  0.005904     48.000000
  0.098857 -0.002410  0.005904     48.000000
  0.112492 -0.007231  0.005904     48.000000
  0.126127 -0.012052  0.005904     48.000000
  0.139763 -0.016873  0.005904     48.000000
 -0.146580  0.084365  0.005904     48.000000
 -0.132945  0.079544  0.005904     48.000000
 -0.119310  0.074723  0.005904     48.000000
 -0.105674  0.069902  0.005904     48.000000
 -0.092039  0.065081  0.005904     48.000000
 -0.078403  0.060260  0.005904     48.000000
 -0.064768  0.055440  0.005904     48.000000
 -0.051133  0.050619  0.005904     48.000000
 -0.037497  0.045798  0.005904     48.000000
 -0.023862  0.040977  0.005904     48.000000
 -0.010227  0.036156  0.005904     48.000000
  0.044315  0.031335  0.005904     24.000000
  0.057950  0.026515  0.005904     48.000000
  0.071586  0.021694  0.005904     48.000000
  0.085221  0.016873  0.005904     48.000000
  0.098857  0.012052  0.005904     48.000000
  0.112492  0.007231  0.005904     48.000000
  0.126127  0.002410  0.005904     48.000000
  0.139763 -0.002410  0.005904     48.000000
 -0.146580  0.098827  0.005904     48.000000
 -0.132945  0.094006  0.005904     48.000000
 -0.119310  0.089185  0.005904     48.000000
 -0.105674  0.084365  0.005904     48.000000
 -0.092039  0.079544  0.005904     48.000000
 -0.078403  0.074723  0.005904     48.000000
 -0.064768  0.069902  0.005904     48.000000
 -0.051133  0.065081  0.005904     48.000000
 -0.037497  0.060260  0.005904     48.000000
 -0.023862  0.055440  0.005904     48.000000
 -0.010227  0.050619  0.005904     48.000000
  0.057950  0.040977  0.005904     24.000000
  0.071586  0.036156  0.005904     48.000000
  0.085221  0.031335  0.005904     48.000000
  0.098857  0.026515  0.005904     48.000000
  0.112492  0.021694  0.005904     48.000000
  0.126127  0.016873  0.005904     48.000000
  0.139763  0.012052  0.005904     48.000000
 -0.146580  0.113290  0.005904     48.000000
 -0.132945  0.108469  0.005904     48.000000
 -0.119310  0.103648  0.005904     48.000000
 -0.105674  0.098827  0.005904     48.000000
 -0.092039  0.094006  0.005904     48.000000
 -0.078403  0.089185  0.005904     48.000000
 -0.064768  0.084365  0.005904     48.000000
 -0.051133  0.079544  0.005904     48.000000
 -0.037497  0.074723  0.005904     48.000000
 -0.023862  0.069902  0.005904     48.000000
 -0.010227  0.065081  0.005904     48.000000
  0.071586  0.050619  0.005904     24.000000
  0.085221  0.045798  0.005904     48.000000
  0.098857  0.040977  0.005904     48.000000
  0.112492  0.036156  0.005904     48.000000
  0.126127  0.031335  0.005904     48.000000
  0.139763  0.026515  0.005904     48.000000
 -0.146580  0.127752  0.005904     48.000000
 -0.132945  0.122931  0.005904     48.000000
 -0.119310  0.118110  0.005904     48.000000
 -0.105674  0.113290  0.005904     48.000000
 -0.092039  0.108469  0.005904     48.000000
 -0.078403  0.103648  0.005904     48.000000
 -0.064768  0.098827  0.005904     48.000000
 -0.051133  0.094006  0.005904     48.000000
 -0.037497  0.089185  0.005904     48.000000
 -0.023862  0.084365  0.005904     48.000000
 -0.010227  0.079544  0.005904     48.000000
  0.085221  0.060260  0.005904     24.000000
  0.098857  0.055440  0.005904     48.000000
  0.112492  0.050619  0.005904     48.000000
  0.126127  0.045798  0.005904     48.000000
  0.139763  0.040977  0.005904     48.000000
 -0.146580  0.142215  0.005904     48.000000
 -0.132945  0.137394  0.005904     48.000000
 -0.119310  0.132573  0.005904     48.000000
 -0.105674  0.127752  0.005904     48.000000
 -0.092039  0.122931  0.005904     48.000000
 -0.078403  0.118110  0.005904     48.000000
 -0.064768  0.113290  0.005904     48.000000
 -0.051133  0.108469  0.005904     48.000000
 -0.037497  0.103648  0.005904     48.000000
 -0.023862  0.098827  0.005904     48.000000
 -0.010227  0.094006  0.005904     48.000000
  0.098857  0.069902  0.005904     24.000000
  0.112492  0.065081  0.005904     48.000000
  0.126127  0.060260  0.005904     48.000000
  0.139763  0.055440  0.005904     48.000000
 -0.146580  0.156677  0.005904     48.000000
 -0.132945  0.151856  0.005904     48.000000
 -0.119310  0.147035  0.005904     48.000000
 -0.105674  0.142215  0.005904     48.000000
 -0.092039  0.137394  0.005904     48.000000
 -0.078403  0.132573  0.005904     48.000000
 -0.064768  0.127752  0.005904     48.000000
 -0.051133  0.122931  0.005904     48.000000
 -0.037497  0.118110  0.005904     48.000000
 -0.023862  0.113290  0.005904     48.000000
 -0.010227  0.108469  0.005904     48.000000
  0.112492  0.079544  0.005904     24.000000
  0.126127  0.074723  0.005904     48.000000
  0.139763  0.069902  0.005904     48.000000
 -0.146580  0.171140  0.005904     48.000000
 -0.132945  0.166319  0.005904     48.000000
 -0.119310  0.161498  0.005904     48.000000
 -0.105674  0.156677  0.005904     48.000000
 -0.092039  0.151856  0.005904     48.000000
 -0.078403  0.147035  0.005904     48.000000
 -0.064768  0.142215  0.005904     48.000000
 -0.051133  0.137394  0.005904     48.000000
 -0.037497  0.132573  0.005904     48.000000
 -0.023862  0.127752  0.005904     48.000000
 -0.010227  0.122931  0.005904     48.000000
  0.126127  0.089185  0.005904     24.000000
  0.139763  0.084365  0.005904     48.000000
 -0.146580  0.185602  0.005904     48.000000
 -0.132945  0.180781  0.005904     48.000000
 -0.119310  0.175960  0.005904     48.000000
 -0.105674  0.171140  0.005904     48.000000
 -0.092039  0.166319  0.005904     48.000000
 -0.078403  0.161498  0.005904     48.000000
 -0.064768  0.156677  0.005904     48.000000
 -0.051133  0.151856  0.005904     48.000000
 -0.037497  0.147035  0.005904     48.000000
 -0.023862  0.142215  0.005904     48.000000
 -0.010227  0.137394  0.005904     48.000000
  0.139763  0.098827  0.005904     24.000000
 -0.146580  0.200065  0.005904     48.000000
 -0.132945  0.195244  0.005904     48.000000
 -0.119310  0.190423  0.005904     48.000000
 -0.105674  0.185602  0.005904     48.000000
 -0.092039  0.180781  0.005904     48.000000
 -0.078403  0.175960  0.005904     48.000000
 -0.064768  0.171140  0.005904     48.000000
 -0.051133  0.166319  0.005904     48.000000
 -0.037497  0.161498  0.005904     48.000000
 -0.023862  0.156677  0.005904     48.000000
 -0.010227  0.151856  0.005904     48.000000
 -0.146580 -0.103648  0.005904     24.000000
 -0.132945 -0.108469  0.005904     48.000000
 -0.119310 -0.113290  0.005904     48.000000
 -0.105674 -0.118110  0.005904     48.000000
 -0.092039 -0.122931  0.005904     48.000000
 -0.078403 -0.127752  0.005904     48.000000
 -0.064768 -0.132573  0.005904     48.000000
 -0.051133 -0.137394  0.005904     48.000000
 -0.037497 -0.142215  0.005904     48.000000
 -0.023862 -0.147035  0.005904     48.000000
 -0.132945 -0.094006  0.005904     24.000000
 -0.119310 -0.098827  0.005904     48.000000
 -0.105674 -0.103648  0.005904     48.000000
 -0.092039 -0.108469  0.005904     48.000000
 -0.078403 -0.113290  0.005904     48.000000
 -0.064768 -0.118110  0.005904     48.000000
 -0.051133 -0.122931  0.005904     48.000000
 -0.037497 -0.127752  0.005904     48.000000
 -0.023862 -0.132573  0.005904     48.000000
 -0.119310 -0.084365  0.005904     24.000000
 -0.105674 -0.089185  0.005904     48.000000
 -0.092039 -0.094006  0.005904     48.000000
 -0.078403 -0.098827  0.005904     48.000000
 -0.064768 -0.103648  0.005904     48.000000
 -0.051133 -0.108469  0.005904     48.000000
 -0.037497 -0.113290  0.005904     48.000000
 -0.023862 -0.118110  0.005904     48.000000
 -0.105674 -0.074723  0.005904     24.000000
 -0.092039 -0.079544  0.005904     48.000000
 -0.078403 -0.084365  0.005904     48.000000
 -0.064768 -0.089185  0.005904     48.000000
 -0.051133 -0.094006  0.005904     48.000000
 -0.037497 -0.098827  0.005904     48.000000
 -0.023862 -0.103648  0.005904     48.000000
 -0.092039 -0.065081  0.005904     24.000000
 -0.078403 -0.069902  0.005904     48.000000
 -0.064768 -0.074723  0.005904     48.000000
 -0.051133 -0.079544  0.005904     48.000000
 -0.037497 -0.084365  0.005904     48.000000
 -0.023862 -0.089185  0.005904     48.000000
 -0.078403 -0.055440  0.005904     24.000000
 -0.064768 -0.060260  0.005904     48.000000
 -0.051133 -0.065081  0.005904     48.000000
 -0.037497 -0.069902  0.005904     48.000000
 -0.023862 -0.074723  0.005904     48.000000
 -0.064768 -0.045798  0.005904     24.000000
 -0.051133 -0.050619  0.005904     48.000000
 -0.037497 -0.055440  0.005904     48.000000
 -0.023862 -0.060260  0.005904     48.000000
 -0.051133 -0.036156  0.005904     24.000000
 -0.037497 -0.040977  0.005904     48.000000
 -0.023862 -0.045798  0.005904     48.000000
 -0.037497 -0.026515  0.005904     24.000000
 -0.023862 -0.031335  0.005904     48.000000
 -0.023862 -0.016873  0.005904     24.000000
  0.010227  0.007231  0.017713      8.000000
  0.023862  0.002410  0.017713     24.000000
  0.037497 -0.002410  0.017713     24.000000
  0.051133 -0.007231  0.017713     24.000000
  0.064768 -0.012052  0.017713     24.000000
  0.078403 -0.016873  0.017713     24.000000
  0.092039 -0.021694  0.017713     24.000000
  0.105674 -0.026515  0.017713     24.000000
  0.119310 -0.031335  0.017713     24.000000
  0.132945 -0.036156  0.017713     24.000000
 -0.153398  0.065081  0.017713     24.000000
 -0.139763  0.060260  0.017713     24.000000
 -0.126127  0.055440  0.017713     24.000000
 -0.112492  0.050619  0.017713     24.000000
 -0.098857  0.045798  0.017713     24.000000
 -0.085221  0.040977  0.017713     24.000000
 -0.071586  0.036156  0.017713     24.000000
 -0.057950  0.031335  0.017713     24.000000
 -0.044315  0.026515  0.017713     24.000000
 -0.030680  0.021694  0.017713     24.000000
  0.023862  0.016873  0.017713     24.000000
  0.037497  0.012052  0.017713     48.000000
  0.051133  0.007231  0.017713     48.000000
  0.064768  0.002410  0.017713     48.000000
  0.078403 -0.002410  0.017713     48.000000
  0.092039 -0.007231  0.017713     48.000000
  0.105674 -0.012052  0.017713     48.000000
  0.119310 -0.016873  0.017713     48.000000
  0.132945 -0.021694  0.017713     48.000000
 -0.153398  0.079544  0.017713     48.000000
 -0.139763  0.074723  0.017713     48.000000
 -0.126127  0.069902  0.017713     48.000000
 -0.112492  0.065081  0.017713     48.000000
 -0.098857  0.060260  0.017713     48.000000
 -0.085221  0.055440  0.017713     48.000000
 -0.071586  0.050619  0.017713     48.000000
 -0.057950  0.045798  0.017713     48.000000
 -0.044315  0.040977  0.017713     48.000000
 -0.030680  0.036156  0.017713     48.000000
  0.037497  0.026515  0.017713     24.000000
  0.051133  0.021694  0.017713     48.000000
  0.064768  0.016873  0.017713     48.000000
  0.078403  0.012052  0.017713     48.000000
  0.092039  0.007231  0.017713     48.000000
  0.105674  0.002410  0.017713     48.000000
  0.119310 -0.002410  0.017713     48.000000
  0.132945 -0.007231  0.017713     48.000000
 -0.153398  0.094006  0.017713     48.000000
 -0.139763  0.089185  0.017713     48.000000
 -0.126127  0.084365  0.017713     48.000000
 -0.112492  0.079544  0.017713     48.000000
 -0.098857  0.074723  0.017713     48.000000
 -0.085221  0.069902  0.017713     48.000000
 -0.071586  0.065081  0.017713     48.000000
 -0.057950  0.060260  0.017713     48.000000
 -0.044315  0.055440  0.017713     48.000000
 -0.030680  0.050619  0.017713     48.000000
  0.051133  0.036156  0.017713     24.000000
  0.064768  0.031335  0.017713     48.000000
  0.078403  0.026515  0.017713     48.000000
  0.092039  0.021694  0.017713     48.000000
  0.105674  0.016873  0.017713     48.000000
  0.119310  0.012052  0.017713     48.000000
  0.132945  0.007231  0.017713     48.000000
 -0.153398  0.108469  0.017713     48.000000
 -0.139763  0.103648  0.017713     48.000000
 -0.126127  0.098827  0.017713     48.000000
 -0.112492  0.094006  0.017713     48.000000
 -0.098857  0.089185  0.017713     48.000000
 -0.085221  0.084365  0.017713     48.000000
 -0.071586  0.079544  0.017713     48.000000
 -0.057950  0.074723  0.017713     48.000000
 -0.044315  0.069902  0.017713     48.000000
 -0.030680  0.065081  0.017713     48.000000
  0.064768  0.045798  0.017713     24.000000
  0.078403  0.040977  0.017713     48.000000
  0.092039  0.036156  0.017713     48.000000
  0.105674  0.031335  0.017713     48.000000
  0.119310  0.026515  0.017713     48.000000
  0.132945  0.021694  0.017713     48.000000
 -0.153398  0.122931  0.017713     48.000000
 -0.139763  0.118110  0.017713     48.000000
 -0.126127  0.113290  0.017713     48.000000
 -0.112492  0.108469  0.017713     48.000000
 -0.098857  0.103648  0.017713     48.000000
 -0.085221  0.098827  0.017713     48.000000
 -0.071586  0.094006  0.017713     48.000000
 -0.057950  0.089185  0.017713     48.000000
 -0.044315  0.084365  0.017713     48.000000
 -0.030680  0.079544  0.017713     48.000000
  0.078403  0.055440  0.017713     24.000000
  0.092039  0.050619  0.017713     48.000000
  0.105674  0.045798  0.017713     48.000000
  0.119310  0.040977  0.017713     48.000000
  0.132945  0.036156  0.017713     48.000000
 -0.153398  0.137394  0.017713     48.000000
 -0.139763  0.132573  0.017713     48.000000
 -0.126127  0.127752  0.017713     48.000000
 -0.112492  0.122931  0.017713     48.000000
 -0.098857  0.118110  0.017713     48.000000
 -0.085221  0.113290  0.017713     48.000000
 -0.071586  0.108469  0.017713     48.000000
 -0.057950  0.103648  0.017713     48.000000
 -0.044315  0.098827  0.017713     48.000000
 -0.030680  0.094006  0.017713     48.000000
  0.092039  0.065081  0.017713     24.000000
  0.105674  0.060260  0.017713     48.000000
  0.119310  0.055440  0.017713     48.000000
  0.132945  0.050619  0.017713     48.000000
 -0.153398  0.151856  0.017713     48.000000
 -0.139763  0.147035  0.017713     48.000000
 -0.126127  0.142215  0.017713     48.000000
 -0.112492  0.137394  0.017713     48.000000
 -0.098857  0.132573  0.017713     48.000000
 -0.085221  0.127752  0.017713     48.000000
 -0.071586  0.122931  0.017713     48.000000
 -0.057950  0.118110  0.017713     48.000000
 -0.044315  0.113290  0.017713     48.000000
 -0.030680  0.108469  0.017713     48.000000
  0.105674  0.074723  0.017713     24.000000
  0.119310  0.069902  0.017713     48.000000
  0.132945  0.065081  0.017713     48.000000
 -0.153398  0.166319  0.017713     48.000000
 -0.139763  0.161498  0.017713     48.000000
 -0.126127  0.156677  0.017713     48.000000
 -0.112492  0.151856  0.017713     48.000000
 -0.098857  0.147035  0.017713     48.000000
 -0.085221  0.142215  0.017713     48.000000
 -0.071586  0.137394  0.017713     48.000000
 -0.057950  0.132573  0.017713     48.000000
 -0.044315  0.127752  0.017713     48.000000
 -0.030680  0.122931  0.017713     48.000000
  0.119310  0.084365  0.017713     24.000000
  0.132945  0.079544  0.017713     48.000000
 -0.153398  0.180781  0.017713     48.000000
 -0.139763  0.175960  0.017713     48.000000
 -0.126127  0.171140  0.017713     48.000000
 -0.112492  0.166319  0.017713     48.000000
 -0.098857  0.161498  0.017713     48.000000
 -0.085221  0.156677  0.017713     48.000000
 -0.071586  0.151856  0.017713     48.000000
 -0.057950  0.147035  0.017713     48.000000
 -0.044315  0.142215  0.017713     48.000000
 -0.030680  0.137394  0.017713     48.000000
  0.132945  0.094006  0.017713     24.000000
 -0.153398  0.195244  0.017713     48.000000
 -0.139763  0.190423  0.017713     48.000000
 -0.126127  0.185602  0.017713     48.000000
 -0.112492  0.180781  0.017713     48.000000
 -0.098857  0.175960  0.017713     48.000000
 -0.085221  0.171140  0.017713     48.000000
 -0.071586  0.166319  0.017713     48.000000
 -0.057950  0.161498  0.017713     48.000000
 -0.044315  0.156677  0.017713     48.000000
 -0.030680  0.151856  0.017713     48.000000
 -0.153398 -0.108469  0.017713     24.000000
 -0.139763 -0.113290  0.017713     48.000000
 -0.126127 -0.118110  0.017713     48.000000
 -0.112492 -0.122931  0.017713     48.000000
 -0.098857 -0.127752  0.017713     48.000000
 -0.085221 -0.132573  0.017713     48.000000
 -0.071586 -0.137394  0.017713     48.000000
 -0.057950 -0.142215  0.017713     48.000000
 -0.044315 -0.147035  0.017713     48.000000
 -0.139763 -0.098827  0.017713     24.000000
 -0.126127 -0.103648  0.017713     48.000000
 -0.112492 -0.108469  0.017713     48.000000
 -0.098857 -0.113290  0.017713     48.000000
 -0.085221 -0.118110  0.017713     48.000000
 -0.071586 -0.122931  0.017713     48.000000
 -0.057950 -0.127752  0.017713     48.000000
 -0.044315 -0.132573  0.017713     48.000000
 -0.126127 -0.089185  0.017713     24.000000
 -0.112492 -0.094006  0.017713     48.000000
 -0.098857 -0.098827  0.017713     48.000000
 -0.085221 -0.103648  0.017713     48.000000
 -0.071586 -0.108469  0.017713     48.000000
 -0.057950 -0.113290  0.017713     48.000000
 -0.044315 -0.118110  0.017713     48.000000
 -0.112492 -0.079544  0.017713     24.000000
 -0.098857 -0.084365  0.017713     48.000000
 -0.085221 -0.089185  0.017713     48.000000
 -0.071586 -0.094006  0.017713     48.000000
 -0.057950 -0.098827  0.017713     48.000000
 -0.044315 -0.103648  0.017713     48.000000
 -0.098857 -0.069902  0.017713     24.000000
 -0.085221 -0.074723  0.017713     48.000000
 -0.071586 -0.079544  0.017713     48.000000
 -0.057950 -0.084365  0.017713     48.000000
 -0.044315 -0.089185  0.017713     48.000000
 -0.085221 -0.060260  0.017713     24.000000
 -0.071586 -0.065081  0.017713     48.000000
 -0.057950 -0.069902  0.017713     48.000000
 -0.044315 -0.074723  0.017713     48.000000
 -0.071586 -0.050619  0.017713     24.000000
 -0.057950 -0.055440  0.017713     48.000000
 -0.044315 -0.060260  0.017713     48.000000
 -0.057950 -0.040977  0.017713     24.000000
 -0.044315 -0.045798  0.017713     48.000000
 -0.044315 -0.031335  0.017713     24.000000
  0.017044  0.012052  0.029521      8.000000
  0.030680  0.007231  0.029521     24.000000
  0.044315  0.002410  0.029521     24.000000
  0.057950 -0.002410  0.029521     24.000000
  0.071586 -0.007231  0.029521     24.000000
  0.085221 -0.012052  0.029521     24.000000
  0.098857 -0.016873  0.029521     24.000000
  0.112492 -0.021694  0.029521     24.000000
  0.126127 -0.026515  0.029521     24.000000
 -0.160216  0.074723  0.029521     24.000000
 -0.146580  0.069902  0.029521     24.000000
 -0.132945  0.065081  0.029521     24.000000
 -0.119310  0.060260  0.029521     24.000000
 -0.105674  0.055440  0.029521     24.000000
 -0.092039  0.050619  0.029521     24.000000
 -0.078403  0.045798  0.029521     24.000000
 -0.064768  0.040977  0.029521     24.000000
 -0.051133  0.036156  0.029521     24.000000
  0.030680  0.021694  0.029521     24.000000
  0.044315  0.016873  0.029521     48.000000
  0.057950  0.012052  0.029521     48.000000
  0.071586  0.007231  0.029521     48.000000
  0.085221  0.002410  0.029521     48.000000
  0.098857 -0.002410  0.029521     48.000000
  0.112492 -0.007231  0.029521     48.000000
  0.126127 -0.012052  0.029521     48.000000
 -0.160216  0.089185  0.029521     48.000000
 -0.146580  0.084365  0.029521     48.000000
 -0.132945  0.079544  0.029521     48.000000
 -0.119310  0.074723  0.029521     48.000000
 -0.105674  0.069902  0.029521     48.000000
 -0.092039  0.065081  0.029521     48.000000
 -0.078403  0.060260  0.029521     48.000000
 -0.064768  0.055440  0.029521     48.000000
 -0.051133  0.050619  0.029521     48.000000
  0.044315  0.031335  0.029521     24.000000
  0.057950  0.026515  0.029521     48.000000
  0.071586  0.021694  0.029521     48.000000
  0.085221  0.016873  0.029521     48.000000
  0.098857  0.012052  0.029521     48.000000
  0.112492  0.007231  0.029521     48.000000
  0.126127  0.002410  0.029521     48.000000
 -0.160216  0.103648  0.029521     48.000000
 -0.146580  0.098827  0.029521     48.000000
 -0.132945  0.094006  0.029521     48.000000
 -0.119310  0.089185  0.029521     48.000000
 -0.105674  0.084365  0.029521     48.000000
 -0.092039  0.079544  0.029521     48.000000
 -0.078403  0.074723  0.029521     48.000000
 -0.064768  0.069902  0.029521     48.000000
 -0.051133  0.065081  0.029521     48.000000
  0.057950  0.040977  0.029521     24.000000
  0.071586  0.036156  0.029521     48.000000
  0.085221  0.031335  0.029521     48.000000
  0.098857  0.026515  0.029521     48.000000
  0.112492  0.021694  0.029521     48.000000
  0.126127  0.016873  0.029521     48.000000
 -0.160216  0.118110  0.029521     48.000000
 -0.146580  0.113290  0.029521     48.000000
 -0.132945  0.108469  0.029521     48.000000
 -0.119310  0.103648  0.029521     48.000000
 -0.105674  0.098827  0.029521     48.000000
 -0.092039  0.094006  0.029521     48.000000
 -0.078403  0.089185  0.029521     48.000000
 -0.064768  0.084365  0.029521     48.000000
 -0.051133  0.079544  0.029521     48.000000
  0.071586  0.050619  0.029521     24.000000
  0.085221  0.045798  0.029521     48.000000
  0.098857  0.040977  0.029521     48.000000
  0.112492  0.036156  0.029521     48.000000
  0.126127  0.031335  0.029521     48.000000
 -0.160216  0.132573  0.029521     48.000000
 -0.146580  0.127752  0.029521     48.000000
 -0.132945  0.122931  0.029521     48.000000
 -0.119310  0.118110  0.029521     48.000000
 -0.105674  0.113290  0.029521     48.000000
 -0.092039  0.108469  0.029521     48.000000
 -0.078403  0.103648  0.029521     48.000000
 -0.064768  0.098827  0.029521     48.000000
 -0.051133  0.094006  0.029521     48.000000
  0.085221  0.060260  0.029521     24.000000
  0.098857  0.055440  0.029521     48.000000
  0.112492  0.050619  0.029521     48.000000
  0.126127  0.045798  0.029521     48.000000
 -0.160216  0.147035  0.029521     48.000000
 -0.146580  0.142215  0.029521     48.000000
 -0.132945  0.137394  0.029521     48.000000
 -0.119310  0.132573  0.029521     48.000000
 -0.105674  0.127752  0.029521     48.000000
 -0.092039  0.122931  0.029521     48.000000
 -0.078403  0.118110  0.029521     48.000000
[...]
      8      12.1010      0.00000

 k-point   978 :      -0.3409    0.4773    0.3409
  band No.  band energies     occupation 
      1      -3.0678      2.00000
      2      -1.1258      2.00000
      3       1.7389      2.00000
      4       3.0645      2.00000
      5       8.5994      0.00000
      6       9.4108      0.00000
      7      11.8463      0.00000
      8      12.2426      0.00000

 k-point   979 :      -0.4773   -0.4773    0.3409
  band No.  band energies     occupation 
      1      -3.6149      2.00000
      2      -1.0085      2.00000
      3       2.6483      2.00000
      4       3.8400      2.00000
      5       7.6111      0.00000
      6       9.9174      0.00000
      7      10.3698      0.00000
      8      12.0527      0.00000

 k-point   980 :      -0.4318   -0.4773    0.3409
  band No.  band energies     occupation 
      1      -3.4508      2.00000
      2      -1.0594      2.00000
      3       2.3086      2.00000
      4       3.6923      2.00000
      5       7.6799      0.00000
      6       9.9004      0.00000
      7      10.9991      0.00000
      8      11.9717      0.00000

 k-point   981 :      -0.3864   -0.4773    0.3409
  band No.  band energies     occupation 
      1      -3.2672      2.00000
      2      -1.0891      2.00000
      3       1.9864      2.00000
      4       3.4112      2.00000
      5       8.0381      0.00000
      6       9.6641      0.00000
      7      11.8528      0.00000
      8      11.9364      0.00000

 k-point   982 :      -0.4318   -0.4318    0.3409
  band No.  band energies     occupation 
      1      -3.3356      2.00000
      2      -1.0905      2.00000
      3       2.0416      2.00000
      4       3.7092      2.00000
      5       7.4347      0.00000
      6      10.6687      0.00000
      7      10.9017      0.00000
      8      11.8856      0.00000

 k-point   983 :      -0.3864   -0.4318    0.3409
  band No.  band energies     occupation 
      1      -3.2067      2.00000
      2      -1.0964      2.00000
      3       1.7801      2.00000
      4       3.5621      2.00000
      5       7.5283      0.00000
      6      10.5372      0.00000
      7      11.6510      0.00000
      8      11.8877      0.00000

 k-point   984 :      -0.3864   -0.3864    0.3409
  band No.  band energies     occupation 
      1      -3.1380      2.00000
      2      -1.0816      2.00000
      3       1.5660      2.00000
      4       3.6231      2.00000
      5       7.3076      0.00000
      6      11.3470      0.00000
      7      11.4746      0.00000
      8      11.8995      0.00000

 k-point   985 :       0.3864    0.3864    0.3864
  band No.  band energies     occupation 
      1      -4.4524      2.00000
      2      -0.3992      2.00000
      3       4.5356      2.00000
      4       4.5356      2.00000
      5       7.1991      0.00000
      6       9.0638      0.00000
      7       9.0638      0.00000
      8      13.4511      0.00000

 k-point   986 :       0.4318    0.3864    0.3864
  band No.  band energies     occupation 
      1      -4.3204      2.00000
      2      -0.5746      2.00000
      3       4.2236      2.00000
      4       4.5534      2.00000
      5       7.3652      0.00000
      6       9.0486      0.00000
      7       9.0921      0.00000
      8      13.4358      0.00000

 k-point   987 :       0.4773    0.3864    0.3864
  band No.  band energies     occupation 
      1      -4.1477      2.00000
      2      -0.7116      2.00000
      3       3.6703      2.00000
      4       4.4655      2.00000
      5       7.7319      0.00000
      6       9.0859      0.00000
      7       9.2396      0.00000
      8      13.5111      0.00000

 k-point   988 :      -0.4773    0.3864    0.3864
  band No.  band energies     occupation 
      1      -3.9380      2.00000
      2      -0.8129      2.00000
      3       3.0487      2.00000
      4       4.2957      2.00000
      5       7.9326      0.00000
      6       9.3042      0.00000
      7       9.6125      0.00000
      8      13.6031      0.00000

 k-point   989 :      -0.4318    0.3864    0.3864
  band No.  band energies     occupation 
      1      -3.6959      2.00000
      2      -0.8898      2.00000
      3       2.4504      2.00000
      4       4.0794      2.00000
      5       7.8181      0.00000
      6       9.8813      0.00000
      7      10.1316      0.00000
      8      13.6471      0.00000

 k-point   990 :      -0.3864    0.3864    0.3864
  band No.  band energies     occupation 
      1      -3.4269      2.00000
      2      -0.9662      2.00000
      3       1.9363      2.00000
      4       3.8478      2.00000
      5       7.5722      0.00000
      6      10.6373      0.00000
      7      10.7619      0.00000
      8      12.7816      0.00000

 k-point   991 :       0.4318    0.4318    0.3864
  band No.  band energies     occupation 
      1      -4.2165      2.00000
      2      -0.7451      2.00000
      3       4.3478      2.00000
      4       4.3819      2.00000
      5       7.3475      0.00000
      6       8.9248      0.00000
      7       9.1871      0.00000
      8      13.3621      0.00000

 k-point   992 :       0.4773    0.4318    0.3864
  band No.  band energies     occupation 
      1      -4.0744      2.00000
      2      -0.8738      2.00000
      3       3.9038      2.00000
      4       4.3660      2.00000
      5       7.6223      0.00000
      6       8.8919      0.00000
      7       9.3268      0.00000
      8      13.3584      0.00000

 k-point   993 :      -0.4773    0.4318    0.3864
  band No.  band energies     occupation 
      1      -3.8979      2.00000
      2      -0.9603      2.00000
      3       3.3292      2.00000
      4       4.2385      2.00000
      5       7.9573      0.00000
      6       8.8920      0.00000
      7       9.6777      0.00000
      8      13.3951      0.00000

 k-point   994 :      -0.4318    0.4318    0.3864
  band No.  band energies     occupation 
      1      -3.6913      2.00000
      2      -1.0114      2.00000
      3       2.7403      2.00000
      4       4.0352      2.00000
      5       8.0034      0.00000
      6       9.2012      0.00000
      7      10.2330      0.00000
      8      13.4154      0.00000

 k-point   995 :      -0.3864    0.4318    0.3864
  band No.  band energies     occupation 
      1      -3.4594      2.00000
      2      -1.0450      2.00000
      3       2.2041      2.00000
      4       3.7995      2.00000
      5       7.7940      0.00000
      6       9.8122      0.00000
      7      10.9248      0.00000
      8      12.8500      0.00000

 k-point   996 :       0.4773    0.4773    0.3864
  band No.  band energies     occupation 
      1      -3.9664      2.00000
      2      -0.9924      2.00000
      3       3.8285      2.00000
      4       4.2214      2.00000
      5       7.6793      0.00000
      6       8.8982      0.00000
      7       9.4333      0.00000
      8      13.2351      0.00000

 k-point   997 :      -0.4773    0.4773    0.3864
  band No.  band energies     occupation 
      1      -3.8277      2.00000
      2      -1.0640      2.00000
      3       3.4095      2.00000
      4       4.1253      2.00000
      5       7.9015      0.00000
      6       8.8850      0.00000
      7       9.7365      0.00000
      8      13.1907      0.00000

 k-point   998 :      -0.4318    0.4773    0.3864
  band No.  band energies     occupation 
      1      -3.6625      2.00000
      2      -1.0921      2.00000
      3       2.9034      2.00000
      4       3.9357      2.00000
      5       8.2528      0.00000
      6       8.7526      0.00000
      7      10.3178      0.00000
      8      13.1772      0.00000

 k-point   999 :      -0.3864    0.4773    0.3864
  band No.  band energies     occupation 
      1      -3.4748      2.00000
      2      -1.0905      2.00000
      3       2.4081      2.00000
      4       3.6819      2.00000
      5       8.2881      0.00000
      6       9.0165      0.00000
      7      11.0489      0.00000
      8      12.9565      0.00000

 k-point  1000 :      -0.4773   -0.4773    0.3864
  band No.  band energies     occupation 
      1      -3.7314      2.00000
      2      -1.1176      2.00000
      3       3.1829      2.00000
      4       4.0703      2.00000
      5       7.7921      0.00000
      6       9.2384      0.00000
      7       9.7901      0.00000
      8      13.0719      0.00000

 k-point  1001 :      -0.4318   -0.4773    0.3864
  band No.  band energies     occupation 
      1      -3.6129      2.00000
      2      -1.1226      2.00000
      3       2.8064      2.00000
      4       3.9370      2.00000
      5       7.9116      0.00000
      6       9.2456      0.00000
      7      10.2811      0.00000
      8      13.0115      0.00000

 k-point  1002 :      -0.4318   -0.4318    0.3864
  band No.  band energies     occupation 
      1      -3.5450      2.00000
      2      -1.1032      2.00000
      3       2.5256      2.00000
      4       3.9423      2.00000
      5       7.6953      0.00000
      6       9.8840      0.00000
      7      10.2416      0.00000
      8      12.9115      0.00000

 k-point  1003 :       0.4318    0.4318    0.4318
  band No.  band energies     occupation 
      1      -4.1446      2.00000
      2      -0.9074      2.00000
      3       4.4771      2.00000
      4       4.4771      2.00000
      5       7.1316      0.00000
      6       9.0102      0.00000
      7       9.0102      0.00000
      8      13.3811      0.00000

 k-point  1004 :       0.4773    0.4318    0.4318
  band No.  band energies     occupation 
      1      -4.0375      2.00000
      2      -1.0239      2.00000
      3       4.2074      2.00000
      4       4.4665      2.00000
      5       7.3109      0.00000
      6       9.0065      0.00000
      7       9.0414      0.00000
      8      13.4459      0.00000

 k-point  1005 :      -0.4773    0.4318    0.4318
  band No.  band energies     occupation 
      1      -3.8991      2.00000
      2      -1.0914      2.00000
      3       3.6876      2.00000
      4       4.3534      2.00000
      5       7.6824      0.00000
      6       8.9903      0.00000
      7       9.2776      0.00000
      8      13.6647      0.00000

 k-point  1006 :      -0.4318    0.4318    0.4318
  band No.  band energies     occupation 
      1      -3.7337      2.00000
      2      -1.1134      2.00000
      3       3.0954      2.00000
      4       4.1668      2.00000
      5       7.8462      0.00000
      6       9.2537      0.00000
      7       9.6897      0.00000
      8      13.7499      0.00000

 k-point  1007 :       0.4773    0.4773    0.4318
  band No.  band energies     occupation 
      1      -3.9692      2.00000
      2      -1.1256      2.00000
      3       4.2707      2.00000
      4       4.3793      2.00000
      5       7.3021      0.00000
      6       8.9206      0.00000
      7       9.1099      0.00000
      8      13.4206      0.00000

 k-point  1008 :      -0.4773    0.4773    0.4318
  band No.  band energies     occupation 
      1      -3.8735      2.00000
      2      -1.1736      2.00000
      3       3.8866      2.00000
      4       4.3184      2.00000
      5       7.5900      0.00000
      6       8.8748      0.00000
      7       9.2825      0.00000
      8      13.5627      0.00000

 k-point  1009 :      -0.4318    0.4773    0.4318
  band No.  band energies     occupation 
      1      -3.7540      2.00000
      2      -1.1690      2.00000
      3       3.3564      2.00000
      4       4.1595      2.00000
      5       7.9151      0.00000
      6       8.8737      0.00000
      7       9.6897      0.00000
      8      13.7004      0.00000

 k-point  1010 :      -0.4773   -0.4773    0.4318
  band No.  band energies     occupation 
      1      -3.8245      2.00000
      2      -1.1994      2.00000
      3       3.7410      2.00000
      4       4.2712      2.00000
      5       7.6648      0.00000
      6       8.9266      0.00000
      7       9.3416      0.00000
      8      13.5938      0.00000

 k-point  1011 :       0.4773    0.4773    0.4773
  band No.  band energies     occupation 
      1      -3.9445      2.00000
      2      -1.2080      2.00000
      3       4.4477      2.00000
      4       4.4477      2.00000
      5       7.0975      0.00000
      6       8.9791      0.00000
      7       8.9792      0.00000
      8      13.3341      0.00000

 k-point  1012 :      -0.4773    0.4773    0.4773
  band No.  band energies     occupation 
      1      -3.8956      2.00000
      2      -1.2325      2.00000
      3       4.2234      2.00000
      4       4.4079      2.00000
      5       7.2898      0.00000
      6       8.9472      0.00000
      7       9.0602      0.00000
      8      13.4286      0.00000


--------------------------------------------------------------------------------------------------------


 soft charge-density along one line, spin component           1
         0         1         2         3         4         5         6         7         8         9
 total charge-density along one line
 
 pseudopotential strength for first ion, spin component:           1
 18.437  25.722   0.000  -0.000   0.000   0.000  -0.000   0.000
 25.722  35.892   0.000  -0.000   0.000   0.000  -0.000   0.000
  0.000   0.000   4.181  -0.000  -0.000   7.791  -0.000  -0.000
 -0.000  -0.000  -0.000   4.181  -0.000  -0.000   7.791  -0.000
  0.000   0.000  -0.000  -0.000   4.181  -0.000  -0.000   7.791
  0.000   0.000   7.791  -0.000  -0.000  14.528  -0.000  -0.000
 -0.000  -0.000  -0.000   7.791  -0.000  -0.000  14.528  -0.000
  0.000   0.000  -0.000  -0.000   7.791  -0.000  -0.000  14.528
 total augmentation occupancy for first ion, spin component:           1
  5.531  -2.065  -0.000   0.000   0.000   0.000  -0.000   0.000
 -2.065   0.887  -0.000   0.000   0.000   0.000  -0.000  -0.000
 -0.000   0.000   2.942   0.000   0.000  -0.663  -0.000  -0.000
  0.000   0.000   0.000   2.942  -0.000  -0.000  -0.663  -0.000
  0.000   0.000   0.000   0.000   2.942  -0.000  -0.000  -0.663
 -0.000  -0.000  -0.663  -0.000  -0.000   0.158   0.000  -0.000
 -0.000   0.000   0.000  -0.663  -0.000   0.000   0.158   0.000
  0.000  -0.000  -0.000  -0.000  -0.663   0.000   0.000   0.158


------------------------ aborting loop because EDIFF is reached ----------------------------------------


    CHARGE:  cpu time    0.5329: real time    0.5331
    FORLOC:  cpu time    0.0020: real time    0.0018
    FORNL :  cpu time    0.4159: real time    0.4175
    STRESS:  cpu time    6.1121: real time    6.1502
    FORCOR:  cpu time    0.0320: real time    0.0313
    FORHAR:  cpu time    0.0060: real time    0.0059
    MIXING:  cpu time    0.0000: real time    0.0012
    OFIELD:  cpu time    0.0010: real time    0.0002

  FORCE on cell =-STRESS in cart. coord.  units (eV):
  Direction    XX          YY          ZZ          XY          YZ          ZX
  --------------------------------------------------------------------------------------
  Alpha Z     3.29544     3.29544     3.29544
  Ewald     -75.66559   -75.66566   -75.66558     0.00001    -0.00000     0.00000
  Hartree     5.05398     5.05398     5.05398     0.00000     0.00000     0.00000
  E(xc)     -25.25216   -25.25216   -25.25216    -0.00000    -0.00000    -0.00000
  Local     -29.52422   -29.52421   -29.52421    -0.00000     0.00001     0.00001
  n-local    75.15309    77.49374    79.81863    -1.12517    -1.39096     0.09835
  augment   -11.64880   -11.64880   -11.64881    -0.00000    -0.00001    -0.00001
  Kinetic    54.78248    56.26031    57.72123    -0.15013     0.53378    -1.16206
  Fock        0.00000     0.00000     0.00000     0.00000     0.00000     0.00000
  -------------------------------------------------------------------------------------
  Total       0.00179     0.00179     0.00179     0.00000     0.00000     0.00000
  in kB       0.07031     0.07031     0.07031     0.00000     0.00000     0.00000
  external pressure =        0.07 kB  Pullay stress =        0.00 kB


 VOLUME and BASIS-vectors are now :
 -----------------------------------------------------------------------------
  energy-cutoff  :      350.00
  volume of cell :       40.86
      direct lattice vectors                 reciprocal lattice vectors
     3.348133339  0.000000000  1.933045412     0.298673887 -0.105597124  0.000000000
     1.116044446  3.156651636  1.933045412    -0.000000000  0.316791371 -0.000000000
    -0.000000000  0.000000000  3.866090825    -0.149336944 -0.105597124  0.258659210

  length of vectors
     3.866091233  3.866092255  3.866090825     0.316791483  0.316791371  0.316791513


 FORCES acting on ions
    electron-ion (+dipol)            ewald-force                    non-local-force                 convergence-correction
 -----------------------------------------------------------------------------------------------
   0.525E-05 0.245E-04 0.591E-07   -.892E-05 -.418E-04 -.185E-14   0.320E-16 -.203E-16 -.347E-17   -.457E-07 -.321E-07 -.793E-07
   -.525E-05 -.245E-04 -.591E-07   0.892E-05 0.418E-04 0.173E-14   -.404E-17 0.203E-16 0.000E+00   0.457E-07 0.321E-07 0.793E-07
 -----------------------------------------------------------------------------------------------
   0.612E-13 -.474E-13 0.120E-12   -.189E-15 0.186E-16 -.126E-15   0.280E-16 -.106E-21 -.347E-17   -.983E-15 0.413E-15 0.686E-15
 
 
 POSITION                                       TOTAL-FORCE (eV/Angst)
 -----------------------------------------------------------------------------------
      3.90616      2.76207      6.76566        -0.000000      0.000000     -0.000000
      0.55802      0.39458      0.96652         0.000000     -0.000000      0.000000
 -----------------------------------------------------------------------------------
    total drift:                                0.000000     -0.000000      0.000000


--------------------------------------------------------------------------------------------------------



  FREE ENERGIE OF THE ION-ELECTRON SYSTEM (eV)
  ---------------------------------------------------
  free  energy   TOTEN  =       -10.84766624 eV

  energy  without entropy=      -10.84766624  energy(sigma->0) =      -10.84766624
 
 d Force = 0.0000000E+00[ 0.000E+00, 0.000E+00]  d Energy = 0.8993417E-03-0.899E-03
 d Force = 0.0000000E+00[ 0.000E+00, 0.000E+00]  d Ewald  = 0.6763195E+00-0.676E+00


--------------------------------------------------------------------------------------------------------


    POTLOK:  cpu time    0.2070: real time    0.2146


--------------------------------------------------------------------------------------------------------




--------------------------------------------------------------------------------------------------------


  
 reached required accuracy - stopping structural energy minimisation
     LOOP+:  cpu time   66.7828: real time   67.7220
    4ORBIT:  cpu time    0.0000: real time    0.0000

 total amount of memory used by VASP MPI-rank0    96103. kBytes
=======================================================================

   base      :      30000. kBytes
   nonl-proj :      39657. kBytes
   fftplans  :       4177. kBytes
   grid      :       1926. kBytes
   one-center:          6. kBytes
   wavefun   :      20337. kBytes
 
  
  
 General timing and accounting informations for this job:
 ========================================================
  
                  Total CPU time used (sec):      328.586
                            User time (sec):      325.443
                          System time (sec):        3.144
                         Elapsed time (sec):      334.250
  
                   Maximum memory used (kb):      145804.
                   Average memory used (kb):          N/A
  
                          Minor page faults:        19713
                          Major page faults:            1
                 Voluntary context switches:       131777
