 running on    4 total cores
 distrk:  each k-point on    4 cores,    1 groups
 distr:  one band on    1 cores,    4 groups
 vasp.6.2.0 18Jan21 (build Aug 12 2022 13:00:08) complex                        
  
 POSCAR found type information on POSCAR Si
 POSCAR found :  1 types and       2 ions
 scaLAPACK will be used
 LDA part: xc-table for Pade appr. of Perdew
 POSCAR, INCAR and KPOINTS ok, starting setup
 FFT: planning ...
 WAVECAR not read
 entering main loop
       N       E                     dE             d eps       ncg     rms          rms(c)
DAV:   1     0.133815021123E+01    0.13382E+01   -0.25759E+03 16296   0.580E+02
DAV:   2    -0.108814924481E+02   -0.12220E+02   -0.11743E+02 25256   0.657E+01
DAV:   3    -0.110209168822E+02   -0.13942E+00   -0.13942E+00 20672   0.888E+00
DAV:   4    -0.110214621313E+02   -0.54525E-03   -0.54525E-03 25776   0.584E-01
DAV:   5    -0.110214626340E+02   -0.50269E-06   -0.50267E-06 21616   0.139E-02    0.486E+00
DAV:   6    -0.108999577292E+02    0.12150E+00   -0.80033E-02 19440   0.147E+00    0.297E+00
DAV:   7    -0.108444130659E+02    0.55545E-01   -0.15201E-01 20904   0.216E+00    0.185E-01
DAV:   8    -0.108454711163E+02   -0.10581E-02   -0.38087E-03 18608   0.459E-01    0.741E-02
DAV:   9    -0.108456648267E+02   -0.19371E-03   -0.19096E-04 24456   0.107E-01    0.571E-02
DAV:  10    -0.108456897071E+02   -0.24880E-04   -0.29144E-05 19056   0.403E-02    0.940E-03
DAV:  11    -0.108456894138E+02    0.29331E-06   -0.59350E-07 22688   0.527E-03
   1 F= -.10845689E+02 E0= -.10845689E+02  d E =-.108457E+02
 curvature:   0.00 expect dE= 0.000E+00 dE for cont linesearch  0.000E+00
 trial: gam= 0.00000 g(F)=  0.548E-43 g(S)=  0.675E-02 ort = 0.000E+00 (trialstep = 0.100E+01)
 search vector abs. value=  0.675E-02
 bond charge predicted
       N       E                     dE             d eps       ncg     rms          rms(c)
DAV:   1    -0.108494697250E+02   -0.37800E-02   -0.10421E-01 20528   0.181E+00    0.302E-01
DAV:   2    -0.108477033428E+02    0.17664E-02   -0.14745E-03 22488   0.255E-01    0.183E-01
DAV:   3    -0.108467731268E+02    0.93022E-03   -0.19223E-03 19152   0.221E-01    0.603E-02
DAV:   4    -0.108467730902E+02    0.36618E-07   -0.19412E-05 23736   0.394E-02    0.539E-02
DAV:   5    -0.108467667194E+02    0.63707E-05   -0.50407E-06 19160   0.164E-02    0.130E-02
DAV:   6    -0.108467668957E+02   -0.17623E-06   -0.52965E-08 10840   0.217E-03
   2 F= -.10846767E+02 E0= -.10846767E+02  d E =-.107748E-02
 trial-energy change:   -0.001077  1 .order   -0.001172   -0.006754    0.004409
 step:   0.5927(harm=  0.6050)  dis= 0.00000  next Energy=   -10.847671 (dE=-0.198E-02)
 bond charge predicted
       N       E                     dE             d eps       ncg     rms          rms(c)
DAV:   1    -0.108481026125E+02   -0.13359E-02   -0.17507E-02 20328   0.747E-01    0.126E-01
DAV:   2    -0.108478111811E+02    0.29143E-03   -0.24442E-04 22648   0.104E-01    0.759E-02
DAV:   3    -0.108476639285E+02    0.14725E-03   -0.32041E-04 19032   0.905E-02    0.250E-02
DAV:   4    -0.108476645406E+02   -0.61213E-06   -0.32422E-06 23104   0.161E-02    0.225E-02
DAV:   5    -0.108476663043E+02   -0.17637E-05   -0.82125E-07 17592   0.669E-03    0.596E-03
DAV:   6    -0.108476662374E+02    0.66878E-07   -0.10498E-08  8888   0.952E-04
   3 F= -.10847666E+02 E0= -.10847666E+02  d E =-.197682E-02
 curvature:  -0.30 expect dE=-0.703E-07 dE for cont linesearch -0.703E-07
 trial: gam=-0.00584 g(F)=  0.578E-43 g(S)=  0.233E-06 ort = 0.396E-04 (trialstep = 0.919E+00)
 search vector abs. value=  0.108E-09
 reached required accuracy - stopping structural energy minimisation
