   1   1   0   0
  0.1408159E+02  0.2710538E-09  0.2710538E-09  0.2710538E-09  0.5000000E-15
  1.000000000000000E-004
  CAR 
 unknown system                          
     38.26068234     -6.30157218  301     10.17113470      1.00000000
     -6.302  0.0000E+00  0.0000E+00
     -6.153  0.0000E+00  0.0000E+00
     -6.004  0.0000E+00  0.0000E+00
     -5.856  0.0000E+00  0.0000E+00
     -5.707  0.0000E+00  0.0000E+00
     -5.559  0.0000E+00  0.0000E+00
     -5.410  0.0000E+00  0.0000E+00
     -5.262  0.0000E+00  0.0000E+00
     -5.113  0.0000E+00  0.0000E+00
     -4.965  0.0000E+00  0.0000E+00
     -4.816  0.0000E+00  0.0000E+00
     -4.668  0.0000E+00  0.0000E+00
     -4.519  0.1237E-15  0.1837E-16
     -4.371  0.1497E-06  0.2223E-07
     -4.222  0.4249E-04  0.6334E-05
     -4.073  0.5016E-03  0.8084E-04
     -3.925  0.3239E-03  0.1290E-03
     -3.776  0.1031E-02  0.2821E-03
     -3.628  0.4825E-03  0.3537E-03
     -3.479  0.4892E-03  0.4264E-03
     -3.331  0.1633E-02  0.6690E-03
     -3.182  0.9468E-03  0.8097E-03
     -3.034  0.1275E-02  0.9990E-03
     -2.885  0.3231E-03  0.1047E-02
     -2.737  0.2198E-02  0.1374E-02
     -2.588  0.1248E-02  0.1559E-02
     -2.440  0.1186E-02  0.1735E-02
     -2.291  0.1524E-02  0.1961E-02
     -2.142  0.4049E-03  0.2022E-02
     -1.994  0.2688E-02  0.2421E-02
     -1.845  0.1557E-02  0.2652E-02
     -1.697  0.3039E-02  0.3104E-02
     -1.548  0.3563E-03  0.3157E-02
     -1.400  0.8970E-03  0.3290E-02
     -1.251  0.2197E-02  0.3616E-02
     -1.103  0.1647E-02  0.3861E-02
     -0.954  0.2897E-02  0.4291E-02
     -0.806  0.9029E-03  0.4425E-02
     -0.657  0.4246E-02  0.5056E-02
     -0.508  0.1134E-02  0.5224E-02
     -0.360  0.1828E-02  0.5496E-02
     -0.211  0.6631E-03  0.5594E-02
     -0.063  0.1734E-02  0.5852E-02
      0.086  0.3189E-02  0.6326E-02
      0.234  0.2893E-02  0.6755E-02
      0.383  0.3965E-02  0.7344E-02
      0.531  0.1498E-03  0.7367E-02
      0.680  0.3442E-02  0.7878E-02
      0.828  0.1981E-02  0.8172E-02
      0.977  0.2464E-02  0.8538E-02
      1.125  0.7574E-03  0.8651E-02
      1.274  0.1446E-02  0.8865E-02
      1.423  0.5695E-02  0.9711E-02
      1.571  0.1948E-02  0.1000E-01
      1.720  0.4482E-02  0.1067E-01
      1.868  0.1243E-02  0.1085E-01
      2.017  0.2690E-02  0.1125E-01
      2.165  0.1846E-02  0.1152E-01
      2.314  0.4559E-02  0.1220E-01
      2.462  0.1090E-02  0.1236E-01
      2.611  0.2017E-02  0.1266E-01
      2.759  0.3650E-02  0.1321E-01
      2.908  0.2732E-02  0.1361E-01
      3.057  0.4924E-02  0.1434E-01
      3.205  0.1096E-02  0.1451E-01
      3.354  0.6012E-02  0.1540E-01
      3.502  0.2269E-02  0.1574E-01
      3.651  0.1870E-02  0.1601E-01
      3.799  0.7944E-03  0.1613E-01
      3.948  0.2952E-02  0.1657E-01
      4.096  0.2456E-02  0.1693E-01
      4.245  0.4679E-02  0.1763E-01
      4.393  0.5736E-02  0.1848E-01
      4.542  0.1113E-02  0.1865E-01
      4.690  0.3137E-02  0.1911E-01
      4.839  0.4192E-02  0.1974E-01
      4.988  0.4532E-02  0.2041E-01
      5.136  0.1836E-02  0.2068E-01
      5.285  0.3676E-02  0.2123E-01
      5.433  0.4879E-02  0.2195E-01
      5.582  0.2812E-02  0.2237E-01
      5.730  0.1393E-02  0.2258E-01
      5.879  0.1443E-02  0.2279E-01
      6.027  0.4643E-02  0.2348E-01
      6.176  0.4624E-02  0.2417E-01
      6.324  0.5416E-02  0.2497E-01
      6.473  0.2641E-02  0.2536E-01
      6.621  0.1985E-02  0.2566E-01
      6.770  0.4936E-02  0.2639E-01
      6.919  0.4973E-02  0.2713E-01
      7.067  0.3129E-02  0.2760E-01
      7.216  0.2260E-02  0.2793E-01
      7.364  0.7241E-02  0.2901E-01
      7.513  0.1356E-02  0.2921E-01
      7.661  0.1437E-02  0.2942E-01
      7.810  0.1485E-02  0.2964E-01
      7.958  0.4209E-02  0.3027E-01
      8.107  0.5080E-02  0.3102E-01
      8.255  0.8833E-02  0.3233E-01
      8.404  0.4922E-02  0.3307E-01
      8.553  0.1798E-02  0.3333E-01
      8.701  0.2356E-02  0.3368E-01
      8.850  0.5898E-02  0.3456E-01
      8.998  0.2301E-02  0.3490E-01
      9.147  0.2114E-02  0.3521E-01
      9.295  0.5350E-02  0.3601E-01
      9.444  0.4840E-02  0.3673E-01
      9.592  0.5042E-02  0.3748E-01
      9.741  0.9767E-03  0.3762E-01
      9.889  0.5972E-02  0.3851E-01
     10.038  0.3899E-02  0.3909E-01
     10.186  0.6835E-02  0.4010E-01
     10.335  0.4416E-02  0.4076E-01
     10.484  0.2806E-02  0.4118E-01
     10.632  0.9976E-03  0.4133E-01
     10.781  0.7279E-02  0.4241E-01
     10.929  0.6341E-02  0.4335E-01
     11.078  0.3169E-02  0.4382E-01
     11.226  0.5236E-02  0.4460E-01
     11.375  0.5623E-02  0.4543E-01
     11.523  0.2945E-02  0.4587E-01
     11.672  0.1512E-02  0.4609E-01
     11.820  0.5562E-02  0.4692E-01
     11.969  0.2793E-02  0.4734E-01
     12.117  0.8295E-02  0.4857E-01
     12.266  0.5631E-02  0.4940E-01
     12.415  0.5814E-02  0.5027E-01
     12.563  0.4868E-02  0.5099E-01
     12.712  0.2986E-02  0.5143E-01
     12.860  0.4825E-02  0.5215E-01
     13.009  0.4500E-02  0.5282E-01
     13.157  0.7705E-02  0.5396E-01
     13.306  0.6213E-02  0.5489E-01
     13.454  0.3623E-02  0.5542E-01
     13.603  0.4634E-02  0.5611E-01
     13.751  0.5228E-02  0.5689E-01
     13.900  0.6278E-02  0.5782E-01
     14.049  0.6286E-02  0.5876E-01
     14.197  0.3715E-02  0.5931E-01
     14.346  0.5949E-02  0.6019E-01
     14.494  0.4607E-02  0.6088E-01
     14.643  0.8153E-02  0.6209E-01
     14.791  0.4301E-02  0.6273E-01
     14.940  0.3847E-02  0.6330E-01
     15.088  0.5838E-02  0.6416E-01
     15.237  0.1125E-02  0.6433E-01
     15.385  0.3336E-02  0.6483E-01
     15.534  0.6646E-02  0.6581E-01
     15.682  0.5124E-02  0.6658E-01
     15.831  0.8413E-02  0.6782E-01
     15.980  0.3835E-02  0.6839E-01
     16.128  0.5218E-02  0.6917E-01
     16.277  0.2397E-02  0.6953E-01
     16.425  0.5393E-02  0.7033E-01
     16.574  0.3475E-02  0.7084E-01
     16.722  0.3765E-02  0.7140E-01
     16.871  0.4974E-02  0.7214E-01
     17.019  0.6680E-02  0.7313E-01
     17.168  0.5104E-02  0.7389E-01
     17.316  0.3232E-02  0.7437E-01
     17.465  0.4015E-02  0.7497E-01
     17.614  0.7087E-02  0.7602E-01
     17.762  0.4497E-02  0.7669E-01
     17.911  0.3272E-02  0.7717E-01
     18.059  0.4570E-02  0.7785E-01
     18.208  0.9689E-02  0.7929E-01
     18.356  0.7195E-02  0.8036E-01
     18.505  0.3633E-02  0.8090E-01
     18.653  0.3275E-02  0.8139E-01
     18.802  0.6709E-02  0.8238E-01
     18.950  0.4209E-02  0.8301E-01
     19.099  0.4160E-02  0.8363E-01
     19.247  0.7285E-02  0.8471E-01
     19.396  0.8227E-02  0.8593E-01
     19.545  0.1580E-02  0.8617E-01
     19.693  0.3359E-02  0.8667E-01
     19.842  0.3045E-02  0.8712E-01
     19.990  0.7329E-02  0.8821E-01
     20.139  0.7429E-02  0.8931E-01
     20.287  0.7771E-02  0.9046E-01
     20.436  0.6333E-02  0.9140E-01
     20.584  0.5376E-02  0.9220E-01
     20.733  0.5022E-02  0.9295E-01
     20.881  0.2684E-02  0.9335E-01
     21.030  0.1072E-01  0.9494E-01
     21.178  0.6696E-02  0.9593E-01
     21.327  0.5601E-02  0.9677E-01
     21.476  0.6585E-02  0.9774E-01
     21.624  0.2835E-02  0.9817E-01
     21.773  0.8876E-02  0.9948E-01
     21.921  0.6255E-02  0.1004E+00
     22.070  0.2806E-02  0.1008E+00
     22.218  0.3408E-02  0.1013E+00
     22.367  0.5375E-02  0.1021E+00
     22.515  0.6548E-02  0.1031E+00
     22.664  0.5894E-02  0.1040E+00
     22.812  0.3918E-02  0.1046E+00
     22.961  0.4651E-02  0.1053E+00
     23.110  0.8838E-02  0.1066E+00
     23.258  0.7423E-02  0.1077E+00
     23.407  0.1065E-01  0.1093E+00
     23.555  0.7278E-02  0.1103E+00
     23.704  0.8842E-02  0.1116E+00
     23.852  0.2341E-02  0.1120E+00
     24.001  0.4777E-02  0.1127E+00
     24.149  0.6054E-02  0.1136E+00
     24.298  0.3277E-02  0.1141E+00
     24.446  0.9499E-02  0.1155E+00
     24.595  0.5924E-02  0.1164E+00
     24.743  0.4381E-02  0.1170E+00
     24.892  0.4970E-02  0.1178E+00
     25.041  0.3162E-02  0.1182E+00
     25.189  0.1150E-01  0.1199E+00
     25.338  0.1253E-01  0.1218E+00
     25.486  0.4962E-02  0.1225E+00
     25.635  0.4307E-02  0.1232E+00
     25.783  0.7248E-02  0.1243E+00
     25.932  0.7849E-02  0.1254E+00
     26.080  0.5110E-02  0.1262E+00
     26.229  0.6262E-02  0.1271E+00
     26.377  0.6868E-02  0.1281E+00
     26.526  0.8371E-02  0.1294E+00
     26.674  0.5557E-02  0.1302E+00
     26.823  0.1001E-02  0.1304E+00
     26.972  0.5587E-02  0.1312E+00
     27.120  0.5046E-02  0.1319E+00
     27.269  0.8993E-02  0.1333E+00
     27.417  0.7687E-02  0.1344E+00
     27.566  0.8264E-02  0.1356E+00
     27.714  0.6943E-02  0.1367E+00
     27.863  0.1958E-02  0.1370E+00
     28.011  0.5724E-02  0.1378E+00
     28.160  0.1004E-01  0.1393E+00
     28.308  0.5087E-02  0.1401E+00
     28.457  0.3342E-02  0.1406E+00
     28.606  0.8416E-03  0.1407E+00
     28.754  0.3186E-02  0.1412E+00
     28.903  0.9051E-02  0.1425E+00
     29.051  0.4447E-02  0.1432E+00
     29.200  0.4697E-02  0.1439E+00
     29.348  0.3681E-02  0.1444E+00
     29.497  0.4209E-02  0.1450E+00
     29.645  0.1073E-01  0.1466E+00
     29.794  0.7010E-02  0.1477E+00
     29.942  0.6254E-02  0.1486E+00
     30.091  0.4007E-02  0.1492E+00
     30.239  0.4333E-02  0.1498E+00
     30.388  0.1723E-02  0.1501E+00
     30.537  0.4137E-02  0.1507E+00
     30.685  0.5666E-02  0.1515E+00
     30.834  0.3817E-02  0.1521E+00
     30.982  0.2491E-02  0.1525E+00
     31.131  0.3742E-02  0.1530E+00
     31.279  0.5758E-02  0.1539E+00
     31.428  0.3583E-02  0.1544E+00
     31.576  0.1620E-02  0.1547E+00
     31.725  0.1800E-04  0.1547E+00
     31.873  0.4096E-02  0.1553E+00
     32.022  0.3037E-02  0.1557E+00
     32.171  0.9566E-03  0.1559E+00
     32.319  0.1400E-02  0.1561E+00
     32.468  0.1439E-02  0.1563E+00
     32.616  0.1757E-02  0.1566E+00
     32.765  0.3700E-02  0.1571E+00
     32.913  0.2306E-02  0.1574E+00
     33.062  0.6102E-03  0.1575E+00
     33.210  0.1253E-02  0.1577E+00
     33.359  0.2782E-02  0.1581E+00
     33.507  0.1171E-02  0.1583E+00
     33.656  0.1806E-02  0.1586E+00
     33.804  0.1606E-02  0.1588E+00
     33.953  0.5476E-03  0.1589E+00
     34.102  0.1932E-04  0.1589E+00
     34.250  0.1839E-02  0.1592E+00
     34.399  0.4858E-03  0.1592E+00
     34.547  0.5002E-04  0.1593E+00
     34.696  0.7648E-03  0.1594E+00
     34.844  0.4319E-03  0.1594E+00
     34.993  0.1112E-02  0.1596E+00
     35.141  0.1042E-02  0.1598E+00
     35.290  0.4222E-03  0.1598E+00
     35.438  0.5353E-03  0.1599E+00
     35.587  0.2424E-07  0.1599E+00
     35.735  0.4422E-12  0.1599E+00
     35.884  0.1685E-04  0.1599E+00
     36.033  0.4579E-03  0.1600E+00
     36.181  0.1916E-04  0.1600E+00
     36.330  0.2233E-03  0.1600E+00
     36.478  0.8981E-06  0.1600E+00
     36.627  0.7421E-15  0.1600E+00
     36.775  0.0000E+00  0.1600E+00
     36.924  0.0000E+00  0.1600E+00
     37.072  0.0000E+00  0.1600E+00
     37.221  0.0000E+00  0.1600E+00
     37.369  0.0000E+00  0.1600E+00
     37.518  0.0000E+00  0.1600E+00
     37.667  0.0000E+00  0.1600E+00
     37.815  0.0000E+00  0.1600E+00
     37.964  0.0000E+00  0.1600E+00
     38.112  0.0000E+00  0.1600E+00
     38.261  0.0000E+00  0.1600E+00
