    1    1  100    1
  0.1408159E+02  0.2710538E-09  0.2710538E-09  0.2710538E-09  0.5000000E-15
  1.000000000000000E-004
  CAR 
 unknown system                          
      4    120      8
 
  0.0000000E+00  0.0000000E+00  0.0000000E+00  0.2962963E-03
    1       -4.276015   1.000000
    2       21.357639   0.000000
    3       21.357647   0.000000
    4       21.357655   0.000000
    5       22.131366   0.000000
    6       22.131374   0.000000
    7       22.131384   0.000000
    8       27.472631   0.000000
 
  0.6666667E-01 -0.6938894E-17  0.0000000E+00  0.2370370E-02
    1       -4.146381   1.000000
    2       19.203498   0.000000
    3       20.684702   0.000000
    4       20.684714   0.000000
    5       22.963240   0.000000
    6       22.963255   0.000000
    7       23.183184   0.000000
    8       28.355266   0.000000
 
  0.1333333E+00  0.0000000E+00  0.0000000E+00  0.2370370E-02
    1       -3.758003   1.000000
    2       16.374264   0.000000
    3       19.922331   0.000000
    4       19.922342   0.000000
    5       23.469792   0.000000
    6       24.056161   0.000000
    7       24.056175   0.000000
    8       27.324830   0.000000
 
  0.2000000E+00  0.0000000E+00  0.0000000E+00  0.2370370E-02
    1       -3.112465   1.000000
    2       13.544655   0.000000
    3       19.345278   0.000000
    4       19.345288   0.000000
    5       23.399895   0.000000
    6       24.278489   0.000000
    7       24.278500   0.000000
    8       27.303210   0.000000
 
  0.2666667E+00  0.0000000E+00  0.0000000E+00  0.2370370E-02
    1       -2.212462   1.000000
    2       10.841976   0.000000
    3       18.966341   0.000000
    4       18.966350   0.000000
    5       23.303010   0.000000
    6       23.386825   0.000000
    7       23.386834   0.000000
    8       28.699287   0.000000
 
  0.3333333E+00  0.0000000E+00  0.0000000E+00  0.2370370E-02
    1       -1.062102   1.000000
    2        8.317582   1.000000
    3       18.774146   0.000000
    4       18.774153   0.000000
    5       22.380491   0.000000
    6       22.380500   0.000000
    7       23.290091   0.000000
    8       27.535189   0.000000
 
  0.4000000E+00 -0.2775558E-16  0.0000000E+00  0.2370370E-02
    1        0.331533   1.000000
    2        5.999819   1.000000
    3       18.733157   0.000000
    4       18.733163   0.000000
    5       21.575481   0.000000
    6       21.575492   0.000000
    7       23.376152   0.000000
    8       26.614777   0.000000
 
  0.4666667E+00  0.0000000E+00  0.0000000E+00  0.2370370E-02
    1        1.938794   1.000000
    2        3.928421   1.000000
    3       18.764581   0.000000
    4       18.764586   0.000000
    5       21.112407   0.000000
    6       21.112420   0.000000
    7       23.487630   0.000000
    8       26.073421   0.000000
 
  0.6666667E-01  0.6666667E-01  0.0000000E+00  0.1777778E-02
    1       -4.103183   1.000000
    2       19.680921   0.000000
    3       19.680922   0.000000
    4       20.954751   0.000000
    5       21.213491   0.000000
    6       24.024513   0.000000
    7       24.024514   0.000000
    8       27.235945   0.000000
 
  0.1333333E+00  0.6666667E-01  0.0000000E+00  0.7111111E-02
    1       -3.801092   1.000000
    2       17.381651   0.000000
    3       18.839732   0.000000
    4       20.393965   0.000000
    5       21.759126   0.000000
    6       24.742564   0.000000
    7       25.173368   0.000000
    8       25.767166   0.000000
 
  0.2000000E+00  0.6666667E-01  0.0000000E+00  0.7111111E-02
    1       -3.241329   1.000000
    2       14.567174   0.000000
    3       18.203640   0.000000
    4       19.762053   0.000000
    5       22.447785   0.000000
    6       24.540661   0.000000
    7       25.295771   0.000000
    8       25.785479   0.000000
 
  0.2666667E+00  0.6666667E-01  0.0000000E+00  0.7111111E-02
    1       -2.426198   1.000000
    2       11.824973   0.000000
    3       17.782194   0.000000
    4       19.251187   0.000000
    5       21.883107   0.000000
    6       24.378449   0.000000
    7       25.131643   0.000000
    8       26.328444   0.000000
 
  0.3333333E+00  0.6666667E-01  0.0000000E+00  0.7111111E-02
    1       -1.359267   1.000000
    2        9.242231   1.000000
    3       17.576477   0.000000
    4       18.816642   0.000000
    5       21.011656   0.000000
    6       24.095899   0.000000
    7       24.354400   0.000000
    8       27.923255   0.000000
 
  0.4000000E+00  0.6666667E-01  0.0000000E+00  0.7111111E-02
    1       -0.046206   1.000000
    2        6.855630   1.000000
    3       17.582776   0.000000
    4       18.344239   0.000000
    5       20.492173   0.000000
    6       23.138310   0.000000
    7       24.372734   0.000000
    8       27.833002   0.000000
 
  0.4666667E+00  0.6666667E-01  0.0000000E+00  0.7111111E-02
    1        1.498286   1.000000
    2        4.693914   1.000000
    3       17.791372   0.000000
    4       17.805524   0.000000
    5       20.452901   0.000000
    6       22.372143   0.000000
    7       24.396365   0.000000
    8       27.294262   0.000000
 
 -0.4666667E+00  0.6666667E-01  0.0000000E+00  0.7111111E-02
    1        2.568522   1.000000
    2        3.468954   1.000000
    3       17.316781   0.000000
    4       18.181295   0.000000
    5       20.802575   0.000000
    6       21.849524   0.000000
    7       24.333999   0.000000
    8       27.205929   0.000000
 
 -0.4000000E+00  0.6666667E-01  0.0000000E+00  0.7111111E-02
    1        0.960049   1.000000
    2        5.386559   1.000000
    3       16.975165   0.000000
    4       18.708218   0.000000
    5       21.448047   0.000000
    6       21.622972   0.000000
    7       24.184811   0.000000
    8       27.601034   0.000000
 
 -0.3333333E+00  0.6666667E-01  0.0000000E+00  0.7111111E-02
    1       -0.510737   1.000000
    2        7.627448   1.000000
    3       16.824884   0.000000
    4       19.290075   0.000000
    5       21.767539   0.000000
    6       22.335346   0.000000
    7       24.051916   0.000000
    8       28.331752   0.000000
 
 -0.2666667E+00  0.6666667E-01  0.0000000E+00  0.7111111E-02
    1       -1.742623   1.000000
    2       10.081968   0.994166
    3       16.884358   0.000000
    4       19.843163   0.000000
    5       22.331494   0.000000
    6       23.412981   0.000000
    7       24.000675   0.000000
    8       27.983644   0.000000
 
 -0.2000000E+00  0.6666667E-01  0.0000000E+00  0.7111111E-02
    1       -2.726115   1.000000
    2       12.722113   0.000000
    3       17.160865   0.000000
    4       20.382483   0.000000
    5       23.137377   0.000000
    6       24.012473   0.000000
    7       24.560078   0.000000
    8       26.308381   0.000000
 
 -0.1333333E+00  0.6666667E-01  0.0000000E+00  0.7111111E-02
    1       -3.456453   1.000000
    2       15.500503   0.000000
    3       17.656393   0.000000
    4       20.975973   0.000000
    5       23.245084   0.000000
    6       23.966309   0.000000
    7       25.180386   0.000000
    8       25.873981   0.000000
 
 -0.6666667E-01  0.6666667E-01  0.0000000E+00  0.3555556E-02
    1       -3.930523   1.000000
    2       18.203394   0.000000
    3       18.462339   0.000000
    4       21.437639   0.000000
    5       22.465634   0.000000
    6       23.603812   0.000000
    7       24.486202   0.000000
    8       26.992389   0.000000
 
  0.1333333E+00  0.1333333E+00  0.0000000E+00  0.1777778E-02
    1       -3.585526   1.000000
    2       17.925946   0.000000
    3       17.925947   0.000000
    4       19.564065   0.000000
    5       19.883338   0.000000
    6       23.961893   0.000000
    7       26.398031   0.000000
    8       26.398032   0.000000
 
  0.2000000E+00  0.1333333E+00  0.0000000E+00  0.7111111E-02
    1       -3.112181   1.000000
    2       15.732186   0.000000
    3       17.218860   0.000000
    4       19.028804   0.000000
    5       20.136378   0.000000
    6       22.652758   0.000000
    7       27.114643   0.000000
    8       27.355798   0.000000
 
  0.2666667E+00  0.1333333E+00  0.0000000E+00  0.7111111E-02
    1       -2.382996   1.000000
    2       13.012923   0.000000
    3       16.729286   0.000000
    4       18.315668   0.000000
    5       20.025382   0.000000
    6       23.007692   0.000000
    7       27.088776   0.000000
    8       27.291346   0.000000
 
  0.3333333E+00  0.1333333E+00  0.0000000E+00  0.7111111E-02
    1       -1.401057   1.000000
    2       10.392415   0.000000
    3       16.460468   0.000000
    4       17.493980   0.000000
    5       19.425420   0.000000
    6       24.486508   0.000000
    7       26.130325   0.000000
    8       27.451990   0.000000
 
  0.4000000E+00  0.1333333E+00  0.0000000E+00  0.7111111E-02
    1       -0.171107   1.000000
    2        7.947771   1.000000
    3       16.412443   0.000000
    4       16.585011   0.000000
    5       19.179838   0.000000
    6       25.144983   0.000000
    7       25.747814   0.000000
    8       28.145867   0.000000
 
  0.4666667E+00  0.1333333E+00  0.0000000E+00  0.7111111E-02
    1        1.297498   1.000000
    2        5.712663   1.000000
    3       15.742699   0.000000
    4       16.582986   0.000000
    5       19.285476   0.000000
    6       24.301271   0.000000
    7       26.126588   0.000000
    8       29.650251   0.000000
 
 -0.4666667E+00  0.1333333E+00  0.0000000E+00  0.7111111E-02
    1        2.907161   1.000000
    2        3.794828   1.000000
    3       15.063636   0.000000
    4       16.967129   0.000000
    5       19.678577   0.000000
    6       23.655399   0.000000
    7       26.036528   0.000000
    8       29.783037   0.000000
 
 -0.4000000E+00  0.1333333E+00  0.0000000E+00  0.7111111E-02
    1        1.835111   1.000000
    2        5.020212   1.000000
    3       14.587778   0.000000
    4       17.555225   0.000000
    5       20.326764   0.000000
    6       23.234969   0.000000
    7       25.804643   0.000000
    8       30.086552   0.000000
 
 -0.3333333E+00  0.1333333E+00  0.0000000E+00  0.7111111E-02
    1        0.292513   1.000000
    2        7.175439   1.000000
    3       14.332443   0.000000
    4       18.328421   0.000000
    5       21.208406   0.000000
    6       23.060480   0.000000
    7       25.573915   0.000000
    8       29.618151   0.000000
 
 -0.2666667E+00  0.1333333E+00  0.0000000E+00  0.7111111E-02
    1       -1.018559   1.000000
    2        9.549076   1.000000
    3       14.307008   0.000000
    4       19.248774   0.000000
    5       22.297274   0.000000
    6       23.152003   0.000000
    7       25.385630   0.000000
    8       27.461566   0.000000
 
 -0.2000000E+00  0.1333333E+00  0.0000000E+00  0.7111111E-02
    1       -2.083797   1.000000
    2       12.099384   0.000000
    3       14.524442   0.000000
    4       20.235695   0.000000
    5       23.496867   0.000000
    6       23.539360   0.000000
    7       25.172710   0.000000
    8       25.587957   0.000000
 
 -0.1333333E+00  0.1333333E+00  0.0000000E+00  0.3555556E-02
    1       -2.897607   1.000000
    2       14.559585   0.000000
    3       15.205296   0.000000
    4       21.075672   0.000000
    5       23.464067   0.000000
    6       24.731269   0.000000
    7       24.754255   0.000000
    8       24.865239   0.000000
 
  0.2000000E+00  0.2000000E+00  0.0000000E+00  0.1777778E-02
    1       -2.725575   1.000000
    2       16.438519   0.000000
    3       16.438520   0.000000
    4       17.986136   0.000000
    5       18.132338   0.000000
    6       20.960454   0.000000
    7       28.815422   0.000000
    8       28.815422   0.000000
 
  0.2666667E+00  0.2000000E+00  0.0000000E+00  0.7111111E-02
    1       -2.083053   1.000000
    2       14.342865   0.000000
    3       15.875897   0.000000
    4       16.983196   0.000000
    5       18.247870   0.000000
    6       20.528681   0.000000
    7       29.137850   0.000000
    8       29.553985   0.000000
 
  0.3333333E+00  0.2000000E+00  0.0000000E+00  0.7111111E-02
    1       -1.187345   1.000000
    2       11.746468   0.000000
    3       15.535387   0.000000
    4       15.757413   0.000000
    5       18.151710   0.000000
    6       21.793854   0.000000
    7       28.337428   0.000000
    8       29.715686   0.000000
 
  0.4000000E+00  0.2000000E+00  0.0000000E+00  0.7111111E-02
    1       -0.042510   1.000000
    2        9.264888   1.000000
    3       14.588868   0.000000
    4       15.418153   0.000000
    5       18.036665   0.000000
    6       23.690964   0.000000
    7       27.375038   0.000000
    8       29.638996   0.000000
 
  0.4666667E+00  0.2000000E+00  0.0000000E+00  0.7111111E-02
    1        1.344489   1.000000
    2        6.970183   1.000000
    3       13.581758   0.000000
    4       15.523686   0.000000
    5       18.148414   0.000000
    6       25.699853   0.000000
    7       26.498613   0.000000
    8       29.516305   0.000000
 
 -0.4666667E+00  0.2000000E+00  0.0000000E+00  0.7111111E-02
    1        2.946710   1.000000
    2        4.909629   1.000000
    3       12.779751   0.000000
    4       15.849994   0.000000
    5       18.507386   0.000000
    6       25.789662   0.000000
    7       27.228124   0.000000
    8       29.821709   0.000000
 
 -0.4000000E+00  0.2000000E+00  0.0000000E+00  0.7111111E-02
    1        2.947196   1.000000
    2        4.906607   1.000000
    3       12.202446   0.000000
    4       16.392984   0.000000
    5       19.109720   0.000000
    6       25.283225   0.000000
    7       27.540361   0.000000
    8       31.008014   0.000000
 
 -0.3333333E+00  0.2000000E+00  0.0000000E+00  0.7111111E-02
    1        1.344047   1.000000
    2        6.959952   1.000000
    3       11.862188   0.000000
    4       17.144578   0.000000
    5       19.945642   0.000000
    6       24.997765   0.000000
    7       27.300494   0.000000
    8       29.437586   0.000000
 
 -0.2666667E+00  0.2000000E+00  0.0000000E+00  0.7111111E-02
    1       -0.043304   1.000000
    2        9.226842   1.000000
    3       11.780588   0.000000
    4       18.087513   0.000000
    5       20.997623   0.000000
    6       24.945596   0.000000
    7       26.891640   0.000000
    8       27.175181   0.000000
 
 -0.2000000E+00  0.2000000E+00  0.0000000E+00  0.3555556E-02
    1       -1.188195   1.000000
    2       11.382277   0.000000
    3       12.241401   0.000000
    4       19.177032   0.000000
    5       22.229076   0.000000
    6       25.111603   0.000000
    7       25.156926   0.000000
    8       26.219853   0.000000
 
  0.2666667E+00  0.2666667E+00  0.0000000E+00  0.1777778E-02
    1       -1.527640   1.000000
    2       15.239172   0.000000
    3       15.239173   0.000000
    4       15.404115   0.000000
    5       16.666460   0.000000
    6       19.112710   0.000000
    7       31.128853   0.000000
    8       31.128866   0.000000
 
  0.3333333E+00  0.2666667E+00  0.0000000E+00  0.7111111E-02
    1       -0.719039   1.000000
    2       13.204364   0.000000
    3       14.026721   0.000000
    4       14.824746   0.000000
    5       16.983299   0.000000
    6       19.301460   0.000000
    7       30.621037   0.000000
    8       31.805132   0.000000
 
  0.4000000E+00  0.2666667E+00  0.0000000E+00  0.7111111E-02
    1        0.339036   1.000000
    2       10.772255   0.000000
    3       12.681186   0.000000
    4       14.634503   0.000000
    5       17.079718   0.000000
    6       20.911684   0.000000
    7       29.742581   0.000000
    8       31.822366   0.000000
 
  0.4666667E+00  0.2666667E+00  0.0000000E+00  0.7111111E-02
    1        1.640789   1.000000
    2        8.447334   1.000000
    3       11.545771   0.000000
    4       14.668672   0.000000
    5       17.186127   0.000000
    6       23.039211   0.000000
    7       28.871485   0.000000
    8       31.460052   0.000000
 
 -0.4666667E+00  0.2666667E+00  0.0000000E+00  0.7111111E-02
    1        3.172320   1.000000
    2        6.316636   1.000000
    3       10.638120   0.000000
    4       14.926378   0.000000
    5       17.495399   0.000000
    6       25.348263   0.000000
    7       28.125047   0.000000
    8       30.913825   0.000000
 
 -0.4000000E+00  0.2666667E+00  0.0000000E+00  0.7111111E-02
    1        4.252276   1.000000
    2        5.078682   1.000000
    3        9.971092   1.000000
    4       15.405450   0.000000
    5       18.037491   0.000000
    6       27.553860   0.000000
    7       27.598249   0.000000
    8       30.321803   0.000000
 
 -0.3333333E+00  0.2666667E+00  0.0000000E+00  0.7111111E-02
    1        2.638136   1.000000
    2        6.961155   1.000000
    3        9.570052   1.000000
    4       16.101368   0.000000
    5       18.812789   0.000000
    6       27.175341   0.000000
    7       28.915985   0.000000
    8       29.506512   0.000000
 
 -0.2666667E+00  0.2666667E+00  0.0000000E+00  0.3555556E-02
    1        1.178513   1.000000
    2        8.803749   1.000000
    3        9.745741   1.000000
    4       17.004174   0.000000
    5       19.809316   0.000000
    6       26.815057   0.000000
    7       27.373796   0.000000
    8       28.210439   0.000000
 
  0.3333333E+00  0.3333333E+00  0.0000000E+00  0.1777778E-02
    1        0.001762   1.000000
    2       12.304474   0.000000
    3       14.335872   0.000000
    4       14.335874   0.000000
    5       15.657517   0.000000
    6       18.041584   0.000000
    7       32.546063   0.000000
    8       33.227445   0.000000
 
  0.4000000E+00  0.3333333E+00  0.0000000E+00  0.7111111E-02
    1        0.971678   1.000000
    2       10.846655   0.000000
    3       12.519560   0.000000
    4       14.071372   0.000000
    5       16.140133   0.000000
    6       18.500832   0.000000
    7       32.105564   0.000000
    8       33.756006   0.000000
 
  0.4666667E+00  0.3333333E+00  0.0000000E+00  0.7111111E-02
    1        2.184984   1.000000
    2        9.540294   1.000000
    3       10.285996   0.000580
    4       14.031996   0.000000
    5       16.403265   0.000000
    6       20.320303   0.000000
    7       31.315861   0.000000
    8       33.538437   0.000000
 
 -0.4666667E+00  0.3333333E+00  0.0000000E+00  0.7111111E-02
    1        3.629999   1.000000
    2        7.880172   1.000000
    3        8.772452   1.000000
    4       14.217486   0.000000
    5       16.686880   0.000000
    6       22.630622   0.000000
    7       30.563931   0.000000
    8       32.870130   0.000000
 
 -0.4000000E+00  0.3333333E+00  0.0000000E+00  0.7111111E-02
    1        5.229184   1.000000
    2        6.006379   1.000000
    3        7.986828   1.000000
    4       14.626639   0.000000
    5       17.169747   0.000000
    6       25.133036   0.000000
    7       29.916763   0.000000
    8       31.910494   0.000000
 
 -0.3333333E+00  0.3333333E+00  0.0000000E+00  0.3555556E-02
    1        4.162352   1.000000
    2        6.859598   1.000000
    3        7.828564   1.000000
    4       15.256661   0.000000
    5       17.879611   0.000000
    6       27.640657   0.000000
    7       29.149881   0.000000
    8       30.170536   0.000000
 
  0.4000000E+00  0.4000000E+00  0.0000000E+00  0.1777778E-02
    1        1.851720   1.000000
    2        9.316352   1.000000
    3       13.732314   0.000000
    4       13.732315   0.000000
    5       14.978496   0.000000
    6       17.378014   0.000000
    7       33.786061   0.000000
    8       35.024087   0.000000
 
  0.4666667E+00  0.4000000E+00  0.0000000E+00  0.7111111E-02
    1        2.971810   1.000000
    2        7.992223   1.000000
    3       12.029517   0.000000
    4       13.618566   0.000000
    5       15.638081   0.000000
    6       18.028155   0.000000
    7       33.551109   0.000000
    8       35.295124   0.000000
 
 -0.4666667E+00  0.4000000E+00  0.0000000E+00  0.7111111E-02
    1        4.308798   1.000000
    2        6.915813   1.000000
    3        9.879966   1.000000
    4       13.730296   0.000000
    5       16.067720   0.000000
    6       20.022366   0.000000
    7       32.867656   0.000000
    8       34.684713   0.000000
 
 -0.4000000E+00  0.4000000E+00  0.0000000E+00  0.3555556E-02
    1        5.560942   1.000000
    2        6.351686   1.000000
    3        7.914625   1.000000
    4       14.066892   0.000000
    5       16.520824   0.000000
    6       22.492071   0.000000
    7       31.892553   0.000000
    8       33.283568   0.000000
 
  0.4666667E+00  0.4666667E+00  0.0000000E+00  0.1777778E-02
    1        3.981262   1.000000
    2        6.602083   1.000000
    3       13.430218   0.000000
    4       13.430219   0.000000
    5       14.637453   0.000000
    6       17.051213   0.000000
    7       34.676389   0.000000
    8       36.235125   0.000000
 
 -0.4666667E+00  0.4666667E+00  0.0000000E+00  0.3555556E-02
    1        4.911209   1.000000
    2        5.760729   1.000000
    3       11.868989   0.000000
    4       13.467525   0.000000
    5       15.470795   0.000000
    6       17.870849   0.000000
    7       34.354166   0.000000
    8       35.947997   0.000000
 
  0.2000000E+00  0.1333333E+00  0.6666667E-01  0.7111111E-02
    1       -3.413347   1.000000
    2       16.403054   0.000000
    3       16.823145   0.000000
    4       20.725689   0.000000
    5       21.335025   0.000000
    6       24.296972   0.000000
    7       25.657343   0.000000
    8       26.020567   0.000000
 
  0.2666667E+00  0.1333333E+00  0.6666667E-01  0.1422222E-01
    1       -2.768831   1.000000
    2       13.813238   0.000000
    3       16.089013   0.000000
    4       20.076237   0.000000
    5       21.766990   0.000000
    6       23.845164   0.000000
    7       25.870491   0.000000
    8       26.105267   0.000000
 
  0.3333333E+00  0.1333333E+00  0.6666667E-01  0.1422222E-01
    1       -1.870240   1.000000
    2       11.143904   0.000000
    3       15.731646   0.000000
    4       19.204793   0.000000
    5       21.329040   0.000000
    6       24.416069   0.000000
    7       25.337723   0.000000
    8       26.491673   0.000000
 
  0.4000000E+00  0.1333333E+00  0.6666667E-01  0.1422222E-01
    1       -0.721665   1.000000
    2        8.633883   1.000000
    3       15.601248   0.000000
    4       18.267637   0.000000
    5       21.002575   0.000000
    6       23.643599   0.000000
    7       25.604123   0.000000
    8       27.874740   0.000000
 
  0.4666667E+00  0.1333333E+00  0.6666667E-01  0.1422222E-01
    1        0.669897   1.000000
    2        6.323958   1.000000
    3       15.684969   0.000000
    4       17.403797   0.000000
    5       20.964126   0.000000
    6       22.768366   0.000000
    7       25.753788   0.000000
    8       29.296553   0.000000
 
 -0.4666667E+00  0.1333333E+00  0.6666667E-01  0.1422222E-01
    1        2.275827   1.000000
    2        4.256236   1.000000
    3       15.928623   0.000000
    4       16.753504   0.000000
    5       21.106413   0.000000
    6       22.160768   0.000000
    7       25.844249   0.000000
    8       29.038592   0.000000
 
  0.2666667E+00  0.2000000E+00  0.6666667E-01  0.7111111E-02
    1       -2.554195   1.000000
    2       14.851181   0.000000
    3       15.353974   0.000000
    4       18.730403   0.000000
    5       19.862450   0.000000
    6       21.739329   0.000000
    7       27.596000   0.000000
    8       28.247591   0.000000
 
  0.3333333E+00  0.2000000E+00  0.6666667E-01  0.1422222E-01
    1       -1.741648   1.000000
    2       12.399745   0.000000
    3       14.729151   0.000000
    4       17.559544   0.000000
    5       20.079049   0.000000
    6       22.428877   0.000000
    7       26.870550   0.000000
    8       28.705729   0.000000
 
  0.4000000E+00  0.2000000E+00  0.6666667E-01  0.1422222E-01
    1       -0.678102   1.000000
    2        9.863183   1.000000
    3       14.503859   0.000000
    4       16.371380   0.000000
    5       19.935963   0.000000
    6       24.064060   0.000000
    7       25.957614   0.000000
    8       28.844726   0.000000
 
  0.4666667E+00  0.2000000E+00  0.6666667E-01  0.1422222E-01
    1        0.630814   1.000000
    2        7.497442   1.000000
    3       14.460920   0.000000
    4       15.382508   0.000000
    5       19.959113   0.000000
    6       24.612931   0.000000
    7       26.324144   0.000000
    8       29.053114   0.000000
 
 -0.4666667E+00  0.2000000E+00  0.6666667E-01  0.1422222E-01
    1        2.171081   1.000000
    2        5.346801   1.000000
    3       14.211527   0.000000
    4       15.027141   0.000000
    5       20.206795   0.000000
    6       23.937430   0.000000
    7       27.477280   0.000000
    8       29.845116   0.000000
 
 -0.4000000E+00  0.2000000E+00  0.6666667E-01  0.1422222E-01
    1        3.244980   1.000000
    2        4.119173   1.000000
    3       13.660431   0.000000
    4       15.418203   0.000000
    5       20.672582   0.000000
    6       23.377966   0.000000
    7       27.678127   0.000000
    8       30.984923   0.000000
 
 -0.3333333E+00  0.2000000E+00  0.6666667E-01  0.1422222E-01
    1        1.634004   1.000000
    2        6.034676   1.000000
    3       13.262024   0.000000
    4       16.105476   0.000000
    5       21.323386   0.000000
    6       23.054658   0.000000
    7       27.423075   0.000000
    8       29.799263   0.000000
 
 -0.2666667E+00  0.2000000E+00  0.6666667E-01  0.1422222E-01
    1        0.167474   1.000000
    2        8.257649   1.000000
    3       13.086042   0.000000
    4       17.013950   0.000000
    5       22.039708   0.000000
    6       23.073741   0.000000
    7       26.627213   0.000000
    8       28.283361   0.000000
 
 -0.2000000E+00  0.2000000E+00  0.6666667E-01  0.1422222E-01
    1       -1.060542   1.000000
    2       10.668754   0.000000
    3       13.157656   0.000000
    4       18.105550   0.000000
    5       22.539280   0.000000
    6       23.544357   0.000000
    7       25.160045   0.000000
    8       27.640799   0.000000
 
 -0.1333333E+00  0.2000000E+00  0.6666667E-01  0.7111111E-02
    1       -2.040868   1.000000
    2       12.978736   0.000000
    3       13.731018   0.000000
    4       19.292835   0.000000
    5       22.576484   0.000000
    6       23.326196   0.000000
    7       25.116364   0.000000
    8       27.053088   0.000000
 
  0.3333333E+00  0.2666667E+00  0.6666667E-01  0.7111111E-02
    1       -1.357386   1.000000
    2       13.593108   0.000000
    3       14.105207   0.000000
    4       15.783052   0.000000
    5       18.615318   0.000000
    6       20.232548   0.000000
    7       28.971317   0.000000
    8       30.781083   0.000000
 
  0.4000000E+00  0.2666667E+00  0.6666667E-01  0.1422222E-01
    1       -0.380264   1.000000
    2       11.281790   0.000000
    3       13.562082   0.000000
    4       14.502393   0.000000
    5       18.935186   0.000000
    6       21.416046   0.000000
    7       28.111493   0.000000
    8       31.223405   0.000000
 
  0.4666667E+00  0.2666667E+00  0.6666667E-01  0.1422222E-01
    1        0.843501   1.000000
    2        8.891583   1.000000
    3       13.008118   0.000000
    4       13.812767   0.000000
    5       18.993484   0.000000
    6       23.385732   0.000000
    7       27.204516   0.000000
    8       31.148486   0.000000
 
 -0.4666667E+00  0.2666667E+00  0.6666667E-01  0.1422222E-01
    1        2.304680   1.000000
    2        6.681500   1.000000
    3       12.134117   0.000000
    4       13.898201   0.000000
    5       19.211903   0.000000
    6       25.344160   0.000000
    7       26.638809   0.000000
    8       30.803924   0.000000
 
 -0.4000000E+00  0.2666667E+00  0.6666667E-01  0.1422222E-01
    1        3.916037   1.000000
    2        4.765832   1.000000
    3       11.410617   0.000000
    4       14.296499   0.000000
    5       19.645633   0.000000
    6       25.473589   0.000000
    7       28.025323   0.000000
    8       30.195528   0.000000
 
 -0.3333333E+00  0.2666667E+00  0.6666667E-01  0.1422222E-01
    1        2.840289   1.000000
    2        5.985979   1.000000
    3       10.914060   0.000000
    4       14.937252   0.000000
    5       20.297211   0.000000
    6       25.078147   0.000000
    7       28.770289   0.000000
    8       29.651795   0.000000
 
 -0.2666667E+00  0.2666667E+00  0.6666667E-01  0.1422222E-01
    1        1.304135   1.000000
    2        8.095161   1.000000
    3       10.676678   0.000000
    4       15.803186   0.000000
    5       21.150927   0.000000
    6       24.832052   0.000000
    7       26.901088   0.000000
    8       29.604178   0.000000
 
 -0.2000000E+00  0.2666667E+00  0.6666667E-01  0.7111111E-02
    1       -0.000580   1.000000
    2       10.095611   0.983666
    3       10.998436   0.000000
    4       16.875583   0.000000
    5       22.155406   0.000000
    6       24.466483   0.000000
    7       25.207040   0.000000
    8       28.857499   0.000000
 
  0.4000000E+00  0.3333333E+00  0.6666667E-01  0.7111111E-02
    1        0.170537   1.000000
    2       12.358883   0.000000
    3       12.642883   0.000000
    4       13.447040   0.000000
    5       17.659781   0.000000
    6       19.272387   0.000000
    7       30.405015   0.000000
    8       33.068261   0.000000
 
  0.4666667E+00  0.3333333E+00  0.6666667E-01  0.1422222E-01
    1        1.307002   1.000000
    2       10.424355   0.000000
    3       11.248740   0.000000
    4       12.995998   0.000000
    5       18.137517   0.000000
    6       20.691807   0.000000
    7       29.592524   0.000000
    8       33.300775   0.000000
 
 -0.4666667E+00  0.3333333E+00  0.6666667E-01  0.1422222E-01
    1        2.682715   1.000000
    2        8.223384   1.000000
    3       10.166994   0.546611
    4       13.067601   0.000000
    5       18.367335   0.000000
    6       22.869498   0.000000
    7       28.781248   0.000000
    8       32.717609   0.000000
 