       N       E                     dE             d eps       ncg     rms          rms(c)
DAV:   1    -0.176522959023E+01   -0.17652E+01   -0.20941E+03  2016   0.494E+02
DAV:   2    -0.488676875969E+01   -0.31215E+01   -0.30487E+01  2840   0.353E+01
DAV:   3    -0.490315157240E+01   -0.16383E-01   -0.16381E-01  2248   0.276E+00
DAV:   4    -0.490316720460E+01   -0.15632E-04   -0.15633E-04  3192   0.959E-02
DAV:   5    -0.490316720718E+01   -0.25793E-08   -0.23296E-08  2280   0.736E-04    0.279E+00
DAV:   6    -0.488957002875E+01    0.13597E-01   -0.39112E-03  2368   0.276E-01    0.154E+00
DAV:   7    -0.488176803884E+01    0.78020E-02   -0.79073E-03  2280   0.392E-01    0.136E-01
DAV:   8    -0.488172885513E+01    0.39184E-04   -0.28233E-05  3088   0.436E-02    0.148E-02
DAV:   9    -0.488172918135E+01   -0.32623E-06   -0.31256E-07  2344   0.335E-03
   1 F= -.48817292E+01 E0= -.48813347E+01  d E =-.488173E+01
       N       E                     dE             d eps       ncg     rms          rms(c)
DAV:   1    -0.488556568242E+01   -0.38368E-02   -0.82800E-02  2056   0.116E+00    0.275E-01
DAV:   2    -0.488465311107E+01    0.91257E-03   -0.55342E-04  2656   0.195E-01    0.155E-01
DAV:   3    -0.488411777913E+01    0.53533E-03   -0.60357E-04  2080   0.106E-01    0.456E-02
DAV:   4    -0.488411701054E+01    0.76859E-06   -0.13097E-06  2896   0.107E-02    0.392E-02
DAV:   5    -0.488411353378E+01    0.34768E-05   -0.24715E-07  1560   0.370E-03    0.907E-03
DAV:   6    -0.488411378308E+01   -0.24931E-06   -0.99611E-09  1128   0.957E-04
   2 F= -.48841138E+01 E0= -.48837018E+01  d E =-.238460E-02
       N       E                     dE             d eps       ncg     rms          rms(c)
DAV:   1    -0.488414472263E+01   -0.31189E-04   -0.61337E-04  2072   0.101E-01    0.230E-02
DAV:   2    -0.488413800360E+01    0.67190E-05   -0.40901E-06  2656   0.169E-02    0.130E-02
DAV:   3    -0.488413427432E+01    0.37293E-05   -0.44898E-06  2080   0.914E-03    0.405E-03
DAV:   4    -0.488413430145E+01   -0.27130E-07   -0.91243E-09  1032   0.917E-04    0.347E-03
DAV:   5    -0.488413447198E+01   -0.17053E-06   -0.27779E-09  1024   0.420E-04    0.527E-04
DAV:   6    -0.488413445342E+01    0.18564E-07   -0.12832E-10  1032   0.111E-04
   3 F= -.48841345E+01 E0= -.48837207E+01  d E =-.240527E-02
