<?xml version="1.0" encoding="ISO-8859-1"?>
<modeling>
 <generator>
  <i name="program" type="string">vasp </i>
  <i name="version" type="string">6.2.0  </i>
  <i name="subversion" type="string">18Jan21 (build Aug 12 2022 13:00:08) complex                          parallel </i>
  <i name="platform" type="string">LinuxIFC </i>
  <i name="date" type="string">2024 11 03 </i>
  <i name="time" type="string">22:14:19 </i>
 </generator>
 <incar>
  <i type="int" name="ISTART">     0</i>
  <i type="string" name="PREC">Accurate      (Accurate strictly avoids</i>
  <i type="logical" name="ADDGRID"> T  </i>
  <i type="int" name="ISPIN">     1</i>
  <i type="int" name="NELM">    90</i>
  <i type="int" name="NELMIN">     6</i>
  <i type="int" name="IBRION">     2</i>
  <i name="EDIFF">      0.00000100</i>
  <i name="EDIFFG">     -0.00200000</i>
  <i type="int" name="NSW">   100</i>
  <i type="int" name="ISIF">     3</i>
  <i type="int" name="ISYM">     2</i>
  <i name="ENCUT">    700.00000000</i>
  <i type="logical" name="LREAL"> F  </i>
  <i type="int" name="ISMEAR">     0</i>
  <i name="SIGMA">      0.05000000</i>
  <i type="logical" name="LWAVE"> F  </i>
  <i type="logical" name="LCHARG"> F  </i>
  <i type="logical" name="LASPH"> T  </i>
 </incar>
 <primitive_cell>
  <structure name="primitive_cell" >
   <crystal>
    <varray name="basis" >
     <v>       2.34739500       0.00000000       1.35526800 </v>
     <v>       0.78246500       2.21314500       1.35526800 </v>
     <v>       0.00000000       0.00000000       2.71053800 </v>
    </varray>
    <i name="volume">     14.08158510 </i>
    <varray name="rec_basis" >
     <v>       0.42600415      -0.15061523       0.00000000 </v>
     <v>       0.00000000       0.45184568       0.00000000 </v>
     <v>      -0.21300192      -0.15061511       0.36893045 </v>
    </varray>
   </crystal>
   <varray name="positions" >
    <v>       0.00000000       0.00000000       0.00000000 </v>
   </varray>
  </structure>
  <varray name="primitive_index" >
   <v type="int" >        1 </v>
  </varray>
 </primitive_cell>
 <kpoints>
  <generation param="Monkhorst-Pack">
   <v type="int" name="divisions">      15       15       15 </v>
   <v name="usershift">      0.00000000       0.00000000       0.00000000 </v>
   <v name="genvec1">      0.06666667      -0.00000000       0.00000000 </v>
   <v name="genvec2">      0.00000000       0.06666667       0.00000000 </v>
   <v name="genvec3">      0.00000000       0.00000000       0.06666667 </v>
   <v name="shift">      0.00000000       0.00000000       0.00000000 </v>
  </generation>
  <varray name="kpointlist" >
   <v>       0.00000000       0.00000000       0.00000000 </v>
   <v>       0.06666667      -0.00000000       0.00000000 </v>
   <v>       0.13333333       0.00000000       0.00000000 </v>
   <v>       0.20000000       0.00000000       0.00000000 </v>
   <v>       0.26666667       0.00000000       0.00000000 </v>
   <v>       0.33333333       0.00000000       0.00000000 </v>
   <v>       0.40000000      -0.00000000       0.00000000 </v>
   <v>       0.46666667       0.00000000       0.00000000 </v>
   <v>       0.06666667       0.06666667       0.00000000 </v>
   <v>       0.13333333       0.06666667       0.00000000 </v>
   <v>       0.20000000       0.06666667       0.00000000 </v>
   <v>       0.26666667       0.06666667       0.00000000 </v>
   <v>       0.33333333       0.06666667       0.00000000 </v>
   <v>       0.40000000       0.06666667       0.00000000 </v>
   <v>       0.46666667       0.06666667       0.00000000 </v>
   <v>      -0.46666667       0.06666667       0.00000000 </v>
   <v>      -0.40000000       0.06666667       0.00000000 </v>
   <v>      -0.33333333       0.06666667       0.00000000 </v>
   <v>      -0.26666667       0.06666667       0.00000000 </v>
   <v>      -0.20000000       0.06666667       0.00000000 </v>
   <v>      -0.13333333       0.06666667       0.00000000 </v>
   <v>      -0.06666667       0.06666667       0.00000000 </v>
   <v>       0.13333333       0.13333333       0.00000000 </v>
   <v>       0.20000000       0.13333333       0.00000000 </v>
   <v>       0.26666667       0.13333333       0.00000000 </v>
   <v>       0.33333333       0.13333333       0.00000000 </v>
   <v>       0.40000000       0.13333333       0.00000000 </v>
   <v>       0.46666667       0.13333333       0.00000000 </v>
   <v>      -0.46666667       0.13333333       0.00000000 </v>
   <v>      -0.40000000       0.13333333       0.00000000 </v>
   <v>      -0.33333333       0.13333333       0.00000000 </v>
   <v>      -0.26666667       0.13333333       0.00000000 </v>
   <v>      -0.20000000       0.13333333       0.00000000 </v>
   <v>      -0.13333333       0.13333333       0.00000000 </v>
   <v>       0.20000000       0.20000000       0.00000000 </v>
   <v>       0.26666667       0.20000000       0.00000000 </v>
   <v>       0.33333333       0.20000000       0.00000000 </v>
   <v>       0.40000000       0.20000000       0.00000000 </v>
   <v>       0.46666667       0.20000000       0.00000000 </v>
   <v>      -0.46666667       0.20000000       0.00000000 </v>
   <v>      -0.40000000       0.20000000       0.00000000 </v>
   <v>      -0.33333333       0.20000000       0.00000000 </v>
   <v>      -0.26666667       0.20000000       0.00000000 </v>
   <v>      -0.20000000       0.20000000       0.00000000 </v>
   <v>       0.26666667       0.26666667       0.00000000 </v>
   <v>       0.33333333       0.26666667       0.00000000 </v>
   <v>       0.40000000       0.26666667       0.00000000 </v>
   <v>       0.46666667       0.26666667       0.00000000 </v>
   <v>      -0.46666667       0.26666667       0.00000000 </v>
   <v>      -0.40000000       0.26666667       0.00000000 </v>
   <v>      -0.33333333       0.26666667       0.00000000 </v>
   <v>      -0.26666667       0.26666667       0.00000000 </v>
   <v>       0.33333333       0.33333333       0.00000000 </v>
   <v>       0.40000000       0.33333333       0.00000000 </v>
   <v>       0.46666667       0.33333333       0.00000000 </v>
   <v>      -0.46666667       0.33333333       0.00000000 </v>
   <v>      -0.40000000       0.33333333       0.00000000 </v>
   <v>      -0.33333333       0.33333333       0.00000000 </v>
   <v>       0.40000000       0.40000000       0.00000000 </v>
   <v>       0.46666667       0.40000000       0.00000000 </v>
   <v>      -0.46666667       0.40000000       0.00000000 </v>
   <v>      -0.40000000       0.40000000       0.00000000 </v>
   <v>       0.46666667       0.46666667       0.00000000 </v>
   <v>      -0.46666667       0.46666667       0.00000000 </v>
   <v>       0.20000000       0.13333333       0.06666667 </v>
   <v>       0.26666667       0.13333333       0.06666667 </v>
   <v>       0.33333333       0.13333333       0.06666667 </v>
   <v>       0.40000000       0.13333333       0.06666667 </v>
   <v>       0.46666667       0.13333333       0.06666667 </v>
   <v>      -0.46666667       0.13333333       0.06666667 </v>
   <v>       0.26666667       0.20000000       0.06666667 </v>
   <v>       0.33333333       0.20000000       0.06666667 </v>
   <v>       0.40000000       0.20000000       0.06666667 </v>
   <v>       0.46666667       0.20000000       0.06666667 </v>
   <v>      -0.46666667       0.20000000       0.06666667 </v>
   <v>      -0.40000000       0.20000000       0.06666667 </v>
   <v>      -0.33333333       0.20000000       0.06666667 </v>
   <v>      -0.26666667       0.20000000       0.06666667 </v>
   <v>      -0.20000000       0.20000000       0.06666667 </v>
   <v>      -0.13333333       0.20000000       0.06666667 </v>
   <v>       0.33333333       0.26666667       0.06666667 </v>
   <v>       0.40000000       0.26666667       0.06666667 </v>
   <v>       0.46666667       0.26666667       0.06666667 </v>
   <v>      -0.46666667       0.26666667       0.06666667 </v>
   <v>      -0.40000000       0.26666667       0.06666667 </v>
   <v>      -0.33333333       0.26666667       0.06666667 </v>
   <v>      -0.26666667       0.26666667       0.06666667 </v>
   <v>      -0.20000000       0.26666667       0.06666667 </v>
   <v>       0.40000000       0.33333333       0.06666667 </v>
   <v>       0.46666667       0.33333333       0.06666667 </v>
   <v>      -0.46666667       0.33333333       0.06666667 </v>
   <v>      -0.40000000       0.33333333       0.06666667 </v>
   <v>      -0.33333333       0.33333333       0.06666667 </v>
   <v>      -0.26666667       0.33333333       0.06666667 </v>
   <v>       0.46666667       0.40000000       0.06666667 </v>
   <v>      -0.46666667       0.40000000       0.06666667 </v>
   <v>      -0.40000000       0.40000000       0.06666667 </v>
   <v>      -0.33333333       0.40000000       0.06666667 </v>
   <v>      -0.46666667       0.46666667       0.06666667 </v>
   <v>      -0.40000000       0.46666667       0.06666667 </v>
   <v>       0.40000000       0.26666667       0.13333333 </v>
   <v>       0.46666667       0.26666667       0.13333333 </v>
   <v>      -0.46666667       0.26666667       0.13333333 </v>
   <v>      -0.40000000       0.26666667       0.13333333 </v>
   <v>       0.46666667       0.33333333       0.13333333 </v>
   <v>      -0.46666667       0.33333333       0.13333333 </v>
   <v>      -0.40000000       0.33333333       0.13333333 </v>
   <v>      -0.33333333       0.33333333       0.13333333 </v>
   <v>      -0.26666667       0.33333333       0.13333333 </v>
   <v>      -0.20000000       0.33333333       0.13333333 </v>
   <v>      -0.46666667       0.40000000       0.13333333 </v>
   <v>      -0.40000000       0.40000000       0.13333333 </v>
   <v>      -0.33333333       0.40000000       0.13333333 </v>
   <v>      -0.26666667       0.40000000       0.13333333 </v>
   <v>      -0.40000000       0.46666667       0.13333333 </v>
   <v>      -0.33333333       0.46666667       0.13333333 </v>
   <v>      -0.40000000       0.40000000       0.20000000 </v>
   <v>      -0.33333333       0.40000000       0.20000000 </v>
   <v>      -0.33333333       0.46666667       0.20000000 </v>
   <v>      -0.26666667       0.46666667       0.20000000 </v>
  </varray>
  <varray name="weights" >
   <v>       0.00029630 </v>
   <v>       0.00237037 </v>
   <v>       0.00237037 </v>
   <v>       0.00237037 </v>
   <v>       0.00237037 </v>
   <v>       0.00237037 </v>
   <v>       0.00237037 </v>
   <v>       0.00237037 </v>
   <v>       0.00177778 </v>
   <v>       0.00711111 </v>
   <v>       0.00711111 </v>
   <v>       0.00711111 </v>
   <v>       0.00711111 </v>
   <v>       0.00711111 </v>
   <v>       0.00711111 </v>
   <v>       0.00711111 </v>
   <v>       0.00711111 </v>
   <v>       0.00711111 </v>
   <v>       0.00711111 </v>
   <v>       0.00711111 </v>
   <v>       0.00711111 </v>
   <v>       0.00355556 </v>
   <v>       0.00177778 </v>
   <v>       0.00711111 </v>
   <v>       0.00711111 </v>
   <v>       0.00711111 </v>
   <v>       0.00711111 </v>
   <v>       0.00711111 </v>
   <v>       0.00711111 </v>
   <v>       0.00711111 </v>
   <v>       0.00711111 </v>
   <v>       0.00711111 </v>
   <v>       0.00711111 </v>
   <v>       0.00355556 </v>
   <v>       0.00177778 </v>
   <v>       0.00711111 </v>
   <v>       0.00711111 </v>
   <v>       0.00711111 </v>
   <v>       0.00711111 </v>
   <v>       0.00711111 </v>
   <v>       0.00711111 </v>
   <v>       0.00711111 </v>
   <v>       0.00711111 </v>
   <v>       0.00355556 </v>
   <v>       0.00177778 </v>
   <v>       0.00711111 </v>
   <v>       0.00711111 </v>
   <v>       0.00711111 </v>
   <v>       0.00711111 </v>
   <v>       0.00711111 </v>
   <v>       0.00711111 </v>
   <v>       0.00355556 </v>
   <v>       0.00177778 </v>
   <v>       0.00711111 </v>
   <v>       0.00711111 </v>
   <v>       0.00711111 </v>
   <v>       0.00711111 </v>
   <v>       0.00355556 </v>
   <v>       0.00177778 </v>
   <v>       0.00711111 </v>
   <v>       0.00711111 </v>
   <v>       0.00355556 </v>
   <v>       0.00177778 </v>
   <v>       0.00355556 </v>
   <v>       0.00711111 </v>
   <v>       0.01422222 </v>
   <v>       0.01422222 </v>
   <v>       0.01422222 </v>
   <v>       0.01422222 </v>
   <v>       0.01422222 </v>
   <v>       0.00711111 </v>
   <v>       0.01422222 </v>
   <v>       0.01422222 </v>
   <v>       0.01422222 </v>
   <v>       0.01422222 </v>
   <v>       0.01422222 </v>
   <v>       0.01422222 </v>
   <v>       0.01422222 </v>
   <v>       0.01422222 </v>
   <v>       0.00711111 </v>
   <v>       0.00711111 </v>
   <v>       0.01422222 </v>
   <v>       0.01422222 </v>
   <v>       0.01422222 </v>
   <v>       0.01422222 </v>
   <v>       0.01422222 </v>
   <v>       0.01422222 </v>
   <v>       0.00711111 </v>
   <v>       0.00711111 </v>
   <v>       0.01422222 </v>
   <v>       0.01422222 </v>
   <v>       0.01422222 </v>
   <v>       0.01422222 </v>
   <v>       0.00711111 </v>
   <v>       0.00711111 </v>
   <v>       0.01422222 </v>
   <v>       0.01422222 </v>
   <v>       0.00711111 </v>
   <v>       0.00711111 </v>
   <v>       0.00711111 </v>
   <v>       0.00711111 </v>
   <v>       0.01422222 </v>
   <v>       0.01422222 </v>
   <v>       0.01422222 </v>
   <v>       0.00711111 </v>
   <v>       0.01422222 </v>
   <v>       0.01422222 </v>
   <v>       0.01422222 </v>
   <v>       0.01422222 </v>
   <v>       0.00711111 </v>
   <v>       0.00711111 </v>
   <v>       0.01422222 </v>
   <v>       0.01422222 </v>
   <v>       0.00711111 </v>
   <v>       0.00711111 </v>
   <v>       0.00711111 </v>
   <v>       0.00711111 </v>
   <v>       0.01422222 </v>
   <v>       0.00711111 </v>
   <v>       0.00711111 </v>
  </varray>
 </kpoints>
 <parameters>
  <separator name="general" >
   <i type="string" name="SYSTEM">unknown system</i>
   <i type="logical" name="LCOMPAT"> F  </i>
  </separator>
  <separator name="electronic" >
   <i type="string" name="PREC">accura</i>
   <i name="ENMAX">    700.00000000</i>
   <i name="ENAUG">    322.06900000</i>
   <i name="EDIFF">      0.00000100</i>
   <i type="int" name="IALGO">    38</i>
   <i type="int" name="IWAVPR">    11</i>
   <i type="int" name="NBANDS">     8</i>
   <i type="int" name="NBANDSLOW">    -1</i>
   <i type="int" name="NBANDSHIGH">    -1</i>
   <i name="NELECT">      4.00000000</i>
   <i type="int" name="TURBO">     0</i>
   <i type="int" name="IRESTART">     0</i>
   <i type="int" name="NREBOOT">     0</i>
   <i type="int" name="NMIN">     0</i>
   <i name="EREF">      0.00000000</i>
   <separator name="electronic smearing" >
    <i type="int" name="ISMEAR">     0</i>
    <i name="SIGMA">      0.05000000</i>
    <i name="KSPACING">      0.50000000</i>
    <i type="logical" name="KGAMMA"> T  </i>
    <i type="logical" name="KBLOWUP"> T  </i>
   </separator>
   <separator name="electronic projectors" >
    <i type="logical" name="LREAL"> F  </i>
    <v name="ROPT">      0.00000000</v>
    <i type="int" name="LMAXPAW">  -100</i>
    <i type="int" name="LMAXMIX">     2</i>
    <i type="logical" name="NLSPLINE"> F  </i>
   </separator>
   <separator name="electronic startup" >
    <i type="int" name="ISTART">     0</i>
    <i type="int" name="ICHARG">     2</i>
    <i type="int" name="INIWAV">     1</i>
   </separator>
   <separator name="electronic spin" >
    <i type="int" name="ISPIN">     1</i>
    <i type="logical" name="LNONCOLLINEAR"> F  </i>
    <v name="MAGMOM">      1.00000000</v>
    <i name="NUPDOWN">     -1.00000000</i>
    <i type="logical" name="LSORBIT"> F  </i>
    <v name="SAXIS">      0.00000000      0.00000000      1.00000000</v>
    <i type="logical" name="LSPIRAL"> F  </i>
    <v name="QSPIRAL">      0.00000000      0.00000000      0.00000000</v>
    <i type="logical" name="LZEROZ"> F  </i>
   </separator>
   <separator name="electronic exchange-correlation" >
    <i type="logical" name="LASPH"> T  </i>
    <i type="logical" name="LMETAGGA"> F  </i>
   </separator>
   <separator name="electronic convergence" >
    <i type="int" name="NELM">    90</i>
    <i type="int" name="NELMDL">    -5</i>
    <i type="int" name="NELMIN">     6</i>
    <i name="ENINI">    700.00000000</i>
    <separator name="electronic convergence detail" >
     <i type="logical" name="LDIAG"> T  </i>
     <i type="logical" name="LSUBROT"> F  </i>
     <i name="WEIMIN">      0.00100000</i>
     <i name="EBREAK">      0.00000003</i>
     <i name="DEPER">      0.30000000</i>
     <i type="int" name="NRMM">     4</i>
     <i name="TIME">      0.40000000</i>
    </separator>
   </separator>
   <separator name="electronic mixer" >
    <i name="AMIX">      0.40000000</i>
    <i name="BMIX">      1.00000000</i>
    <i name="AMIN">      0.10000000</i>
    <i name="AMIX_MAG">      1.60000000</i>
    <i name="BMIX_MAG">      1.00000000</i>
    <separator name="electronic mixer details" >
     <i type="int" name="IMIX">     4</i>
     <i type="logical" name="MIXFIRST"> F  </i>
     <i type="int" name="MAXMIX">   -45</i>
     <i name="WC">    100.00000000</i>
     <i type="int" name="INIMIX">     1</i>
     <i type="int" name="MIXPRE">     1</i>
     <i type="int" name="MREMOVE">     5</i>
    </separator>
   </separator>
   <separator name="electronic dipolcorrection" >
    <i type="logical" name="LDIPOL"> F  </i>
    <i type="logical" name="LMONO"> F  </i>
    <i type="int" name="IDIPOL">     0</i>
    <i name="EPSILON">      1.00000000</i>
    <v name="DIPOL">   -100.00000000   -100.00000000   -100.00000000</v>
    <i name="EFIELD">      0.00000000</i>
   </separator>
  </separator>
  <separator name="grids" >
   <i type="int" name="NGX">    24</i>
   <i type="int" name="NGY">    24</i>
   <i type="int" name="NGZ">    24</i>
   <i type="int" name="NGXF">    48</i>
   <i type="int" name="NGYF">    48</i>
   <i type="int" name="NGZF">    48</i>
   <i type="logical" name="ADDGRID"> T  </i>
  </separator>
  <separator name="ionic" >
   <i type="int" name="NSW">   100</i>
   <i type="int" name="IBRION">     2</i>
   <i type="int" name="MDALGO">     0</i>
   <i type="int" name="ISIF">     3</i>
   <i name="PSTRESS">      0.00000000</i>
   <i name="EDIFFG">     -0.00200000</i>
   <i type="int" name="NFREE">     1</i>
   <i name="POTIM">      0.50000000</i>
   <i name="SMASS">     -3.00000000</i>
   <i name="SCALEE">      1.00000000</i>
  </separator>
  <separator name="ionic md" >
   <i name="TEBEG">      0.00010000</i>
   <i name="TEEND">      0.00010000</i>
   <i type="int" name="NBLOCK">     1</i>
   <i type="int" name="KBLOCK">   100</i>
   <i type="int" name="NPACO">   256</i>
   <i name="APACO">     16.00000000</i>
  </separator>
  <separator name="symmetry" >
   <i type="int" name="ISYM">     2</i>
   <i name="SYMPREC">      0.00001000</i>
  </separator>
  <separator name="dos" >
   <i type="int" name="LORBIT">     0</i>
   <v name="RWIGS">     -1.00000000</v>
   <i type="int" name="NEDOS">   301</i>
   <i name="EMIN">     10.00000000</i>
   <i name="EMAX">    -10.00000000</i>
   <i name="EFERMI">      0.00000000</i>
  </separator>
  <separator name="writing" >
   <i type="int" name="NWRITE">     2</i>
   <i type="logical" name="LWAVE"> F  </i>
   <i type="logical" name="LDOWNSAMPLE"> F  </i>
   <i type="logical" name="LCHARG"> F  </i>
   <i type="logical" name="LPARD"> F  </i>
   <i type="logical" name="LVTOT"> F  </i>
   <i type="logical" name="LVHAR"> F  </i>
   <i type="logical" name="LELF"> F  </i>
   <i type="logical" name="LOPTICS"> F  </i>
   <v name="STM">      0.00000000      0.00000000      0.00000000      0.00000000      0.00000000      0.00000000      0.00000000</v>
  </separator>
  <separator name="performance" >
   <i type="int" name="NPAR">     4</i>
   <i type="int" name="NSIM">     4</i>
   <i type="int" name="NBLK">    -1</i>
   <i type="logical" name="LPLANE"> T  </i>
   <i type="logical" name="LSCALAPACK"> T  </i>
   <i type="logical" name="LSCAAWARE"> F  </i>
   <i type="logical" name="LSCALU"> F  </i>
   <i type="logical" name="LASYNC"> F  </i>
   <i type="logical" name="LORBITALREAL"> F  </i>
  </separator>
  <separator name="miscellaneous" >
   <i type="int" name="IDIOT">     3</i>
   <i type="int" name="PHON_NSTRUCT">    -1</i>
   <i type="logical" name="LMUSIC"> F  </i>
   <v name="POMASS">     28.08500000</v>
   <v name="DARWINR">      0.00000000</v>
   <v name="DARWINV">      1.00000000</v>
   <i type="logical" name="LCORR"> T  </i>
  </separator>
  <i type="logical" name="GGA_COMPAT"> T  </i>
  <i type="logical" name="LBERRY"> F  </i>
  <i type="int" name="ICORELEVEL">     0</i>
  <i type="logical" name="LDAU"> F  </i>
  <i type="int" name="I_CONSTRAINED_M">     0</i>
  <separator name="electronic exchange-correlation" >
   <i type="string" name="GGA">--</i>
   <i type="int" name="VOSKOWN">     0</i>
   <i type="logical" name="LHFCALC"> F  </i>
   <i type="string" name="PRECFOCK"></i>
   <i type="logical" name="LSYMGRAD"> F  </i>
   <i type="logical" name="LHFONE"> F  </i>
   <i type="logical" name="LRHFCALC"> F  </i>
   <i type="logical" name="LTHOMAS"> F  </i>
   <i type="logical" name="LMODELHF"> F  </i>
   <i type="logical" name="LFOCKACE"> F  </i>
   <i name="ENCUT4O">     -1.00000000</i>
   <i type="int" name="EXXOEP">     0</i>
   <i type="int" name="FOURORBIT">     0</i>
   <i name="AEXX">      0.00000000</i>
   <i name="HFALPHA">      0.00000000</i>
   <i name="MCALPHA">      0.00000000</i>
   <i name="ALDAX">      1.00000000</i>
   <i name="AGGAX">      1.00000000</i>
   <i name="ALDAC">      1.00000000</i>
   <i name="AGGAC">      1.00000000</i>
   <i type="int" name="NKREDX">     1</i>
   <i type="int" name="NKREDY">     1</i>
   <i type="int" name="NKREDZ">     1</i>
   <i type="logical" name="SHIFTRED"> F  </i>
   <i type="logical" name="ODDONLY"> F  </i>
   <i type="logical" name="EVENONLY"> F  </i>
   <i type="int" name="LMAXFOCK">     0</i>
   <i type="int" name="NMAXFOCKAE">     0</i>
   <i type="logical" name="LFOCKAEDFT"> F  </i>
   <i name="HFSCREEN">      0.00000000</i>
   <i name="HFSCREENC">      0.00000000</i>
   <i type="int" name="NBANDSGWLOW">     0</i>
  </separator>
  <separator name="vdW DFT" >
   <i type="logical" name="LUSE_VDW"> F  </i>
   <i name="Zab_VDW">     -0.84910000</i>
   <i name="PARAM1">      0.12340000</i>
   <i name="PARAM2">      1.00000000</i>
   <i name="PARAM3">      0.00000000</i>
  </separator>
  <separator name="model GW" >
   <i type="int" name="MODEL_GW">     0</i>
   <i name="MODEL_EPS0">      8.44895106</i>
   <i name="MODEL_ALPHA">      1.00000000</i>
  </separator>
  <separator name="linear response parameters" >
   <i type="logical" name="LEPSILON"> F  </i>
   <i type="logical" name="LRPA"> F  </i>
   <i type="logical" name="LNABLA"> F  </i>
   <i type="logical" name="LVEL"> F  </i>
   <i type="int" name="KINTER">     0</i>
   <i name="CSHIFT">      0.10000000</i>
   <i name="OMEGAMAX">     -1.00000000</i>
   <i name="DEG_THRESHOLD">      0.00200000</i>
   <i name="RTIME">     -0.10000000</i>
   <i name="WPLASMAI">      0.00000000</i>
   <v name="DFIELD">      0.00000000      0.00000000      0.00000000</v>
   <v name="WPLASMA">      0.00000000      0.00000000      0.00000000      0.00000000      0.00000000      0.00000000      0.00000000      0.00000000      0.00000000</v>
  </separator>
  <separator name="orbital magnetization" >
   <i type="logical" name="NUCIND"> F  </i>
   <v name="MAGPOS">      0.00000000      0.00000000      0.00000000</v>
   <i type="logical" name="LNICSALL"> T  </i>
   <i type="logical" name="ORBITALMAG"> F  </i>
   <i type="logical" name="LMAGBLOCH"> F  </i>
   <i type="logical" name="LCHIMAG"> F  </i>
   <i type="logical" name="LGAUGE"> T  </i>
   <i type="int" name="MAGATOM">     0</i>
   <v name="MAGDIPOL">      0.00000000      0.00000000      0.00000000</v>
   <v name="AVECCONST">      0.00000000      0.00000000      0.00000000</v>
  </separator>
  <separator name="response functions" >
   <i type="logical" name="LFINITE_TEMPERATURE"> F  </i>
   <i type="logical" name="LADDER"> F  </i>
   <i type="logical" name="LRPAFORCE"> F  </i>
   <i type="logical" name="LFXC"> F  </i>
   <i type="logical" name="LHARTREE"> T  </i>
   <i type="int" name="IBSE">     0</i>
   <v type="int" name="KPOINT">    -1     0     0     0</v>
   <i type="logical" name="LTCTC"> F  </i>
   <i type="logical" name="LTCTE"> F  </i>
   <i type="logical" name="LTETE"> F  </i>
   <i type="logical" name="LTRIPLET"> F  </i>
   <i type="logical" name="LFXCEPS"> F  </i>
   <i type="logical" name="LFXHEG"> F  </i>
   <i type="int" name="NATURALO">     2</i>
   <i type="logical" name="LHOLEGF"> F  </i>
   <i type="logical" name="L2ORDER"> F  </i>
   <i type="logical" name="LDMP1"> F  </i>
   <i type="logical" name="LMP2LT"> F  </i>
   <i type="logical" name="LSMP2LT"> F  </i>
   <i type="logical" name="LGWLF"> F  </i>
   <i name="ENCUTGW">     -2.00000000</i>
   <i name="ENCUTGWSOFT">     -2.00000000</i>
   <i name="ENCUTLF">     -1.00000000</i>
   <i type="logical" name="LESF_SPLINES"> F  </i>
   <i type="int" name="LMAXMP2">    -1</i>
   <i name="SCISSOR">      0.00000000</i>
   <i type="int" name="NOMEGA">     0</i>
   <i type="int" name="NOMEGAR">     0</i>
   <i type="int" name="NBANDSGW">    -1</i>
   <i type="int" name="NBANDSO">    -1</i>
   <i type="int" name="NBANDSV">    -1</i>
   <i type="int" name="NELM">    90</i>
   <i type="int" name="NELMHF">     1</i>
   <i type="int" name="DIM">     3</i>
   <i type="int" name="IESPILON">     4</i>
   <i type="int" name="ANTIRES">     0</i>
   <i name="OMEGAMAX">    -30.00000000</i>
   <i name="OMEGAMIN">    -30.00000000</i>
   <i name="OMEGATL">   -200.00000000</i>
   <i type="int" name="OMEGAGRID">     0</i>
   <i name="CSHIFT">     -0.10000000</i>
   <i type="logical" name="LSELFENERGY"> F  </i>
   <i type="logical" name="LSPECTRAL"> F  </i>
   <i type="logical" name="LSPECTRALGW"> F  </i>
   <i type="logical" name="LSINGLES"> F  </i>
   <i type="logical" name="LFERMIGW"> F  </i>
   <i type="logical" name="ODDONLYGW"> F  </i>
   <i type="logical" name="EVENONLYGW"> F  </i>
   <i type="int" name="NKREDLFX">     1</i>
   <i type="int" name="NKREDLFY">     1</i>
   <i type="int" name="NKREDLFZ">     1</i>
   <i type="int" name="MAXMEM">  2800</i>
   <i type="int" name="TELESCOPE">     0</i>
   <i type="int" name="NTAUPAR">    -1</i>
   <i type="int" name="NOMEGAPAR">    -1</i>
   <i name="DAMP_NEWTON">      0.80000001</i>
   <i name="LAMBDA">      1.00000000</i>
  </separator>
  <separator name="External order field" >
   <i name="OFIELD_KAPPA">      0.00000000</i>
   <v name="OFIELD_K">      0.00000000      0.00000000      0.00000000</v>
   <i name="OFIELD_Q6_NEAR">      0.00000000</i>
   <i name="OFIELD_Q6_FAR">      0.00000000</i>
   <i name="OFIELD_A">      0.00000000</i>
  </separator>
 </parameters>
 <atominfo>
  <atoms>       1 </atoms>
  <types>       1 </types>
  <array name="atoms" >
   <dimension dim="1">ion</dimension>
   <field type="string">element</field>
   <field type="int">atomtype</field>
   <set>
    <rc><c>Si</c><c>   1</c></rc>
   </set>
  </array>
  <array name="atomtypes" >
   <dimension dim="1">type</dimension>
   <field type="int">atomspertype</field>
   <field type="string">element</field>
   <field>mass</field>
   <field>valence</field>
   <field type="string">pseudopotential</field>
   <set>
    <rc><c>   1</c><c>Si</c><c>     28.08500000</c><c>      4.00000000</c><c>  PAW_PBE Si 05Jan2001                  </c></rc>
   </set>
  </array>
 </atominfo>
 <structure name="initialpos" >
  <crystal>
   <varray name="basis" >
    <v>       2.34739500       0.00000000       1.35526800 </v>
    <v>       0.78246500       2.21314500       1.35526800 </v>
    <v>       0.00000000       0.00000000       2.71053800 </v>
   </varray>
   <i name="volume">     14.08158510 </i>
   <varray name="rec_basis" >
    <v>       0.42600415      -0.15061523       0.00000000 </v>
    <v>       0.00000000       0.45184568       0.00000000 </v>
    <v>      -0.21300192      -0.15061511       0.36893045 </v>
   </varray>
  </crystal>
  <varray name="positions" >
   <v>       0.00000000       0.00000000       0.00000000 </v>
  </varray>
 </structure>
 <calculation>
  <scstep>
   <time name="dav">    0.98    0.99</time>
   <time name="total">    1.21    1.21</time>
   <energy>
    <i name="alphaZ">      2.39057823 </i>
    <i name="ewald">   -137.78496289 </i>
    <i name="hartreedc">     -0.54229904 </i>
    <i name="XCdc">     -8.73348016 </i>
    <i name="pawpsdc">     88.12379961 </i>
    <i name="pawaedc">    -70.53051779 </i>
    <i name="eentropy">     -0.00030668 </i>
    <i name="bandstr">     22.24533546 </i>
    <i name="atom">    103.06662367 </i>
    <i name="e_fr_energy">     -1.76522959 </i>
    <i name="e_wo_entrp">     -1.76492291 </i>
    <i name="e_0_energy">     -1.76507625 </i>
   </energy>
  </scstep>
  <scstep>
   <time name="dav">    1.32    1.34</time>
   <time name="total">    1.32    1.34</time>
   <energy>
    <i name="e_fr_energy">     -4.88676876 </i>
    <i name="e_wo_entrp">     -4.88601004 </i>
    <i name="e_0_energy">     -4.88638940 </i>
   </energy>
  </scstep>
  <scstep>
   <time name="dav">    1.08    1.10</time>
   <time name="total">    1.09    1.11</time>
   <energy>
    <i name="e_fr_energy">     -4.90315157 </i>
    <i name="e_wo_entrp">     -4.90241063 </i>
    <i name="e_0_energy">     -4.90278110 </i>
   </energy>
  </scstep>
  <scstep>
   <time name="dav">    1.48    1.50</time>
   <time name="total">    1.48    1.50</time>
   <energy>
    <i name="e_fr_energy">     -4.90316720 </i>
    <i name="e_wo_entrp">     -4.90242628 </i>
    <i name="e_0_energy">     -4.90279674 </i>
   </energy>
  </scstep>
  <scstep>
   <time name="dav">    1.09    1.11</time>
   <time name="total">    1.18    1.20</time>
   <energy>
    <i name="e_fr_energy">     -4.90316721 </i>
    <i name="e_wo_entrp">     -4.90242629 </i>
    <i name="e_0_energy">     -4.90279675 </i>
   </energy>
  </scstep>
  <scstep>
   <time name="dav">    1.13    1.13</time>
   <time name="total">    1.42    1.44</time>
   <energy>
    <i name="e_fr_energy">     -4.88957003 </i>
    <i name="e_wo_entrp">     -4.88880744 </i>
    <i name="e_0_energy">     -4.88918873 </i>
   </energy>
  </scstep>
  <scstep>
   <time name="dav">    1.09    1.09</time>
   <time name="total">    1.38    1.40</time>
   <energy>
    <i name="e_fr_energy">     -4.88176804 </i>
    <i name="e_wo_entrp">     -4.88097888 </i>
    <i name="e_0_energy">     -4.88137346 </i>
   </energy>
  </scstep>
  <scstep>
   <time name="dav">    1.45    1.45</time>
   <time name="total">    1.75    1.77</time>
   <energy>
    <i name="e_fr_energy">     -4.88172886 </i>
    <i name="e_wo_entrp">     -4.88093985 </i>
    <i name="e_0_energy">     -4.88133435 </i>
   </energy>
  </scstep>
  <scstep>
   <time name="dav">    1.14    1.15</time>
   <time name="total">    1.35    1.37</time>
   <energy>
    <i name="alphaZ">      2.39057823 </i>
    <i name="ewald">   -137.78496289 </i>
    <i name="hartreedc">     -0.40761743 </i>
    <i name="XCdc">     -8.67316428 </i>
    <i name="pawpsdc">    315.39584082 </i>
    <i name="pawaedc">   -297.81409396 </i>
    <i name="eentropy">     -0.00078906 </i>
    <i name="bandstr">     18.94585573 </i>
    <i name="atom">    103.06662367 </i>
    <i name="e_fr_energy">     -4.88172918 </i>
    <i name="e_wo_entrp">     -4.88094012 </i>
    <i name="e_0_energy">     -4.88133465 </i>
   </energy>
  </scstep>
  <structure>
   <crystal>
    <varray name="basis" >
     <v>       2.34739500       0.00000000       1.35526800 </v>
     <v>       0.78246500       2.21314500       1.35526800 </v>
     <v>       0.00000000       0.00000000       2.71053800 </v>
    </varray>
    <i name="volume">     14.08158510 </i>
    <varray name="rec_basis" >
     <v>       0.42600415      -0.15061523       0.00000000 </v>
     <v>       0.00000000       0.45184568       0.00000000 </v>
     <v>      -0.21300192      -0.15061511       0.36893045 </v>
    </varray>
   </crystal>
   <varray name="positions" >
    <v>       0.00000000       0.00000000       0.00000000 </v>
   </varray>
  </structure>
  <varray name="forces" >
   <v>       0.00000000       0.00000000       0.00000000 </v>
  </varray>
  <varray name="stress" >
   <v>      21.84360805      -0.00000000      -0.00000931 </v>
   <v>       0.00000000      21.84360351      -0.00000658 </v>
   <v>      -0.00000931      -0.00000658      21.84360369 </v>
  </varray>
  <energy>
   <i name="e_fr_energy">     -4.88172918 </i>
   <i name="e_wo_entrp">     -4.88094012 </i>
   <i name="e_0_energy">     -4.88133465 </i>
  </energy>
  <time name="totalsc">   14.02   14.33</time>
 </calculation>
 <calculation>
  <scstep>
   <time name="dav">    1.00    1.00</time>
   <time name="total">    1.29    1.30</time>
   <energy>
    <i name="alphaZ">      2.32536656 </i>
    <i name="ewald">   -136.52053389 </i>
    <i name="hartreedc">     -0.40380844 </i>
    <i name="XCdc">     -8.74533127 </i>
    <i name="pawpsdc">    315.41730772 </i>
    <i name="pawaedc">   -297.83527230 </i>
    <i name="eentropy">     -0.00080243 </i>
    <i name="bandstr">     17.81088469 </i>
    <i name="atom">    103.06662367 </i>
    <i name="e_fr_energy">     -4.88556568 </i>
    <i name="e_wo_entrp">     -4.88476325 </i>
    <i name="e_0_energy">     -4.88516447 </i>
   </energy>
  </scstep>
  <scstep>
   <time name="dav">    1.25    1.26</time>
   <time name="total">    1.55    1.57</time>
   <energy>
    <i name="e_fr_energy">     -4.88465311 </i>
    <i name="e_wo_entrp">     -4.88384140 </i>
    <i name="e_0_energy">     -4.88424726 </i>
   </energy>
  </scstep>
  <scstep>
   <time name="dav">    1.01    1.01</time>
   <time name="total">    1.30    1.32</time>
   <energy>
    <i name="e_fr_energy">     -4.88411778 </i>
    <i name="e_wo_entrp">     -4.88329372 </i>
    <i name="e_0_energy">     -4.88370575 </i>
   </energy>
  </scstep>
  <scstep>
   <time name="dav">    1.35    1.35</time>
   <time name="total">    1.64    1.66</time>
   <energy>
    <i name="e_fr_energy">     -4.88411701 </i>
    <i name="e_wo_entrp">     -4.88329301 </i>
    <i name="e_0_energy">     -4.88370501 </i>
   </energy>
  </scstep>
  <scstep>
   <time name="dav">    0.84    0.84</time>
   <time name="total">    1.13    1.15</time>
   <energy>
    <i name="e_fr_energy">     -4.88411353 </i>
    <i name="e_wo_entrp">     -4.88328966 </i>
    <i name="e_0_energy">     -4.88370159 </i>
   </energy>
  </scstep>
  <scstep>
   <time name="dav">    0.67    0.68</time>
   <time name="total">    0.88    0.90</time>
   <energy>
    <i name="alphaZ">      2.32536656 </i>
    <i name="ewald">   -136.52053389 </i>
    <i name="hartreedc">     -0.44825431 </i>
    <i name="XCdc">     -8.75474673 </i>
    <i name="pawpsdc">    296.66636061 </i>
    <i name="pawaedc">   -279.07957002 </i>
    <i name="eentropy">     -0.00082391 </i>
    <i name="bandstr">     17.86146424 </i>
    <i name="atom">    103.06662367 </i>
    <i name="e_fr_energy">     -4.88411378 </i>
    <i name="e_wo_entrp">     -4.88328988 </i>
    <i name="e_0_energy">     -4.88370183 </i>
   </energy>
  </scstep>
  <structure>
   <crystal>
    <varray name="basis" >
     <v>       2.36913615      -0.00000000       1.36782024 </v>
     <v>       0.78971205       2.23364275       1.36782024 </v>
     <v>      -0.00000001      -0.00000001       2.73564252 </v>
    </varray>
    <i name="volume">     14.47648354 </i>
    <varray name="rec_basis" >
     <v>       0.42209478      -0.14923306       0.00000000 </v>
     <v>       0.00000000       0.44769917       0.00000000 </v>
     <v>      -0.21104723      -0.14923294       0.36554484 </v>
    </varray>
   </crystal>
   <varray name="positions" >
    <v>       0.00000000       0.00000000       0.00000000 </v>
   </varray>
  </structure>
  <varray name="forces" >
   <v>       0.00000000      -0.00000000       0.00000000 </v>
  </varray>
  <varray name="stress" >
   <v>      -1.90623143       0.00000000       0.00000083 </v>
   <v>       0.00000000      -1.90623102       0.00000058 </v>
   <v>       0.00000083       0.00000058      -1.90623104 </v>
  </varray>
  <energy>
   <i name="e_fr_energy">     -4.88411378 </i>
   <i name="e_wo_entrp">     -4.88328988 </i>
   <i name="e_0_energy">     -4.88370183 </i>
  </energy>
  <time name="totalsc">    9.61    9.86</time>
 </calculation>
 <calculation>
  <scstep>
   <time name="dav">    1.01    1.01</time>
   <time name="total">    1.30    1.31</time>
   <energy>
    <i name="alphaZ">      2.33087027 </i>
    <i name="ewald">   -136.62815524 </i>
    <i name="hartreedc">     -0.44860278 </i>
    <i name="XCdc">     -8.74865171 </i>
    <i name="pawpsdc">    296.53397193 </i>
    <i name="pawaedc">   -278.94718555 </i>
    <i name="eentropy">     -0.00082898 </i>
    <i name="bandstr">     17.95781366 </i>
    <i name="atom">    103.06662367 </i>
    <i name="e_fr_energy">     -4.88414472 </i>
    <i name="e_wo_entrp">     -4.88331574 </i>
    <i name="e_0_energy">     -4.88373023 </i>
   </energy>
  </scstep>
  <scstep>
   <time name="dav">    1.25    1.25</time>
   <time name="total">    1.55    1.56</time>
   <energy>
    <i name="e_fr_energy">     -4.88413800 </i>
    <i name="e_wo_entrp">     -4.88330967 </i>
    <i name="e_0_energy">     -4.88372383 </i>
   </energy>
  </scstep>
  <scstep>
   <time name="dav">    1.01    1.01</time>
   <time name="total">    1.30    1.32</time>
   <energy>
    <i name="e_fr_energy">     -4.88413427 </i>
    <i name="e_wo_entrp">     -4.88330686 </i>
    <i name="e_0_energy">     -4.88372057 </i>
   </energy>
  </scstep>
  <scstep>
   <time name="dav">    0.64    0.64</time>
   <time name="total">    0.93    0.95</time>
   <energy>
    <i name="e_fr_energy">     -4.88413430 </i>
    <i name="e_wo_entrp">     -4.88330688 </i>
    <i name="e_0_energy">     -4.88372059 </i>
   </energy>
  </scstep>
  <scstep>
   <time name="dav">    0.63    0.63</time>
   <time name="total">    0.93    0.93</time>
   <energy>
    <i name="e_fr_energy">     -4.88413447 </i>
    <i name="e_wo_entrp">     -4.88330704 </i>
    <i name="e_0_energy">     -4.88372076 </i>
   </energy>
  </scstep>
  <scstep>
   <time name="dav">    0.64    0.64</time>
   <time name="total">    0.85    0.87</time>
   <energy>
    <i name="alphaZ">      2.33087027 </i>
    <i name="ewald">   -136.62815524 </i>
    <i name="hartreedc">     -0.44457993 </i>
    <i name="XCdc">     -8.74784175 </i>
    <i name="pawpsdc">    297.98272097 </i>
    <i name="pawaedc">   -280.39633058 </i>
    <i name="eentropy">     -0.00082743 </i>
    <i name="bandstr">     17.95338556 </i>
    <i name="atom">    103.06662367 </i>
    <i name="e_fr_energy">     -4.88413445 </i>
    <i name="e_wo_entrp">     -4.88330702 </i>
    <i name="e_0_energy">     -4.88372074 </i>
   </energy>
  </scstep>
  <structure>
   <crystal>
    <varray name="basis" >
     <v>       2.36727000      -0.00000000       1.36674282 </v>
     <v>       0.78909000       2.23188332       1.36674282 </v>
     <v>      -0.00000001      -0.00000001       2.73348767 </v>
    </varray>
    <i name="volume">     14.44230131 </i>
    <varray name="rec_basis" >
     <v>       0.42242752      -0.14935070       0.00000000 </v>
     <v>       0.00000000       0.44805210       0.00000000 </v>
     <v>      -0.21121360      -0.14935059       0.36583300 </v>
    </varray>
   </crystal>
   <varray name="positions" >
    <v>      -0.00000000      -0.00000000       0.00000000 </v>
   </varray>
  </structure>
  <varray name="forces" >
   <v>       0.00000000       0.00000000       0.00000000 </v>
  </varray>
  <varray name="stress" >
   <v>       0.01844375      -0.00000000      -0.00000001 </v>
   <v>       0.00000000       0.01844375      -0.00000001 </v>
   <v>      -0.00000001      -0.00000001       0.01844375 </v>
  </varray>
  <energy>
   <i name="e_fr_energy">     -4.88413445 </i>
   <i name="e_wo_entrp">     -4.88330702 </i>
   <i name="e_0_energy">     -4.88372074 </i>
  </energy>
  <time name="totalsc">    8.55    8.78</time>
  <eigenvalues>
   <array>
    <dimension dim="1">band</dimension>
    <dimension dim="2">kpoint</dimension>
    <dimension dim="3">spin</dimension>
    <field>eigene</field>
    <field>occ</field>
    <set>
     <set comment="spin 1">
      <set comment="kpoint 1">
       <r>   -4.2760    1.0000 </r>
       <r>   21.3576    0.0000 </r>
       <r>   21.3576    0.0000 </r>
       <r>   21.3577    0.0000 </r>
       <r>   22.1314    0.0000 </r>
       <r>   22.1314    0.0000 </r>
       <r>   22.1314    0.0000 </r>
       <r>   27.4726    0.0000 </r>
      </set>
      <set comment="kpoint 2">
       <r>   -4.1464    1.0000 </r>
       <r>   19.2035    0.0000 </r>
       <r>   20.6847    0.0000 </r>
       <r>   20.6847    0.0000 </r>
       <r>   22.9632    0.0000 </r>
       <r>   22.9633    0.0000 </r>
       <r>   23.1832    0.0000 </r>
       <r>   28.3553    0.0000 </r>
      </set>
      <set comment="kpoint 3">
       <r>   -3.7580    1.0000 </r>
       <r>   16.3743    0.0000 </r>
       <r>   19.9223    0.0000 </r>
       <r>   19.9223    0.0000 </r>
       <r>   23.4698    0.0000 </r>
       <r>   24.0562    0.0000 </r>
       <r>   24.0562    0.0000 </r>
       <r>   27.3248    0.0000 </r>
      </set>
      <set comment="kpoint 4">
       <r>   -3.1125    1.0000 </r>
       <r>   13.5447    0.0000 </r>
       <r>   19.3453    0.0000 </r>
       <r>   19.3453    0.0000 </r>
       <r>   23.3999    0.0000 </r>
       <r>   24.2785    0.0000 </r>
       <r>   24.2785    0.0000 </r>
       <r>   27.3032    0.0000 </r>
      </set>
      <set comment="kpoint 5">
       <r>   -2.2125    1.0000 </r>
       <r>   10.8420    0.0000 </r>
       <r>   18.9663    0.0000 </r>
       <r>   18.9663    0.0000 </r>
       <r>   23.3030    0.0000 </r>
       <r>   23.3868    0.0000 </r>
       <r>   23.3868    0.0000 </r>
       <r>   28.6993    0.0000 </r>
      </set>
      <set comment="kpoint 6">
       <r>   -1.0621    1.0000 </r>
       <r>    8.3176    1.0000 </r>
       <r>   18.7741    0.0000 </r>
       <r>   18.7742    0.0000 </r>
       <r>   22.3805    0.0000 </r>
       <r>   22.3805    0.0000 </r>
       <r>   23.2901    0.0000 </r>
       <r>   27.5352    0.0000 </r>
      </set>
      <set comment="kpoint 7">
       <r>    0.3315    1.0000 </r>
       <r>    5.9998    1.0000 </r>
       <r>   18.7332    0.0000 </r>
       <r>   18.7332    0.0000 </r>
       <r>   21.5755    0.0000 </r>
       <r>   21.5755    0.0000 </r>
       <r>   23.3762    0.0000 </r>
       <r>   26.6148    0.0000 </r>
      </set>
      <set comment="kpoint 8">
       <r>    1.9388    1.0000 </r>
       <r>    3.9284    1.0000 </r>
       <r>   18.7646    0.0000 </r>
       <r>   18.7646    0.0000 </r>
       <r>   21.1124    0.0000 </r>
       <r>   21.1124    0.0000 </r>
       <r>   23.4876    0.0000 </r>
       <r>   26.0734    0.0000 </r>
      </set>
      <set comment="kpoint 9">
       <r>   -4.1032    1.0000 </r>
       <r>   19.6809    0.0000 </r>
       <r>   19.6809    0.0000 </r>
       <r>   20.9548    0.0000 </r>
       <r>   21.2135    0.0000 </r>
       <r>   24.0245    0.0000 </r>
       <r>   24.0245    0.0000 </r>
       <r>   27.2359    0.0000 </r>
      </set>
      <set comment="kpoint 10">
       <r>   -3.8011    1.0000 </r>
       <r>   17.3817    0.0000 </r>
       <r>   18.8397    0.0000 </r>
       <r>   20.3940    0.0000 </r>
       <r>   21.7591    0.0000 </r>
       <r>   24.7426    0.0000 </r>
       <r>   25.1734    0.0000 </r>
       <r>   25.7672    0.0000 </r>
      </set>
      <set comment="kpoint 11">
       <r>   -3.2413    1.0000 </r>
       <r>   14.5672    0.0000 </r>
       <r>   18.2036    0.0000 </r>
       <r>   19.7621    0.0000 </r>
       <r>   22.4478    0.0000 </r>
       <r>   24.5407    0.0000 </r>
       <r>   25.2958    0.0000 </r>
       <r>   25.7855    0.0000 </r>
      </set>
      <set comment="kpoint 12">
       <r>   -2.4262    1.0000 </r>
       <r>   11.8250    0.0000 </r>
       <r>   17.7822    0.0000 </r>
       <r>   19.2512    0.0000 </r>
       <r>   21.8831    0.0000 </r>
       <r>   24.3784    0.0000 </r>
       <r>   25.1316    0.0000 </r>
       <r>   26.3284    0.0000 </r>
      </set>
      <set comment="kpoint 13">
       <r>   -1.3593    1.0000 </r>
       <r>    9.2422    1.0000 </r>
       <r>   17.5765    0.0000 </r>
       <r>   18.8166    0.0000 </r>
       <r>   21.0117    0.0000 </r>
       <r>   24.0959    0.0000 </r>
       <r>   24.3544    0.0000 </r>
       <r>   27.9233    0.0000 </r>
      </set>
      <set comment="kpoint 14">
       <r>   -0.0462    1.0000 </r>
       <r>    6.8556    1.0000 </r>
       <r>   17.5828    0.0000 </r>
       <r>   18.3442    0.0000 </r>
       <r>   20.4922    0.0000 </r>
       <r>   23.1383    0.0000 </r>
       <r>   24.3727    0.0000 </r>
       <r>   27.8330    0.0000 </r>
      </set>
      <set comment="kpoint 15">
       <r>    1.4983    1.0000 </r>
       <r>    4.6939    1.0000 </r>
       <r>   17.7914    0.0000 </r>
       <r>   17.8055    0.0000 </r>
       <r>   20.4529    0.0000 </r>
       <r>   22.3721    0.0000 </r>
       <r>   24.3964    0.0000 </r>
       <r>   27.2943    0.0000 </r>
      </set>
      <set comment="kpoint 16">
       <r>    2.5685    1.0000 </r>
       <r>    3.4690    1.0000 </r>
       <r>   17.3168    0.0000 </r>
       <r>   18.1813    0.0000 </r>
       <r>   20.8026    0.0000 </r>
       <r>   21.8495    0.0000 </r>
       <r>   24.3340    0.0000 </r>
       <r>   27.2059    0.0000 </r>
      </set>
      <set comment="kpoint 17">
       <r>    0.9600    1.0000 </r>
       <r>    5.3866    1.0000 </r>
       <r>   16.9752    0.0000 </r>
       <r>   18.7082    0.0000 </r>
       <r>   21.4480    0.0000 </r>
       <r>   21.6230    0.0000 </r>
       <r>   24.1848    0.0000 </r>
       <r>   27.6010    0.0000 </r>
      </set>
      <set comment="kpoint 18">
       <r>   -0.5107    1.0000 </r>
       <r>    7.6274    1.0000 </r>
       <r>   16.8249    0.0000 </r>
       <r>   19.2901    0.0000 </r>
       <r>   21.7675    0.0000 </r>
       <r>   22.3353    0.0000 </r>
       <r>   24.0519    0.0000 </r>
       <r>   28.3318    0.0000 </r>
      </set>
      <set comment="kpoint 19">
       <r>   -1.7426    1.0000 </r>
       <r>   10.0820    0.9942 </r>
       <r>   16.8844    0.0000 </r>
       <r>   19.8432    0.0000 </r>
       <r>   22.3315    0.0000 </r>
       <r>   23.4130    0.0000 </r>
       <r>   24.0007    0.0000 </r>
       <r>   27.9836    0.0000 </r>
      </set>
      <set comment="kpoint 20">
       <r>   -2.7261    1.0000 </r>
       <r>   12.7221    0.0000 </r>
       <r>   17.1609    0.0000 </r>
       <r>   20.3825    0.0000 </r>
       <r>   23.1374    0.0000 </r>
       <r>   24.0125    0.0000 </r>
       <r>   24.5601    0.0000 </r>
       <r>   26.3084    0.0000 </r>
      </set>
      <set comment="kpoint 21">
       <r>   -3.4565    1.0000 </r>
       <r>   15.5005    0.0000 </r>
       <r>   17.6564    0.0000 </r>
       <r>   20.9760    0.0000 </r>
       <r>   23.2451    0.0000 </r>
       <r>   23.9663    0.0000 </r>
       <r>   25.1804    0.0000 </r>
       <r>   25.8740    0.0000 </r>
      </set>
      <set comment="kpoint 22">
       <r>   -3.9305    1.0000 </r>
       <r>   18.2034    0.0000 </r>
       <r>   18.4623    0.0000 </r>
       <r>   21.4376    0.0000 </r>
       <r>   22.4656    0.0000 </r>
       <r>   23.6038    0.0000 </r>
       <r>   24.4862    0.0000 </r>
       <r>   26.9924    0.0000 </r>
      </set>
      <set comment="kpoint 23">
       <r>   -3.5855    1.0000 </r>
       <r>   17.9259    0.0000 </r>
       <r>   17.9259    0.0000 </r>
       <r>   19.5641    0.0000 </r>
       <r>   19.8833    0.0000 </r>
       <r>   23.9619    0.0000 </r>
       <r>   26.3980    0.0000 </r>
       <r>   26.3980    0.0000 </r>
      </set>
      <set comment="kpoint 24">
       <r>   -3.1122    1.0000 </r>
       <r>   15.7322    0.0000 </r>
       <r>   17.2189    0.0000 </r>
       <r>   19.0288    0.0000 </r>
       <r>   20.1364    0.0000 </r>
       <r>   22.6528    0.0000 </r>
       <r>   27.1146    0.0000 </r>
       <r>   27.3558    0.0000 </r>
      </set>
      <set comment="kpoint 25">
       <r>   -2.3830    1.0000 </r>
       <r>   13.0129    0.0000 </r>
       <r>   16.7293    0.0000 </r>
       <r>   18.3157    0.0000 </r>
       <r>   20.0254    0.0000 </r>
       <r>   23.0077    0.0000 </r>
       <r>   27.0888    0.0000 </r>
       <r>   27.2913    0.0000 </r>
      </set>
      <set comment="kpoint 26">
       <r>   -1.4011    1.0000 </r>
       <r>   10.3924    0.0000 </r>
       <r>   16.4605    0.0000 </r>
       <r>   17.4940    0.0000 </r>
       <r>   19.4254    0.0000 </r>
       <r>   24.4865    0.0000 </r>
       <r>   26.1303    0.0000 </r>
       <r>   27.4520    0.0000 </r>
      </set>
      <set comment="kpoint 27">
       <r>   -0.1711    1.0000 </r>
       <r>    7.9478    1.0000 </r>
       <r>   16.4124    0.0000 </r>
       <r>   16.5850    0.0000 </r>
       <r>   19.1798    0.0000 </r>
       <r>   25.1450    0.0000 </r>
       <r>   25.7478    0.0000 </r>
       <r>   28.1459    0.0000 </r>
      </set>
      <set comment="kpoint 28">
       <r>    1.2975    1.0000 </r>
       <r>    5.7127    1.0000 </r>
       <r>   15.7427    0.0000 </r>
       <r>   16.5830    0.0000 </r>
       <r>   19.2855    0.0000 </r>
       <r>   24.3013    0.0000 </r>
       <r>   26.1266    0.0000 </r>
       <r>   29.6503    0.0000 </r>
      </set>
      <set comment="kpoint 29">
       <r>    2.9072    1.0000 </r>
       <r>    3.7948    1.0000 </r>
       <r>   15.0636    0.0000 </r>
       <r>   16.9671    0.0000 </r>
       <r>   19.6786    0.0000 </r>
       <r>   23.6554    0.0000 </r>
       <r>   26.0365    0.0000 </r>
       <r>   29.7830    0.0000 </r>
      </set>
      <set comment="kpoint 30">
       <r>    1.8351    1.0000 </r>
       <r>    5.0202    1.0000 </r>
       <r>   14.5878    0.0000 </r>
       <r>   17.5552    0.0000 </r>
       <r>   20.3268    0.0000 </r>
       <r>   23.2350    0.0000 </r>
       <r>   25.8046    0.0000 </r>
       <r>   30.0866    0.0000 </r>
      </set>
      <set comment="kpoint 31">
       <r>    0.2925    1.0000 </r>
       <r>    7.1754    1.0000 </r>
       <r>   14.3324    0.0000 </r>
       <r>   18.3284    0.0000 </r>
       <r>   21.2084    0.0000 </r>
       <r>   23.0605    0.0000 </r>
       <r>   25.5739    0.0000 </r>
       <r>   29.6182    0.0000 </r>
      </set>
      <set comment="kpoint 32">
       <r>   -1.0186    1.0000 </r>
       <r>    9.5491    1.0000 </r>
       <r>   14.3070    0.0000 </r>
       <r>   19.2488    0.0000 </r>
       <r>   22.2973    0.0000 </r>
       <r>   23.1520    0.0000 </r>
       <r>   25.3856    0.0000 </r>
       <r>   27.4616    0.0000 </r>
      </set>
      <set comment="kpoint 33">
       <r>   -2.0838    1.0000 </r>
       <r>   12.0994    0.0000 </r>
       <r>   14.5244    0.0000 </r>
       <r>   20.2357    0.0000 </r>
       <r>   23.4969    0.0000 </r>
       <r>   23.5394    0.0000 </r>
       <r>   25.1727    0.0000 </r>
       <r>   25.5880    0.0000 </r>
      </set>
      <set comment="kpoint 34">
       <r>   -2.8976    1.0000 </r>
       <r>   14.5596    0.0000 </r>
       <r>   15.2053    0.0000 </r>
       <r>   21.0757    0.0000 </r>
       <r>   23.4641    0.0000 </r>
       <r>   24.7313    0.0000 </r>
       <r>   24.7543    0.0000 </r>
       <r>   24.8652    0.0000 </r>
      </set>
      <set comment="kpoint 35">
       <r>   -2.7256    1.0000 </r>
       <r>   16.4385    0.0000 </r>
       <r>   16.4385    0.0000 </r>
       <r>   17.9861    0.0000 </r>
       <r>   18.1323    0.0000 </r>
       <r>   20.9605    0.0000 </r>
       <r>   28.8154    0.0000 </r>
       <r>   28.8154    0.0000 </r>
      </set>
      <set comment="kpoint 36">
       <r>   -2.0831    1.0000 </r>
       <r>   14.3429    0.0000 </r>
       <r>   15.8759    0.0000 </r>
       <r>   16.9832    0.0000 </r>
       <r>   18.2479    0.0000 </r>
       <r>   20.5287    0.0000 </r>
       <r>   29.1379    0.0000 </r>
       <r>   29.5540    0.0000 </r>
      </set>
      <set comment="kpoint 37">
       <r>   -1.1873    1.0000 </r>
       <r>   11.7465    0.0000 </r>
       <r>   15.5354    0.0000 </r>
       <r>   15.7574    0.0000 </r>
       <r>   18.1517    0.0000 </r>
       <r>   21.7939    0.0000 </r>
       <r>   28.3374    0.0000 </r>
       <r>   29.7157    0.0000 </r>
      </set>
      <set comment="kpoint 38">
       <r>   -0.0425    1.0000 </r>
       <r>    9.2649    1.0000 </r>
       <r>   14.5889    0.0000 </r>
       <r>   15.4182    0.0000 </r>
       <r>   18.0367    0.0000 </r>
       <r>   23.6910    0.0000 </r>
       <r>   27.3750    0.0000 </r>
       <r>   29.6390    0.0000 </r>
      </set>
      <set comment="kpoint 39">
       <r>    1.3445    1.0000 </r>
       <r>    6.9702    1.0000 </r>
       <r>   13.5818    0.0000 </r>
       <r>   15.5237    0.0000 </r>
       <r>   18.1484    0.0000 </r>
       <r>   25.6999    0.0000 </r>
       <r>   26.4986    0.0000 </r>
       <r>   29.5163    0.0000 </r>
      </set>
      <set comment="kpoint 40">
       <r>    2.9467    1.0000 </r>
       <r>    4.9096    1.0000 </r>
       <r>   12.7798    0.0000 </r>
       <r>   15.8500    0.0000 </r>
       <r>   18.5074    0.0000 </r>
       <r>   25.7897    0.0000 </r>
       <r>   27.2281    0.0000 </r>
       <r>   29.8217    0.0000 </r>
      </set>
      <set comment="kpoint 41">
       <r>    2.9472    1.0000 </r>
       <r>    4.9066    1.0000 </r>
       <r>   12.2024    0.0000 </r>
       <r>   16.3930    0.0000 </r>
       <r>   19.1097    0.0000 </r>
       <r>   25.2832    0.0000 </r>
       <r>   27.5404    0.0000 </r>
       <r>   31.0080    0.0000 </r>
      </set>
      <set comment="kpoint 42">
       <r>    1.3440    1.0000 </r>
       <r>    6.9600    1.0000 </r>
       <r>   11.8622    0.0000 </r>
       <r>   17.1446    0.0000 </r>
       <r>   19.9456    0.0000 </r>
       <r>   24.9978    0.0000 </r>
       <r>   27.3005    0.0000 </r>
       <r>   29.4376    0.0000 </r>
      </set>
      <set comment="kpoint 43">
       <r>   -0.0433    1.0000 </r>
       <r>    9.2268    1.0000 </r>
       <r>   11.7806    0.0000 </r>
       <r>   18.0875    0.0000 </r>
       <r>   20.9976    0.0000 </r>
       <r>   24.9456    0.0000 </r>
       <r>   26.8916    0.0000 </r>
       <r>   27.1752    0.0000 </r>
      </set>
      <set comment="kpoint 44">
       <r>   -1.1882    1.0000 </r>
       <r>   11.3823    0.0000 </r>
       <r>   12.2414    0.0000 </r>
       <r>   19.1770    0.0000 </r>
       <r>   22.2291    0.0000 </r>
       <r>   25.1116    0.0000 </r>
       <r>   25.1569    0.0000 </r>
       <r>   26.2199    0.0000 </r>
      </set>
      <set comment="kpoint 45">
       <r>   -1.5276    1.0000 </r>
       <r>   15.2392    0.0000 </r>
       <r>   15.2392    0.0000 </r>
       <r>   15.4041    0.0000 </r>
       <r>   16.6665    0.0000 </r>
       <r>   19.1127    0.0000 </r>
       <r>   31.1289    0.0000 </r>
       <r>   31.1289    0.0000 </r>
      </set>
      <set comment="kpoint 46">
       <r>   -0.7190    1.0000 </r>
       <r>   13.2044    0.0000 </r>
       <r>   14.0267    0.0000 </r>
       <r>   14.8247    0.0000 </r>
       <r>   16.9833    0.0000 </r>
       <r>   19.3015    0.0000 </r>
       <r>   30.6210    0.0000 </r>
       <r>   31.8051    0.0000 </r>
      </set>
      <set comment="kpoint 47">
       <r>    0.3390    1.0000 </r>
       <r>   10.7723    0.0000 </r>
       <r>   12.6812    0.0000 </r>
       <r>   14.6345    0.0000 </r>
       <r>   17.0797    0.0000 </r>
       <r>   20.9117    0.0000 </r>
       <r>   29.7426    0.0000 </r>
       <r>   31.8224    0.0000 </r>
      </set>
      <set comment="kpoint 48">
       <r>    1.6408    1.0000 </r>
       <r>    8.4473    1.0000 </r>
       <r>   11.5458    0.0000 </r>
       <r>   14.6687    0.0000 </r>
       <r>   17.1861    0.0000 </r>
       <r>   23.0392    0.0000 </r>
       <r>   28.8715    0.0000 </r>
       <r>   31.4601    0.0000 </r>
      </set>
      <set comment="kpoint 49">
       <r>    3.1723    1.0000 </r>
       <r>    6.3166    1.0000 </r>
       <r>   10.6381    0.0000 </r>
       <r>   14.9264    0.0000 </r>
       <r>   17.4954    0.0000 </r>
       <r>   25.3483    0.0000 </r>
       <r>   28.1250    0.0000 </r>
       <r>   30.9138    0.0000 </r>
      </set>
      <set comment="kpoint 50">
       <r>    4.2523    1.0000 </r>
       <r>    5.0787    1.0000 </r>
       <r>    9.9711    1.0000 </r>
       <r>   15.4055    0.0000 </r>
       <r>   18.0375    0.0000 </r>
       <r>   27.5539    0.0000 </r>
       <r>   27.5982    0.0000 </r>
       <r>   30.3218    0.0000 </r>
      </set>
      <set comment="kpoint 51">
       <r>    2.6381    1.0000 </r>
       <r>    6.9612    1.0000 </r>
       <r>    9.5701    1.0000 </r>
       <r>   16.1014    0.0000 </r>
       <r>   18.8128    0.0000 </r>
       <r>   27.1753    0.0000 </r>
       <r>   28.9160    0.0000 </r>
       <r>   29.5065    0.0000 </r>
      </set>
      <set comment="kpoint 52">
       <r>    1.1785    1.0000 </r>
       <r>    8.8037    1.0000 </r>
       <r>    9.7457    1.0000 </r>
       <r>   17.0042    0.0000 </r>
       <r>   19.8093    0.0000 </r>
       <r>   26.8151    0.0000 </r>
       <r>   27.3738    0.0000 </r>
       <r>   28.2104    0.0000 </r>
      </set>
      <set comment="kpoint 53">
       <r>    0.0018    1.0000 </r>
       <r>   12.3045    0.0000 </r>
       <r>   14.3359    0.0000 </r>
       <r>   14.3359    0.0000 </r>
       <r>   15.6575    0.0000 </r>
       <r>   18.0416    0.0000 </r>
       <r>   32.5461    0.0000 </r>
       <r>   33.2274    0.0000 </r>
      </set>
      <set comment="kpoint 54">
       <r>    0.9717    1.0000 </r>
       <r>   10.8467    0.0000 </r>
       <r>   12.5196    0.0000 </r>
       <r>   14.0714    0.0000 </r>
       <r>   16.1401    0.0000 </r>
       <r>   18.5008    0.0000 </r>
       <r>   32.1056    0.0000 </r>
       <r>   33.7560    0.0000 </r>
      </set>
      <set comment="kpoint 55">
       <r>    2.1850    1.0000 </r>
       <r>    9.5403    1.0000 </r>
       <r>   10.2860    0.0006 </r>
       <r>   14.0320    0.0000 </r>
       <r>   16.4033    0.0000 </r>
       <r>   20.3203    0.0000 </r>
       <r>   31.3159    0.0000 </r>
       <r>   33.5384    0.0000 </r>
      </set>
      <set comment="kpoint 56">
       <r>    3.6300    1.0000 </r>
       <r>    7.8802    1.0000 </r>
       <r>    8.7725    1.0000 </r>
       <r>   14.2175    0.0000 </r>
       <r>   16.6869    0.0000 </r>
       <r>   22.6306    0.0000 </r>
       <r>   30.5639    0.0000 </r>
       <r>   32.8701    0.0000 </r>
      </set>
      <set comment="kpoint 57">
       <r>    5.2292    1.0000 </r>
       <r>    6.0064    1.0000 </r>
       <r>    7.9868    1.0000 </r>
       <r>   14.6266    0.0000 </r>
       <r>   17.1697    0.0000 </r>
       <r>   25.1330    0.0000 </r>
       <r>   29.9168    0.0000 </r>
       <r>   31.9105    0.0000 </r>
      </set>
      <set comment="kpoint 58">
       <r>    4.1624    1.0000 </r>
       <r>    6.8596    1.0000 </r>
       <r>    7.8286    1.0000 </r>
       <r>   15.2567    0.0000 </r>
       <r>   17.8796    0.0000 </r>
       <r>   27.6407    0.0000 </r>
       <r>   29.1499    0.0000 </r>
       <r>   30.1705    0.0000 </r>
      </set>
      <set comment="kpoint 59">
       <r>    1.8517    1.0000 </r>
       <r>    9.3164    1.0000 </r>
       <r>   13.7323    0.0000 </r>
       <r>   13.7323    0.0000 </r>
       <r>   14.9785    0.0000 </r>
       <r>   17.3780    0.0000 </r>
       <r>   33.7861    0.0000 </r>
       <r>   35.0241    0.0000 </r>
      </set>
      <set comment="kpoint 60">
       <r>    2.9718    1.0000 </r>
       <r>    7.9922    1.0000 </r>
       <r>   12.0295    0.0000 </r>
       <r>   13.6186    0.0000 </r>
       <r>   15.6381    0.0000 </r>
       <r>   18.0282    0.0000 </r>
       <r>   33.5511    0.0000 </r>
       <r>   35.2951    0.0000 </r>
      </set>
      <set comment="kpoint 61">
       <r>    4.3088    1.0000 </r>
       <r>    6.9158    1.0000 </r>
       <r>    9.8800    1.0000 </r>
       <r>   13.7303    0.0000 </r>
       <r>   16.0677    0.0000 </r>
       <r>   20.0224    0.0000 </r>
       <r>   32.8677    0.0000 </r>
       <r>   34.6847    0.0000 </r>
      </set>
      <set comment="kpoint 62">
       <r>    5.5609    1.0000 </r>
       <r>    6.3517    1.0000 </r>
       <r>    7.9146    1.0000 </r>
       <r>   14.0669    0.0000 </r>
       <r>   16.5208    0.0000 </r>
       <r>   22.4921    0.0000 </r>
       <r>   31.8926    0.0000 </r>
       <r>   33.2836    0.0000 </r>
      </set>
      <set comment="kpoint 63">
       <r>    3.9813    1.0000 </r>
       <r>    6.6021    1.0000 </r>
       <r>   13.4302    0.0000 </r>
       <r>   13.4302    0.0000 </r>
       <r>   14.6375    0.0000 </r>
       <r>   17.0512    0.0000 </r>
       <r>   34.6764    0.0000 </r>
       <r>   36.2351    0.0000 </r>
      </set>
      <set comment="kpoint 64">
       <r>    4.9112    1.0000 </r>
       <r>    5.7607    1.0000 </r>
       <r>   11.8690    0.0000 </r>
       <r>   13.4675    0.0000 </r>
       <r>   15.4708    0.0000 </r>
       <r>   17.8708    0.0000 </r>
       <r>   34.3542    0.0000 </r>
       <r>   35.9480    0.0000 </r>
      </set>
      <set comment="kpoint 65">
       <r>   -3.4133    1.0000 </r>
       <r>   16.4031    0.0000 </r>
       <r>   16.8231    0.0000 </r>
       <r>   20.7257    0.0000 </r>
       <r>   21.3350    0.0000 </r>
       <r>   24.2970    0.0000 </r>
       <r>   25.6573    0.0000 </r>
       <r>   26.0206    0.0000 </r>
      </set>
      <set comment="kpoint 66">
       <r>   -2.7688    1.0000 </r>
       <r>   13.8132    0.0000 </r>
       <r>   16.0890    0.0000 </r>
       <r>   20.0762    0.0000 </r>
       <r>   21.7670    0.0000 </r>
       <r>   23.8452    0.0000 </r>
       <r>   25.8705    0.0000 </r>
       <r>   26.1053    0.0000 </r>
      </set>
      <set comment="kpoint 67">
       <r>   -1.8702    1.0000 </r>
       <r>   11.1439    0.0000 </r>
       <r>   15.7316    0.0000 </r>
       <r>   19.2048    0.0000 </r>
       <r>   21.3290    0.0000 </r>
       <r>   24.4161    0.0000 </r>
       <r>   25.3377    0.0000 </r>
       <r>   26.4917    0.0000 </r>
      </set>
      <set comment="kpoint 68">
       <r>   -0.7217    1.0000 </r>
       <r>    8.6339    1.0000 </r>
       <r>   15.6012    0.0000 </r>
       <r>   18.2676    0.0000 </r>
       <r>   21.0026    0.0000 </r>
       <r>   23.6436    0.0000 </r>
       <r>   25.6041    0.0000 </r>
       <r>   27.8747    0.0000 </r>
      </set>
      <set comment="kpoint 69">
       <r>    0.6699    1.0000 </r>
       <r>    6.3240    1.0000 </r>
       <r>   15.6850    0.0000 </r>
       <r>   17.4038    0.0000 </r>
       <r>   20.9641    0.0000 </r>
       <r>   22.7684    0.0000 </r>
       <r>   25.7538    0.0000 </r>
       <r>   29.2966    0.0000 </r>
      </set>
      <set comment="kpoint 70">
       <r>    2.2758    1.0000 </r>
       <r>    4.2562    1.0000 </r>
       <r>   15.9286    0.0000 </r>
       <r>   16.7535    0.0000 </r>
       <r>   21.1064    0.0000 </r>
       <r>   22.1608    0.0000 </r>
       <r>   25.8442    0.0000 </r>
       <r>   29.0386    0.0000 </r>
      </set>
      <set comment="kpoint 71">
       <r>   -2.5542    1.0000 </r>
       <r>   14.8512    0.0000 </r>
       <r>   15.3540    0.0000 </r>
       <r>   18.7304    0.0000 </r>
       <r>   19.8625    0.0000 </r>
       <r>   21.7393    0.0000 </r>
       <r>   27.5960    0.0000 </r>
       <r>   28.2476    0.0000 </r>
      </set>
      <set comment="kpoint 72">
       <r>   -1.7416    1.0000 </r>
       <r>   12.3997    0.0000 </r>
       <r>   14.7292    0.0000 </r>
       <r>   17.5595    0.0000 </r>
       <r>   20.0790    0.0000 </r>
       <r>   22.4289    0.0000 </r>
       <r>   26.8706    0.0000 </r>
       <r>   28.7057    0.0000 </r>
      </set>
      <set comment="kpoint 73">
       <r>   -0.6781    1.0000 </r>
       <r>    9.8632    1.0000 </r>
       <r>   14.5039    0.0000 </r>
       <r>   16.3714    0.0000 </r>
       <r>   19.9360    0.0000 </r>
       <r>   24.0641    0.0000 </r>
       <r>   25.9576    0.0000 </r>
       <r>   28.8447    0.0000 </r>
      </set>
      <set comment="kpoint 74">
       <r>    0.6308    1.0000 </r>
       <r>    7.4974    1.0000 </r>
       <r>   14.4609    0.0000 </r>
       <r>   15.3825    0.0000 </r>
       <r>   19.9591    0.0000 </r>
       <r>   24.6129    0.0000 </r>
       <r>   26.3241    0.0000 </r>
       <r>   29.0531    0.0000 </r>
      </set>
      <set comment="kpoint 75">
       <r>    2.1711    1.0000 </r>
       <r>    5.3468    1.0000 </r>
       <r>   14.2115    0.0000 </r>
       <r>   15.0271    0.0000 </r>
       <r>   20.2068    0.0000 </r>
       <r>   23.9374    0.0000 </r>
       <r>   27.4773    0.0000 </r>
       <r>   29.8451    0.0000 </r>
      </set>
      <set comment="kpoint 76">
       <r>    3.2450    1.0000 </r>
       <r>    4.1192    1.0000 </r>
       <r>   13.6604    0.0000 </r>
       <r>   15.4182    0.0000 </r>
       <r>   20.6726    0.0000 </r>
       <r>   23.3780    0.0000 </r>
       <r>   27.6781    0.0000 </r>
       <r>   30.9849    0.0000 </r>
      </set>
      <set comment="kpoint 77">
       <r>    1.6340    1.0000 </r>
       <r>    6.0347    1.0000 </r>
       <r>   13.2620    0.0000 </r>
       <r>   16.1055    0.0000 </r>
       <r>   21.3234    0.0000 </r>
       <r>   23.0547    0.0000 </r>
       <r>   27.4231    0.0000 </r>
       <r>   29.7993    0.0000 </r>
      </set>
      <set comment="kpoint 78">
       <r>    0.1675    1.0000 </r>
       <r>    8.2576    1.0000 </r>
       <r>   13.0860    0.0000 </r>
       <r>   17.0139    0.0000 </r>
       <r>   22.0397    0.0000 </r>
       <r>   23.0737    0.0000 </r>
       <r>   26.6272    0.0000 </r>
       <r>   28.2834    0.0000 </r>
      </set>
      <set comment="kpoint 79">
       <r>   -1.0605    1.0000 </r>
       <r>   10.6688    0.0000 </r>
       <r>   13.1577    0.0000 </r>
       <r>   18.1056    0.0000 </r>
       <r>   22.5393    0.0000 </r>
       <r>   23.5444    0.0000 </r>
       <r>   25.1600    0.0000 </r>
       <r>   27.6408    0.0000 </r>
      </set>
      <set comment="kpoint 80">
       <r>   -2.0409    1.0000 </r>
       <r>   12.9787    0.0000 </r>
       <r>   13.7310    0.0000 </r>
       <r>   19.2928    0.0000 </r>
       <r>   22.5765    0.0000 </r>
       <r>   23.3262    0.0000 </r>
       <r>   25.1164    0.0000 </r>
       <r>   27.0531    0.0000 </r>
      </set>
      <set comment="kpoint 81">
       <r>   -1.3574    1.0000 </r>
       <r>   13.5931    0.0000 </r>
       <r>   14.1052    0.0000 </r>
       <r>   15.7831    0.0000 </r>
       <r>   18.6153    0.0000 </r>
       <r>   20.2325    0.0000 </r>
       <r>   28.9713    0.0000 </r>
       <r>   30.7811    0.0000 </r>
      </set>
      <set comment="kpoint 82">
       <r>   -0.3803    1.0000 </r>
       <r>   11.2818    0.0000 </r>
       <r>   13.5621    0.0000 </r>
       <r>   14.5024    0.0000 </r>
       <r>   18.9352    0.0000 </r>
       <r>   21.4160    0.0000 </r>
       <r>   28.1115    0.0000 </r>
       <r>   31.2234    0.0000 </r>
      </set>
      <set comment="kpoint 83">
       <r>    0.8435    1.0000 </r>
       <r>    8.8916    1.0000 </r>
       <r>   13.0081    0.0000 </r>
       <r>   13.8128    0.0000 </r>
       <r>   18.9935    0.0000 </r>
       <r>   23.3857    0.0000 </r>
       <r>   27.2045    0.0000 </r>
       <r>   31.1485    0.0000 </r>
      </set>
      <set comment="kpoint 84">
       <r>    2.3047    1.0000 </r>
       <r>    6.6815    1.0000 </r>
       <r>   12.1341    0.0000 </r>
       <r>   13.8982    0.0000 </r>
       <r>   19.2119    0.0000 </r>
       <r>   25.3442    0.0000 </r>
       <r>   26.6388    0.0000 </r>
       <r>   30.8039    0.0000 </r>
      </set>
      <set comment="kpoint 85">
       <r>    3.9160    1.0000 </r>
       <r>    4.7658    1.0000 </r>
       <r>   11.4106    0.0000 </r>
       <r>   14.2965    0.0000 </r>
       <r>   19.6456    0.0000 </r>
       <r>   25.4736    0.0000 </r>
       <r>   28.0253    0.0000 </r>
       <r>   30.1955    0.0000 </r>
      </set>
      <set comment="kpoint 86">
       <r>    2.8403    1.0000 </r>
       <r>    5.9860    1.0000 </r>
       <r>   10.9141    0.0000 </r>
       <r>   14.9373    0.0000 </r>
       <r>   20.2972    0.0000 </r>
       <r>   25.0781    0.0000 </r>
       <r>   28.7703    0.0000 </r>
       <r>   29.6518    0.0000 </r>
      </set>
      <set comment="kpoint 87">
       <r>    1.3041    1.0000 </r>
       <r>    8.0952    1.0000 </r>
       <r>   10.6767    0.0000 </r>
       <r>   15.8032    0.0000 </r>
       <r>   21.1509    0.0000 </r>
       <r>   24.8321    0.0000 </r>
       <r>   26.9011    0.0000 </r>
       <r>   29.6042    0.0000 </r>
      </set>
      <set comment="kpoint 88">
       <r>   -0.0006    1.0000 </r>
       <r>   10.0956    0.9837 </r>
       <r>   10.9984    0.0000 </r>
       <r>   16.8756    0.0000 </r>
       <r>   22.1554    0.0000 </r>
       <r>   24.4665    0.0000 </r>
       <r>   25.2070    0.0000 </r>
       <r>   28.8575    0.0000 </r>
      </set>
      <set comment="kpoint 89">
       <r>    0.1705    1.0000 </r>
       <r>   12.3589    0.0000 </r>
       <r>   12.6429    0.0000 </r>
       <r>   13.4470    0.0000 </r>
       <r>   17.6598    0.0000 </r>
       <r>   19.2724    0.0000 </r>
       <r>   30.4050    0.0000 </r>
       <r>   33.0683    0.0000 </r>
      </set>
      <set comment="kpoint 90">
       <r>    1.3070    1.0000 </r>
       <r>   10.4244    0.0000 </r>
       <r>   11.2487    0.0000 </r>
       <r>   12.9960    0.0000 </r>
       <r>   18.1375    0.0000 </r>
       <r>   20.6918    0.0000 </r>
       <r>   29.5925    0.0000 </r>
       <r>   33.3008    0.0000 </r>
      </set>
      <set comment="kpoint 91">
       <r>    2.6827    1.0000 </r>
       <r>    8.2234    1.0000 </r>
       <r>   10.1670    0.5466 </r>
       <r>   13.0676    0.0000 </r>
       <r>   18.3673    0.0000 </r>
       <r>   22.8695    0.0000 </r>
       <r>   28.7812    0.0000 </r>
       <r>   32.7176    0.0000 </r>
      </set>
      <set comment="kpoint 92">
       <r>    4.2718    1.0000 </r>
       <r>    6.1936    1.0000 </r>
       <r>    9.3333    1.0000 </r>
       <r>   13.4028    0.0000 </r>
       <r>   18.7549    0.0000 </r>
       <r>   25.2366    0.0000 </r>
       <r>   28.1329    0.0000 </r>
       <r>   31.4220    0.0000 </r>
      </set>
      <set comment="kpoint 93">
       <r>    4.2768    1.0000 </r>
       <r>    6.1591    1.0000 </r>
       <r>    8.7674    1.0000 </r>
       <r>   13.9772    0.0000 </r>
       <r>   19.3536    0.0000 </r>
       <r>   27.0764    0.0000 </r>
       <r>   28.1493    0.0000 </r>
       <r>   29.4746    0.0000 </r>
      </set>
      <set comment="kpoint 94">
       <r>    2.6816    1.0000 </r>
       <r>    7.8325    1.0000 </r>
       <r>    8.7836    1.0000 </r>
       <r>   14.7813    0.0000 </r>
       <r>   20.1626    0.0000 </r>
       <r>   26.9452    0.0000 </r>
       <r>   27.1329    0.0000 </r>
       <r>   30.1805    0.0000 </r>
      </set>
      <set comment="kpoint 95">
       <r>    2.0186    1.0000 </r>
       <r>    9.4638    1.0000 </r>
       <r>   12.0069    0.0000 </r>
       <r>   12.7224    0.0000 </r>
       <r>   17.0165    0.0000 </r>
       <r>   18.6528    0.0000 </r>
       <r>   31.9601    0.0000 </r>
       <r>   34.9843    0.0000 </r>
      </set>
      <set comment="kpoint 96">
       <r>    3.3024    1.0000 </r>
       <r>    8.2901    1.0000 </r>
       <r>   10.0616    0.9990 </r>
       <r>   12.4953    0.0000 </r>
       <r>   17.6584    0.0000 </r>
       <r>   20.2523    0.0000 </r>
       <r>   31.2578    0.0000 </r>
       <r>   34.1837    0.0000 </r>
      </set>
      <set comment="kpoint 97">
       <r>    4.7959    1.0000 </r>
       <r>    7.2909    1.0000 </r>
       <r>    8.0874    1.0000 </r>
       <r>   12.7437    0.0000 </r>
       <r>   18.0526    0.0000 </r>
       <r>   22.6003    0.0000 </r>
       <r>   30.5601    0.0000 </r>
       <r>   32.2992    0.0000 </r>
      </set>
      <set comment="kpoint 98">
       <r>    5.8904    1.0000 </r>
       <r>    6.2105    1.0000 </r>
       <r>    7.2465    1.0000 </r>
       <r>   13.2430    0.0000 </r>
       <r>   18.6012    0.0000 </r>
       <r>   25.1483    0.0000 </r>
       <r>   29.9287    0.0000 </r>
       <r>   30.0015    0.0000 </r>
      </set>
      <set comment="kpoint 99">
       <r>    4.1454    1.0000 </r>
       <r>    6.7617    1.0000 </r>
       <r>   11.6882    0.0000 </r>
       <r>   12.3985    0.0000 </r>
       <r>   16.6935    0.0000 </r>
       <r>   18.3440    0.0000 </r>
       <r>   33.4755    0.0000 </r>
       <r>   34.9910    0.0000 </r>
      </set>
      <set comment="kpoint 100">
       <r>    5.2361    1.0000 </r>
       <r>    6.0802    1.0000 </r>
       <r>    9.8861    1.0000 </r>
       <r>   12.3341    0.0000 </r>
       <r>   17.4984    0.0000 </r>
       <r>   20.1047    0.0000 </r>
       <r>   32.7592    0.0000 </r>
       <r>   33.1978    0.0000 </r>
      </set>
      <set comment="kpoint 101">
       <r>   -0.8475    1.0000 </r>
       <r>   11.7014    0.0000 </r>
       <r>   12.4972    0.0000 </r>
       <r>   16.2466    0.0000 </r>
       <r>   21.4056    0.0000 </r>
       <r>   22.3451    0.0000 </r>
       <r>   25.9584    0.0000 </r>
       <r>   29.9085    0.0000 </r>
      </set>
      <set comment="kpoint 102">
       <r>    0.2955    1.0000 </r>
       <r>    9.5433    1.0000 </r>
       <r>   12.0545    0.0000 </r>
       <r>   15.0219    0.0000 </r>
       <r>   21.6800    0.0000 </r>
       <r>   23.6403    0.0000 </r>
       <r>   25.2287    0.0000 </r>
       <r>   30.4639    0.0000 </r>
      </set>
      <set comment="kpoint 103">
       <r>    1.6803    1.0000 </r>
       <r>    7.2822    1.0000 </r>
       <r>   12.1199    0.0000 </r>
       <r>   14.0075    0.0000 </r>
       <r>   21.7666    0.0000 </r>
       <r>   23.6881    0.0000 </r>
       <r>   26.4309    0.0000 </r>
       <r>   30.5415    0.0000 </r>
      </set>
      <set comment="kpoint 104">
       <r>    3.2810    1.0000 </r>
       <r>    5.2322    1.0000 </r>
       <r>   12.3723    0.0000 </r>
       <r>   13.2841    0.0000 </r>
       <r>   21.9275    0.0000 </r>
       <r>   23.1955    0.0000 </r>
       <r>   28.4513    0.0000 </r>
       <r>   30.0262    0.0000 </r>
      </set>
      <set comment="kpoint 105">
       <r>    0.6759    1.0000 </r>
       <r>   10.7386    0.0000 </r>
       <r>   11.4936    0.0000 </r>
       <r>   13.1404    0.0000 </r>
       <r>   20.4852    0.0000 </r>
       <r>   21.5755    0.0000 </r>
       <r>   27.2328    0.0000 </r>
       <r>   32.5964    0.0000 </r>
      </set>
      <set comment="kpoint 106">
       <r>    1.9754    1.0000 </r>
       <r>    8.7293    1.0000 </r>
       <r>   11.1379    0.0000 </r>
       <r>   12.0760    0.0000 </r>
       <r>   20.9710    0.0000 </r>
       <r>   23.2578    0.0000 </r>
       <r>   26.3927    0.0000 </r>
       <r>   32.6248    0.0000 </r>
      </set>
      <set comment="kpoint 107">
       <r>    3.5047    1.0000 </r>
       <r>    6.6301    1.0000 </r>
       <r>   10.8171    0.0000 </r>
       <r>   11.7304    0.0000 </r>
       <r>   21.2761    0.0000 </r>
       <r>   24.8427    0.0000 </r>
       <r>   26.3350    0.0000 </r>
       <r>   31.1232    0.0000 </r>
      </set>
      <set comment="kpoint 108">
       <r>    4.5846    1.0000 </r>
       <r>    5.3998    1.0000 </r>
       <r>   10.2451    0.0182 </r>
       <r>   12.1378    0.0000 </r>
       <r>   21.7438    0.0000 </r>
       <r>   24.6640    0.0000 </r>
       <r>   28.0216    0.0000 </r>
       <r>   29.2620    0.0000 </r>
      </set>
      <set comment="kpoint 109">
       <r>    2.9714    1.0000 </r>
       <r>    7.2830    1.0000 </r>
       <r>    9.8640    1.0000 </r>
       <r>   12.8607    0.0000 </r>
       <r>   22.3646    0.0000 </r>
       <r>   24.3063    0.0000 </r>
       <r>   26.5004    0.0000 </r>
       <r>   30.7040    0.0000 </r>
      </set>
      <set comment="kpoint 110">
       <r>    1.5149    1.0000 </r>
       <r>    9.1273    1.0000 </r>
       <r>   10.0349    0.9999 </r>
       <r>   13.8301    0.0000 </r>
       <r>   22.9982    0.0000 </r>
       <r>   23.6062    0.0000 </r>
       <r>   25.0117    0.0000 </r>
       <r>   31.8932    0.0000 </r>
      </set>
      <set comment="kpoint 111">
       <r>    2.5179    1.0000 </r>
       <r>    9.8382    1.0000 </r>
       <r>   10.0951    0.9842 </r>
       <r>   11.1663    0.0000 </r>
       <r>   19.8605    0.0000 </r>
       <r>   21.0374    0.0000 </r>
       <r>   28.8097    0.0000 </r>
       <r>   33.7965    0.0000 </r>
      </set>
      <set comment="kpoint 112">
       <r>    3.9602    1.0000 </r>
       <r>    8.1813    1.0000 </r>
       <r>    9.0206    1.0000 </r>
       <r>   10.9220    0.0000 </r>
       <r>   20.5272    0.0000 </r>
       <r>   22.9169    0.0000 </r>
       <r>   28.0397    0.0000 </r>
       <r>   31.8273    0.0000 </r>
      </set>
      <set comment="kpoint 113">
       <r>    5.5594    1.0000 </r>
       <r>    6.3203    1.0000 </r>
       <r>    8.2829    1.0000 </r>
       <r>   11.2960    0.0000 </r>
       <r>   21.0020    0.0000 </r>
       <r>   25.2368    0.0000 </r>
       <r>   27.4345    0.0000 </r>
       <r>   29.5212    0.0000 </r>
      </set>
      <set comment="kpoint 114">
       <r>    4.4912    1.0000 </r>
       <r>    7.1842    1.0000 </r>
       <r>    8.1293    1.0000 </r>
       <r>   11.9538    0.0000 </r>
       <r>   21.6325    0.0000 </r>
       <r>   26.3960    0.0000 </r>
       <r>   26.5915    0.0000 </r>
       <r>   28.8337    0.0000 </r>
      </set>
      <set comment="kpoint 115">
       <r>    4.6362    1.0000 </r>
       <r>    7.2311    1.0000 </r>
       <r>    9.7730    1.0000 </r>
       <r>   10.7483    0.0000 </r>
       <r>   19.5456    0.0000 </r>
       <r>   20.7613    0.0000 </r>
       <r>   30.5925    0.0000 </r>
       <r>   32.4158    0.0000 </r>
      </set>
      <set comment="kpoint 116">
       <r>    5.8858    1.0000 </r>
       <r>    6.6766    1.0000 </r>
       <r>    8.1718    1.0000 </r>
       <r>   10.7340    0.0000 </r>
       <r>   20.3771    0.0000 </r>
       <r>   22.7940    0.0000 </r>
       <r>   29.6800    0.0000 </r>
       <r>   30.2120    0.0000 </r>
      </set>
      <set comment="kpoint 117">
       <r>    3.3458    1.0000 </r>
       <r>    8.4806    1.0000 </r>
       <r>    9.3178    1.0000 </r>
       <r>   10.9446    0.0000 </r>
       <r>   23.0078    0.0000 </r>
       <r>   23.4057    0.0000 </r>
       <r>   25.7160    0.0000 </r>
       <r>   31.3302    0.0000 </r>
      </set>
      <set comment="kpoint 118">
       <r>    4.9306    1.0000 </r>
       <r>    6.7972    1.0000 </r>
       <r>    9.2418    1.0000 </r>
       <r>   10.1931    0.2674 </r>
       <r>   23.3623    0.0000 </r>
       <r>   24.4560    0.0000 </r>
       <r>   26.1860    0.0000 </r>
       <r>   29.0830    0.0000 </r>
      </set>
      <set comment="kpoint 119">
       <r>    5.4468    1.0000 </r>
       <r>    7.9212    1.0000 </r>
       <r>    8.1570    1.0000 </r>
       <r>    9.3359    1.0000 </r>
       <r>   22.7040    0.0000 </r>
       <r>   23.3670    0.0000 </r>
       <r>   27.2726    0.0000 </r>
       <r>   29.4891    0.0000 </r>
      </set>
      <set comment="kpoint 120">
       <r>    6.5292    1.0000 </r>
       <r>    6.8599    1.0000 </r>
       <r>    7.7508    1.0000 </r>
       <r>    9.4100    1.0000 </r>
       <r>   23.4252    0.0000 </r>
       <r>   25.2692    0.0000 </r>
       <r>   26.1111    0.0000 </r>
       <r>   27.9062    0.0000 </r>
      </set>
     </set>
    </set>
   </array>
  </eigenvalues>
  <separator name="orbital magnetization" >
   <v name="MAGDIPOLOUT">      0.00000000      0.00000000      0.00000000</v>
  </separator>
  <dos>
   <i name="efermi">     10.17113470 </i>
   <total>
    <array>
     <dimension dim="1">gridpoints</dimension>
     <dimension dim="2">spin</dimension>
     <field>energy</field>
     <field>total</field>
     <field>integrated</field>
     <set>
      <set comment="spin 1">
       <r>    -6.3016     0.0000     0.0000 </r>
       <r>    -6.1530     0.0000     0.0000 </r>
       <r>    -6.0045     0.0000     0.0000 </r>
       <r>    -5.8559     0.0000     0.0000 </r>
       <r>    -5.7074     0.0000     0.0000 </r>
       <r>    -5.5589     0.0000     0.0000 </r>
       <r>    -5.4103     0.0000     0.0000 </r>
       <r>    -5.2618     0.0000     0.0000 </r>
       <r>    -5.1132     0.0000     0.0000 </r>
       <r>    -4.9647     0.0000     0.0000 </r>
       <r>    -4.8162     0.0000     0.0000 </r>
       <r>    -4.6676     0.0000     0.0000 </r>
       <r>    -4.5191     0.0000     0.0000 </r>
       <r>    -4.3705     0.0000     0.0000 </r>
       <r>    -4.2220     0.0042     0.0006 </r>
       <r>    -4.0735     0.0502     0.0081 </r>
       <r>    -3.9249     0.0324     0.0129 </r>
       <r>    -3.7764     0.1031     0.0282 </r>
       <r>    -3.6278     0.0483     0.0354 </r>
       <r>    -3.4793     0.0489     0.0426 </r>
       <r>    -3.3308     0.1633     0.0669 </r>
       <r>    -3.1822     0.0947     0.0810 </r>
       <r>    -3.0337     0.1275     0.0999 </r>
       <r>    -2.8851     0.0323     0.1047 </r>
       <r>    -2.7366     0.2198     0.1374 </r>
       <r>    -2.5881     0.1248     0.1559 </r>
       <r>    -2.4395     0.1186     0.1735 </r>
       <r>    -2.2910     0.1524     0.1961 </r>
       <r>    -2.1424     0.0405     0.2022 </r>
       <r>    -1.9939     0.2688     0.2421 </r>
       <r>    -1.8453     0.1557     0.2652 </r>
       <r>    -1.6968     0.3039     0.3104 </r>
       <r>    -1.5483     0.0356     0.3157 </r>
       <r>    -1.3997     0.0897     0.3290 </r>
       <r>    -1.2512     0.2197     0.3616 </r>
       <r>    -1.1026     0.1647     0.3861 </r>
       <r>    -0.9541     0.2897     0.4291 </r>
       <r>    -0.8056     0.0903     0.4425 </r>
       <r>    -0.6570     0.4246     0.5056 </r>
       <r>    -0.5085     0.1134     0.5224 </r>
       <r>    -0.3599     0.1828     0.5496 </r>
       <r>    -0.2114     0.0663     0.5594 </r>
       <r>    -0.0629     0.1734     0.5852 </r>
       <r>     0.0857     0.3189     0.6326 </r>
       <r>     0.2342     0.2893     0.6755 </r>
       <r>     0.3828     0.3965     0.7344 </r>
       <r>     0.5313     0.0150     0.7367 </r>
       <r>     0.6798     0.3442     0.7878 </r>
       <r>     0.8284     0.1981     0.8172 </r>
       <r>     0.9769     0.2464     0.8538 </r>
       <r>     1.1255     0.0757     0.8651 </r>
       <r>     1.2740     0.1446     0.8865 </r>
       <r>     1.4226     0.5695     0.9711 </r>
       <r>     1.5711     0.1948     1.0001 </r>
       <r>     1.7196     0.4482     1.0666 </r>
       <r>     1.8682     0.1243     1.0851 </r>
       <r>     2.0167     0.2690     1.1251 </r>
       <r>     2.1653     0.1846     1.1525 </r>
       <r>     2.3138     0.4559     1.2202 </r>
       <r>     2.4623     0.1090     1.2364 </r>
       <r>     2.6109     0.2017     1.2664 </r>
       <r>     2.7594     0.3650     1.3206 </r>
       <r>     2.9080     0.2732     1.3612 </r>
       <r>     3.0565     0.4924     1.4343 </r>
       <r>     3.2050     0.1096     1.4506 </r>
       <r>     3.3536     0.6012     1.5399 </r>
       <r>     3.5021     0.2269     1.5736 </r>
       <r>     3.6507     0.1870     1.6014 </r>
       <r>     3.7992     0.0794     1.6132 </r>
       <r>     3.9477     0.2952     1.6570 </r>
       <r>     4.0963     0.2456     1.6935 </r>
       <r>     4.2448     0.4679     1.7630 </r>
       <r>     4.3934     0.5736     1.8482 </r>
       <r>     4.5419     0.1113     1.8647 </r>
       <r>     4.6905     0.3137     1.9113 </r>
       <r>     4.8390     0.4192     1.9736 </r>
       <r>     4.9875     0.4532     2.0409 </r>
       <r>     5.1361     0.1836     2.0682 </r>
       <r>     5.2846     0.3676     2.1228 </r>
       <r>     5.4332     0.4879     2.1953 </r>
       <r>     5.5817     0.2812     2.2370 </r>
       <r>     5.7302     0.1393     2.2577 </r>
       <r>     5.8788     0.1443     2.2791 </r>
       <r>     6.0273     0.4643     2.3481 </r>
       <r>     6.1759     0.4624     2.4168 </r>
       <r>     6.3244     0.5416     2.4973 </r>
       <r>     6.4729     0.2641     2.5365 </r>
       <r>     6.6215     0.1985     2.5660 </r>
       <r>     6.7700     0.4936     2.6393 </r>
       <r>     6.9186     0.4973     2.7132 </r>
       <r>     7.0671     0.3129     2.7596 </r>
       <r>     7.2156     0.2260     2.7932 </r>
       <r>     7.3642     0.7241     2.9008 </r>
       <r>     7.5127     0.1356     2.9209 </r>
       <r>     7.6613     0.1437     2.9423 </r>
       <r>     7.8098     0.1485     2.9643 </r>
       <r>     7.9583     0.4209     3.0268 </r>
       <r>     8.1069     0.5080     3.1023 </r>
       <r>     8.2554     0.8833     3.2335 </r>
       <r>     8.4040     0.4922     3.3066 </r>
       <r>     8.5525     0.1798     3.3333 </r>
       <r>     8.7011     0.2356     3.3683 </r>
       <r>     8.8496     0.5898     3.4559 </r>
       <r>     8.9981     0.2301     3.4901 </r>
       <r>     9.1467     0.2114     3.5215 </r>
       <r>     9.2952     0.5350     3.6010 </r>
       <r>     9.4438     0.4840     3.6729 </r>
       <r>     9.5923     0.5042     3.7477 </r>
       <r>     9.7408     0.0977     3.7623 </r>
       <r>     9.8894     0.5972     3.8510 </r>
       <r>    10.0379     0.3899     3.9089 </r>
       <r>    10.1865     0.6835     4.0104 </r>
       <r>    10.3350     0.4416     4.0760 </r>
       <r>    10.4835     0.2806     4.1177 </r>
       <r>    10.6321     0.0998     4.1325 </r>
       <r>    10.7806     0.7279     4.2406 </r>
       <r>    10.9292     0.6341     4.3348 </r>
       <r>    11.0777     0.3169     4.3819 </r>
       <r>    11.2262     0.5236     4.4597 </r>
       <r>    11.3748     0.5623     4.5432 </r>
       <r>    11.5233     0.2945     4.5869 </r>
       <r>    11.6719     0.1512     4.6094 </r>
       <r>    11.8204     0.5562     4.6920 </r>
       <r>    11.9690     0.2793     4.7335 </r>
       <r>    12.1175     0.8295     4.8567 </r>
       <r>    12.2660     0.5631     4.9404 </r>
       <r>    12.4146     0.5814     5.0267 </r>
       <r>    12.5631     0.4868     5.0990 </r>
       <r>    12.7117     0.2986     5.1434 </r>
       <r>    12.8602     0.4825     5.2151 </r>
       <r>    13.0087     0.4500     5.2819 </r>
       <r>    13.1573     0.7705     5.3963 </r>
       <r>    13.3058     0.6213     5.4886 </r>
       <r>    13.4544     0.3623     5.5425 </r>
       <r>    13.6029     0.4634     5.6113 </r>
       <r>    13.7514     0.5228     5.6889 </r>
       <r>    13.9000     0.6278     5.7822 </r>
       <r>    14.0485     0.6286     5.8756 </r>
       <r>    14.1971     0.3715     5.9308 </r>
       <r>    14.3456     0.5949     6.0191 </r>
       <r>    14.4941     0.4607     6.0876 </r>
       <r>    14.6427     0.8153     6.2087 </r>
       <r>    14.7912     0.4301     6.2726 </r>
       <r>    14.9398     0.3847     6.3297 </r>
       <r>    15.0883     0.5838     6.4164 </r>
       <r>    15.2369     0.1125     6.4331 </r>
       <r>    15.3854     0.3336     6.4827 </r>
       <r>    15.5339     0.6646     6.5814 </r>
       <r>    15.6825     0.5124     6.6575 </r>
       <r>    15.8310     0.8413     6.7825 </r>
       <r>    15.9796     0.3835     6.8395 </r>
       <r>    16.1281     0.5218     6.9170 </r>
       <r>    16.2766     0.2397     6.9526 </r>
       <r>    16.4252     0.5393     7.0327 </r>
       <r>    16.5737     0.3475     7.0843 </r>
       <r>    16.7223     0.3765     7.1402 </r>
       <r>    16.8708     0.4974     7.2141 </r>
       <r>    17.0193     0.6680     7.3133 </r>
       <r>    17.1679     0.5104     7.3891 </r>
       <r>    17.3164     0.3232     7.4371 </r>
       <r>    17.4650     0.4015     7.4968 </r>
       <r>    17.6135     0.7087     7.6020 </r>
       <r>    17.7620     0.4497     7.6689 </r>
       <r>    17.9106     0.3272     7.7175 </r>
       <r>    18.0591     0.4570     7.7853 </r>
       <r>    18.2077     0.9689     7.9293 </r>
       <r>    18.3562     0.7195     8.0361 </r>
       <r>    18.5047     0.3633     8.0901 </r>
       <r>    18.6533     0.3275     8.1388 </r>
       <r>    18.8018     0.6709     8.2384 </r>
       <r>    18.9504     0.4209     8.3009 </r>
       <r>    19.0989     0.4160     8.3627 </r>
       <r>    19.2475     0.7285     8.4709 </r>
       <r>    19.3960     0.8227     8.5931 </r>
       <r>    19.5445     0.1580     8.6166 </r>
       <r>    19.6931     0.3359     8.6665 </r>
       <r>    19.8416     0.3045     8.7117 </r>
       <r>    19.9902     0.7329     8.8206 </r>
       <r>    20.1387     0.7429     8.9310 </r>
       <r>    20.2872     0.7771     9.0464 </r>
       <r>    20.4358     0.6333     9.1405 </r>
       <r>    20.5843     0.5376     9.2203 </r>
       <r>    20.7329     0.5022     9.2949 </r>
       <r>    20.8814     0.2684     9.3348 </r>
       <r>    21.0299     1.0717     9.4940 </r>
       <r>    21.1785     0.6696     9.5934 </r>
       <r>    21.3270     0.5601     9.6766 </r>
       <r>    21.4756     0.6585     9.7744 </r>
       <r>    21.6241     0.2835     9.8166 </r>
       <r>    21.7726     0.8876     9.9484 </r>
       <r>    21.9212     0.6255    10.0413 </r>
       <r>    22.0697     0.2806    10.0830 </r>
       <r>    22.2183     0.3408    10.1336 </r>
       <r>    22.3668     0.5375    10.2135 </r>
       <r>    22.5154     0.6548    10.3107 </r>
       <r>    22.6639     0.5894    10.3983 </r>
       <r>    22.8124     0.3918    10.4565 </r>
       <r>    22.9610     0.4651    10.5255 </r>
       <r>    23.1095     0.8838    10.6568 </r>
       <r>    23.2581     0.7423    10.7671 </r>
       <r>    23.4066     1.0651    10.9253 </r>
       <r>    23.5551     0.7278    11.0334 </r>
       <r>    23.7037     0.8842    11.1647 </r>
       <r>    23.8522     0.2341    11.1995 </r>
       <r>    24.0008     0.4777    11.2705 </r>
       <r>    24.1493     0.6054    11.3604 </r>
       <r>    24.2978     0.3277    11.4091 </r>
       <r>    24.4464     0.9499    11.5502 </r>
       <r>    24.5949     0.5924    11.6382 </r>
       <r>    24.7435     0.4381    11.7033 </r>
       <r>    24.8920     0.4970    11.7771 </r>
       <r>    25.0405     0.3162    11.8241 </r>
       <r>    25.1891     1.1504    11.9949 </r>
       <r>    25.3376     1.2528    12.1810 </r>
       <r>    25.4862     0.4962    12.2547 </r>
       <r>    25.6347     0.4307    12.3187 </r>
       <r>    25.7833     0.7248    12.4264 </r>
       <r>    25.9318     0.7849    12.5429 </r>
       <r>    26.0803     0.5110    12.6189 </r>
       <r>    26.2289     0.6262    12.7119 </r>
       <r>    26.3774     0.6868    12.8139 </r>
       <r>    26.5260     0.8371    12.9382 </r>
       <r>    26.6745     0.5557    13.0208 </r>
       <r>    26.8230     0.1001    13.0356 </r>
       <r>    26.9716     0.5587    13.1186 </r>
       <r>    27.1201     0.5046    13.1936 </r>
       <r>    27.2687     0.8993    13.3272 </r>
       <r>    27.4172     0.7687    13.4414 </r>
       <r>    27.5657     0.8264    13.5641 </r>
       <r>    27.7143     0.6943    13.6673 </r>
       <r>    27.8628     0.1958    13.6963 </r>
       <r>    28.0114     0.5724    13.7814 </r>
       <r>    28.1599     1.0042    13.9305 </r>
       <r>    28.3084     0.5087    14.0061 </r>
       <r>    28.4570     0.3342    14.0557 </r>
       <r>    28.6055     0.0842    14.0682 </r>
       <r>    28.7541     0.3186    14.1156 </r>
       <r>    28.9026     0.9051    14.2500 </r>
       <r>    29.0511     0.4447    14.3161 </r>
       <r>    29.1997     0.4697    14.3858 </r>
       <r>    29.3482     0.3681    14.4405 </r>
       <r>    29.4968     0.4209    14.5030 </r>
       <r>    29.6453     1.0732    14.6624 </r>
       <r>    29.7939     0.7010    14.7666 </r>
       <r>    29.9424     0.6254    14.8595 </r>
       <r>    30.0909     0.4007    14.9190 </r>
       <r>    30.2395     0.4333    14.9834 </r>
       <r>    30.3880     0.1723    15.0089 </r>
       <r>    30.5366     0.4137    15.0704 </r>
       <r>    30.6851     0.5666    15.1546 </r>
       <r>    30.8336     0.3817    15.2113 </r>
       <r>    30.9822     0.2491    15.2483 </r>
       <r>    31.1307     0.3742    15.3039 </r>
       <r>    31.2793     0.5758    15.3894 </r>
       <r>    31.4278     0.3583    15.4426 </r>
       <r>    31.5763     0.1620    15.4667 </r>
       <r>    31.7249     0.0018    15.4669 </r>
       <r>    31.8734     0.4096    15.5278 </r>
       <r>    32.0220     0.3037    15.5729 </r>
       <r>    32.1705     0.0957    15.5871 </r>
       <r>    32.3190     0.1400    15.6079 </r>
       <r>    32.4676     0.1439    15.6293 </r>
       <r>    32.6161     0.1757    15.6554 </r>
       <r>    32.7647     0.3700    15.7103 </r>
       <r>    32.9132     0.2306    15.7446 </r>
       <r>    33.0618     0.0610    15.7536 </r>
       <r>    33.2103     0.1253    15.7722 </r>
       <r>    33.3588     0.2782    15.8136 </r>
       <r>    33.5074     0.1171    15.8310 </r>
       <r>    33.6559     0.1806    15.8578 </r>
       <r>    33.8045     0.1606    15.8816 </r>
       <r>    33.9530     0.0548    15.8898 </r>
       <r>    34.1015     0.0019    15.8901 </r>
       <r>    34.2501     0.1839    15.9174 </r>
       <r>    34.3986     0.0486    15.9246 </r>
       <r>    34.5472     0.0050    15.9253 </r>
       <r>    34.6957     0.0765    15.9367 </r>
       <r>    34.8442     0.0432    15.9431 </r>
       <r>    34.9928     0.1112    15.9596 </r>
       <r>    35.1413     0.1042    15.9751 </r>
       <r>    35.2899     0.0422    15.9814 </r>
       <r>    35.4384     0.0535    15.9893 </r>
       <r>    35.5869     0.0000    15.9893 </r>
       <r>    35.7355     0.0000    15.9893 </r>
       <r>    35.8840     0.0017    15.9896 </r>
       <r>    36.0326     0.0458    15.9964 </r>
       <r>    36.1811     0.0019    15.9967 </r>
       <r>    36.3297     0.0223    16.0000 </r>
       <r>    36.4782     0.0001    16.0000 </r>
       <r>    36.6267     0.0000    16.0000 </r>
       <r>    36.7753     0.0000    16.0000 </r>
       <r>    36.9238     0.0000    16.0000 </r>
       <r>    37.0724     0.0000    16.0000 </r>
       <r>    37.2209     0.0000    16.0000 </r>
       <r>    37.3694     0.0000    16.0000 </r>
       <r>    37.5180     0.0000    16.0000 </r>
       <r>    37.6665     0.0000    16.0000 </r>
       <r>    37.8151     0.0000    16.0000 </r>
       <r>    37.9636     0.0000    16.0000 </r>
       <r>    38.1121     0.0000    16.0000 </r>
       <r>    38.2607     0.0000    16.0000 </r>
      </set>
     </set>
    </array>
   </total>
  </dos>
 </calculation>
 <structure name="finalpos" >
  <crystal>
   <varray name="basis" >
    <v>       2.36727000      -0.00000000       1.36674282 </v>
    <v>       0.78909000       2.23188332       1.36674282 </v>
    <v>      -0.00000001      -0.00000001       2.73348767 </v>
   </varray>
   <i name="volume">     14.44230131 </i>
   <varray name="rec_basis" >
    <v>       0.42242752      -0.14935070       0.00000000 </v>
    <v>       0.00000000       0.44805210       0.00000000 </v>
    <v>      -0.21121360      -0.14935059       0.36583300 </v>
   </varray>
  </crystal>
  <varray name="positions" >
   <v>      -0.00000000      -0.00000000       0.00000000 </v>
  </varray>
 </structure>
</modeling>
