unknown system                          
           1
     2.347395    0.000000    1.355268
     0.782465    2.213145    1.355268
     0.000000    0.000000    2.710538
   Si
     1
Direct configuration=     1
   0.00000000  0.00000000  0.00000000
unknown system                          
           1
     2.369136   -0.000000    1.367820
     0.789712    2.233643    1.367820
    -0.000000   -0.000000    2.735643
   Si
     1
Direct configuration=     2
   0.00000000  0.00000000  0.00000000
unknown system                          
           1
     2.367270   -0.000000    1.366743
     0.789090    2.231883    1.366743
    -0.000000   -0.000000    2.733488
   Si
     1
Direct configuration=     3
  -0.00000000 -0.00000000  0.00000000
