   1   1   0   0
  0.1386300E+02  0.2621157E-09  0.2621157E-09  0.2621157E-09  0.5000000E-15
  1.000000000000000E-004
  CAR 
 unknown system                          
     36.14715120     -6.22550544  301      9.94956281      1.00000000
     -6.226  0.0000E+00  0.0000E+00
     -6.084  0.0000E+00  0.0000E+00
     -5.943  0.0000E+00  0.0000E+00
     -5.802  0.0000E+00  0.0000E+00
     -5.661  0.0000E+00  0.0000E+00
     -5.519  0.0000E+00  0.0000E+00
     -5.378  0.0000E+00  0.0000E+00
     -5.237  0.0000E+00  0.0000E+00
     -5.096  0.0000E+00  0.0000E+00
     -4.954  0.0000E+00  0.0000E+00
     -4.813  0.0000E+00  0.0000E+00
     -4.672  0.0000E+00  0.0000E+00
     -4.531  0.3335E-14  0.4711E-15
     -4.389  0.5859E-06  0.8276E-07
     -4.248  0.9802E-04  0.1393E-04
     -4.107  0.6124E-04  0.2258E-04
     -3.966  0.1208E-02  0.1932E-03
     -3.824  0.1309E-03  0.2117E-03
     -3.683  0.5218E-03  0.2854E-03
     -3.542  0.1197E-02  0.4545E-03
     -3.401  0.1357E-02  0.6462E-03
     -3.259  0.9907E-03  0.7861E-03
     -3.118  0.3069E-03  0.8295E-03
     -2.977  0.2394E-02  0.1168E-02
     -2.836  0.1918E-03  0.1195E-02
     -2.694  0.7916E-03  0.1306E-02
     -2.553  0.1298E-02  0.1490E-02
     -2.412  0.3813E-02  0.2028E-02
     -2.271  0.3726E-03  0.2081E-02
     -2.129  0.2749E-03  0.2120E-02
     -1.988  0.3294E-02  0.2585E-02
     -1.847  0.5853E-03  0.2668E-02
     -1.706  0.2436E-02  0.3012E-02
     -1.565  0.4008E-03  0.3068E-02
     -1.423  0.2208E-02  0.3380E-02
     -1.282  0.1074E-02  0.3532E-02
     -1.141  0.1488E-02  0.3742E-02
     -1.000  0.5832E-02  0.4566E-02
     -0.858  0.1824E-02  0.4823E-02
     -0.717  0.9768E-08  0.4823E-02
     -0.576  0.3950E-03  0.4879E-02
     -0.435  0.4686E-02  0.5541E-02
     -0.293  0.4382E-03  0.5603E-02
     -0.152  0.8651E-03  0.5725E-02
     -0.011  0.3497E-02  0.6219E-02
      0.130  0.1626E-02  0.6449E-02
      0.272  0.2936E-02  0.6863E-02
      0.413  0.6730E-03  0.6958E-02
      0.554  0.7164E-02  0.7970E-02
      0.695  0.7608E-03  0.8078E-02
      0.837  0.1853E-02  0.8340E-02
      0.978  0.3401E-02  0.8820E-02
      1.119  0.1717E-02  0.9063E-02
      1.260  0.2333E-02  0.9392E-02
      1.402  0.5085E-03  0.9464E-02
      1.543  0.4768E-02  0.1014E-01
      1.684  0.2716E-03  0.1018E-01
      1.825  0.6199E-03  0.1026E-01
      1.967  0.6107E-02  0.1113E-01
      2.108  0.2853E-02  0.1153E-01
      2.249  0.2406E-02  0.1187E-01
      2.390  0.9473E-03  0.1200E-01
      2.532  0.9339E-02  0.1332E-01
      2.673  0.2068E-02  0.1361E-01
      2.814  0.3089E-02  0.1405E-01
      2.955  0.2027E-02  0.1434E-01
      3.096  0.5246E-03  0.1441E-01
      3.238  0.1216E-02  0.1458E-01
      3.379  0.2126E-02  0.1488E-01
      3.520  0.4316E-02  0.1549E-01
      3.661  0.2613E-02  0.1586E-01
      3.803  0.3074E-02  0.1630E-01
      3.944  0.4511E-02  0.1693E-01
      4.085  0.1849E-02  0.1719E-01
      4.226  0.7738E-02  0.1829E-01
      4.368  0.1282E-02  0.1847E-01
      4.509  0.3969E-04  0.1847E-01
      4.650  0.5051E-02  0.1919E-01
      4.791  0.6332E-02  0.2008E-01
      4.933  0.2108E-02  0.2038E-01
      5.074  0.4227E-02  0.2098E-01
      5.215  0.3874E-02  0.2152E-01
      5.356  0.1077E-02  0.2167E-01
      5.498  0.4165E-02  0.2226E-01
      5.639  0.2597E-02  0.2263E-01
      5.780  0.1126E-02  0.2279E-01
      5.921  0.2184E-02  0.2310E-01
      6.063  0.3191E-02  0.2355E-01
      6.204  0.6730E-02  0.2450E-01
      6.345  0.2734E-02  0.2488E-01
      6.486  0.5255E-02  0.2563E-01
      6.628  0.3987E-02  0.2619E-01
      6.769  0.3748E-02  0.2672E-01
      6.910  0.6694E-02  0.2767E-01
      7.051  0.2458E-02  0.2801E-01
      7.193  0.2324E-02  0.2834E-01
      7.334  0.4523E-02  0.2898E-01
      7.475  0.3424E-02  0.2946E-01
      7.616  0.3213E-02  0.2992E-01
      7.757  0.5485E-02  0.3069E-01
      7.899  0.4063E-02  0.3127E-01
      8.040  0.4778E-02  0.3194E-01
      8.181  0.8231E-03  0.3206E-01
      8.322  0.4292E-02  0.3266E-01
      8.464  0.3663E-02  0.3318E-01
      8.605  0.3727E-02  0.3371E-01
      8.746  0.6600E-02  0.3464E-01
      8.887  0.3372E-02  0.3511E-01
      9.029  0.4368E-02  0.3573E-01
      9.170  0.5738E-02  0.3654E-01
      9.311  0.2485E-02  0.3689E-01
      9.452  0.4487E-02  0.3753E-01
      9.594  0.1108E-02  0.3768E-01
      9.735  0.8145E-02  0.3883E-01
      9.876  0.3921E-02  0.3939E-01
     10.017  0.7540E-02  0.4045E-01
     10.159  0.7599E-02  0.4153E-01
     10.300  0.5151E-02  0.4225E-01
     10.441  0.2145E-02  0.4256E-01
     10.582  0.3995E-02  0.4312E-01
     10.724  0.3164E-02  0.4357E-01
     10.865  0.4658E-02  0.4423E-01
     11.006  0.3459E-02  0.4471E-01
     11.147  0.7109E-02  0.4572E-01
     11.289  0.5576E-03  0.4580E-01
     11.430  0.2870E-02  0.4620E-01
     11.571  0.3439E-02  0.4669E-01
     11.712  0.3206E-02  0.4714E-01
     11.853  0.6410E-02  0.4805E-01
     11.995  0.3478E-02  0.4854E-01
     12.136  0.5410E-02  0.4930E-01
     12.277  0.4065E-02  0.4988E-01
     12.418  0.5533E-02  0.5066E-01
     12.560  0.9658E-02  0.5202E-01
     12.701  0.5875E-02  0.5285E-01
     12.842  0.2516E-02  0.5321E-01
     12.983  0.1220E-04  0.5321E-01
     13.125  0.1846E-02  0.5347E-01
     13.266  0.5917E-02  0.5430E-01
     13.407  0.6115E-02  0.5517E-01
     13.548  0.4563E-02  0.5581E-01
     13.690  0.7134E-02  0.5682E-01
     13.831  0.4281E-02  0.5743E-01
     13.972  0.8190E-02  0.5858E-01
     14.113  0.4818E-02  0.5926E-01
     14.255  0.2405E-02  0.5960E-01
     14.396  0.2717E-02  0.5999E-01
     14.537  0.8892E-02  0.6124E-01
     14.678  0.6307E-02  0.6213E-01
     14.820  0.1530E-03  0.6215E-01
     14.961  0.2823E-02  0.6255E-01
     15.102  0.2338E-02  0.6288E-01
     15.243  0.5017E-02  0.6359E-01
     15.385  0.7576E-02  0.6466E-01
     15.526  0.4503E-02  0.6530E-01
     15.667  0.9241E-02  0.6660E-01
     15.808  0.6940E-02  0.6758E-01
     15.950  0.7194E-02  0.6860E-01
     16.091  0.5985E-02  0.6944E-01
     16.232  0.6570E-02  0.7037E-01
     16.373  0.1193E-02  0.7054E-01
     16.514  0.4862E-02  0.7123E-01
     16.656  0.2128E-02  0.7153E-01
     16.797  0.8019E-02  0.7266E-01
     16.938  0.6702E-02  0.7361E-01
     17.079  0.5157E-02  0.7434E-01
     17.221  0.7683E-02  0.7542E-01
     17.362  0.8144E-02  0.7657E-01
     17.503  0.6438E-02  0.7748E-01
     17.644  0.1624E-02  0.7771E-01
     17.786  0.1278E-02  0.7789E-01
     17.927  0.7828E-02  0.7900E-01
     18.068  0.8146E-02  0.8015E-01
     18.209  0.1111E-01  0.8172E-01
     18.351  0.1001E-02  0.8186E-01
     18.492  0.1053E-01  0.8334E-01
     18.633  0.1926E-02  0.8362E-01
     18.774  0.3866E-04  0.8362E-01
     18.916  0.3161E-02  0.8407E-01
     19.057  0.1518E-02  0.8428E-01
     19.198  0.8629E-03  0.8440E-01
     19.339  0.3388E-02  0.8488E-01
     19.481  0.2356E-02  0.8522E-01
     19.622  0.3312E-02  0.8568E-01
     19.763  0.6977E-02  0.8667E-01
     19.904  0.1085E-01  0.8820E-01
     20.046  0.8883E-02  0.8946E-01
     20.187  0.8994E-02  0.9073E-01
     20.328  0.9425E-02  0.9206E-01
     20.469  0.3681E-02  0.9258E-01
     20.611  0.6665E-02  0.9352E-01
     20.752  0.6574E-03  0.9361E-01
     20.893  0.5609E-02  0.9440E-01
     21.034  0.1919E-02  0.9467E-01
     21.175  0.1549E-02  0.9489E-01
     21.317  0.1124E-01  0.9648E-01
     21.458  0.1472E-01  0.9856E-01
     21.599  0.3067E-02  0.9899E-01
     21.740  0.6157E-02  0.9986E-01
     21.882  0.5141E-02  0.1006E+00
     22.023  0.3334E-02  0.1011E+00
     22.164  0.1612E-01  0.1033E+00
     22.305  0.5507E-02  0.1041E+00
     22.447  0.3518E-02  0.1046E+00
     22.588  0.4409E-02  0.1052E+00
     22.729  0.6093E-02  0.1061E+00
     22.870  0.4330E-02  0.1067E+00
     23.012  0.9491E-02  0.1080E+00
     23.153  0.8183E-02  0.1092E+00
     23.294  0.3432E-02  0.1097E+00
     23.435  0.7524E-02  0.1108E+00
     23.577  0.8402E-02  0.1119E+00
     23.718  0.2480E-02  0.1123E+00
     23.859  0.9903E-02  0.1137E+00
     24.000  0.9625E-02  0.1150E+00
     24.142  0.3234E-02  0.1155E+00
     24.283  0.2195E-03  0.1155E+00
     24.424  0.8108E-02  0.1167E+00
     24.565  0.4019E-02  0.1172E+00
     24.707  0.1055E-01  0.1187E+00
     24.848  0.7558E-03  0.1188E+00
     24.989  0.5695E-02  0.1196E+00
     25.130  0.1200E-01  0.1213E+00
     25.272  0.4885E-02  0.1220E+00
     25.413  0.4191E-02  0.1226E+00
     25.554  0.4191E-02  0.1232E+00
     25.695  0.1380E-02  0.1234E+00
     25.836  0.1868E-02  0.1237E+00
     25.978  0.5153E-02  0.1244E+00
     26.119  0.1360E-01  0.1263E+00
     26.260  0.9589E-02  0.1277E+00
     26.401  0.8785E-02  0.1289E+00
     26.543  0.3262E-02  0.1294E+00
     26.684  0.6615E-02  0.1303E+00
     26.825  0.3860E-02  0.1309E+00
     26.966  0.9345E-02  0.1322E+00
     27.108  0.7640E-02  0.1333E+00
     27.249  0.5534E-02  0.1340E+00
     27.390  0.6260E-02  0.1349E+00
     27.531  0.7454E-02  0.1360E+00
     27.673  0.6742E-02  0.1369E+00
     27.814  0.9740E-02  0.1383E+00
     27.955  0.3662E-02  0.1388E+00
     28.096  0.3734E-02  0.1394E+00
     28.238  0.2292E-02  0.1397E+00
     28.379  0.7073E-02  0.1407E+00
     28.520  0.3655E-02  0.1412E+00
     28.661  0.2664E-02  0.1416E+00
     28.803  0.5255E-02  0.1423E+00
     28.944  0.4038E-02  0.1429E+00
     29.085  0.1382E-01  0.1448E+00
     29.226  0.1516E-01  0.1470E+00
     29.368  0.9880E-02  0.1484E+00
     29.509  0.1706E-02  0.1486E+00
     29.650  0.6733E-02  0.1496E+00
     29.791  0.4147E-02  0.1501E+00
     29.932  0.1059E-01  0.1516E+00
     30.074  0.4534E-02  0.1523E+00
     30.215  0.4895E-02  0.1530E+00
     30.356  0.3910E-02  0.1535E+00
     30.497  0.3729E-02  0.1541E+00
     30.639  0.6765E-02  0.1550E+00
     30.780  0.7853E-02  0.1561E+00
     30.921  0.5777E-02  0.1569E+00
     31.062  0.2038E-02  0.1572E+00
     31.204  0.3029E-02  0.1576E+00
     31.345  0.3684E-02  0.1582E+00
     31.486  0.1484E-02  0.1584E+00
     31.627  0.2439E-07  0.1584E+00
     31.769  0.7348E-07  0.1584E+00
     31.910  0.1993E-02  0.1587E+00
     32.051  0.4934E-02  0.1594E+00
     32.192  0.1523E-02  0.1596E+00
     32.334  0.6060E-04  0.1596E+00
     32.475  0.2005E-10  0.1596E+00
     32.616  0.1787E-14  0.1596E+00
     32.757  0.1418E-05  0.1596E+00
     32.899  0.7265E-03  0.1597E+00
     33.040  0.1231E-03  0.1597E+00
     33.181  0.1836E-09  0.1597E+00
     33.322  0.0000E+00  0.1597E+00
     33.464  0.0000E+00  0.1597E+00
     33.605  0.6318E-11  0.1597E+00
     33.746  0.3367E-04  0.1597E+00
     33.887  0.5991E-03  0.1598E+00
     34.029  0.2591E-03  0.1598E+00
     34.170  0.4470E-03  0.1599E+00
     34.311  0.7842E-03  0.1600E+00
     34.452  0.4687E-05  0.1600E+00
     34.593  0.2668E-13  0.1600E+00
     34.735  0.0000E+00  0.1600E+00
     34.876  0.0000E+00  0.1600E+00
     35.017  0.0000E+00  0.1600E+00
     35.158  0.0000E+00  0.1600E+00
     35.300  0.0000E+00  0.1600E+00
     35.441  0.0000E+00  0.1600E+00
     35.582  0.0000E+00  0.1600E+00
     35.723  0.0000E+00  0.1600E+00
     35.865  0.0000E+00  0.1600E+00
     36.006  0.0000E+00  0.1600E+00
     36.147  0.0000E+00  0.1600E+00
