    1    1  100    1
  0.1386300E+02  0.2621157E-09  0.2621157E-09  0.2621157E-09  0.5000000E-15
  1.000000000000000E-004
  CAR 
 unknown system                          
      4     56      8
 
  0.0000000E+00  0.0000000E+00  0.0000000E+00  0.7513148E-03
    1       -4.299476   1.000000
    2       21.406075   0.000000
    3       21.406075   0.000000
    4       21.406075   0.000000
    5       22.547780   0.000000
    6       22.547780   0.000000
    7       22.547780   0.000000
    8       26.235376   0.000000
 
  0.9090909E-01  0.0000000E+00  0.0000000E+00  0.9015778E-02
    1       -4.045730   1.000000
    2       18.880457   0.000000
    3       19.754155   0.000000
    4       21.052626   0.000000
    5       21.771347   0.000000
    6       23.424857   0.000000
    7       24.616665   0.000000
    8       25.085604   0.000000
 
  0.1818182E+00  0.0000000E+00  0.0000000E+00  0.9015778E-02
    1       -3.286307   1.000000
    2       15.102460   0.000000
    3       18.068194   0.000000
    4       20.190380   0.000000
    5       20.337058   0.000000
    6       22.387216   0.000000
    7       25.864051   0.000000
    8       26.192184   0.000000
 
  0.2727273E+00  0.0000000E+00  0.0000000E+00  0.9015778E-02
    1       -2.026854   1.000000
    2       11.297744   0.000000
    3       16.791976   0.000000
    4       19.041391   0.000000
    5       19.251047   0.000000
    6       21.196134   0.000000
    7       27.008162   0.000000
    8       27.316572   0.000000
 
  0.3636364E+00  0.0000000E+00  0.0000000E+00  0.9015778E-02
    1       -0.277096   1.000000
    2        7.780864   1.000000
    3       15.940992   0.000000
    4       18.124801   0.000000
    5       18.529508   0.000000
    6       20.350471   0.000000
    7       28.338089   0.000000
    8       29.017214   0.000000
 
  0.4545455E+00  0.0000000E+00  0.0000000E+00  0.9015778E-02
    1        1.943876   1.000000
    2        4.662958   1.000000
    3       15.515569   0.000000
    4       17.654865   0.000000
    5       18.147959   0.000000
    6       19.912496   0.000000
    7       29.884075   0.000000
    8       30.603904   0.000000
 
  0.9090909E-01  0.9090909E-01  0.0000000E+00  0.1803156E-01
    1       -3.539130   1.000000
    2       16.883549   0.000000
    3       17.421355   0.000000
    4       19.431721   0.000000
    5       22.129502   0.000000
    6       23.508386   0.000000
    7       24.677379   0.000000
    8       25.893095   0.000000
 
  0.1818182E+00  0.9090909E-01 -0.6938894E-17  0.3606311E-01
    1       -2.529688   1.000000
    2       13.327236   0.000000
    3       15.664471   0.000000
    4       18.113164   0.000000
    5       21.454354   0.000000
    6       22.958403   0.000000
    7       25.257422   0.000000
    8       27.712969   0.000000
 
  0.2727273E+00  0.9090909E-01  0.2775558E-16  0.3606311E-01
    1       -1.024891   1.000000
    2        9.668236   1.000000
    3       14.544421   0.000000
    4       17.081932   0.000000
    5       20.542637   0.000000
    6       22.464965   0.000000
    7       26.147019   0.000000
    8       29.577303   0.000000
 
  0.3636364E+00  0.9090909E-01  0.0000000E+00  0.3606311E-01
    1        0.962680   1.000000
    2        6.346835   1.000000
    3       13.870936   0.000000
    4       16.438964   0.000000
    5       19.924313   0.000000
    6       22.035639   0.000000
    7       27.671043   0.000000
    8       30.674204   0.000000
 
  0.4545455E+00  0.9090909E-01  0.0000000E+00  0.1803156E-01
    1        3.239830   1.000000
    2        3.620831   1.000000
    3       13.645639   0.000000
    4       16.221283   0.000000
    5       19.710641   0.000000
    6       21.873172   0.000000
    7       29.363787   0.000000
    8       29.696256   0.000000
 
  0.1818182E+00  0.1818182E+00 -0.1387779E-16  0.1803156E-01
    1       -1.274781   1.000000
    2       11.797670   0.000000
    3       12.160107   0.000000
    4       16.896624   0.000000
    5       22.062616   0.000000
    6       22.965484   0.000000
    7       26.893268   0.000000
    8       28.013274   0.000000
 
  0.2727273E+00  0.1818182E+00  0.2775558E-16  0.3606311E-01
    1        0.468710   1.000000
    2        8.484895   1.000000
    3       11.062778   0.000000
    4       16.056101   0.000000
    5       21.706038   0.000000
    6       23.768283   0.000000
    7       27.094059   0.000000
    8       29.814513   0.000000
 
  0.3636364E+00  0.1818182E+00 -0.6938894E-16  0.3606311E-01
    1        2.682132   1.000000
    2        5.386496   1.000000
    3       10.592151   0.000000
    4       15.625337   0.000000
    5       21.339424   0.000000
    6       24.640848   0.000000
    7       27.455176   0.000000
    8       29.294482   0.000000
 
  0.2727273E+00  0.2727273E+00  0.0000000E+00  0.1803156E-01
    1        2.441143   1.000000
    2        7.635678   1.000000
    3        7.928267   1.000000
    4       15.426238   0.000000
    5       22.982432   0.000000
    6       23.876949   0.000000
    7       27.772688   0.000000
    8       30.094704   0.000000
 
  0.3636364E+00  0.2727273E+00  0.0000000E+00  0.1803156E-01
    1        4.709259   1.000000
    2        5.061175   1.000000
    3        7.555611   1.000000
    4       15.211868   0.000000
    5       23.121635   0.000000
    6       25.130004   0.000000
    7       26.154175   0.000000
    8       30.943911   0.000000
 
  0.9090909E-01  0.9090909E-01  0.9090909E-01  0.6010518E-02
    1       -2.781599   1.000000
    2       15.022888   0.000000
    3       15.885680   0.000000
    4       15.885680   0.000000
    5       24.065809   0.000000
    6       24.065809   0.000000
    7       26.075007   0.000000
    8       26.075007   0.000000
 
  0.1818182E+00  0.9090909E-01  0.9090909E-01  0.1803156E-01
    1       -1.525202   1.000000
    2       11.744382   0.000000
    3       14.027102   0.000000
    4       14.580797   0.000000
    5       23.876023   0.000000
    6       24.334267   0.000000
    7       27.236222   0.000000
    8       27.405448   0.000000
 
  0.2727273E+00  0.9090909E-01  0.9090909E-01  0.1803156E-01
    1        0.220537   1.000000
    2        8.256430   1.000000
    3       13.105145   0.000000
    4       13.675708   0.000000
    5       23.470610   0.000000
    6       23.761201   0.000000
    7       28.755218   0.000000
    8       29.168525   0.000000
 
  0.3636364E+00  0.9090909E-01  0.9090909E-01  0.1803156E-01
    1        2.436848   1.000000
    2        5.147452   1.000000
    3       12.649577   0.000000
    4       13.215438   0.000000
    5       23.192967   0.000000
    6       23.411923   0.000000
    7       30.199026   0.000000
    8       30.828732   0.000000
 
 -0.9090909E-01  0.9090909E-01  0.9090909E-01  0.4507889E-02
    1       -3.792245   1.000000
    2       18.366842   0.000000
    3       18.366842   0.000000
    4       19.680336   0.000000
    5       22.558617   0.000000
    6       23.035565   0.000000
    7       24.378394   0.000000
    8       24.378394   0.000000
 
  0.1818182E+00  0.1818182E+00  0.9090909E-01  0.1803156E-01
    1       -0.027606   1.000000
    2       10.425167   0.000000
    3       10.799315   0.000000
    4       13.208795   0.000000
    5       24.945544   0.000000
    6       25.837483   0.000000
    7       27.956899   0.000000
    8       28.821143   0.000000
 
  0.2727273E+00  0.1818182E+00  0.9090909E-01  0.3606311E-01
    1        1.950675   1.000000
    2        7.302419   1.000000
    3        9.920842   0.791700
    4       12.518078   0.000000
    5       25.041340   0.000000
    6       26.401919   0.000000
    7       29.034689   0.000000
    8       30.509214   0.000000
 
  0.3636364E+00  0.1818182E+00  0.9090909E-01  0.1803156E-01
    1        4.224908   1.000000
    2        4.585677   1.000000
    3        9.682374   1.000000
    4       12.287995   0.000000
    5       24.953004   0.000000
    6       26.599129   0.000000
    7       29.944146   0.000000
    8       30.711730   0.000000
 
 -0.1818182E+00  0.1818182E+00  0.9090909E-01  0.1803156E-01
    1       -3.033719   1.000000
    2       15.229257   0.000000
    3       16.685458   0.000000
    4       18.883269   0.000000
    5       21.283575   0.000000
    6       22.120867   0.000000
    7       24.634628   0.000000
    8       26.840557   0.000000
 
  0.2727273E+00  0.2727273E+00  0.9090909E-01  0.1803156E-01
    1        4.144830   1.000000
    2        6.689334   1.000000
    3        6.987178   1.000000
    4       12.055422   0.000000
    5       26.282048   0.000000
    6       27.548178   0.000000
    7       29.215827   0.000000
    8       31.334474   0.000000
 
 -0.2727273E+00  0.2727273E+00  0.9090909E-01  0.1803156E-01
    1       -1.775746   1.000000
    2       11.507657   0.000000
    3       15.376072   0.000000
    4       17.911058   0.000000
    5       20.901446   0.000000
    6       21.342302   0.000000
    7       24.439611   0.000000
    8       30.041639   0.000000
 
 -0.1818182E+00  0.2727273E+00  0.9090909E-01  0.1803156E-01
    1       -2.026656   1.000000
    2       13.535662   0.000000
    3       13.830989   0.000000
    4       18.393737   0.000000
    5       20.133916   0.000000
    6       21.752842   0.000000
    7       26.290959   0.000000
    8       27.235624   0.000000
 
 -0.3636364E+00  0.3636364E+00  0.9090909E-01  0.1803156E-01
    1       -0.028132   1.000000
    2        8.013077   1.000000
    3       14.493568   0.000000
    4       17.097304   0.000000
    5       20.026405   0.000000
    6       21.436172   0.000000
    7       25.039761   0.000000
    8       30.375428   0.000000
 
 -0.2727273E+00  0.3636364E+00  0.9090909E-01  0.3606311E-01
    1       -0.525505   1.000000
    2       10.108563   0.000003
    3       12.557454   0.000000
    4       17.831772   0.000000
    5       20.186157   0.000000
    6       21.300830   0.000000
    7       26.031512   0.000000
    8       29.203008   0.000000
 
 -0.4545455E+00  0.4545455E+00  0.9090909E-01  0.1803156E-01
    1        2.190159   1.000000
    2        4.903076   1.000000
    3       14.050709   0.000000
    4       16.666175   0.000000
    5       19.578737   0.000000
    6       21.342430   0.000000
    7       26.571498   0.000000
    8       28.672118   0.000000
 
 -0.3636364E+00  0.4545455E+00  0.9090909E-01  0.3606311E-01
    1        1.456931   1.000000
    2        6.818231   1.000000
    3       11.864995   0.000000
    4       17.273863   0.000000
    5       19.856636   0.000000
    6       22.268865   0.000000
    7       25.522298   0.000000
    8       28.300705   0.000000
 
 -0.2727273E+00  0.4545455E+00  0.9090909E-01  0.1803156E-01
    1        1.211065   1.000000
    2        9.038560   1.000000
    3        9.313686   1.000000
    4       18.104801   0.000000
    5       20.322479   0.000000
    6       20.797194   0.000000
    7       26.679691   0.000000
    8       29.105161   0.000000
 
 -0.4545455E+00 -0.4545455E+00  0.9090909E-01  0.1803156E-01
    1        3.735017   1.000000
    2        4.097064   1.000000
    3       11.634052   0.000000
    4       17.071864   0.000000
    5       19.673217   0.000000
    6       23.056505   0.000000
    7       25.334310   0.000000
    8       27.287851   0.000000
 
 -0.3636364E+00 -0.4545455E+00  0.9090909E-01  0.3606311E-01
    1        3.414941   1.000000
    2        6.098125   1.000000
    3        8.711739   1.000000
    4       17.945894   0.000000
    5       20.209282   0.000000
    6       22.093557   0.000000
    7       24.401620   0.000000
    8       29.840835   0.000000
 
 -0.3636364E+00 -0.3636364E+00  0.9090909E-01  0.6010518E-02
    1        5.547348   1.000000
    2        6.006733   1.000000
    3        6.006733   1.000000
    4       18.024033   0.000000
    5       21.702465   0.000000
    6       22.134566   0.000000
    7       22.134566   0.000000
    8       32.861119   0.000000
 
  0.1818182E+00  0.1818182E+00  0.1818182E+00  0.6010518E-02
    1        1.705333   1.000000
    2        9.357218   1.000000
    3        9.868681   0.988922
    4        9.868681   0.988922
    5       27.597558   0.000000
    6       27.597558   0.000000
    7       29.572999   0.000000
    8       29.572999   0.000000
 
  0.2727273E+00  0.1818182E+00  0.1818182E+00  0.1803156E-01
    1        3.905330   1.000000
    2        6.586850   1.000000
    3        9.079892   1.000000
    4        9.398851   1.000000
    5       28.207865   0.000000
    6       28.510660   0.000000
    7       30.843986   0.000000
    8       31.133597   0.000000
 
 -0.1818182E+00  0.1818182E+00  0.1818182E+00  0.4507889E-02
    1       -2.277893   1.000000
    2       14.977943   0.000000
    3       14.977943   0.000000
    4       16.859423   0.000000
    5       18.575088   0.000000
    6       24.515659   0.000000
    7       26.092014   0.000000
    8       26.092014   0.000000
 
  0.2727273E+00  0.2727273E+00  0.1818182E+00  0.6010518E-02
    1        6.010964   1.000000
    2        6.513537   1.000000
    3        6.513537   1.000000
    4        9.017058   1.000000
    5       29.347638   0.000000
    6       30.569708   0.000000
    7       30.569708   0.000000
    8       32.140505   0.000000
 
 -0.2727273E+00  0.2727273E+00  0.1818182E+00  0.1803156E-01
    1       -1.024419   1.000000
    2       12.083399   0.000000
    3       13.646852   0.000000
    4       16.106634   0.000000
    5       18.066780   0.000000
    6       23.941881   0.000000
    7       26.063252   0.000000
    8       28.828344   0.000000
 
 -0.3636364E+00  0.3636364E+00  0.1818182E+00  0.1803156E-01
    1        0.716581   1.000000
    2        8.696970   1.000000
    3       12.749813   0.000000
    4       15.321291   0.000000
    5       19.236455   0.000000
    6       23.128866   0.000000
    7       25.009391   0.000000
    8       27.840995   0.000000
 
 -0.2727273E+00  0.3636364E+00  0.1818182E+00  0.1803156E-01
    1        0.469089   1.000000
    2       10.826211   0.000000
    3       11.045825   0.000000
    4       16.161501   0.000000
    5       17.238633   0.000000
    6       23.719849   0.000000
    7       26.039220   0.000000
    8       28.497794   0.000000
 
 -0.4545455E+00  0.4545455E+00  0.1818182E+00  0.1803156E-01
    1        2.926162   1.000000
    2        5.619210   1.000000
    3       12.299476   0.000000
    4       14.875504   0.000000
    5       20.796476   0.000000
    6       22.700072   0.000000
    7       23.547125   0.000000
    8       26.917970   0.000000
 
 -0.3636364E+00  0.4545455E+00  0.1818182E+00  0.3606311E-01
    1        2.440650   1.000000
    2        7.745301   1.000000
    3       10.245822   0.000000
    4       15.891039   0.000000
    5       18.412662   0.000000
    6       22.713236   0.000000
    7       23.980874   0.000000
    8       29.064690   0.000000
 
 -0.4545455E+00 -0.4545455E+00  0.1818182E+00  0.1803156E-01
    1        4.716258   1.000000
    2        5.044643   1.000000
    3       10.010874   0.041446
    4       15.694831   0.000000
    5       19.895170   0.000000
    6       21.217687   0.000000
    7       23.410353   0.000000
    8       29.037455   0.000000
 
 -0.3636364E+00 -0.4545455E+00  0.1818182E+00  0.1803156E-01
    1        4.623953   1.000000
    2        7.151742   1.000000
    3        7.403468   1.000000
    4       17.229043   0.000000
    5       18.438010   0.000000
    6       20.488155   0.000000
    7       23.359062   0.000000
    8       31.911845   0.000000
 
 -0.2727273E+00  0.2727273E+00  0.2727273E+00  0.4507889E-02
    1        0.221167   1.000000
    2       12.303295   0.000000
    3       12.303295   0.000000
    4       14.358294   0.000000
    5       15.523738   0.000000
    6       25.678505   0.000000
    7       26.950993   0.000000
    8       28.293918   0.000000
 
 -0.3636364E+00  0.3636364E+00  0.2727273E+00  0.1803156E-01
    1        1.950354   1.000000
    2        9.766410   1.000000
    3       11.398782   0.000000
    4       13.860724   0.000000
    5       15.688255   0.000000
    6       22.761726   0.000000
    7       26.700959   0.000000
    8       29.088355   0.000000
 
 -0.4545455E+00  0.4545455E+00  0.2727273E+00  0.1803156E-01
    1        4.142320   1.000000
    2        6.794508   1.000000
    3       10.944875   0.000000
    4       13.448853   0.000000
    5       17.472897   0.000000
    6       20.048455   0.000000
    7       26.303492   0.000000
    8       29.200975   0.000000
 
 -0.3636364E+00  0.4545455E+00  0.2727273E+00  0.1803156E-01
    1        3.902309   1.000000
    2        8.970515   1.000000
    3        9.166153   1.000000
    4       14.446097   0.000000
    5       15.269654   0.000000
    6       19.790282   0.000000
    7       27.041454   0.000000
    8       31.314852   0.000000
 
 -0.4545455E+00 -0.4545455E+00  0.2727273E+00  0.1803156E-01
    1        6.159697   1.000000
    2        6.446311   1.000000
    3        8.841588   1.000000
    4       14.518867   0.000000
    5       16.783792   0.000000
    6       17.477959   0.000000
    7       26.923690   0.000000
    8       31.928171   0.000000
 
 -0.3636364E+00  0.3636364E+00  0.3636364E+00  0.4507889E-02
    1        3.659938   1.000000
    2       10.490687   0.000000
    3       10.490687   0.000000
    4       12.553486   0.000000
    5       13.474491   0.000000
    6       19.560927   0.000000
    7       30.238102   0.000000
    8       31.114488   0.000000
 
 -0.4545455E+00  0.4545455E+00  0.3636364E+00  0.1803156E-01
    1        5.816703   1.000000
    2        8.359890   1.000000
    3       10.035505   0.007532
    4       12.430389   0.000000
    5       14.232131   0.000000
    6       16.683462   0.000000
    7       30.236230   0.000000
    8       32.031401   0.000000
 
 -0.4545455E+00 -0.4545455E+00  0.3636364E+00  0.6010518E-02
    1        7.917515   1.000000
    2        8.222402   1.000000
    3        8.222403   1.000000
    4       13.288267   0.000000
    5       14.279770   0.000000
    6       14.279770   0.000000
    7       30.764605   0.000000
    8       34.221121   0.000000
 
 -0.4545455E+00  0.4545455E+00  0.4545455E+00  0.4507889E-02
    1        7.875374   1.000000
    2        9.579612   1.000000
    3        9.579612   1.000000
    4       11.554615   0.000000
    5       12.445964   0.000000
    6       13.820087   0.000000
    7       33.803269   0.000000
    8       34.037734   0.000000
