<?xml version="1.0" encoding="ISO-8859-1"?>
<modeling>
 <generator>
  <i name="program" type="string">vasp </i>
  <i name="version" type="string">6.2.0  </i>
  <i name="subversion" type="string">18Jan21 (build Aug 12 2022 13:00:08) complex                          parallel </i>
  <i name="platform" type="string">LinuxIFC </i>
  <i name="date" type="string">2024 11 03 </i>
  <i name="time" type="string">21:51:46 </i>
 </generator>
 <incar>
  <i type="int" name="ISTART">     0</i>
  <i type="string" name="PREC">Accurate      (Accurate strictly avoids</i>
  <i type="logical" name="ADDGRID"> T  </i>
  <i type="int" name="ISPIN">     1</i>
  <i type="int" name="NELM">    90</i>
  <i type="int" name="NELMIN">     6</i>
  <i type="int" name="IBRION">     2</i>
  <i name="EDIFF">      0.00000100</i>
  <i name="EDIFFG">     -0.00200000</i>
  <i type="int" name="NSW">   100</i>
  <i type="int" name="ISIF">     3</i>
  <i type="int" name="ISYM">     2</i>
  <i name="ENCUT">    350.00000000</i>
  <i type="logical" name="LREAL"> F  </i>
  <i type="int" name="ISMEAR">     0</i>
  <i name="SIGMA">      0.05000000</i>
  <i type="logical" name="LWAVE"> F  </i>
  <i type="logical" name="LCHARG"> F  </i>
  <i type="logical" name="LASPH"> T  </i>
 </incar>
 <primitive_cell>
  <structure name="primitive_cell" >
   <crystal>
    <varray name="basis" >
     <v>       1.51332563       1.51332563       1.51332563 </v>
     <v>       1.51332563      -1.51332563      -1.51332563 </v>
     <v>      -1.51332563       1.51332563      -1.51332563 </v>
    </varray>
    <i name="volume">     13.86299778 </i>
    <varray name="rec_basis" >
     <v>       0.33039816       0.33039816       0.00000000 </v>
     <v>       0.33039816       0.00000000      -0.33039816 </v>
     <v>       0.00000000       0.33039816      -0.33039816 </v>
    </varray>
   </crystal>
   <varray name="positions" >
    <v>       0.00000000       0.00000000       0.00000000 </v>
   </varray>
  </structure>
  <varray name="primitive_index" >
   <v type="int" >        1 </v>
  </varray>
 </primitive_cell>
 <kpoints>
  <generation param="Monkhorst-Pack">
   <v type="int" name="divisions">      11       11       11 </v>
   <v name="usershift">      0.00000000       0.00000000       0.00000000 </v>
   <v name="genvec1">      0.09090909       0.00000000       0.00000000 </v>
   <v name="genvec2">      0.00000000       0.09090909       0.00000000 </v>
   <v name="genvec3">      0.00000000       0.00000000       0.09090909 </v>
   <v name="shift">      0.00000000       0.00000000       0.00000000 </v>
  </generation>
  <varray name="kpointlist" >
   <v>       0.00000000       0.00000000       0.00000000 </v>
   <v>       0.09090909       0.00000000       0.00000000 </v>
   <v>       0.18181818       0.00000000       0.00000000 </v>
   <v>       0.27272727       0.00000000       0.00000000 </v>
   <v>       0.36363636       0.00000000       0.00000000 </v>
   <v>       0.45454545       0.00000000       0.00000000 </v>
   <v>       0.09090909       0.09090909       0.00000000 </v>
   <v>       0.18181818       0.09090909      -0.00000000 </v>
   <v>       0.27272727       0.09090909       0.00000000 </v>
   <v>       0.36363636       0.09090909       0.00000000 </v>
   <v>       0.45454545       0.09090909       0.00000000 </v>
   <v>       0.18181818       0.18181818      -0.00000000 </v>
   <v>       0.27272727       0.18181818       0.00000000 </v>
   <v>       0.36363636       0.18181818      -0.00000000 </v>
   <v>       0.27272727       0.27272727       0.00000000 </v>
   <v>       0.36363636       0.27272727       0.00000000 </v>
   <v>       0.09090909       0.09090909       0.09090909 </v>
   <v>       0.18181818       0.09090909       0.09090909 </v>
   <v>       0.27272727       0.09090909       0.09090909 </v>
   <v>       0.36363636       0.09090909       0.09090909 </v>
   <v>      -0.09090909       0.09090909       0.09090909 </v>
   <v>       0.18181818       0.18181818       0.09090909 </v>
   <v>       0.27272727       0.18181818       0.09090909 </v>
   <v>       0.36363636       0.18181818       0.09090909 </v>
   <v>      -0.18181818       0.18181818       0.09090909 </v>
   <v>       0.27272727       0.27272727       0.09090909 </v>
   <v>      -0.27272727       0.27272727       0.09090909 </v>
   <v>      -0.18181818       0.27272727       0.09090909 </v>
   <v>      -0.36363636       0.36363636       0.09090909 </v>
   <v>      -0.27272727       0.36363636       0.09090909 </v>
   <v>      -0.45454545       0.45454545       0.09090909 </v>
   <v>      -0.36363636       0.45454545       0.09090909 </v>
   <v>      -0.27272727       0.45454545       0.09090909 </v>
   <v>      -0.45454545      -0.45454545       0.09090909 </v>
   <v>      -0.36363636      -0.45454545       0.09090909 </v>
   <v>      -0.36363636      -0.36363636       0.09090909 </v>
   <v>       0.18181818       0.18181818       0.18181818 </v>
   <v>       0.27272727       0.18181818       0.18181818 </v>
   <v>      -0.18181818       0.18181818       0.18181818 </v>
   <v>       0.27272727       0.27272727       0.18181818 </v>
   <v>      -0.27272727       0.27272727       0.18181818 </v>
   <v>      -0.36363636       0.36363636       0.18181818 </v>
   <v>      -0.27272727       0.36363636       0.18181818 </v>
   <v>      -0.45454545       0.45454545       0.18181818 </v>
   <v>      -0.36363636       0.45454545       0.18181818 </v>
   <v>      -0.45454545      -0.45454545       0.18181818 </v>
   <v>      -0.36363636      -0.45454545       0.18181818 </v>
   <v>      -0.27272727       0.27272727       0.27272727 </v>
   <v>      -0.36363636       0.36363636       0.27272727 </v>
   <v>      -0.45454545       0.45454545       0.27272727 </v>
   <v>      -0.36363636       0.45454545       0.27272727 </v>
   <v>      -0.45454545      -0.45454545       0.27272727 </v>
   <v>      -0.36363636       0.36363636       0.36363636 </v>
   <v>      -0.45454545       0.45454545       0.36363636 </v>
   <v>      -0.45454545      -0.45454545       0.36363636 </v>
   <v>      -0.45454545       0.45454545       0.45454545 </v>
  </varray>
  <varray name="weights" >
   <v>       0.00075131 </v>
   <v>       0.00901578 </v>
   <v>       0.00901578 </v>
   <v>       0.00901578 </v>
   <v>       0.00901578 </v>
   <v>       0.00901578 </v>
   <v>       0.01803156 </v>
   <v>       0.03606311 </v>
   <v>       0.03606311 </v>
   <v>       0.03606311 </v>
   <v>       0.01803156 </v>
   <v>       0.01803156 </v>
   <v>       0.03606311 </v>
   <v>       0.03606311 </v>
   <v>       0.01803156 </v>
   <v>       0.01803156 </v>
   <v>       0.00601052 </v>
   <v>       0.01803156 </v>
   <v>       0.01803156 </v>
   <v>       0.01803156 </v>
   <v>       0.00450789 </v>
   <v>       0.01803156 </v>
   <v>       0.03606311 </v>
   <v>       0.01803156 </v>
   <v>       0.01803156 </v>
   <v>       0.01803156 </v>
   <v>       0.01803156 </v>
   <v>       0.01803156 </v>
   <v>       0.01803156 </v>
   <v>       0.03606311 </v>
   <v>       0.01803156 </v>
   <v>       0.03606311 </v>
   <v>       0.01803156 </v>
   <v>       0.01803156 </v>
   <v>       0.03606311 </v>
   <v>       0.00601052 </v>
   <v>       0.00601052 </v>
   <v>       0.01803156 </v>
   <v>       0.00450789 </v>
   <v>       0.00601052 </v>
   <v>       0.01803156 </v>
   <v>       0.01803156 </v>
   <v>       0.01803156 </v>
   <v>       0.01803156 </v>
   <v>       0.03606311 </v>
   <v>       0.01803156 </v>
   <v>       0.01803156 </v>
   <v>       0.00450789 </v>
   <v>       0.01803156 </v>
   <v>       0.01803156 </v>
   <v>       0.01803156 </v>
   <v>       0.01803156 </v>
   <v>       0.00450789 </v>
   <v>       0.01803156 </v>
   <v>       0.00601052 </v>
   <v>       0.00450789 </v>
  </varray>
 </kpoints>
 <parameters>
  <separator name="general" >
   <i type="string" name="SYSTEM">unknown system</i>
   <i type="logical" name="LCOMPAT"> F  </i>
  </separator>
  <separator name="electronic" >
   <i type="string" name="PREC">accura</i>
   <i name="ENMAX">    350.00000000</i>
   <i name="ENAUG">    322.06900000</i>
   <i name="EDIFF">      0.00000100</i>
   <i type="int" name="IALGO">    38</i>
   <i type="int" name="IWAVPR">    11</i>
   <i type="int" name="NBANDS">     8</i>
   <i type="int" name="NBANDSLOW">    -1</i>
   <i type="int" name="NBANDSHIGH">    -1</i>
   <i name="NELECT">      4.00000000</i>
   <i type="int" name="TURBO">     0</i>
   <i type="int" name="IRESTART">     0</i>
   <i type="int" name="NREBOOT">     0</i>
   <i type="int" name="NMIN">     0</i>
   <i name="EREF">      0.00000000</i>
   <separator name="electronic smearing" >
    <i type="int" name="ISMEAR">     0</i>
    <i name="SIGMA">      0.05000000</i>
    <i name="KSPACING">      0.50000000</i>
    <i type="logical" name="KGAMMA"> T  </i>
    <i type="logical" name="KBLOWUP"> T  </i>
   </separator>
   <separator name="electronic projectors" >
    <i type="logical" name="LREAL"> F  </i>
    <v name="ROPT">      0.00000000</v>
    <i type="int" name="LMAXPAW">  -100</i>
    <i type="int" name="LMAXMIX">     2</i>
    <i type="logical" name="NLSPLINE"> F  </i>
   </separator>
   <separator name="electronic startup" >
    <i type="int" name="ISTART">     0</i>
    <i type="int" name="ICHARG">     2</i>
    <i type="int" name="INIWAV">     1</i>
   </separator>
   <separator name="electronic spin" >
    <i type="int" name="ISPIN">     1</i>
    <i type="logical" name="LNONCOLLINEAR"> F  </i>
    <v name="MAGMOM">      1.00000000</v>
    <i name="NUPDOWN">     -1.00000000</i>
    <i type="logical" name="LSORBIT"> F  </i>
    <v name="SAXIS">      0.00000000      0.00000000      1.00000000</v>
    <i type="logical" name="LSPIRAL"> F  </i>
    <v name="QSPIRAL">      0.00000000      0.00000000      0.00000000</v>
    <i type="logical" name="LZEROZ"> F  </i>
   </separator>
   <separator name="electronic exchange-correlation" >
    <i type="logical" name="LASPH"> T  </i>
    <i type="logical" name="LMETAGGA"> F  </i>
   </separator>
   <separator name="electronic convergence" >
    <i type="int" name="NELM">    90</i>
    <i type="int" name="NELMDL">    -5</i>
    <i type="int" name="NELMIN">     6</i>
    <i name="ENINI">    350.00000000</i>
    <separator name="electronic convergence detail" >
     <i type="logical" name="LDIAG"> T  </i>
     <i type="logical" name="LSUBROT"> F  </i>
     <i name="WEIMIN">      0.00100000</i>
     <i name="EBREAK">      0.00000003</i>
     <i name="DEPER">      0.30000000</i>
     <i type="int" name="NRMM">     4</i>
     <i name="TIME">      0.40000000</i>
    </separator>
   </separator>
   <separator name="electronic mixer" >
    <i name="AMIX">      0.40000000</i>
    <i name="BMIX">      1.00000000</i>
    <i name="AMIN">      0.10000000</i>
    <i name="AMIX_MAG">      1.60000000</i>
    <i name="BMIX_MAG">      1.00000000</i>
    <separator name="electronic mixer details" >
     <i type="int" name="IMIX">     4</i>
     <i type="logical" name="MIXFIRST"> F  </i>
     <i type="int" name="MAXMIX">   -45</i>
     <i name="WC">    100.00000000</i>
     <i type="int" name="INIMIX">     1</i>
     <i type="int" name="MIXPRE">     1</i>
     <i type="int" name="MREMOVE">     5</i>
    </separator>
   </separator>
   <separator name="electronic dipolcorrection" >
    <i type="logical" name="LDIPOL"> F  </i>
    <i type="logical" name="LMONO"> F  </i>
    <i type="int" name="IDIPOL">     0</i>
    <i name="EPSILON">      1.00000000</i>
    <v name="DIPOL">   -100.00000000   -100.00000000   -100.00000000</v>
    <i name="EFIELD">      0.00000000</i>
   </separator>
  </separator>
  <separator name="grids" >
   <i type="int" name="NGX">    16</i>
   <i type="int" name="NGY">    16</i>
   <i type="int" name="NGZ">    16</i>
   <i type="int" name="NGXF">    32</i>
   <i type="int" name="NGYF">    32</i>
   <i type="int" name="NGZF">    32</i>
   <i type="logical" name="ADDGRID"> T  </i>
  </separator>
  <separator name="ionic" >
   <i type="int" name="NSW">   100</i>
   <i type="int" name="IBRION">     2</i>
   <i type="int" name="MDALGO">     0</i>
   <i type="int" name="ISIF">     3</i>
   <i name="PSTRESS">      0.00000000</i>
   <i name="EDIFFG">     -0.00200000</i>
   <i type="int" name="NFREE">     1</i>
   <i name="POTIM">      0.50000000</i>
   <i name="SMASS">     -3.00000000</i>
   <i name="SCALEE">      1.00000000</i>
  </separator>
  <separator name="ionic md" >
   <i name="TEBEG">      0.00010000</i>
   <i name="TEEND">      0.00010000</i>
   <i type="int" name="NBLOCK">     1</i>
   <i type="int" name="KBLOCK">   100</i>
   <i type="int" name="NPACO">   256</i>
   <i name="APACO">     16.00000000</i>
  </separator>
  <separator name="symmetry" >
   <i type="int" name="ISYM">     2</i>
   <i name="SYMPREC">      0.00001000</i>
  </separator>
  <separator name="dos" >
   <i type="int" name="LORBIT">     0</i>
   <v name="RWIGS">     -1.00000000</v>
   <i type="int" name="NEDOS">   301</i>
   <i name="EMIN">     10.00000000</i>
   <i name="EMAX">    -10.00000000</i>
   <i name="EFERMI">      0.00000000</i>
  </separator>
  <separator name="writing" >
   <i type="int" name="NWRITE">     2</i>
   <i type="logical" name="LWAVE"> F  </i>
   <i type="logical" name="LDOWNSAMPLE"> F  </i>
   <i type="logical" name="LCHARG"> F  </i>
   <i type="logical" name="LPARD"> F  </i>
   <i type="logical" name="LVTOT"> F  </i>
   <i type="logical" name="LVHAR"> F  </i>
   <i type="logical" name="LELF"> F  </i>
   <i type="logical" name="LOPTICS"> F  </i>
   <v name="STM">      0.00000000      0.00000000      0.00000000      0.00000000      0.00000000      0.00000000      0.00000000</v>
  </separator>
  <separator name="performance" >
   <i type="int" name="NPAR">     4</i>
   <i type="int" name="NSIM">     4</i>
   <i type="int" name="NBLK">    -1</i>
   <i type="logical" name="LPLANE"> T  </i>
   <i type="logical" name="LSCALAPACK"> T  </i>
   <i type="logical" name="LSCAAWARE"> F  </i>
   <i type="logical" name="LSCALU"> F  </i>
   <i type="logical" name="LASYNC"> F  </i>
   <i type="logical" name="LORBITALREAL"> F  </i>
  </separator>
  <separator name="miscellaneous" >
   <i type="int" name="IDIOT">     3</i>
   <i type="int" name="PHON_NSTRUCT">    -1</i>
   <i type="logical" name="LMUSIC"> F  </i>
   <v name="POMASS">     28.08500000</v>
   <v name="DARWINR">      0.00000000</v>
   <v name="DARWINV">      1.00000000</v>
   <i type="logical" name="LCORR"> T  </i>
  </separator>
  <i type="logical" name="GGA_COMPAT"> T  </i>
  <i type="logical" name="LBERRY"> F  </i>
  <i type="int" name="ICORELEVEL">     0</i>
  <i type="logical" name="LDAU"> F  </i>
  <i type="int" name="I_CONSTRAINED_M">     0</i>
  <separator name="electronic exchange-correlation" >
   <i type="string" name="GGA">--</i>
   <i type="int" name="VOSKOWN">     0</i>
   <i type="logical" name="LHFCALC"> F  </i>
   <i type="string" name="PRECFOCK"></i>
   <i type="logical" name="LSYMGRAD"> F  </i>
   <i type="logical" name="LHFONE"> F  </i>
   <i type="logical" name="LRHFCALC"> F  </i>
   <i type="logical" name="LTHOMAS"> F  </i>
   <i type="logical" name="LMODELHF"> F  </i>
   <i type="logical" name="LFOCKACE"> F  </i>
   <i name="ENCUT4O">     -1.00000000</i>
   <i type="int" name="EXXOEP">     0</i>
   <i type="int" name="FOURORBIT">     0</i>
   <i name="AEXX">      0.00000000</i>
   <i name="HFALPHA">      0.00000000</i>
   <i name="MCALPHA">      0.00000000</i>
   <i name="ALDAX">      1.00000000</i>
   <i name="AGGAX">      1.00000000</i>
   <i name="ALDAC">      1.00000000</i>
   <i name="AGGAC">      1.00000000</i>
   <i type="int" name="NKREDX">     1</i>
   <i type="int" name="NKREDY">     1</i>
   <i type="int" name="NKREDZ">     1</i>
   <i type="logical" name="SHIFTRED"> F  </i>
   <i type="logical" name="ODDONLY"> F  </i>
   <i type="logical" name="EVENONLY"> F  </i>
   <i type="int" name="LMAXFOCK">     0</i>
   <i type="int" name="NMAXFOCKAE">     0</i>
   <i type="logical" name="LFOCKAEDFT"> F  </i>
   <i name="HFSCREEN">      0.00000000</i>
   <i name="HFSCREENC">      0.00000000</i>
   <i type="int" name="NBANDSGWLOW">     0</i>
  </separator>
  <separator name="vdW DFT" >
   <i type="logical" name="LUSE_VDW"> F  </i>
   <i name="Zab_VDW">     -0.84910000</i>
   <i name="PARAM1">      0.12340000</i>
   <i name="PARAM2">      1.00000000</i>
   <i name="PARAM3">      0.00000000</i>
  </separator>
  <separator name="model GW" >
   <i type="int" name="MODEL_GW">     0</i>
   <i name="MODEL_EPS0">      8.31779867</i>
   <i name="MODEL_ALPHA">      1.00000000</i>
  </separator>
  <separator name="linear response parameters" >
   <i type="logical" name="LEPSILON"> F  </i>
   <i type="logical" name="LRPA"> F  </i>
   <i type="logical" name="LNABLA"> F  </i>
   <i type="logical" name="LVEL"> F  </i>
   <i type="int" name="KINTER">     0</i>
   <i name="CSHIFT">      0.10000000</i>
   <i name="OMEGAMAX">     -1.00000000</i>
   <i name="DEG_THRESHOLD">      0.00200000</i>
   <i name="RTIME">     -0.10000000</i>
   <i name="WPLASMAI">      0.00000000</i>
   <v name="DFIELD">      0.00000000      0.00000000      0.00000000</v>
   <v name="WPLASMA">      0.00000000      0.00000000      0.00000000      0.00000000      0.00000000      0.00000000      0.00000000      0.00000000      0.00000000</v>
  </separator>
  <separator name="orbital magnetization" >
   <i type="logical" name="NUCIND"> F  </i>
   <v name="MAGPOS">      0.00000000      0.00000000      0.00000000</v>
   <i type="logical" name="LNICSALL"> T  </i>
   <i type="logical" name="ORBITALMAG"> F  </i>
   <i type="logical" name="LMAGBLOCH"> F  </i>
   <i type="logical" name="LCHIMAG"> F  </i>
   <i type="logical" name="LGAUGE"> T  </i>
   <i type="int" name="MAGATOM">     0</i>
   <v name="MAGDIPOL">      0.00000000      0.00000000      0.00000000</v>
   <v name="AVECCONST">      0.00000000      0.00000000      0.00000000</v>
  </separator>
  <separator name="response functions" >
   <i type="logical" name="LFINITE_TEMPERATURE"> F  </i>
   <i type="logical" name="LADDER"> F  </i>
   <i type="logical" name="LRPAFORCE"> F  </i>
   <i type="logical" name="LFXC"> F  </i>
   <i type="logical" name="LHARTREE"> T  </i>
   <i type="int" name="IBSE">     0</i>
   <v type="int" name="KPOINT">    -1     0     0     0</v>
   <i type="logical" name="LTCTC"> F  </i>
   <i type="logical" name="LTCTE"> F  </i>
   <i type="logical" name="LTETE"> F  </i>
   <i type="logical" name="LTRIPLET"> F  </i>
   <i type="logical" name="LFXCEPS"> F  </i>
   <i type="logical" name="LFXHEG"> F  </i>
   <i type="int" name="NATURALO">     2</i>
   <i type="logical" name="LHOLEGF"> F  </i>
   <i type="logical" name="L2ORDER"> F  </i>
   <i type="logical" name="LDMP1"> F  </i>
   <i type="logical" name="LMP2LT"> F  </i>
   <i type="logical" name="LSMP2LT"> F  </i>
   <i type="logical" name="LGWLF"> F  </i>
   <i name="ENCUTGW">     -2.00000000</i>
   <i name="ENCUTGWSOFT">     -2.00000000</i>
   <i name="ENCUTLF">     -1.00000000</i>
   <i type="logical" name="LESF_SPLINES"> F  </i>
   <i type="int" name="LMAXMP2">    -1</i>
   <i name="SCISSOR">      0.00000000</i>
   <i type="int" name="NOMEGA">     0</i>
   <i type="int" name="NOMEGAR">     0</i>
   <i type="int" name="NBANDSGW">    -1</i>
   <i type="int" name="NBANDSO">    -1</i>
   <i type="int" name="NBANDSV">    -1</i>
   <i type="int" name="NELM">    90</i>
   <i type="int" name="NELMHF">     1</i>
   <i type="int" name="DIM">     3</i>
   <i type="int" name="IESPILON">     4</i>
   <i type="int" name="ANTIRES">     0</i>
   <i name="OMEGAMAX">    -30.00000000</i>
   <i name="OMEGAMIN">    -30.00000000</i>
   <i name="OMEGATL">   -200.00000000</i>
   <i type="int" name="OMEGAGRID">     0</i>
   <i name="CSHIFT">     -0.10000000</i>
   <i type="logical" name="LSELFENERGY"> F  </i>
   <i type="logical" name="LSPECTRAL"> F  </i>
   <i type="logical" name="LSPECTRALGW"> F  </i>
   <i type="logical" name="LSINGLES"> F  </i>
   <i type="logical" name="LFERMIGW"> F  </i>
   <i type="logical" name="ODDONLYGW"> F  </i>
   <i type="logical" name="EVENONLYGW"> F  </i>
   <i type="int" name="NKREDLFX">     1</i>
   <i type="int" name="NKREDLFY">     1</i>
   <i type="int" name="NKREDLFZ">     1</i>
   <i type="int" name="MAXMEM">  2800</i>
   <i type="int" name="TELESCOPE">     0</i>
   <i type="int" name="NTAUPAR">    -1</i>
   <i type="int" name="NOMEGAPAR">    -1</i>
   <i name="DAMP_NEWTON">      0.80000001</i>
   <i name="LAMBDA">      1.00000000</i>
  </separator>
  <separator name="External order field" >
   <i name="OFIELD_KAPPA">      0.00000000</i>
   <v name="OFIELD_K">      0.00000000      0.00000000      0.00000000</v>
   <i name="OFIELD_Q6_NEAR">      0.00000000</i>
   <i name="OFIELD_Q6_FAR">      0.00000000</i>
   <i name="OFIELD_A">      0.00000000</i>
  </separator>
 </parameters>
 <atominfo>
  <atoms>       1 </atoms>
  <types>       1 </types>
  <array name="atoms" >
   <dimension dim="1">ion</dimension>
   <field type="string">element</field>
   <field type="int">atomtype</field>
   <set>
    <rc><c>Si</c><c>   1</c></rc>
   </set>
  </array>
  <array name="atomtypes" >
   <dimension dim="1">type</dimension>
   <field type="int">atomspertype</field>
   <field type="string">element</field>
   <field>mass</field>
   <field>valence</field>
   <field type="string">pseudopotential</field>
   <set>
    <rc><c>   1</c><c>Si</c><c>     28.08500000</c><c>      4.00000000</c><c>  PAW_PBE Si 05Jan2001                  </c></rc>
   </set>
  </array>
 </atominfo>
 <structure name="initialpos" >
  <crystal>
   <varray name="basis" >
    <v>       1.51332563       1.51332563       1.51332563 </v>
    <v>       1.51332563      -1.51332563      -1.51332563 </v>
    <v>      -1.51332563       1.51332563      -1.51332563 </v>
   </varray>
   <i name="volume">     13.86299778 </i>
   <varray name="rec_basis" >
    <v>       0.33039816       0.33039816       0.00000000 </v>
    <v>       0.33039816       0.00000000      -0.33039816 </v>
    <v>       0.00000000       0.33039816      -0.33039816 </v>
   </varray>
  </crystal>
  <varray name="positions" >
   <v>       0.00000000       0.00000000       0.00000000 </v>
  </varray>
 </structure>
 <calculation>
  <scstep>
   <time name="dav">    0.17    0.17</time>
   <time name="total">    0.34    0.35</time>
   <energy>
    <i name="alphaZ">      2.42827211 </i>
    <i name="ewald">   -138.51397499 </i>
    <i name="hartreedc">     -0.48179554 </i>
    <i name="XCdc">     -8.69332224 </i>
    <i name="pawpsdc">     88.12379961 </i>
    <i name="pawaedc">    -70.53051779 </i>
    <i name="eentropy">     -0.00041749 </i>
    <i name="bandstr">     21.28461743 </i>
    <i name="atom">    103.06562707 </i>
    <i name="e_fr_energy">     -3.31771183 </i>
    <i name="e_wo_entrp">     -3.31729434 </i>
    <i name="e_0_energy">     -3.31750308 </i>
   </energy>
  </scstep>
  <scstep>
   <time name="dav">    0.24    0.26</time>
   <time name="total">    0.25    0.26</time>
   <energy>
    <i name="e_fr_energy">     -4.87974759 </i>
    <i name="e_wo_entrp">     -4.87892646 </i>
    <i name="e_0_energy">     -4.87933703 </i>
   </energy>
  </scstep>
  <scstep>
   <time name="dav">    0.17    0.18</time>
   <time name="total">    0.17    0.18</time>
   <energy>
    <i name="e_fr_energy">     -4.88921789 </i>
    <i name="e_wo_entrp">     -4.88839196 </i>
    <i name="e_0_energy">     -4.88880493 </i>
   </energy>
  </scstep>
  <scstep>
   <time name="dav">    0.25    0.25</time>
   <time name="total">    0.25    0.26</time>
   <energy>
    <i name="e_fr_energy">     -4.88922303 </i>
    <i name="e_wo_entrp">     -4.88839710 </i>
    <i name="e_0_energy">     -4.88881006 </i>
   </energy>
  </scstep>
  <scstep>
   <time name="dav">    0.17    0.18</time>
   <time name="total">    0.18    0.19</time>
   <energy>
    <i name="e_fr_energy">     -4.88922303 </i>
    <i name="e_wo_entrp">     -4.88839710 </i>
    <i name="e_0_energy">     -4.88881007 </i>
   </energy>
  </scstep>
  <scstep>
   <time name="dav">    0.15    0.15</time>
   <time name="total">    0.34    0.35</time>
   <energy>
    <i name="e_fr_energy">     -4.87739555 </i>
    <i name="e_wo_entrp">     -4.87655312 </i>
    <i name="e_0_energy">     -4.87697433 </i>
   </energy>
  </scstep>
  <scstep>
   <time name="dav">    0.16    0.16</time>
   <time name="total">    0.34    0.36</time>
   <energy>
    <i name="e_fr_energy">     -4.87062587 </i>
    <i name="e_wo_entrp">     -4.86975730 </i>
    <i name="e_0_energy">     -4.87019158 </i>
   </energy>
  </scstep>
  <scstep>
   <time name="dav">    0.22    0.22</time>
   <time name="total">    0.40    0.42</time>
   <energy>
    <i name="e_fr_energy">     -4.87060226 </i>
    <i name="e_wo_entrp">     -4.86973271 </i>
    <i name="e_0_energy">     -4.87016748 </i>
   </energy>
  </scstep>
  <scstep>
   <time name="dav">    0.16    0.16</time>
   <time name="total">    0.34    0.34</time>
   <energy>
    <i name="alphaZ">      2.42827211 </i>
    <i name="ewald">   -138.51397499 </i>
    <i name="hartreedc">     -0.35134349 </i>
    <i name="XCdc">     -8.62430553 </i>
    <i name="pawpsdc">    333.64822160 </i>
    <i name="pawaedc">   -316.08067563 </i>
    <i name="eentropy">     -0.00086979 </i>
    <i name="bandstr">     19.55844588 </i>
    <i name="atom">    103.06562707 </i>
    <i name="e_fr_energy">     -4.87060277 </i>
    <i name="e_wo_entrp">     -4.86973298 </i>
    <i name="e_0_energy">     -4.87016788 </i>
   </energy>
  </scstep>
  <structure>
   <crystal>
    <varray name="basis" >
     <v>       1.51332563       1.51332563       1.51332563 </v>
     <v>       1.51332563      -1.51332563      -1.51332563 </v>
     <v>      -1.51332563       1.51332563      -1.51332563 </v>
    </varray>
    <i name="volume">     13.86299778 </i>
    <varray name="rec_basis" >
     <v>       0.33039816       0.33039816       0.00000000 </v>
     <v>       0.33039816       0.00000000      -0.33039816 </v>
     <v>       0.00000000       0.33039816      -0.33039816 </v>
    </varray>
   </crystal>
   <varray name="positions" >
    <v>       0.00000000       0.00000000       0.00000000 </v>
   </varray>
  </structure>
  <varray name="forces" >
   <v>       0.00000000      -0.00000000       0.00000000 </v>
  </varray>
  <varray name="stress" >
   <v>      54.87917567      -0.00000000      -0.00000000 </v>
   <v>       0.00000000      54.87917567       0.00000000 </v>
   <v>       0.00000000       0.00000000      54.87917567 </v>
  </varray>
  <energy>
   <i name="e_fr_energy">     -4.87060277 </i>
   <i name="e_wo_entrp">     -4.86973298 </i>
   <i name="e_0_energy">     -4.87016788 </i>
  </energy>
  <time name="totalsc">    3.25    3.40</time>
 </calculation>
 <calculation>
  <scstep>
   <time name="dav">    0.15    0.15</time>
   <time name="total">    0.33    0.34</time>
   <energy>
    <i name="alphaZ">      2.26875578 </i>
    <i name="ewald">   -135.41197065 </i>
    <i name="hartreedc">     -0.34345875 </i>
    <i name="XCdc">     -8.80221589 </i>
    <i name="pawpsdc">    333.73509949 </i>
    <i name="pawaedc">   -316.16721424 </i>
    <i name="eentropy">     -0.00106777 </i>
    <i name="bandstr">     16.76803326 </i>
    <i name="atom">    103.06562707 </i>
    <i name="e_fr_energy">     -4.88841170 </i>
    <i name="e_wo_entrp">     -4.88734393 </i>
    <i name="e_0_energy">     -4.88787782 </i>
   </energy>
  </scstep>
  <scstep>
   <time name="dav">    0.17    0.17</time>
   <time name="total">    0.35    0.36</time>
   <energy>
    <i name="e_fr_energy">     -4.88342239 </i>
    <i name="e_wo_entrp">     -4.88238721 </i>
    <i name="e_0_energy">     -4.88290480 </i>
   </energy>
  </scstep>
  <scstep>
   <time name="dav">    0.16    0.16</time>
   <time name="total">    0.34    0.35</time>
   <energy>
    <i name="e_fr_energy">     -4.88048298 </i>
    <i name="e_wo_entrp">     -4.87949173 </i>
    <i name="e_0_energy">     -4.87998736 </i>
   </energy>
  </scstep>
  <scstep>
   <time name="dav">    0.19    0.19</time>
   <time name="total">    0.38    0.39</time>
   <energy>
    <i name="e_fr_energy">     -4.88048017 </i>
    <i name="e_wo_entrp">     -4.87948851 </i>
    <i name="e_0_energy">     -4.87998434 </i>
   </energy>
  </scstep>
  <scstep>
   <time name="dav">    0.18    0.18</time>
   <time name="total">    0.37    0.38</time>
   <energy>
    <i name="e_fr_energy">     -4.88046861 </i>
    <i name="e_wo_entrp">     -4.87947608 </i>
    <i name="e_0_energy">     -4.87997234 </i>
   </energy>
  </scstep>
  <scstep>
   <time name="dav">    0.10    0.10</time>
   <time name="total">    0.27    0.28</time>
   <energy>
    <i name="alphaZ">      2.26875578 </i>
    <i name="ewald">   -135.41197065 </i>
    <i name="hartreedc">     -0.44733387 </i>
    <i name="XCdc">     -8.82369509 </i>
    <i name="pawpsdc">    287.88761500 </i>
    <i name="pawaedc">   -270.30431368 </i>
    <i name="eentropy">     -0.00099242 </i>
    <i name="bandstr">     16.88583883 </i>
    <i name="atom">    103.06562707 </i>
    <i name="e_fr_energy">     -4.88046903 </i>
    <i name="e_wo_entrp">     -4.87947660 </i>
    <i name="e_0_energy">     -4.87997282 </i>
   </energy>
  </scstep>
  <structure>
   <crystal>
    <varray name="basis" >
     <v>       1.54799275       1.54799275       1.54799275 </v>
     <v>       1.54799275      -1.54799275      -1.54799275 </v>
     <v>      -1.54799275       1.54799275      -1.54799275 </v>
    </varray>
    <i name="volume">     14.83770581 </i>
    <varray name="rec_basis" >
     <v>       0.32299893       0.32299893       0.00000000 </v>
     <v>       0.32299893       0.00000000      -0.32299893 </v>
     <v>       0.00000000       0.32299893      -0.32299893 </v>
    </varray>
   </crystal>
   <varray name="positions" >
    <v>      -0.00000000       0.00000000      -0.00000000 </v>
   </varray>
  </structure>
  <varray name="forces" >
   <v>      -0.00000000       0.00000000      -0.00000000 </v>
  </varray>
  <varray name="stress" >
   <v>     -17.67333696      -0.00000000       0.00000000 </v>
   <v>       0.00000000     -17.67333696       0.00000000 </v>
   <v>      -0.00000000       0.00000000     -17.67333696 </v>
  </varray>
  <energy>
   <i name="e_fr_energy">     -4.88046903 </i>
   <i name="e_wo_entrp">     -4.87947660 </i>
   <i name="e_0_energy">     -4.87997282 </i>
  </energy>
  <time name="totalsc">    2.67    2.81</time>
 </calculation>
 <calculation>
  <scstep>
   <time name="dav">    0.15    0.15</time>
   <time name="total">    0.33    0.34</time>
   <energy>
    <i name="alphaZ">      2.31182910 </i>
    <i name="ewald">   -136.26355572 </i>
    <i name="hartreedc">     -0.45013390 </i>
    <i name="XCdc">     -8.77569798 </i>
    <i name="pawpsdc">    287.63631866 </i>
    <i name="pawaedc">   -270.05303040 </i>
    <i name="eentropy">     -0.00088542 </i>
    <i name="bandstr">     17.64686382 </i>
    <i name="atom">    103.06562707 </i>
    <i name="e_fr_energy">     -4.88266476 </i>
    <i name="e_wo_entrp">     -4.88177935 </i>
    <i name="e_0_energy">     -4.88222205 </i>
   </energy>
  </scstep>
  <scstep>
   <time name="dav">    0.17    0.17</time>
   <time name="total">    0.35    0.37</time>
   <energy>
    <i name="e_fr_energy">     -4.88226326 </i>
    <i name="e_wo_entrp">     -4.88137363 </i>
    <i name="e_0_energy">     -4.88181845 </i>
   </energy>
  </scstep>
  <scstep>
   <time name="dav">    0.16    0.16</time>
   <time name="total">    0.34    0.35</time>
   <energy>
    <i name="e_fr_energy">     -4.88202994 </i>
    <i name="e_wo_entrp">     -4.88113389 </i>
    <i name="e_0_energy">     -4.88158191 </i>
   </energy>
  </scstep>
  <scstep>
   <time name="dav">    0.18    0.18</time>
   <time name="total">    0.37    0.38</time>
   <energy>
    <i name="e_fr_energy">     -4.88202998 </i>
    <i name="e_wo_entrp">     -4.88113400 </i>
    <i name="e_0_energy">     -4.88158199 </i>
   </energy>
  </scstep>
  <scstep>
   <time name="dav">    0.10    0.10</time>
   <time name="total">    0.28    0.29</time>
   <energy>
    <i name="e_fr_energy">     -4.88203075 </i>
    <i name="e_wo_entrp">     -4.88113495 </i>
    <i name="e_0_energy">     -4.88158285 </i>
   </energy>
  </scstep>
  <scstep>
   <time name="dav">    0.09    0.09</time>
   <time name="total">    0.26    0.27</time>
   <energy>
    <i name="alphaZ">      2.31182910 </i>
    <i name="ewald">   -136.26355572 </i>
    <i name="hartreedc">     -0.41776152 </i>
    <i name="XCdc">     -8.76939522 </i>
    <i name="pawpsdc">    299.08576620 </i>
    <i name="pawaedc">   -281.50640686 </i>
    <i name="eentropy">     -0.00089582 </i>
    <i name="bandstr">     17.61276220 </i>
    <i name="atom">    103.06562707 </i>
    <i name="e_fr_energy">     -4.88203057 </i>
    <i name="e_wo_entrp">     -4.88113475 </i>
    <i name="e_0_energy">     -4.88158266 </i>
   </energy>
  </scstep>
  <structure>
   <crystal>
    <varray name="basis" >
     <v>       1.53831850       1.53831850       1.53831850 </v>
     <v>       1.53831850      -1.53831850      -1.53831850 </v>
     <v>      -1.53831850       1.53831850      -1.53831850 </v>
    </varray>
    <i name="volume">     14.56125405 </i>
    <varray name="rec_basis" >
     <v>       0.32503022       0.32503022       0.00000000 </v>
     <v>       0.32503022       0.00000000      -0.32503022 </v>
     <v>       0.00000000       0.32503022      -0.32503022 </v>
    </varray>
   </crystal>
   <varray name="positions" >
    <v>      -0.00000000       0.00000000      -0.00000000 </v>
   </varray>
  </structure>
  <varray name="forces" >
   <v>      -0.00000000       0.00000000      -0.00000000 </v>
  </varray>
  <varray name="stress" >
   <v>       0.03988279       0.00000000       0.00000000 </v>
   <v>       0.00000000       0.03988279      -0.00000000 </v>
   <v>      -0.00000000      -0.00000000       0.03988279 </v>
  </varray>
  <energy>
   <i name="e_fr_energy">     -4.88203057 </i>
   <i name="e_wo_entrp">     -4.88113475 </i>
   <i name="e_0_energy">     -4.88158266 </i>
  </energy>
  <time name="totalsc">    2.55    2.69</time>
  <eigenvalues>
   <array>
    <dimension dim="1">band</dimension>
    <dimension dim="2">kpoint</dimension>
    <dimension dim="3">spin</dimension>
    <field>eigene</field>
    <field>occ</field>
    <set>
     <set comment="spin 1">
      <set comment="kpoint 1">
       <r>   -4.2995    1.0000 </r>
       <r>   21.4061    0.0000 </r>
       <r>   21.4061    0.0000 </r>
       <r>   21.4061    0.0000 </r>
       <r>   22.5478    0.0000 </r>
       <r>   22.5478    0.0000 </r>
       <r>   22.5478    0.0000 </r>
       <r>   26.2354    0.0000 </r>
      </set>
      <set comment="kpoint 2">
       <r>   -4.0457    1.0000 </r>
       <r>   18.8805    0.0000 </r>
       <r>   19.7542    0.0000 </r>
       <r>   21.0526    0.0000 </r>
       <r>   21.7713    0.0000 </r>
       <r>   23.4249    0.0000 </r>
       <r>   24.6167    0.0000 </r>
       <r>   25.0856    0.0000 </r>
      </set>
      <set comment="kpoint 3">
       <r>   -3.2863    1.0000 </r>
       <r>   15.1025    0.0000 </r>
       <r>   18.0682    0.0000 </r>
       <r>   20.1904    0.0000 </r>
       <r>   20.3371    0.0000 </r>
       <r>   22.3872    0.0000 </r>
       <r>   25.8641    0.0000 </r>
       <r>   26.1922    0.0000 </r>
      </set>
      <set comment="kpoint 4">
       <r>   -2.0269    1.0000 </r>
       <r>   11.2977    0.0000 </r>
       <r>   16.7920    0.0000 </r>
       <r>   19.0414    0.0000 </r>
       <r>   19.2510    0.0000 </r>
       <r>   21.1961    0.0000 </r>
       <r>   27.0082    0.0000 </r>
       <r>   27.3166    0.0000 </r>
      </set>
      <set comment="kpoint 5">
       <r>   -0.2771    1.0000 </r>
       <r>    7.7809    1.0000 </r>
       <r>   15.9410    0.0000 </r>
       <r>   18.1248    0.0000 </r>
       <r>   18.5295    0.0000 </r>
       <r>   20.3505    0.0000 </r>
       <r>   28.3381    0.0000 </r>
       <r>   29.0172    0.0000 </r>
      </set>
      <set comment="kpoint 6">
       <r>    1.9439    1.0000 </r>
       <r>    4.6630    1.0000 </r>
       <r>   15.5156    0.0000 </r>
       <r>   17.6549    0.0000 </r>
       <r>   18.1480    0.0000 </r>
       <r>   19.9125    0.0000 </r>
       <r>   29.8841    0.0000 </r>
       <r>   30.6039    0.0000 </r>
      </set>
      <set comment="kpoint 7">
       <r>   -3.5391    1.0000 </r>
       <r>   16.8835    0.0000 </r>
       <r>   17.4214    0.0000 </r>
       <r>   19.4317    0.0000 </r>
       <r>   22.1295    0.0000 </r>
       <r>   23.5084    0.0000 </r>
       <r>   24.6774    0.0000 </r>
       <r>   25.8931    0.0000 </r>
      </set>
      <set comment="kpoint 8">
       <r>   -2.5297    1.0000 </r>
       <r>   13.3272    0.0000 </r>
       <r>   15.6645    0.0000 </r>
       <r>   18.1132    0.0000 </r>
       <r>   21.4544    0.0000 </r>
       <r>   22.9584    0.0000 </r>
       <r>   25.2574    0.0000 </r>
       <r>   27.7130    0.0000 </r>
      </set>
      <set comment="kpoint 9">
       <r>   -1.0249    1.0000 </r>
       <r>    9.6682    1.0000 </r>
       <r>   14.5444    0.0000 </r>
       <r>   17.0819    0.0000 </r>
       <r>   20.5426    0.0000 </r>
       <r>   22.4650    0.0000 </r>
       <r>   26.1470    0.0000 </r>
       <r>   29.5773    0.0000 </r>
      </set>
      <set comment="kpoint 10">
       <r>    0.9627    1.0000 </r>
       <r>    6.3468    1.0000 </r>
       <r>   13.8709    0.0000 </r>
       <r>   16.4390    0.0000 </r>
       <r>   19.9243    0.0000 </r>
       <r>   22.0356    0.0000 </r>
       <r>   27.6710    0.0000 </r>
       <r>   30.6742    0.0000 </r>
      </set>
      <set comment="kpoint 11">
       <r>    3.2398    1.0000 </r>
       <r>    3.6208    1.0000 </r>
       <r>   13.6456    0.0000 </r>
       <r>   16.2213    0.0000 </r>
       <r>   19.7106    0.0000 </r>
       <r>   21.8732    0.0000 </r>
       <r>   29.3638    0.0000 </r>
       <r>   29.6963    0.0000 </r>
      </set>
      <set comment="kpoint 12">
       <r>   -1.2748    1.0000 </r>
       <r>   11.7977    0.0000 </r>
       <r>   12.1601    0.0000 </r>
       <r>   16.8966    0.0000 </r>
       <r>   22.0626    0.0000 </r>
       <r>   22.9655    0.0000 </r>
       <r>   26.8933    0.0000 </r>
       <r>   28.0133    0.0000 </r>
      </set>
      <set comment="kpoint 13">
       <r>    0.4687    1.0000 </r>
       <r>    8.4849    1.0000 </r>
       <r>   11.0628    0.0000 </r>
       <r>   16.0561    0.0000 </r>
       <r>   21.7060    0.0000 </r>
       <r>   23.7683    0.0000 </r>
       <r>   27.0941    0.0000 </r>
       <r>   29.8145    0.0000 </r>
      </set>
      <set comment="kpoint 14">
       <r>    2.6821    1.0000 </r>
       <r>    5.3865    1.0000 </r>
       <r>   10.5922    0.0000 </r>
       <r>   15.6253    0.0000 </r>
       <r>   21.3394    0.0000 </r>
       <r>   24.6408    0.0000 </r>
       <r>   27.4552    0.0000 </r>
       <r>   29.2945    0.0000 </r>
      </set>
      <set comment="kpoint 15">
       <r>    2.4411    1.0000 </r>
       <r>    7.6357    1.0000 </r>
       <r>    7.9283    1.0000 </r>
       <r>   15.4262    0.0000 </r>
       <r>   22.9824    0.0000 </r>
       <r>   23.8769    0.0000 </r>
       <r>   27.7727    0.0000 </r>
       <r>   30.0947    0.0000 </r>
      </set>
      <set comment="kpoint 16">
       <r>    4.7093    1.0000 </r>
       <r>    5.0612    1.0000 </r>
       <r>    7.5556    1.0000 </r>
       <r>   15.2119    0.0000 </r>
       <r>   23.1216    0.0000 </r>
       <r>   25.1300    0.0000 </r>
       <r>   26.1542    0.0000 </r>
       <r>   30.9439    0.0000 </r>
      </set>
      <set comment="kpoint 17">
       <r>   -2.7816    1.0000 </r>
       <r>   15.0229    0.0000 </r>
       <r>   15.8857    0.0000 </r>
       <r>   15.8857    0.0000 </r>
       <r>   24.0658    0.0000 </r>
       <r>   24.0658    0.0000 </r>
       <r>   26.0750    0.0000 </r>
       <r>   26.0750    0.0000 </r>
      </set>
      <set comment="kpoint 18">
       <r>   -1.5252    1.0000 </r>
       <r>   11.7444    0.0000 </r>
       <r>   14.0271    0.0000 </r>
       <r>   14.5808    0.0000 </r>
       <r>   23.8760    0.0000 </r>
       <r>   24.3343    0.0000 </r>
       <r>   27.2362    0.0000 </r>
       <r>   27.4054    0.0000 </r>
      </set>
      <set comment="kpoint 19">
       <r>    0.2205    1.0000 </r>
       <r>    8.2564    1.0000 </r>
       <r>   13.1051    0.0000 </r>
       <r>   13.6757    0.0000 </r>
       <r>   23.4706    0.0000 </r>
       <r>   23.7612    0.0000 </r>
       <r>   28.7552    0.0000 </r>
       <r>   29.1685    0.0000 </r>
      </set>
      <set comment="kpoint 20">
       <r>    2.4368    1.0000 </r>
       <r>    5.1475    1.0000 </r>
       <r>   12.6496    0.0000 </r>
       <r>   13.2154    0.0000 </r>
       <r>   23.1930    0.0000 </r>
       <r>   23.4119    0.0000 </r>
       <r>   30.1990    0.0000 </r>
       <r>   30.8287    0.0000 </r>
      </set>
      <set comment="kpoint 21">
       <r>   -3.7922    1.0000 </r>
       <r>   18.3668    0.0000 </r>
       <r>   18.3668    0.0000 </r>
       <r>   19.6803    0.0000 </r>
       <r>   22.5586    0.0000 </r>
       <r>   23.0356    0.0000 </r>
       <r>   24.3784    0.0000 </r>
       <r>   24.3784    0.0000 </r>
      </set>
      <set comment="kpoint 22">
       <r>   -0.0276    1.0000 </r>
       <r>   10.4252    0.0000 </r>
       <r>   10.7993    0.0000 </r>
       <r>   13.2088    0.0000 </r>
       <r>   24.9455    0.0000 </r>
       <r>   25.8375    0.0000 </r>
       <r>   27.9569    0.0000 </r>
       <r>   28.8211    0.0000 </r>
      </set>
      <set comment="kpoint 23">
       <r>    1.9507    1.0000 </r>
       <r>    7.3024    1.0000 </r>
       <r>    9.9208    0.7917 </r>
       <r>   12.5181    0.0000 </r>
       <r>   25.0413    0.0000 </r>
       <r>   26.4019    0.0000 </r>
       <r>   29.0347    0.0000 </r>
       <r>   30.5092    0.0000 </r>
      </set>
      <set comment="kpoint 24">
       <r>    4.2249    1.0000 </r>
       <r>    4.5857    1.0000 </r>
       <r>    9.6824    1.0000 </r>
       <r>   12.2880    0.0000 </r>
       <r>   24.9530    0.0000 </r>
       <r>   26.5991    0.0000 </r>
       <r>   29.9441    0.0000 </r>
       <r>   30.7117    0.0000 </r>
      </set>
      <set comment="kpoint 25">
       <r>   -3.0337    1.0000 </r>
       <r>   15.2293    0.0000 </r>
       <r>   16.6855    0.0000 </r>
       <r>   18.8833    0.0000 </r>
       <r>   21.2836    0.0000 </r>
       <r>   22.1209    0.0000 </r>
       <r>   24.6346    0.0000 </r>
       <r>   26.8406    0.0000 </r>
      </set>
      <set comment="kpoint 26">
       <r>    4.1448    1.0000 </r>
       <r>    6.6893    1.0000 </r>
       <r>    6.9872    1.0000 </r>
       <r>   12.0554    0.0000 </r>
       <r>   26.2820    0.0000 </r>
       <r>   27.5482    0.0000 </r>
       <r>   29.2158    0.0000 </r>
       <r>   31.3345    0.0000 </r>
      </set>
      <set comment="kpoint 27">
       <r>   -1.7757    1.0000 </r>
       <r>   11.5077    0.0000 </r>
       <r>   15.3761    0.0000 </r>
       <r>   17.9111    0.0000 </r>
       <r>   20.9014    0.0000 </r>
       <r>   21.3423    0.0000 </r>
       <r>   24.4396    0.0000 </r>
       <r>   30.0416    0.0000 </r>
      </set>
      <set comment="kpoint 28">
       <r>   -2.0267    1.0000 </r>
       <r>   13.5357    0.0000 </r>
       <r>   13.8310    0.0000 </r>
       <r>   18.3937    0.0000 </r>
       <r>   20.1339    0.0000 </r>
       <r>   21.7528    0.0000 </r>
       <r>   26.2910    0.0000 </r>
       <r>   27.2356    0.0000 </r>
      </set>
      <set comment="kpoint 29">
       <r>   -0.0281    1.0000 </r>
       <r>    8.0131    1.0000 </r>
       <r>   14.4936    0.0000 </r>
       <r>   17.0973    0.0000 </r>
       <r>   20.0264    0.0000 </r>
       <r>   21.4362    0.0000 </r>
       <r>   25.0398    0.0000 </r>
       <r>   30.3754    0.0000 </r>
      </set>
      <set comment="kpoint 30">
       <r>   -0.5255    1.0000 </r>
       <r>   10.1086    0.0000 </r>
       <r>   12.5575    0.0000 </r>
       <r>   17.8318    0.0000 </r>
       <r>   20.1862    0.0000 </r>
       <r>   21.3008    0.0000 </r>
       <r>   26.0315    0.0000 </r>
       <r>   29.2030    0.0000 </r>
      </set>
      <set comment="kpoint 31">
       <r>    2.1902    1.0000 </r>
       <r>    4.9031    1.0000 </r>
       <r>   14.0507    0.0000 </r>
       <r>   16.6662    0.0000 </r>
       <r>   19.5787    0.0000 </r>
       <r>   21.3424    0.0000 </r>
       <r>   26.5715    0.0000 </r>
       <r>   28.6721    0.0000 </r>
      </set>
      <set comment="kpoint 32">
       <r>    1.4569    1.0000 </r>
       <r>    6.8182    1.0000 </r>
       <r>   11.8650    0.0000 </r>
       <r>   17.2739    0.0000 </r>
       <r>   19.8566    0.0000 </r>
       <r>   22.2689    0.0000 </r>
       <r>   25.5223    0.0000 </r>
       <r>   28.3007    0.0000 </r>
      </set>
      <set comment="kpoint 33">
       <r>    1.2111    1.0000 </r>
       <r>    9.0386    1.0000 </r>
       <r>    9.3137    1.0000 </r>
       <r>   18.1048    0.0000 </r>
       <r>   20.3225    0.0000 </r>
       <r>   20.7972    0.0000 </r>
       <r>   26.6797    0.0000 </r>
       <r>   29.1052    0.0000 </r>
      </set>
      <set comment="kpoint 34">
       <r>    3.7350    1.0000 </r>
       <r>    4.0971    1.0000 </r>
       <r>   11.6341    0.0000 </r>
       <r>   17.0719    0.0000 </r>
       <r>   19.6732    0.0000 </r>
       <r>   23.0565    0.0000 </r>
       <r>   25.3343    0.0000 </r>
       <r>   27.2879    0.0000 </r>
      </set>
      <set comment="kpoint 35">
       <r>    3.4149    1.0000 </r>
       <r>    6.0981    1.0000 </r>
       <r>    8.7117    1.0000 </r>
       <r>   17.9459    0.0000 </r>
       <r>   20.2093    0.0000 </r>
       <r>   22.0936    0.0000 </r>
       <r>   24.4016    0.0000 </r>
       <r>   29.8408    0.0000 </r>
      </set>
      <set comment="kpoint 36">
       <r>    5.5473    1.0000 </r>
       <r>    6.0067    1.0000 </r>
       <r>    6.0067    1.0000 </r>
       <r>   18.0240    0.0000 </r>
       <r>   21.7025    0.0000 </r>
       <r>   22.1346    0.0000 </r>
       <r>   22.1346    0.0000 </r>
       <r>   32.8611    0.0000 </r>
      </set>
      <set comment="kpoint 37">
       <r>    1.7053    1.0000 </r>
       <r>    9.3572    1.0000 </r>
       <r>    9.8687    0.9889 </r>
       <r>    9.8687    0.9889 </r>
       <r>   27.5976    0.0000 </r>
       <r>   27.5976    0.0000 </r>
       <r>   29.5730    0.0000 </r>
       <r>   29.5730    0.0000 </r>
      </set>
      <set comment="kpoint 38">
       <r>    3.9053    1.0000 </r>
       <r>    6.5868    1.0000 </r>
       <r>    9.0799    1.0000 </r>
       <r>    9.3989    1.0000 </r>
       <r>   28.2079    0.0000 </r>
       <r>   28.5107    0.0000 </r>
       <r>   30.8440    0.0000 </r>
       <r>   31.1336    0.0000 </r>
      </set>
      <set comment="kpoint 39">
       <r>   -2.2779    1.0000 </r>
       <r>   14.9779    0.0000 </r>
       <r>   14.9779    0.0000 </r>
       <r>   16.8594    0.0000 </r>
       <r>   18.5751    0.0000 </r>
       <r>   24.5157    0.0000 </r>
       <r>   26.0920    0.0000 </r>
       <r>   26.0920    0.0000 </r>
      </set>
      <set comment="kpoint 40">
       <r>    6.0110    1.0000 </r>
       <r>    6.5135    1.0000 </r>
       <r>    6.5135    1.0000 </r>
       <r>    9.0171    1.0000 </r>
       <r>   29.3476    0.0000 </r>
       <r>   30.5697    0.0000 </r>
       <r>   30.5697    0.0000 </r>
       <r>   32.1405    0.0000 </r>
      </set>
      <set comment="kpoint 41">
       <r>   -1.0244    1.0000 </r>
       <r>   12.0834    0.0000 </r>
       <r>   13.6469    0.0000 </r>
       <r>   16.1066    0.0000 </r>
       <r>   18.0668    0.0000 </r>
       <r>   23.9419    0.0000 </r>
       <r>   26.0633    0.0000 </r>
       <r>   28.8283    0.0000 </r>
      </set>
      <set comment="kpoint 42">
       <r>    0.7166    1.0000 </r>
       <r>    8.6970    1.0000 </r>
       <r>   12.7498    0.0000 </r>
       <r>   15.3213    0.0000 </r>
       <r>   19.2365    0.0000 </r>
       <r>   23.1289    0.0000 </r>
       <r>   25.0094    0.0000 </r>
       <r>   27.8410    0.0000 </r>
      </set>
      <set comment="kpoint 43">
       <r>    0.4691    1.0000 </r>
       <r>   10.8262    0.0000 </r>
       <r>   11.0458    0.0000 </r>
       <r>   16.1615    0.0000 </r>
       <r>   17.2386    0.0000 </r>
       <r>   23.7198    0.0000 </r>
       <r>   26.0392    0.0000 </r>
       <r>   28.4978    0.0000 </r>
      </set>
      <set comment="kpoint 44">
       <r>    2.9262    1.0000 </r>
       <r>    5.6192    1.0000 </r>
       <r>   12.2995    0.0000 </r>
       <r>   14.8755    0.0000 </r>
       <r>   20.7965    0.0000 </r>
       <r>   22.7001    0.0000 </r>
       <r>   23.5471    0.0000 </r>
       <r>   26.9180    0.0000 </r>
      </set>
      <set comment="kpoint 45">
       <r>    2.4406    1.0000 </r>
       <r>    7.7453    1.0000 </r>
       <r>   10.2458    0.0000 </r>
       <r>   15.8910    0.0000 </r>
       <r>   18.4127    0.0000 </r>
       <r>   22.7132    0.0000 </r>
       <r>   23.9809    0.0000 </r>
       <r>   29.0647    0.0000 </r>
      </set>
      <set comment="kpoint 46">
       <r>    4.7163    1.0000 </r>
       <r>    5.0446    1.0000 </r>
       <r>   10.0109    0.0414 </r>
       <r>   15.6948    0.0000 </r>
       <r>   19.8952    0.0000 </r>
       <r>   21.2177    0.0000 </r>
       <r>   23.4104    0.0000 </r>
       <r>   29.0375    0.0000 </r>
      </set>
      <set comment="kpoint 47">
       <r>    4.6240    1.0000 </r>
       <r>    7.1517    1.0000 </r>
       <r>    7.4035    1.0000 </r>
       <r>   17.2290    0.0000 </r>
       <r>   18.4380    0.0000 </r>
       <r>   20.4882    0.0000 </r>
       <r>   23.3591    0.0000 </r>
       <r>   31.9118    0.0000 </r>
      </set>
      <set comment="kpoint 48">
       <r>    0.2212    1.0000 </r>
       <r>   12.3033    0.0000 </r>
       <r>   12.3033    0.0000 </r>
       <r>   14.3583    0.0000 </r>
       <r>   15.5237    0.0000 </r>
       <r>   25.6785    0.0000 </r>
       <r>   26.9510    0.0000 </r>
       <r>   28.2939    0.0000 </r>
      </set>
      <set comment="kpoint 49">
       <r>    1.9504    1.0000 </r>
       <r>    9.7664    1.0000 </r>
       <r>   11.3988    0.0000 </r>
       <r>   13.8607    0.0000 </r>
       <r>   15.6883    0.0000 </r>
       <r>   22.7617    0.0000 </r>
       <r>   26.7010    0.0000 </r>
       <r>   29.0884    0.0000 </r>
      </set>
      <set comment="kpoint 50">
       <r>    4.1423    1.0000 </r>
       <r>    6.7945    1.0000 </r>
       <r>   10.9449    0.0000 </r>
       <r>   13.4489    0.0000 </r>
       <r>   17.4729    0.0000 </r>
       <r>   20.0485    0.0000 </r>
       <r>   26.3035    0.0000 </r>
       <r>   29.2010    0.0000 </r>
      </set>
      <set comment="kpoint 51">
       <r>    3.9023    1.0000 </r>
       <r>    8.9705    1.0000 </r>
       <r>    9.1662    1.0000 </r>
       <r>   14.4461    0.0000 </r>
       <r>   15.2697    0.0000 </r>
       <r>   19.7903    0.0000 </r>
       <r>   27.0415    0.0000 </r>
       <r>   31.3149    0.0000 </r>
      </set>
      <set comment="kpoint 52">
       <r>    6.1597    1.0000 </r>
       <r>    6.4463    1.0000 </r>
       <r>    8.8416    1.0000 </r>
       <r>   14.5189    0.0000 </r>
       <r>   16.7838    0.0000 </r>
       <r>   17.4780    0.0000 </r>
       <r>   26.9237    0.0000 </r>
       <r>   31.9282    0.0000 </r>
      </set>
      <set comment="kpoint 53">
       <r>    3.6599    1.0000 </r>
       <r>   10.4907    0.0000 </r>
       <r>   10.4907    0.0000 </r>
       <r>   12.5535    0.0000 </r>
       <r>   13.4745    0.0000 </r>
       <r>   19.5609    0.0000 </r>
       <r>   30.2381    0.0000 </r>
       <r>   31.1145    0.0000 </r>
      </set>
      <set comment="kpoint 54">
       <r>    5.8167    1.0000 </r>
       <r>    8.3599    1.0000 </r>
       <r>   10.0355    0.0075 </r>
       <r>   12.4304    0.0000 </r>
       <r>   14.2321    0.0000 </r>
       <r>   16.6835    0.0000 </r>
       <r>   30.2362    0.0000 </r>
       <r>   32.0314    0.0000 </r>
      </set>
      <set comment="kpoint 55">
       <r>    7.9175    1.0000 </r>
       <r>    8.2224    1.0000 </r>
       <r>    8.2224    1.0000 </r>
       <r>   13.2883    0.0000 </r>
       <r>   14.2798    0.0000 </r>
       <r>   14.2798    0.0000 </r>
       <r>   30.7646    0.0000 </r>
       <r>   34.2211    0.0000 </r>
      </set>
      <set comment="kpoint 56">
       <r>    7.8754    1.0000 </r>
       <r>    9.5796    1.0000 </r>
       <r>    9.5796    1.0000 </r>
       <r>   11.5546    0.0000 </r>
       <r>   12.4460    0.0000 </r>
       <r>   13.8201    0.0000 </r>
       <r>   33.8033    0.0000 </r>
       <r>   34.0377    0.0000 </r>
      </set>
     </set>
    </set>
   </array>
  </eigenvalues>
  <separator name="orbital magnetization" >
   <v name="MAGDIPOLOUT">      0.00000000      0.00000000      0.00000000</v>
  </separator>
  <dos>
   <i name="efermi">      9.94956281 </i>
   <total>
    <array>
     <dimension dim="1">gridpoints</dimension>
     <dimension dim="2">spin</dimension>
     <field>energy</field>
     <field>total</field>
     <field>integrated</field>
     <set>
      <set comment="spin 1">
       <r>    -6.2255     0.0000     0.0000 </r>
       <r>    -6.0843     0.0000     0.0000 </r>
       <r>    -5.9430     0.0000     0.0000 </r>
       <r>    -5.8018     0.0000     0.0000 </r>
       <r>    -5.6605     0.0000     0.0000 </r>
       <r>    -5.5193     0.0000     0.0000 </r>
       <r>    -5.3781     0.0000     0.0000 </r>
       <r>    -5.2368     0.0000     0.0000 </r>
       <r>    -5.0956     0.0000     0.0000 </r>
       <r>    -4.9543     0.0000     0.0000 </r>
       <r>    -4.8131     0.0000     0.0000 </r>
       <r>    -4.6718     0.0000     0.0000 </r>
       <r>    -4.5306     0.0000     0.0000 </r>
       <r>    -4.3894     0.0001     0.0000 </r>
       <r>    -4.2481     0.0098     0.0014 </r>
       <r>    -4.1069     0.0061     0.0023 </r>
       <r>    -3.9656     0.1208     0.0193 </r>
       <r>    -3.8244     0.0131     0.0212 </r>
       <r>    -3.6831     0.0522     0.0285 </r>
       <r>    -3.5419     0.1197     0.0455 </r>
       <r>    -3.4007     0.1357     0.0646 </r>
       <r>    -3.2594     0.0991     0.0786 </r>
       <r>    -3.1182     0.0307     0.0829 </r>
       <r>    -2.9769     0.2394     0.1168 </r>
       <r>    -2.8357     0.0192     0.1195 </r>
       <r>    -2.6945     0.0792     0.1306 </r>
       <r>    -2.5532     0.1298     0.1490 </r>
       <r>    -2.4120     0.3813     0.2028 </r>
       <r>    -2.2707     0.0373     0.2081 </r>
       <r>    -2.1295     0.0275     0.2120 </r>
       <r>    -1.9882     0.3294     0.2585 </r>
       <r>    -1.8470     0.0585     0.2668 </r>
       <r>    -1.7058     0.2436     0.3012 </r>
       <r>    -1.5645     0.0401     0.3068 </r>
       <r>    -1.4233     0.2208     0.3380 </r>
       <r>    -1.2820     0.1074     0.3532 </r>
       <r>    -1.1408     0.1488     0.3742 </r>
       <r>    -0.9995     0.5832     0.4566 </r>
       <r>    -0.8583     0.1824     0.4823 </r>
       <r>    -0.7171     0.0000     0.4823 </r>
       <r>    -0.5758     0.0395     0.4879 </r>
       <r>    -0.4346     0.4686     0.5541 </r>
       <r>    -0.2933     0.0438     0.5603 </r>
       <r>    -0.1521     0.0865     0.5725 </r>
       <r>    -0.0108     0.3497     0.6219 </r>
       <r>     0.1304     0.1626     0.6449 </r>
       <r>     0.2716     0.2936     0.6863 </r>
       <r>     0.4129     0.0673     0.6958 </r>
       <r>     0.5541     0.7164     0.7970 </r>
       <r>     0.6954     0.0761     0.8078 </r>
       <r>     0.8366     0.1853     0.8340 </r>
       <r>     0.9778     0.3401     0.8820 </r>
       <r>     1.1191     0.1717     0.9063 </r>
       <r>     1.2603     0.2333     0.9392 </r>
       <r>     1.4016     0.0508     0.9464 </r>
       <r>     1.5428     0.4768     1.0137 </r>
       <r>     1.6841     0.0272     1.0176 </r>
       <r>     1.8253     0.0620     1.0263 </r>
       <r>     1.9665     0.6107     1.1126 </r>
       <r>     2.1078     0.2853     1.1529 </r>
       <r>     2.2490     0.2406     1.1869 </r>
       <r>     2.3903     0.0947     1.2002 </r>
       <r>     2.5315     0.9339     1.3321 </r>
       <r>     2.6728     0.2068     1.3614 </r>
       <r>     2.8140     0.3089     1.4050 </r>
       <r>     2.9552     0.2027     1.4336 </r>
       <r>     3.0965     0.0525     1.4410 </r>
       <r>     3.2377     0.1216     1.4582 </r>
       <r>     3.3790     0.2126     1.4882 </r>
       <r>     3.5202     0.4316     1.5492 </r>
       <r>     3.6614     0.2613     1.5861 </r>
       <r>     3.8027     0.3074     1.6295 </r>
       <r>     3.9439     0.4511     1.6932 </r>
       <r>     4.0852     0.1849     1.7193 </r>
       <r>     4.2264     0.7738     1.8286 </r>
       <r>     4.3677     0.1282     1.8467 </r>
       <r>     4.5089     0.0040     1.8473 </r>
       <r>     4.6501     0.5051     1.9186 </r>
       <r>     4.7914     0.6332     2.0081 </r>
       <r>     4.9326     0.2108     2.0378 </r>
       <r>     5.0739     0.4227     2.0975 </r>
       <r>     5.2151     0.3874     2.1523 </r>
       <r>     5.3564     0.1077     2.1675 </r>
       <r>     5.4976     0.4165     2.2263 </r>
       <r>     5.6388     0.2597     2.2630 </r>
       <r>     5.7801     0.1126     2.2789 </r>
       <r>     5.9213     0.2184     2.3097 </r>
       <r>     6.0626     0.3191     2.3548 </r>
       <r>     6.2038     0.6730     2.4499 </r>
       <r>     6.3450     0.2734     2.4885 </r>
       <r>     6.4863     0.5255     2.5627 </r>
       <r>     6.6275     0.3987     2.6190 </r>
       <r>     6.7688     0.3748     2.6720 </r>
       <r>     6.9100     0.6694     2.7665 </r>
       <r>     7.0513     0.2458     2.8012 </r>
       <r>     7.1925     0.2324     2.8340 </r>
       <r>     7.3337     0.4523     2.8979 </r>
       <r>     7.4750     0.3424     2.9463 </r>
       <r>     7.6162     0.3213     2.9917 </r>
       <r>     7.7575     0.5485     3.0691 </r>
       <r>     7.8987     0.4063     3.1265 </r>
       <r>     8.0400     0.4778     3.1940 </r>
       <r>     8.1812     0.0823     3.2056 </r>
       <r>     8.3224     0.4292     3.2663 </r>
       <r>     8.4637     0.3663     3.3180 </r>
       <r>     8.6049     0.3727     3.3706 </r>
       <r>     8.7462     0.6600     3.4638 </r>
       <r>     8.8874     0.3372     3.5115 </r>
       <r>     9.0287     0.4368     3.5732 </r>
       <r>     9.1699     0.5738     3.6542 </r>
       <r>     9.3111     0.2485     3.6893 </r>
       <r>     9.4524     0.4487     3.7527 </r>
       <r>     9.5936     0.1108     3.7683 </r>
       <r>     9.7349     0.8145     3.8834 </r>
       <r>     9.8761     0.3921     3.9388 </r>
       <r>    10.0173     0.7540     4.0453 </r>
       <r>    10.1586     0.7599     4.1526 </r>
       <r>    10.2998     0.5151     4.2253 </r>
       <r>    10.4411     0.2145     4.2556 </r>
       <r>    10.5823     0.3995     4.3121 </r>
       <r>    10.7236     0.3164     4.3568 </r>
       <r>    10.8648     0.4658     4.4226 </r>
       <r>    11.0060     0.3459     4.4714 </r>
       <r>    11.1473     0.7109     4.5718 </r>
       <r>    11.2885     0.0558     4.5797 </r>
       <r>    11.4298     0.2870     4.6202 </r>
       <r>    11.5710     0.3439     4.6688 </r>
       <r>    11.7123     0.3206     4.7141 </r>
       <r>    11.8535     0.6410     4.8046 </r>
       <r>    11.9947     0.3478     4.8538 </r>
       <r>    12.1360     0.5410     4.9302 </r>
       <r>    12.2772     0.4065     4.9876 </r>
       <r>    12.4185     0.5533     5.0657 </r>
       <r>    12.5597     0.9658     5.2021 </r>
       <r>    12.7009     0.5875     5.2851 </r>
       <r>    12.8422     0.2516     5.3206 </r>
       <r>    12.9834     0.0012     5.3208 </r>
       <r>    13.1247     0.1846     5.3469 </r>
       <r>    13.2659     0.5917     5.4305 </r>
       <r>    13.4072     0.6115     5.5168 </r>
       <r>    13.5484     0.4563     5.5813 </r>
       <r>    13.6896     0.7134     5.6821 </r>
       <r>    13.8309     0.4281     5.7425 </r>
       <r>    13.9721     0.8190     5.8582 </r>
       <r>    14.1134     0.4818     5.9262 </r>
       <r>    14.2546     0.2405     5.9602 </r>
       <r>    14.3959     0.2717     5.9986 </r>
       <r>    14.5371     0.8892     6.1242 </r>
       <r>    14.6783     0.6307     6.2133 </r>
       <r>    14.8196     0.0153     6.2154 </r>
       <r>    14.9608     0.2823     6.2553 </r>
       <r>    15.1021     0.2338     6.2883 </r>
       <r>    15.2433     0.5017     6.3592 </r>
       <r>    15.3845     0.7576     6.4662 </r>
       <r>    15.5258     0.4503     6.5298 </r>
       <r>    15.6670     0.9241     6.6603 </r>
       <r>    15.8083     0.6940     6.7583 </r>
       <r>    15.9495     0.7194     6.8599 </r>
       <r>    16.0908     0.5985     6.9445 </r>
       <r>    16.2320     0.6570     7.0373 </r>
       <r>    16.3732     0.1193     7.0541 </r>
       <r>    16.5145     0.4862     7.1228 </r>
       <r>    16.6557     0.2128     7.1528 </r>
       <r>    16.7970     0.8019     7.2661 </r>
       <r>    16.9382     0.6702     7.3608 </r>
       <r>    17.0795     0.5157     7.4336 </r>
       <r>    17.2207     0.7683     7.5421 </r>
       <r>    17.3619     0.8144     7.6572 </r>
       <r>    17.5032     0.6438     7.7481 </r>
       <r>    17.6444     0.1624     7.7710 </r>
       <r>    17.7857     0.1278     7.7891 </r>
       <r>    17.9269     0.7828     7.8996 </r>
       <r>    18.0682     0.8146     8.0147 </r>
       <r>    18.2094     1.1111     8.1716 </r>
       <r>    18.3506     0.1001     8.1858 </r>
       <r>    18.4919     1.0528     8.3345 </r>
       <r>    18.6331     0.1926     8.3616 </r>
       <r>    18.7744     0.0039     8.3622 </r>
       <r>    18.9156     0.3161     8.4068 </r>
       <r>    19.0568     0.1518     8.4283 </r>
       <r>    19.1981     0.0863     8.4405 </r>
       <r>    19.3393     0.3388     8.4883 </r>
       <r>    19.4806     0.2356     8.5216 </r>
       <r>    19.6218     0.3312     8.5684 </r>
       <r>    19.7631     0.6977     8.6669 </r>
       <r>    19.9043     1.0846     8.8201 </r>
       <r>    20.0455     0.8883     8.9456 </r>
       <r>    20.1868     0.8994     9.0726 </r>
       <r>    20.3280     0.9425     9.2057 </r>
       <r>    20.4693     0.3681     9.2577 </r>
       <r>    20.6105     0.6665     9.3519 </r>
       <r>    20.7518     0.0657     9.3612 </r>
       <r>    20.8930     0.5609     9.4404 </r>
       <r>    21.0342     0.1919     9.4675 </r>
       <r>    21.1755     0.1549     9.4894 </r>
       <r>    21.3167     1.1241     9.6482 </r>
       <r>    21.4580     1.4724     9.8561 </r>
       <r>    21.5992     0.3067     9.8994 </r>
       <r>    21.7404     0.6157     9.9864 </r>
       <r>    21.8817     0.5141    10.0590 </r>
       <r>    22.0229     0.3334    10.1061 </r>
       <r>    22.1642     1.6120    10.3338 </r>
       <r>    22.3054     0.5507    10.4116 </r>
       <r>    22.4467     0.3518    10.4613 </r>
       <r>    22.5879     0.4409    10.5235 </r>
       <r>    22.7291     0.6093    10.6096 </r>
       <r>    22.8704     0.4330    10.6708 </r>
       <r>    23.0116     0.9491    10.8048 </r>
       <r>    23.1529     0.8183    10.9204 </r>
       <r>    23.2941     0.3432    10.9688 </r>
       <r>    23.4354     0.7524    11.0751 </r>
       <r>    23.5766     0.8402    11.1938 </r>
       <r>    23.7178     0.2480    11.2288 </r>
       <r>    23.8591     0.9903    11.3687 </r>
       <r>    24.0003     0.9625    11.5047 </r>
       <r>    24.1416     0.3234    11.5503 </r>
       <r>    24.2828     0.0220    11.5534 </r>
       <r>    24.4240     0.8108    11.6679 </r>
       <r>    24.5653     0.4019    11.7247 </r>
       <r>    24.7065     1.0554    11.8738 </r>
       <r>    24.8478     0.0756    11.8845 </r>
       <r>    24.9890     0.5695    11.9649 </r>
       <r>    25.1303     1.1999    12.1344 </r>
       <r>    25.2715     0.4885    12.2034 </r>
       <r>    25.4127     0.4191    12.2626 </r>
       <r>    25.5540     0.4191    12.3217 </r>
       <r>    25.6952     0.1380    12.3412 </r>
       <r>    25.8365     0.1868    12.3676 </r>
       <r>    25.9777     0.5153    12.4404 </r>
       <r>    26.1190     1.3601    12.6325 </r>
       <r>    26.2602     0.9589    12.7679 </r>
       <r>    26.4014     0.8785    12.8920 </r>
       <r>    26.5427     0.3262    12.9381 </r>
       <r>    26.6839     0.6615    13.0315 </r>
       <r>    26.8252     0.3860    13.0861 </r>
       <r>    26.9664     0.9345    13.2180 </r>
       <r>    27.1077     0.7640    13.3260 </r>
       <r>    27.2489     0.5534    13.4041 </r>
       <r>    27.3901     0.6260    13.4925 </r>
       <r>    27.5314     0.7454    13.5978 </r>
       <r>    27.6726     0.6742    13.6930 </r>
       <r>    27.8139     0.9740    13.8306 </r>
       <r>    27.9551     0.3662    13.8823 </r>
       <r>    28.0963     0.3734    13.9351 </r>
       <r>    28.2376     0.2292    13.9674 </r>
       <r>    28.3788     0.7073    14.0673 </r>
       <r>    28.5201     0.3655    14.1190 </r>
       <r>    28.6613     0.2664    14.1566 </r>
       <r>    28.8026     0.5255    14.2308 </r>
       <r>    28.9438     0.4038    14.2878 </r>
       <r>    29.0850     1.3819    14.4830 </r>
       <r>    29.2263     1.5155    14.6971 </r>
       <r>    29.3675     0.9880    14.8366 </r>
       <r>    29.5088     0.1706    14.8607 </r>
       <r>    29.6500     0.6733    14.9558 </r>
       <r>    29.7913     0.4147    15.0144 </r>
       <r>    29.9325     1.0593    15.1640 </r>
       <r>    30.0737     0.4534    15.2281 </r>
       <r>    30.2150     0.4895    15.2972 </r>
       <r>    30.3562     0.3910    15.3524 </r>
       <r>    30.4975     0.3729    15.4051 </r>
       <r>    30.6387     0.6765    15.5006 </r>
       <r>    30.7799     0.7853    15.6115 </r>
       <r>    30.9212     0.5777    15.6931 </r>
       <r>    31.0624     0.2038    15.7219 </r>
       <r>    31.2037     0.3029    15.7647 </r>
       <r>    31.3449     0.3684    15.8167 </r>
       <r>    31.4862     0.1484    15.8377 </r>
       <r>    31.6274     0.0000    15.8377 </r>
       <r>    31.7686     0.0000    15.8377 </r>
       <r>    31.9099     0.1993    15.8659 </r>
       <r>    32.0511     0.4934    15.9356 </r>
       <r>    32.1924     0.1523    15.9571 </r>
       <r>    32.3336     0.0061    15.9579 </r>
       <r>    32.4749     0.0000    15.9579 </r>
       <r>    32.6161     0.0000    15.9579 </r>
       <r>    32.7573     0.0001    15.9579 </r>
       <r>    32.8986     0.0727    15.9682 </r>
       <r>    33.0398     0.0123    15.9699 </r>
       <r>    33.1811     0.0000    15.9699 </r>
       <r>    33.3223     0.0000    15.9699 </r>
       <r>    33.4635     0.0000    15.9699 </r>
       <r>    33.6048     0.0000    15.9699 </r>
       <r>    33.7460     0.0034    15.9704 </r>
       <r>    33.8873     0.0599    15.9789 </r>
       <r>    34.0285     0.0259    15.9825 </r>
       <r>    34.1698     0.0447    15.9889 </r>
       <r>    34.3110     0.0784    15.9999 </r>
       <r>    34.4522     0.0005    16.0000 </r>
       <r>    34.5935     0.0000    16.0000 </r>
       <r>    34.7347     0.0000    16.0000 </r>
       <r>    34.8760     0.0000    16.0000 </r>
       <r>    35.0172     0.0000    16.0000 </r>
       <r>    35.1585     0.0000    16.0000 </r>
       <r>    35.2997     0.0000    16.0000 </r>
       <r>    35.4409     0.0000    16.0000 </r>
       <r>    35.5822     0.0000    16.0000 </r>
       <r>    35.7234     0.0000    16.0000 </r>
       <r>    35.8647     0.0000    16.0000 </r>
       <r>    36.0059     0.0000    16.0000 </r>
       <r>    36.1472     0.0000    16.0000 </r>
      </set>
     </set>
    </array>
   </total>
  </dos>
 </calculation>
 <structure name="finalpos" >
  <crystal>
   <varray name="basis" >
    <v>       1.53831850       1.53831850       1.53831850 </v>
    <v>       1.53831850      -1.53831850      -1.53831850 </v>
    <v>      -1.53831850       1.53831850      -1.53831850 </v>
   </varray>
   <i name="volume">     14.56125405 </i>
   <varray name="rec_basis" >
    <v>       0.32503022       0.32503022       0.00000000 </v>
    <v>       0.32503022       0.00000000      -0.32503022 </v>
    <v>       0.00000000       0.32503022      -0.32503022 </v>
   </varray>
  </crystal>
  <varray name="positions" >
   <v>      -0.00000000       0.00000000      -0.00000000 </v>
  </varray>
 </structure>
</modeling>
