unknown system                          
   1.00000000000000     
     2.769645   -0.000000    0.000000
     0.000000    2.769645    0.000000
    -0.000000    0.000000    2.769645
   Fe
     2
Direct
  0.000000  0.000000  0.000000
  0.500000  0.500000  0.500000
 
   32   32   32
  192.13      186.20      169.44      144.62      115.60      86.336      60.144      39.150      24.174      14.868    
  10.025      7.9540      6.9281      6.2266      5.8026      5.5870      5.5223      5.5870      5.8026      6.2266    
  6.9281      7.9540      10.025      14.868      24.174      39.150      60.144      86.336      115.60      144.62    
  169.44      186.20      186.20      180.48      164.30      140.32      112.23      83.877      58.466      38.087    
  23.565      14.568      9.9111      7.9225      6.9113      6.2185      5.8001      5.5873      5.5234      5.5873    
  5.8001      6.2185      6.9113      7.9225      9.9111      14.568      23.565      38.087      58.466      83.877    
  112.23      140.32      164.30      180.48      169.44      164.30      149.73      128.09      102.64      76.846    
  53.654      35.044      21.829      13.724      9.5964      7.8332      6.8611      6.1946      5.7931      5.5885    
  5.5269      5.5885      5.7931      6.1946      6.8611      7.8332      9.5964      13.724      21.829      35.044    
  53.654      76.846      102.64      128.09      149.73      164.30      144.62      140.32      128.09      109.83    
  88.244      66.232      46.371      30.450      19.243      12.500      9.1575      7.6946      6.7786      6.1565    
  5.7824      5.5908      5.5328      5.5908      5.7824      6.1565      6.7786      7.6946      9.1575      12.500    
  19.243      30.450      46.371      66.232      88.244      109.83      128.09      140.32      115.60      112.23    
  102.64      88.244      71.101      53.527      37.648      24.996      16.244      11.141      8.6907      7.5038    
  6.6679      6.1069      5.7689      5.5942      5.5408      5.5942      5.7689      6.1069      6.6679      7.5038    
  8.6907      11.141      16.244      24.996      37.648      53.527      71.101      88.244      102.64      112.23    
  86.336      83.877      76.846      66.232      53.527      40.474      28.735      19.526      13.348      9.9045    
  8.2604      7.2667      6.5363      6.0494      5.7536      5.5981      5.5500      5.5981      5.7536      6.0494    
  6.5363      7.2667      8.2604      9.9045      13.348      19.526      28.735      40.474      53.527      66.232    
  76.846      83.877      60.144      58.466      53.654      46.371      37.648      28.735      20.844      14.840    
  11.001      8.9541      7.8414      7.0020      6.3940      5.9878      5.7365      5.6013      5.5587      5.6013    
  5.7365      5.9878      6.3940      7.0020      7.8414      8.9541      11.001      14.840      20.844      28.735    
  37.648      46.371      53.654      58.466      39.150      38.087      35.044      30.450      24.996      19.526    
  14.840      11.452      9.4049      8.2591      7.4026      6.7332      6.2514      5.9250      5.7174      5.6020    
  5.5650      5.6020      5.7174      5.9250      6.2514      6.7332      7.4026      8.2591      9.4049      11.452    
  14.840      19.526      24.996      30.450      35.044      38.087      24.174      23.565      21.829      19.243    
  16.244      13.348      11.001      9.4049      8.4123      7.6351      6.9832      6.4812      6.1167      5.8630    
  5.6954      5.5989      5.5673      5.5989      5.6954      5.8630      6.1167      6.4812      6.9832      7.6351    
  8.4123      9.4049      11.001      13.348      16.244      19.243      21.829      23.565      14.868      14.568    
  13.724      12.500      11.141      9.9045      8.9541      8.2591      7.6351      7.0754      6.6151      6.2592    
  5.9944      5.8026      5.6702      5.5914      5.5650      5.5914      5.6702      5.8026      5.9944      6.2592    
  6.6151      7.0754      7.6351      8.2591      8.9541      9.9045      11.141      12.500      13.724      14.568    
  10.025      9.9111      9.5964      9.1575      8.6907      8.2604      7.8414      7.4026      6.9832      6.6151    
  6.3118      6.0717      5.8857      5.7442      5.6424      5.5799      5.5587      5.5799      5.6424      5.7442    
  5.8857      6.0717      6.3118      6.6151      6.9832      7.4026      7.8414      8.2604      8.6907      9.1575    
  9.5964      9.9111      7.9540      7.9225      7.8332      7.6946      7.5038      7.2667      7.0020      6.7332    
  6.4812      6.2592      6.0717      5.9167      5.7900      5.6889      5.6134      5.5662      5.5500      5.5662    
  5.6134      5.6889      5.7900      5.9167      6.0717      6.2592      6.4812      6.7332      7.0020      7.2667    
  7.5038      7.6946      7.8332      7.9225      6.9281      6.9113      6.8611      6.7786      6.6679      6.5363    
  6.3940      6.2514      6.1167      5.9944      5.8857      5.7900      5.7072      5.6382      5.5855      5.5522    
  5.5408      5.5522      5.5855      5.6382      5.7072      5.7900      5.8857      5.9944      6.1167      6.2514    
  6.3940      6.5363      6.6679      6.7786      6.8611      6.9113      6.2266      6.2185      6.1946      6.1565    
  6.1069      6.0494      5.9878      5.9250      5.8630      5.8026      5.7442      5.6889      5.6382      5.5947    
  5.5612      5.5400      5.5328      5.5400      5.5612      5.5947      5.6382      5.6889      5.7442      5.8026    
  5.8630      5.9250      5.9878      6.0494      6.1069      6.1565      6.1946      6.2185      5.8026      5.8001    
  5.7931      5.7824      5.7689      5.7536      5.7365      5.7174      5.6954      5.6702      5.6424      5.6134    
  5.5855      5.5612      5.5425      5.5309      5.5269      5.5309      5.5425      5.5612      5.5855      5.6134    
  5.6424      5.6702      5.6954      5.7174      5.7365      5.7536      5.7689      5.7824      5.7931      5.8001    
  5.5870      5.5873      5.5885      5.5908      5.5942      5.5981      5.6013      5.6020      5.5989      5.5914    
  5.5799      5.5662      5.5522      5.5400      5.5309      5.5253      5.5234      5.5253      5.5309      5.5400    
  5.5522      5.5662      5.5799      5.5914      5.5989      5.6020      5.6013      5.5981      5.5942      5.5908    
  5.5885      5.5873      5.5223      5.5234      5.5269      5.5328      5.5408      5.5500      5.5587      5.5650    
  5.5673      5.5650      5.5587      5.5500      5.5408      5.5328      5.5269      5.5234      5.5223      5.5234    
  5.5269      5.5328      5.5408      5.5500      5.5587      5.5650      5.5673      5.5650      5.5587      5.5500    
  5.5408      5.5328      5.5269      5.5234      5.5870      5.5873      5.5885      5.5908      5.5942      5.5981    
  5.6013      5.6020      5.5989      5.5914      5.5799      5.5662      5.5522      5.5400      5.5309      5.5253    
  5.5234      5.5253      5.5309      5.5400      5.5522      5.5662      5.5799      5.5914      5.5989      5.6020    
  5.6013      5.5981      5.5942      5.5908      5.5885      5.5873      5.8026      5.8001      5.7931      5.7824    
  5.7689      5.7536      5.7365      5.7174      5.6954      5.6702      5.6424      5.6134      5.5855      5.5612    
  5.5425      5.5309      5.5269      5.5309      5.5425      5.5612      5.5855      5.6134      5.6424      5.6702    
  5.6954      5.7174      5.7365      5.7536      5.7689      5.7824      5.7931      5.8001      6.2266      6.2185    
  6.1946      6.1565      6.1069      6.0494      5.9878      5.9250      5.8630      5.8026      5.7442      5.6889    
  5.6382      5.5947      5.5612      5.5400      5.5328      5.5400      5.5612      5.5947      5.6382      5.6889    
  5.7442      5.8026      5.8630      5.9250      5.9878      6.0494      6.1069      6.1565      6.1946      6.2185    
  6.9281      6.9113      6.8611      6.7786      6.6679      6.5363      6.3940      6.2514      6.1167      5.9944    
  5.8857      5.7900      5.7072      5.6382      5.5855      5.5522      5.5408      5.5522      5.5855      5.6382    
  5.7072      5.7900      5.8857      5.9944      6.1167      6.2514      6.3940      6.5363      6.6679      6.7786    
  6.8611      6.9113      7.9540      7.9225      7.8332      7.6946      7.5038      7.2667      7.0020      6.7332    
  6.4812      6.2592      6.0717      5.9167      5.7900      5.6889      5.6134      5.5662      5.5500      5.5662    
  5.6134      5.6889      5.7900      5.9167      6.0717      6.2592      6.4812      6.7332      7.0020      7.2667    
  7.5038      7.6946      7.8332      7.9225      10.025      9.9111      9.5964      9.1575      8.6907      8.2604    
  7.8414      7.4026      6.9832      6.6151      6.3118      6.0717      5.8857      5.7442      5.6424      5.5799    
  5.5587      5.5799      5.6424      5.7442      5.8857      6.0717      6.3118      6.6151      6.9832      7.4026    
  7.8414      8.2604      8.6907      9.1575      9.5964      9.9111      14.868      14.568      13.724      12.500    
  11.141      9.9045      8.9541      8.2591      7.6351      7.0754      6.6151      6.2592      5.9944      5.8026    
  5.6702      5.5914      5.5650      5.5914      5.6702      5.8026      5.9944      6.2592      6.6151      7.0754    
  7.6351      8.2591      8.9541      9.9045      11.141      12.500      13.724      14.568      24.174      23.565    
  21.829      19.243      16.244      13.348      11.001      9.4049      8.4123      7.6351      6.9832      6.4812    
  6.1167      5.8630      5.6954      5.5989      5.5673      5.5989      5.6954      5.8630      6.1167      6.4812    
  6.9832      7.6351      8.4123      9.4049      11.001      13.348      16.244      19.243      21.829      23.565    
  39.150      38.087      35.044      30.450      24.996      19.526      14.840      11.452      9.4049      8.2591    
  7.4026      6.7332      6.2514      5.9250      5.7174      5.6020      5.5650      5.6020      5.7174      5.9250    
  6.2514      6.7332      7.4026      8.2591      9.4049      11.452      14.840      19.526      24.996      30.450    
  35.044      38.087      60.144      58.466      53.654      46.371      37.648      28.735      20.844      14.840    
  11.001      8.9541      7.8414      7.0020      6.3940      5.9878      5.7365      5.6013      5.5587      5.6013    
  5.7365      5.9878      6.3940      7.0020      7.8414      8.9541      11.001      14.840      20.844      28.735    
  37.648      46.371      53.654      58.466      86.336      83.877      76.846      66.232      53.527      40.474    
  28.735      19.526      13.348      9.9045      8.2604      7.2667      6.5363      6.0494      5.7536      5.5981    
  5.5500      5.5981      5.7536      6.0494      6.5363      7.2667      8.2604      9.9045      13.348      19.526    
  28.735      40.474      53.527      66.232      76.846      83.877      115.60      112.23      102.64      88.244    
  71.101      53.527      37.648      24.996      16.244      11.141      8.6907      7.5038      6.6679      6.1069    
  5.7689      5.5942      5.5408      5.5942      5.7689      6.1069      6.6679      7.5038      8.6907      11.141    
  16.244      24.996      37.648      53.527      71.101      88.244      102.64      112.23      144.62      140.32    
  128.09      109.83      88.244      66.232      46.371      30.450      19.243      12.500      9.1575      7.6946    
  6.7786      6.1565      5.7824      5.5908      5.5328      5.5908      5.7824      6.1565      6.7786      7.6946    
  9.1575      12.500      19.243      30.450      46.371      66.232      88.244      109.83      128.09      140.32    
  169.44      164.30      149.73      128.09      102.64      76.846      53.654      35.044      21.829      13.724    
  9.5964      7.8332      6.8611      6.1946      5.7931      5.5885      5.5269      5.5885      5.7931      6.1946    
  6.8611      7.8332      9.5964      13.724      21.829      35.044      53.654      76.846      102.64      128.09    
  149.73      164.30      186.20      180.48      164.30      140.32      112.23      83.877      58.466      38.087    
  23.565      14.568      9.9111      7.9225      6.9113      6.2185      5.8001      5.5873      5.5234      5.5873    
  5.8001      6.2185      6.9113      7.9225      9.9111      14.568      23.565      38.087      58.466      83.877    
  112.23      140.32      164.30      180.48      186.20      180.48      164.30      140.32      112.23      83.877    
  58.466      38.087      23.565      14.568      9.9111      7.9225      6.9113      6.2185      5.8001      5.5873    
  5.5234      5.5873      5.8001      6.2185      6.9113      7.9225      9.9111      14.568      23.565      38.087    
  58.466      83.877      112.23      140.32      164.30      180.48      180.48      174.96      159.33      136.15    
  108.97      81.489      56.833      37.054      22.973      14.279      9.8027      7.8929      6.8953      6.2112    
  5.7985      5.5884      5.5253      5.5884      5.7985      6.2112      6.8953      7.8929      9.8027      14.279    
  22.973      37.054      56.833      81.489      108.97      136.15      159.33      174.96      164.30      159.33    
  145.26      124.32      99.673      74.660      52.153      34.094      21.291      13.467      9.5047      7.8085    
  6.8477      6.1898      5.7938      5.5918      5.5309      5.5918      5.7938      6.1898      6.8477      7.8085    
  9.5047      13.467      21.291      34.094      52.153      74.660      99.673      124.32      145.26      159.33    
  140.32      136.15      124.32      106.64      85.707      64.349      45.073      29.633      18.789      12.294    
  9.0904      7.6753      6.7696      6.1558      5.7867      5.5974      5.5400      5.5974      5.7867      6.1558    
  6.7696      7.6753      9.0904      12.294      18.789      29.633      45.073      64.349      85.707      106.64    
  124.32      136.15      112.23      108.97      99.673      85.707      69.069      52.009      36.602      24.348    
  15.898      10.996      8.6504      7.4902      6.6648      6.1115      5.7779      5.6051      5.5522      5.6051    
  5.7779      6.1115      6.6648      7.4902      8.6504      10.996      15.898      24.348      36.602      52.009    
  69.069      85.707      99.673      108.97      83.877      81.489      74.660      64.349      52.009      39.339    
  27.962      19.062      13.118      9.8215      8.2414      7.2608      6.5403      6.0601      5.7678      5.6139    
  5.5662      5.6139      5.7678      6.0601      6.5403      7.2608      8.2414      9.8215      13.118      19.062    
  27.962      39.339      52.009      64.349      74.660      81.489      58.466      56.833      52.153      45.073    
  36.602      27.962      20.333      14.553      10.876      8.9199      7.8332      7.0050      6.4057      6.0048    
  5.7563      5.6222      5.5799      5.6222      5.7563      6.0048      6.4057      7.0050      7.8332      8.9199    
  10.876      14.553      20.333      27.962      36.602      45.073      52.153      56.833      38.087      37.054    
  34.094      29.633      24.348      19.062      14.553      11.309      9.3573      8.2495      7.4047      6.7454    
  6.2707      5.9484      5.7427      5.6282      5.5914      5.6282      5.7427      5.9484      6.2707      6.7454    
  7.4047      8.2495      9.3573      11.309      14.553      19.062      24.348      29.633      34.094      37.054    
  23.565      22.973      21.291      18.789      15.898      13.118      10.876      9.3573      8.4020      7.6368    
  6.9957      6.5019      6.1429      5.8923      5.7262      5.6304      5.5989      5.6304      5.7262      5.8923    
  6.1429      6.5019      6.9957      7.6368      8.4020      9.3573      10.876      13.118      15.898      18.789    
  21.291      22.973      14.568      14.279      13.467      12.294      10.996      9.8215      8.9199      8.2495    
  7.6368      7.0880      6.6366      6.2873      6.0267      5.8374      5.7064      5.6282      5.6020      5.6282    
  5.7064      5.8374      6.0267      6.2873      6.6366      7.0880      7.6368      8.2495      8.9199      9.8215    
  10.996      12.294      13.467      14.279      9.9111      9.8027      9.5047      9.0904      8.6504      8.2414    
  7.8332      7.4047      6.9957      6.6366      6.3405      6.1057      5.9232      5.7842      5.6838      5.6222    
  5.6013      5.6222      5.6838      5.7842      5.9232      6.1057      6.3405      6.6366      6.9957      7.4047    
  7.8332      8.2414      8.6504      9.0904      9.5047      9.8027      7.9225      7.8929      7.8085      7.6753    
  7.4902      7.2608      7.0050      6.7454      6.5019      6.2873      6.1057      5.9553      5.8320      5.7335    
  5.6599      5.6139      5.5981      5.6139      5.6599      5.7335      5.8320      5.9553      6.1057      6.2873    
  6.5019      6.7454      7.0050      7.2608      7.4902      7.6753      7.8085      7.8929      6.9113      6.8953    
  6.8477      6.7696      6.6648      6.5403      6.4057      6.2707      6.1429      6.0267      5.9232      5.8320    
  5.7530      5.6871      5.6368      5.6051      5.5942      5.6051      5.6368      5.6871      5.7530      5.8320    
  5.9232      6.0267      6.1429      6.2707      6.4057      6.5403      6.6648      6.7696      6.8477      6.8953    
  6.2185      6.2112      6.1898      6.1558      6.1115      6.0601      6.0048      5.9484      5.8923      5.8374    
  5.7842      5.7335      5.6871      5.6473      5.6167      5.5974      5.5908      5.5974      5.6167      5.6473    
  5.6871      5.7335      5.7842      5.8374      5.8923      5.9484      6.0048      6.0601      6.1115      6.1558    
  6.1898      6.2112      5.8001      5.7985      5.7938      5.7867      5.7779      5.7678      5.7563      5.7427    
  5.7262      5.7064      5.6838      5.6599      5.6368      5.6167      5.6013      5.5918      5.5885      5.5918    
  5.6013      5.6167      5.6368      5.6599      5.6838      5.7064      5.7262      5.7427      5.7563      5.7678    
  5.7779      5.7867      5.7938      5.7985      5.5873      5.5884      5.5918      5.5974      5.6051      5.6139    
  5.6222      5.6282      5.6304      5.6282      5.6222      5.6139      5.6051      5.5974      5.5918      5.5884    
  5.5873      5.5884      5.5918      5.5974      5.6051      5.6139      5.6222      5.6282      5.6304      5.6282    
  5.6222      5.6139      5.6051      5.5974      5.5918      5.5884      5.5234      5.5253      5.5309      5.5400    
  5.5522      5.5662      5.5799      5.5914      5.5989      5.6020      5.6013      5.5981      5.5942      5.5908    
  5.5885      5.5873      5.5870      5.5873      5.5885      5.5908      5.5942      5.5981      5.6013      5.6020    
  5.5989      5.5914      5.5799      5.5662      5.5522      5.5400      5.5309      5.5253      5.5873      5.5884    
  5.5918      5.5974      5.6051      5.6139      5.6222      5.6282      5.6304      5.6282      5.6222      5.6139    
  5.6051      5.5974      5.5918      5.5884      5.5873      5.5884      5.5918      5.5974      5.6051      5.6139    
  5.6222      5.6282      5.6304      5.6282      5.6222      5.6139      5.6051      5.5974      5.5918      5.5884    
  5.8001      5.7985      5.7938      5.7867      5.7779      5.7678      5.7563      5.7427      5.7262      5.7064    
  5.6838      5.6599      5.6368      5.6167      5.6013      5.5918      5.5885      5.5918      5.6013      5.6167    
  5.6368      5.6599      5.6838      5.7064      5.7262      5.7427      5.7563      5.7678      5.7779      5.7867    
  5.7938      5.7985      6.2185      6.2112      6.1898      6.1558      6.1115      6.0601      6.0048      5.9484    
  5.8923      5.8374      5.7842      5.7335      5.6871      5.6473      5.6167      5.5974      5.5908      5.5974    
  5.6167      5.6473      5.6871      5.7335      5.7842      5.8374      5.8923      5.9484      6.0048      6.0601    
  6.1115      6.1558      6.1898      6.2112      6.9113      6.8953      6.8477      6.7696      6.6648      6.5403    
  6.4057      6.2707      6.1429      6.0267      5.9232      5.8320      5.7530      5.6871      5.6368      5.6051    
  5.5942      5.6051      5.6368      5.6871      5.7530      5.8320      5.9232      6.0267      6.1429      6.2707    
  6.4057      6.5403      6.6648      6.7696      6.8477      6.8953      7.9225      7.8929      7.8085      7.6753    
  7.4902      7.2608      7.0050      6.7454      6.5019      6.2873      6.1057      5.9553      5.8320      5.7335    
  5.6599      5.6139      5.5981      5.6139      5.6599      5.7335      5.8320      5.9553      6.1057      6.2873    
  6.5019      6.7454      7.0050      7.2608      7.4902      7.6753      7.8085      7.8929      9.9111      9.8027    
  9.5047      9.0904      8.6504      8.2414      7.8332      7.4047      6.9957      6.6366      6.3405      6.1057    
  5.9232      5.7842      5.6838      5.6222      5.6013      5.6222      5.6838      5.7842      5.9232      6.1057    
  6.3405      6.6366      6.9957      7.4047      7.8332      8.2414      8.6504      9.0904      9.5047      9.8027    
  14.568      14.279      13.467      12.294      10.996      9.8215      8.9199      8.2495      7.6368      7.0880    
  6.6366      6.2873      6.0267      5.8374      5.7064      5.6282      5.6020      5.6282      5.7064      5.8374    
  6.0267      6.2873      6.6366      7.0880      7.6368      8.2495      8.9199      9.8215      10.996      12.294    
  13.467      14.279      23.565      22.973      21.291      18.789      15.898      13.118      10.876      9.3573    
  8.4020      7.6368      6.9957      6.5019      6.1429      5.8923      5.7262      5.6304      5.5989      5.6304    
  5.7262      5.8923      6.1429      6.5019      6.9957      7.6368      8.4020      9.3573      10.876      13.118    
  15.898      18.789      21.291      22.973      38.087      37.054      34.094      29.633      24.348      19.062    
  14.553      11.309      9.3573      8.2495      7.4047      6.7454      6.2707      5.9484      5.7427      5.6282    
  5.5914      5.6282      5.7427      5.9484      6.2707      6.7454      7.4047      8.2495      9.3573      11.309    
  14.553      19.062      24.348      29.633      34.094      37.054      58.466      56.833      52.153      45.073    
  36.602      27.962      20.333      14.553      10.876      8.9199      7.8332      7.0050      6.4057      6.0048    
  5.7563      5.6222      5.5799      5.6222      5.7563      6.0048      6.4057      7.0050      7.8332      8.9199    
  10.876      14.553      20.333      27.962      36.602      45.073      52.153      56.833      83.877      81.489    
  74.660      64.349      52.009      39.339      27.962      19.062      13.118      9.8215      8.2414      7.2608    
  6.5403      6.0601      5.7678      5.6139      5.5662      5.6139      5.7678      6.0601      6.5403      7.2608    
  8.2414      9.8215      13.118      19.062      27.962      39.339      52.009      64.349      74.660      81.489    
  112.23      108.97      99.673      85.707      69.069      52.009      36.602      24.348      15.898      10.996    
  8.6504      7.4902      6.6648      6.1115      5.7779      5.6051      5.5522      5.6051      5.7779      6.1115    
  6.6648      7.4902      8.6504      10.996      15.898      24.348      36.602      52.009      69.069      85.707    
  99.673      108.97      140.32      136.15      124.32      106.64      85.707      64.349      45.073      29.633    
  18.789      12.294      9.0904      7.6753      6.7696      6.1558      5.7867      5.5974      5.5400      5.5974    
  5.7867      6.1558      6.7696      7.6753      9.0904      12.294      18.789      29.633      45.073      64.349    
  85.707      106.64      124.32      136.15      164.30      159.33      145.26      124.32      99.673      74.660    
  52.153      34.094      21.291      13.467      9.5047      7.8085      6.8477      6.1898      5.7938      5.5918    
  5.5309      5.5918      5.7938      6.1898      6.8477      7.8085      9.5047      13.467      21.291      34.094    
  52.153      74.660      99.673      124.32      145.26      159.33      180.48      174.96      159.33      136.15    
  108.97      81.489      56.833      37.054      22.973      14.279      9.8027      7.8929      6.8953      6.2112    
  5.7985      5.5884      5.5253      5.5884      5.7985      6.2112      6.8953      7.8929      9.8027      14.279    
  22.973      37.054      56.833      81.489      108.97      136.15      159.33      174.96      169.44      164.30    
  149.73      128.09      102.64      76.846      53.654      35.044      21.829      13.724      9.5964      7.8332    
  6.8611      6.1946      5.7931      5.5885      5.5269      5.5885      5.7931      6.1946      6.8611      7.8332    
  9.5964      13.724      21.829      35.044      53.654      76.846      102.64      128.09      149.73      164.30    
  164.30      159.33      145.26      124.32      99.673      74.660      52.153      34.094      21.291      13.467    
  9.5047      7.8085      6.8477      6.1898      5.7938      5.5918      5.5309      5.5918      5.7938      6.1898    
  6.8477      7.8085      9.5047      13.467      21.291      34.094      52.153      74.660      99.673      124.32    
  145.26      159.33      149.73      145.26      132.55      113.59      91.202      68.406      47.855      31.380    
  19.764      12.749      9.2541      7.7362      6.8078      6.1758      5.7958      5.6013      5.5425      5.6013    
  5.7958      6.1758      6.8078      7.7362      9.2541      12.749      19.764      31.380      47.855      68.406    
  91.202      113.59      132.55      145.26      128.09      124.32      113.59      97.527      78.459      58.964    
  41.363      27.307      17.510      11.721      8.9083      7.6164      6.7425      6.1536      5.7992      5.6167    
  5.5612      5.6167      5.7992      6.1536      6.7425      7.6164      8.9083      11.721      17.510      27.307    
  41.363      58.964      78.459      97.527      113.59      124.32      102.64      99.673      91.202      78.459    
  63.258      47.670      33.622      22.511      14.929      10.599      8.5409      7.4488      6.6552      6.1246    
  5.8039      5.6368      5.5855      5.6368      5.8039      6.1246      6.6552      7.4488      8.5409      10.599    
  14.929      22.511      33.622      47.670      63.258      78.459      91.202      99.673      76.846      74.660    
  68.406      58.964      47.670      36.104      25.771      17.759      12.481      9.5972      8.1863      7.2424    
  6.5516      6.0910      5.8094      5.6599      5.6134      5.6599      5.8094      6.0910      6.5516      7.2424    
  8.1863      9.5972      12.481      17.759      25.771      36.104      47.670      58.964      68.406      74.660    
  53.654      52.153      47.855      41.363      33.622      25.771      18.898      13.757      10.537      8.8277    
  7.8073      7.0132      6.4397      6.0548      5.8146      5.6838      5.6424      5.6838      5.8146      6.0548    
  6.4397      7.0132      7.8073      8.8277      10.537      13.757      18.898      25.771      33.622      41.363    
  47.855      52.153      35.044      34.094      31.380      27.307      22.511      17.759      13.757      10.922    
  9.2302      8.2189      7.4101      6.7812      6.3275      6.0177      5.8184      5.7064      5.6702      5.7064    
  5.8184      6.0177      6.3275      6.7812      7.4101      8.2189      9.2302      10.922      13.757      17.759    
  22.511      27.307      31.380      34.094      21.829      21.291      19.764      17.510      14.929      12.481    
  10.537      9.2302      8.3699      7.6406      7.0324      6.5637      6.2214      5.9806      5.8197      5.7262    
  5.6954      5.7262      5.8197      5.9806      6.2214      6.5637      7.0324      7.6406      8.3699      9.2302    
  10.537      12.481      14.929      17.510      19.764      21.291      13.724      13.467      12.749      11.721    
  10.599      9.5972      8.8277      8.2189      7.6406      7.1249      6.7010      6.3719      6.1250      5.9443    
  5.8184      5.7427      5.7174      5.7427      5.8184      5.9443      6.1250      6.3719      6.7010      7.1249    
  7.6406      8.2189      8.8277      9.5972      10.599      11.721      12.749      13.467      9.5964      9.5047    
  9.2541      8.9083      8.5409      8.1863      7.8073      7.4101      7.0324      6.7010      6.4273      6.2095    
  6.0394      5.9091      5.8146      5.7563      5.7365      5.7563      5.8146      5.9091      6.0394      6.2095    
  6.4273      6.7010      7.0324      7.4101      7.8073      8.1863      8.5409      8.9083      9.2541      9.5047    
  7.8332      7.8085      7.7362      7.6164      7.4488      7.2424      7.0132      6.7812      6.5637      6.3719    
  6.2095      6.0748      5.9642      5.8756      5.8094      5.7678      5.7536      5.7678      5.8094      5.8756    
  5.9642      6.0748      6.2095      6.3719      6.5637      6.7812      7.0132      7.2424      7.4488      7.6164    
  7.7362      7.8085      6.8611      6.8477      6.8078      6.7425      6.6552      6.5516      6.4397      6.3275    
  6.2214      6.1250      6.0394      5.9642      5.8992      5.8451      5.8039      5.7779      5.7689      5.7779    