unknown system                          
   1.00000000000000     
     2.792528   -0.000000    0.000000
     0.000000    2.792528    0.000000
    -0.000000    0.000000    2.792528
   Fe
     2
Direct
  0.000000  0.000000  0.000000
  0.500000  0.500000  0.500000
 
   32   32   32
 0.18387285858E+03 0.17835741244E+03 0.16272894645E+03 0.13950876266E+03 0.11220017159E+03
 0.84480020698E+02 0.59456082671E+02 0.39186322562E+02 0.24523736415E+02 0.15229300971E+02
 0.10248504795E+02 0.80599666562E+01 0.70476600648E+01 0.63607345233E+01 0.59387313747E+01
 0.57220169467E+01 0.56566434883E+01 0.57220169467E+01 0.59387313747E+01 0.63607345233E+01
 0.70476600648E+01 0.80599666562E+01 0.10248504795E+02 0.15229300971E+02 0.24523736415E+02
 0.39186322562E+02 0.59456082671E+02 0.84480020698E+02 0.11220017159E+03 0.13950876266E+03
 0.16272894645E+03 0.17835741244E+03 0.17835741244E+03 0.17303204583E+03 0.15793436686E+03
 0.13548064032E+03 0.10903797573E+03 0.82156926927E+02 0.57859216272E+02 0.38165569816E+02
 0.23928951482E+02 0.14927829999E+02 0.10127861351E+02 0.80259829985E+01 0.70315336565E+01
 0.63523966568E+01 0.59358806845E+01 0.57220118676E+01 0.56574744357E+01 0.57220118676E+01
 0.59358806845E+01 0.63523966568E+01 0.70315336565E+01 0.80259829985E+01 0.10127861351E+02
 0.14927829999E+02 0.23928951482E+02 0.38165569816E+02 0.57859216272E+02 0.82156926927E+02
 0.10903797573E+03 0.13548064032E+03 0.15793436686E+03 0.17303204583E+03 0.16272894645E+03
 0.15793436686E+03 0.14432043382E+03 0.12401409495E+03 0.10000679336E+03 0.75499105616E+02
 0.53270873938E+02 0.35232446070E+02 0.22227570708E+02 0.14075293843E+02 0.97934666842E+01
 0.79313437100E+01 0.69830652887E+01 0.63278629862E+01 0.59277224545E+01 0.57222265416E+01
 0.56601314738E+01 0.57222265416E+01 0.59277224545E+01 0.63278629862E+01 0.69830652887E+01
 0.79313437100E+01 0.97934666842E+01 0.14075293843E+02 0.22227570708E+02 0.35232446070E+02
 0.53270873938E+02 0.75499105616E+02 0.10000679336E+03 0.12401409495E+03 0.14432043382E+03
 0.15793436686E+03 0.13950876266E+03 0.13548064032E+03 0.12401409495E+03 0.10683075143E+03
 0.86393565654E+02 0.65404957206E+02 0.46289245788E+02 0.30777008883E+02 0.19671025052E+02
 0.12825138943E+02 0.93219064252E+01 0.77914006667E+01 0.69028311870E+01 0.62886676991E+01
 0.59152951759E+01 0.57231608211E+01 0.56649153679E+01 0.57231608211E+01 0.59152951759E+01
 0.62886676991E+01 0.69028311870E+01 0.77914006667E+01 0.93219064252E+01 0.12825138943E+02
 0.19671025052E+02 0.30777008883E+02 0.46289245788E+02 0.65404957206E+02 0.86393565654E+02
 0.10683075143E+03 0.12401409495E+03 0.13548064032E+03 0.11220017159E+03 0.10903797573E+03
 0.10000679336E+03 0.86393565654E+02 0.70088813510E+02 0.53242374382E+02 0.37861613516E+02
 0.25434260006E+02 0.16666994102E+02 0.11413528018E+02 0.88157098323E+01 0.76102097545E+01
 0.67938938951E+01 0.62375130882E+01 0.58998981239E+01 0.57251254687E+01 0.56718106353E+01
 0.57251254687E+01 0.58998981239E+01 0.62375130882E+01 0.67938938951E+01 0.76102097545E+01
 0.88157098323E+01 0.11413528018E+02 0.16666994102E+02 0.25434260006E+02 0.37861613516E+02
 0.53242374382E+02 0.70088813510E+02 0.86393565654E+02 0.10000679336E+03 0.10903797573E+03
 0.84480020698E+02 0.82156926927E+02 0.75499105616E+02 0.65404957206E+02 0.53242374382E+02
 0.40634320436E+02 0.29155908787E+02 0.20000120196E+02 0.13713123214E+02 0.10101606189E+02
 0.83566812599E+01 0.73824198107E+01 0.66630349284E+01 0.61780725691E+01 0.58826059553E+01
 0.57277900355E+01 0.56800715572E+01 0.57277900355E+01 0.58826059553E+01 0.61780725691E+01
 0.66630349284E+01 0.73824198107E+01 0.83566812599E+01 0.10101606189E+02 0.13713123214E+02
 0.20000120196E+02 0.29155908787E+02 0.40634320436E+02 0.53242374382E+02 0.65404957206E+02
 0.75499105616E+02 0.82156926927E+02 0.59456082671E+02 0.57859216272E+02 0.53270873938E+02
 0.46289245788E+02 0.37861613516E+02 0.29155908787E+02 0.21331706849E+02 0.15255078118E+02
 0.11261549308E+02 0.90773333475E+01 0.79446536898E+01 0.71237967320E+01 0.65202018210E+01
 0.61143454565E+01 0.58638952762E+01 0.57300338190E+01 0.56881524329E+01 0.57300338190E+01
 0.58638952762E+01 0.61143454565E+01 0.65202018210E+01 0.71237967320E+01 0.79446536898E+01
 0.90773333475E+01 0.11261549308E+02 0.15255078118E+02 0.21331706849E+02 0.29155908787E+02
 0.37861613516E+02 0.46289245788E+02 0.53270873938E+02 0.57859216272E+02 0.39186322562E+02
 0.38165569816E+02 0.35232446070E+02 0.30777008883E+02 0.25434260006E+02 0.20000120196E+02
 0.15255078118E+02 0.11735998412E+02 0.95536395630E+01 0.83533950540E+01 0.75193405022E+01
 0.68574450449E+01 0.63762327783E+01 0.60497997029E+01 0.58435848059E+01 0.57302466151E+01
 0.56941064528E+01 0.57302466151E+01 0.58435848059E+01 0.60497997029E+01 0.63762327783E+01
 0.68574450449E+01 0.75193405022E+01 0.83533950540E+01 0.95536395630E+01 0.11735998412E+02
 0.15255078118E+02 0.20000120196E+02 0.25434260006E+02 0.30777008883E+02 0.35232446070E+02
 0.38165569816E+02 0.24523736415E+02 0.23928951482E+02 0.22227570708E+02 0.19671025052E+02
 0.16666994102E+02 0.13713123214E+02 0.11261549308E+02 0.95536395630E+01 0.85061509006E+01
 0.77486475409E+01 0.71062027392E+01 0.66053233809E+01 0.62400857467E+01 0.59867561599E+01
 0.58211531829E+01 0.57269751330E+01 0.56963030547E+01 0.57269751330E+01 0.58211531829E+01
 0.59867561599E+01 0.62400857467E+01 0.66053233809E+01 0.71062027392E+01 0.77486475409E+01
 0.85061509006E+01 0.95536395630E+01 0.11261549308E+02 0.13713123214E+02 0.16666994102E+02
 0.19671025052E+02 0.22227570708E+02 0.23928951482E+02 0.15229300971E+02 0.14927829999E+02
 0.14075293843E+02 0.12825138943E+02 0.11413528018E+02 0.10101606189E+02 0.90773333475E+01
 0.83533950540E+01 0.77486475409E+01 0.71979205135E+01 0.67391944149E+01 0.63823293153E+01
 0.61170545010E+01 0.59263487305E+01 0.57962918247E+01 0.57195988032E+01 0.56941064528E+01
 0.57195988032E+01 0.57962918247E+01 0.59263487305E+01 0.61170545010E+01 0.63823293153E+01
 0.67391944149E+01 0.71979205135E+01 0.77486475409E+01 0.83533950540E+01 0.90773333475E+01
 0.10101606189E+02 0.11413528018E+02 0.12825138943E+02 0.14075293843E+02 0.14927829999E+02
 0.10248504795E+02 0.10127861351E+02 0.97934666842E+01 0.93219064252E+01 0.88157098323E+01
 0.83566812599E+01 0.79446536898E+01 0.75193405022E+01 0.71062027392E+01 0.67391944149E+01
 0.64349757986E+01 0.61942471802E+01 0.60087518844E+01 0.58690473794E+01 0.57694058252E+01
 0.57086793023E+01 0.56881524329E+01 0.57086793023E+01 0.57694058252E+01 0.58690473794E+01
 0.60087518844E+01 0.61942471802E+01 0.64349757986E+01 0.67391944149E+01 0.71062027392E+01
 0.75193405022E+01 0.79446536898E+01 0.83566812599E+01 0.88157098323E+01 0.93219064252E+01
 0.97934666842E+01 0.10127861351E+02 0.80599666562E+01 0.80259829985E+01 0.79313437100E+01
 0.77914006667E+01 0.76102097545E+01 0.73824198107E+01 0.71237967320E+01 0.68574450449E+01
 0.66053233809E+01 0.63823293153E+01 0.61942471802E+01 0.60397545941E+01 0.59145865228E+01
 0.58154161095E+01 0.57417975999E+01 0.56957973056E+01 0.56800715572E+01 0.56957973056E+01
 0.57417975999E+01 0.58154161095E+01 0.59145865228E+01 0.60397545941E+01 0.61942471802E+01
 0.63823293153E+01 0.66053233809E+01 0.68574450449E+01 0.71237967320E+01 0.73824198107E+01
 0.76102097545E+01 0.77914006667E+01 0.79313437100E+01 0.80259829985E+01 0.70476600648E+01
 0.70315336565E+01 0.69830652887E+01 0.69028311870E+01 0.67938938951E+01 0.66630349284E+01
 0.65202018210E+01 0.63762327783E+01 0.62400857467E+01 0.61170545010E+01 0.60087518844E+01
 0.59145865228E+01 0.58337514056E+01 0.57666884426E+01 0.57154474032E+01 0.56829707782E+01
 0.56718106353E+01 0.56829707782E+01 0.57154474032E+01 0.57666884426E+01 0.58337514056E+01
 0.59145865228E+01 0.60087518844E+01 0.61170545010E+01 0.62400857467E+01 0.63762327783E+01
 0.65202018210E+01 0.66630349284E+01 0.67938938951E+01 0.69028311870E+01 0.69830652887E+01
 0.70315336565E+01 0.63607345233E+01 0.63523966568E+01 0.63278629862E+01 0.62886676991E+01
 0.62375130882E+01 0.61780725691E+01 0.61143454565E+01 0.60497997029E+01 0.59867561599E+01
 0.59263487305E+01 0.58690473794E+01 0.58154161095E+01 0.57666884426E+01 0.57248933927E+01
 0.56925268143E+01 0.56719704120E+01 0.56649153679E+01 0.56719704120E+01 0.56925268143E+01
 0.57248933927E+01 0.57666884426E+01 0.58154161095E+01 0.58690473794E+01 0.59263487305E+01
 0.59867561599E+01 0.60497997029E+01 0.61143454565E+01 0.61780725691E+01 0.62375130882E+01
 0.62886676991E+01 0.63278629862E+01 0.63523966568E+01 0.59387313747E+01 0.59358806845E+01
 0.59277224545E+01 0.59152951759E+01 0.58998981239E+01 0.58826059553E+01 0.58638952762E+01
 0.58435848059E+01 0.58211531829E+01 0.57962918247E+01 0.57694058252E+01 0.57417975999E+01
 0.57154474032E+01 0.56925268143E+01 0.56749065785E+01 0.56638774083E+01 0.56601314738E+01
 0.56638774083E+01 0.56749065785E+01 0.56925268143E+01 0.57154474032E+01 0.57417975999E+01
 0.57694058252E+01 0.57962918247E+01 0.58211531829E+01 0.58435848059E+01 0.58638952762E+01
 0.58826059553E+01 0.58998981239E+01 0.59152951759E+01 0.59277224545E+01 0.59358806845E+01
 0.57220169467E+01 0.57220118676E+01 0.57222265416E+01 0.57231608211E+01 0.57251254687E+01
 0.57277900355E+01 0.57300338190E+01 0.57302466151E+01 0.57269751330E+01 0.57195988032E+01
 0.57086793023E+01 0.56957973056E+01 0.56829707782E+01 0.56719704120E+01 0.56638774083E+01
 0.56590582824E+01 0.56574744357E+01 0.56590582824E+01 0.56638774083E+01 0.56719704120E+01
 0.56829707782E+01 0.56957973056E+01 0.57086793023E+01 0.57195988032E+01 0.57269751330E+01
 0.57302466151E+01 0.57300338190E+01 0.57277900355E+01 0.57251254687E+01 0.57231608211E+01
 0.57222265416E+01 0.57220118676E+01 0.56566434883E+01 0.56574744357E+01 0.56601314738E+01
 0.56649153679E+01 0.56718106353E+01 0.56800715572E+01 0.56881524329E+01 0.56941064528E+01
 0.56963030547E+01 0.56941064528E+01 0.56881524329E+01 0.56800715572E+01 0.56718106353E+01
 0.56649153679E+01 0.56601314738E+01 0.56574744357E+01 0.56566434883E+01 0.56574744357E+01
 0.56601314738E+01 0.56649153679E+01 0.56718106353E+01 0.56800715572E+01 0.56881524329E+01
 0.56941064528E+01 0.56963030547E+01 0.56941064528E+01 0.56881524329E+01 0.56800715572E+01
 0.56718106353E+01 0.56649153679E+01 0.56601314738E+01 0.56574744357E+01 0.57220169467E+01
 0.57220118676E+01 0.57222265416E+01 0.57231608211E+01 0.57251254687E+01 0.57277900355E+01
 0.57300338190E+01 0.57302466151E+01 0.57269751330E+01 0.57195988032E+01 0.57086793023E+01
 0.56957973056E+01 0.56829707782E+01 0.56719704120E+01 0.56638774083E+01 0.56590582824E+01
 0.56574744357E+01 0.56590582824E+01 0.56638774083E+01 0.56719704120E+01 0.56829707782E+01
 0.56957973056E+01 0.57086793023E+01 0.57195988032E+01 0.57269751330E+01 0.57302466151E+01
 0.57300338190E+01 0.57277900355E+01 0.57251254687E+01 0.57231608211E+01 0.57222265416E+01
 0.57220118676E+01 0.59387313747E+01 0.59358806845E+01 0.59277224545E+01 0.59152951759E+01
 0.58998981239E+01 0.58826059553E+01 0.58638952762E+01 0.58435848059E+01 0.58211531829E+01
 0.57962918247E+01 0.57694058252E+01 0.57417975999E+01 0.57154474032E+01 0.56925268143E+01
 0.56749065785E+01 0.56638774083E+01 0.56601314738E+01 0.56638774083E+01 0.56749065785E+01
 0.56925268143E+01 0.57154474032E+01 0.57417975999E+01 0.57694058252E+01 0.57962918247E+01
 0.58211531829E+01 0.58435848059E+01 0.58638952762E+01 0.58826059553E+01 0.58998981239E+01
 0.59152951759E+01 0.59277224545E+01 0.59358806845E+01 0.63607345233E+01 0.63523966568E+01
 0.63278629862E+01 0.62886676991E+01 0.62375130882E+01 0.61780725691E+01 0.61143454565E+01
 0.60497997029E+01 0.59867561599E+01 0.59263487305E+01 0.58690473794E+01 0.58154161095E+01
 0.57666884426E+01 0.57248933927E+01 0.56925268143E+01 0.56719704120E+01 0.56649153679E+01
 0.56719704120E+01 0.56925268143E+01 0.57248933927E+01 0.57666884426E+01 0.58154161095E+01
 0.58690473794E+01 0.59263487305E+01 0.59867561599E+01 0.60497997029E+01 0.61143454565E+01
 0.61780725691E+01 0.62375130882E+01 0.62886676991E+01 0.63278629862E+01 0.63523966568E+01
 0.70476600648E+01 0.70315336565E+01 0.69830652887E+01 0.69028311870E+01 0.67938938951E+01
 0.66630349284E+01 0.65202018210E+01 0.63762327783E+01 0.62400857467E+01 0.61170545010E+01
 0.60087518844E+01 0.59145865228E+01 0.58337514056E+01 0.57666884426E+01 0.57154474032E+01
 0.56829707782E+01 0.56718106353E+01 0.56829707782E+01 0.57154474032E+01 0.57666884426E+01
 0.58337514056E+01 0.59145865228E+01 0.60087518844E+01 0.61170545010E+01 0.62400857467E+01
 0.63762327783E+01 0.65202018210E+01 0.66630349284E+01 0.67938938951E+01 0.69028311870E+01
 0.69830652887E+01 0.70315336565E+01 0.80599666562E+01 0.80259829985E+01 0.79313437100E+01
 0.77914006667E+01 0.76102097545E+01 0.73824198107E+01 0.71237967320E+01 0.68574450449E+01
 0.66053233809E+01 0.63823293153E+01 0.61942471802E+01 0.60397545941E+01 0.59145865228E+01
 0.58154161095E+01 0.57417975999E+01 0.56957973056E+01 0.56800715572E+01 0.56957973056E+01
 0.57417975999E+01 0.58154161095E+01 0.59145865228E+01 0.60397545941E+01 0.61942471802E+01
 0.63823293153E+01 0.66053233809E+01 0.68574450449E+01 0.71237967320E+01 0.73824198107E+01
 0.76102097545E+01 0.77914006667E+01 0.79313437100E+01 0.80259829985E+01 0.10248504795E+02
 0.10127861351E+02 0.97934666842E+01 0.93219064252E+01 0.88157098323E+01 0.83566812599E+01
 0.79446536898E+01 0.75193405022E+01 0.71062027392E+01 0.67391944149E+01 0.64349757986E+01
 0.61942471802E+01 0.60087518844E+01 0.58690473794E+01 0.57694058252E+01 0.57086793023E+01
 0.56881524329E+01 0.57086793023E+01 0.57694058252E+01 0.58690473794E+01 0.60087518844E+01
 0.61942471802E+01 0.64349757986E+01 0.67391944149E+01 0.71062027392E+01 0.75193405022E+01
 0.79446536898E+01 0.83566812599E+01 0.88157098323E+01 0.93219064252E+01 0.97934666842E+01
 0.10127861351E+02 0.15229300971E+02 0.14927829999E+02 0.14075293843E+02 0.12825138943E+02
 0.11413528018E+02 0.10101606189E+02 0.90773333475E+01 0.83533950540E+01 0.77486475409E+01
 0.71979205135E+01 0.67391944149E+01 0.63823293153E+01 0.61170545010E+01 0.59263487305E+01
 0.57962918247E+01 0.57195988032E+01 0.56941064528E+01 0.57195988032E+01 0.57962918247E+01
 0.59263487305E+01 0.61170545010E+01 0.63823293153E+01 0.67391944149E+01 0.71979205135E+01
 0.77486475409E+01 0.83533950540E+01 0.90773333475E+01 0.10101606189E+02 0.11413528018E+02
 0.12825138943E+02 0.14075293843E+02 0.14927829999E+02 0.24523736415E+02 0.23928951482E+02
 0.22227570708E+02 0.19671025052E+02 0.16666994102E+02 0.13713123214E+02 0.11261549308E+02
 0.95536395630E+01 0.85061509006E+01 0.77486475409E+01 0.71062027392E+01 0.66053233809E+01
 0.62400857467E+01 0.59867561599E+01 0.58211531829E+01 0.57269751330E+01 0.56963030547E+01
 0.57269751330E+01 0.58211531829E+01 0.59867561599E+01 0.62400857467E+01 0.66053233809E+01
 0.71062027392E+01 0.77486475409E+01 0.85061509006E+01 0.95536395630E+01 0.11261549308E+02
 0.13713123214E+02 0.16666994102E+02 0.19671025052E+02 0.22227570708E+02 0.23928951482E+02
 0.39186322562E+02 0.38165569816E+02 0.35232446070E+02 0.30777008883E+02 0.25434260006E+02
 0.20000120196E+02 0.15255078118E+02 0.11735998412E+02 0.95536395630E+01 0.83533950540E+01
 0.75193405022E+01 0.68574450449E+01 0.63762327783E+01 0.60497997029E+01 0.58435848059E+01
 0.57302466151E+01 0.56941064528E+01 0.57302466151E+01 0.58435848059E+01 0.60497997029E+01
 0.63762327783E+01 0.68574450449E+01 0.75193405022E+01 0.83533950540E+01 0.95536395630E+01
 0.11735998412E+02 0.15255078118E+02 0.20000120196E+02 0.25434260006E+02 0.30777008883E+02
 0.35232446070E+02 0.38165569816E+02 0.59456082671E+02 0.57859216272E+02 0.53270873938E+02
 0.46289245788E+02 0.37861613516E+02 0.29155908787E+02 0.21331706849E+02 0.15255078118E+02
 0.11261549308E+02 0.90773333475E+01 0.79446536898E+01 0.71237967320E+01 0.65202018210E+01
 0.61143454565E+01 0.58638952762E+01 0.57300338190E+01 0.56881524329E+01 0.57300338190E+01
 0.58638952762E+01 0.61143454565E+01 0.65202018210E+01 0.71237967320E+01 0.79446536898E+01
 0.90773333475E+01 0.11261549308E+02 0.15255078118E+02 0.21331706849E+02 0.29155908787E+02
 0.37861613516E+02 0.46289245788E+02 0.53270873938E+02 0.57859216272E+02 0.84480020698E+02
 0.82156926927E+02 0.75499105616E+02 0.65404957206E+02 0.53242374382E+02 0.40634320436E+02
 0.29155908787E+02 0.20000120196E+02 0.13713123214E+02 0.10101606189E+02 0.83566812599E+01
 0.73824198107E+01 0.66630349284E+01 0.61780725691E+01 0.58826059553E+01 0.57277900355E+01
 0.56800715572E+01 0.57277900355E+01 0.58826059553E+01 0.61780725691E+01 0.66630349284E+01
 0.73824198107E+01 0.83566812599E+01 0.10101606189E+02 0.13713123214E+02 0.20000120196E+02
 0.29155908787E+02 0.40634320436E+02 0.53242374382E+02 0.65404957206E+02 0.75499105616E+02
 0.82156926927E+02 0.11220017159E+03 0.10903797573E+03 0.10000679336E+03 0.86393565654E+02
 0.70088813510E+02 0.53242374382E+02 0.37861613516E+02 0.25434260006E+02 0.16666994102E+02
 0.11413528018E+02 0.88157098323E+01 0.76102097545E+01 0.67938938951E+01 0.62375130882E+01
 0.58998981239E+01 0.57251254687E+01 0.56718106353E+01 0.57251254687E+01 0.58998981239E+01
 0.62375130882E+01 0.67938938951E+01 0.76102097545E+01 0.88157098323E+01 0.11413528018E+02
 0.16666994102E+02 0.25434260006E+02 0.37861613516E+02 0.53242374382E+02 0.70088813510E+02
 0.86393565654E+02 0.10000679336E+03 0.10903797573E+03 0.13950876266E+03 0.13548064032E+03
 0.12401409495E+03 0.10683075143E+03 0.86393565654E+02 0.65404957206E+02 0.46289245788E+02
 0.30777008883E+02 0.19671025052E+02 0.12825138943E+02 0.93219064252E+01 0.77914006667E+01
 0.69028311870E+01 0.62886676991E+01 0.59152951759E+01 0.57231608211E+01 0.56649153679E+01
 0.57231608211E+01 0.59152951759E+01 0.62886676991E+01 0.69028311870E+01 0.77914006667E+01
 0.93219064252E+01 0.12825138943E+02 0.19671025052E+02 0.30777008883E+02 0.46289245788E+02
 0.65404957206E+02 0.86393565654E+02 0.10683075143E+03 0.12401409495E+03 0.13548064032E+03
 0.16272894645E+03 0.15793436686E+03 0.14432043382E+03 0.12401409495E+03 0.10000679336E+03
 0.75499105616E+02 0.53270873938E+02 0.35232446070E+02 0.22227570708E+02 0.14075293843E+02
 0.97934666842E+01 0.79313437100E+01 0.69830652887E+01 0.63278629862E+01 0.59277224545E+01
 0.57222265416E+01 0.56601314738E+01 0.57222265416E+01 0.59277224545E+01 0.63278629862E+01
 0.69830652887E+01 0.79313437100E+01 0.97934666842E+01 0.14075293843E+02 0.22227570708E+02
 0.35232446070E+02 0.53270873938E+02 0.75499105616E+02 0.10000679336E+03 0.12401409495E+03
 0.14432043382E+03 0.15793436686E+03 0.17835741244E+03 0.17303204583E+03 0.15793436686E+03
 0.13548064032E+03 0.10903797573E+03 0.82156926927E+02 0.57859216272E+02 0.38165569816E+02
 0.23928951482E+02 0.14927829999E+02 0.10127861351E+02 0.80259829985E+01 0.70315336565E+01
 0.63523966568E+01 0.59358806845E+01 0.57220118676E+01 0.56574744357E+01 0.57220118676E+01
 0.59358806845E+01 0.63523966568E+01 0.70315336565E+01 0.80259829985E+01 0.10127861351E+02
 0.14927829999E+02 0.23928951482E+02 0.38165569816E+02 0.57859216272E+02 0.82156926927E+02
 0.10903797573E+03 0.13548064032E+03 0.15793436686E+03 0.17303204583E+03 0.17835741244E+03
 0.17303204583E+03 0.15793436686E+03 0.13548064032E+03 0.10903797573E+03 0.82156926927E+02
 0.57859216272E+02 0.38165569816E+02 0.23928951482E+02 0.14927829999E+02 0.10127861351E+02
 0.80259829985E+01 0.70315336565E+01 0.63523966568E+01 0.59358806845E+01 0.57220118676E+01
 0.56574744357E+01 0.57220118676E+01 0.59358806845E+01 0.63523966568E+01 0.70315336565E+01
 0.80259829985E+01 0.10127861351E+02 0.14927829999E+02 0.23928951482E+02 0.38165569816E+02
 0.57859216272E+02 0.82156926927E+02 0.10903797573E+03 0.13548064032E+03 0.15793436686E+03
 0.17303204583E+03 0.17303204583E+03 0.16788874106E+03 0.15329972094E+03 0.13158131659E+03
 0.10597101654E+03 0.79898967434E+02 0.56304330267E+02 0.37171143839E+02 0.23350731003E+02
 0.14636697228E+02 0.10013051360E+02 0.79942660016E+01 0.70162489111E+01 0.63449342678E+01
 0.59338509701E+01 0.57227778926E+01 0.56590582824E+01 0.57227778926E+01 0.59338509701E+01
 0.63449342678E+01 0.70162489111E+01 0.79942660016E+01 0.10013051360E+02 0.14636697228E+02
 0.23350731003E+02 0.37171143839E+02 0.56304330267E+02 0.79898967434E+02 0.10597101654E+03
 0.13158131659E+03 0.15329972094E+03 0.16788874106E+03 0.15793436686E+03 0.15329972094E+03
 0.14013337221E+03 0.12047645645E+03 0.97208902766E+02 0.73426985261E+02 0.51837427361E+02
 0.34315331138E+02 0.21698414301E+02 0.13814622504E+02 0.96954234659E+01 0.79056753876E+01
 0.69703161471E+01 0.63229625684E+01 0.59280659657E+01 0.57252100406E+01 0.56638774083E+01
 0.57252100406E+01 0.59280659657E+01 0.63229625684E+01 0.69703161471E+01 0.79056753876E+01
 0.96954234659E+01 0.13814622504E+02 0.21698414301E+02 0.34315331138E+02 0.51837427361E+02
 0.73426985261E+02 0.97208902766E+02 0.12047645645E+03 0.14013337221E+03 0.15329972094E+03
 0.13548064032E+03 0.13158131659E+03 0.12047645645E+03 0.10382173652E+03 0.83993871278E+02
 0.63613187560E+02 0.45043683800E+02 0.29982528180E+02 0.19220607966E+02 0.12612634816E+02
 0.92489910982E+01 0.77732667968E+01 0.68942872556E+01 0.62878152904E+01 0.59193110450E+01
 0.57295459262E+01 0.56719704120E+01 0.57295459262E+01 0.59193110450E+01 0.62878152904E+01
 0.68942872556E+01 0.77732667968E+01 0.92489910982E+01 0.12612634816E+02 0.19220607966E+02
 0.29982528180E+02 0.45043683800E+02 0.63613187560E+02 0.83993871278E+02 0.10382173652E+03
 0.12047645645E+03 0.13158131659E+03 0.10903797573E+03 0.10597101654E+03 0.97208902766E+02
 0.83993871278E+02 0.68156938383E+02 0.51788995800E+02 0.36850184858E+02 0.24796723314E+02
 0.16317895532E+02 0.11261087195E+02 0.87712582957E+01 0.75981387424E+01 0.67910484595E+01
 0.62418567275E+01 0.59085197946E+01 0.57357391340E+01 0.56829707782E+01 0.57357391340E+01
 0.59085197946E+01 0.62418567275E+01 0.67910484595E+01 0.75981387424E+01 0.87712582957E+01
 0.11261087195E+02 0.16317895532E+02 0.24796723314E+02 0.36850184858E+02 0.51788995800E+02
 0.68156938383E+02 0.83993871278E+02 0.97208902766E+02 0.10597101654E+03 0.82156926927E+02
 0.79898967434E+02 0.73426985261E+02 0.63613187560E+02 0.51788995800E+02 0.39538094702E+02
 0.28399488057E+02 0.19536745339E+02 0.13475282317E+02 0.10011258913E+02 0.83367596040E+01
 0.73773796329E+01 0.66669842262E+01 0.61883249724E+01 0.58963732997E+01 0.57431077313E+01
 0.56957973056E+01 0.57431077313E+01 0.58963732997E+01 0.61883249724E+01 0.66669842262E+01
 0.73773796329E+01 0.83367596040E+01 0.10011258913E+02 0.13475282317E+02 0.19536745339E+02
 0.28399488057E+02 0.39538094702E+02 0.51788995800E+02 0.63613187560E+02 0.73426985261E+02
 0.79898967434E+02 0.57859216272E+02 0.56304330267E+02 0.51837427361E+02 0.45043683800E+02
 0.36850184858E+02 0.28399488057E+02 0.20823354127E+02 0.14961277403E+02 0.11127933094E+02
 0.90387212179E+01 0.79379534437E+01 0.71270319768E+01 0.65314766603E+01 0.61307775191E+01
 0.58830240817E+01 0.57502812582E+01 0.57086793023E+01 0.57502812582E+01 0.58830240817E+01
 0.61307775191E+01 0.65314766603E+01 0.71270319768E+01 0.79379534437E+01 0.90387212179E+01
 0.11127933094E+02 0.14961277403E+02 0.20823354127E+02 0.28399488057E+02 0.36850184858E+02
 0.45043683800E+02 0.51837427361E+02 0.56304330267E+02 0.38165569816E+02 0.37171143839E+02
 0.34315331138E+02 0.29982528180E+02 0.24796723314E+02 0.19536745339E+02 0.14961277403E+02
 0.11584645760E+02 0.94999689317E+01 0.83449069100E+01 0.75219913500E+01 0.68693330115E+01
 0.63947819079E+01 0.60723381663E+01 0.58681054283E+01 0.57555510475E+01 0.57195988032E+01
 0.57555510475E+01 0.58681054283E+01 0.60723381663E+01 0.63947819079E+01 0.68693330115E+01
 0.75219913500E+01 0.83449069100E+01 0.94999689317E+01 0.11584645760E+02 0.14961277403E+02
 0.19536745339E+02 0.24796723314E+02 0.29982528180E+02 0.34315331138E+02 0.37171143839E+02
 0.23928951482E+02 0.23350731003E+02 0.21698414301E+02 0.19220607966E+02 0.16317895532E+02
 0.13475282317E+02 0.11127933094E+02 0.94999689317E+01 0.84960056564E+01 0.77510209027E+01
 0.71184522874E+01 0.66253929294E+01 0.62654177609E+01 0.60151412531E+01 0.58510532557E+01
 0.57574924620E+01 0.57269751330E+01 0.57574924620E+01 0.58510532557E+01 0.60151412531E+01
 0.62654177609E+01 0.66253929294E+01 0.71184522874E+01 0.77510209027E+01 0.84960056564E+01
 0.94999689317E+01 0.11127933094E+02 0.13475282317E+02 0.16317895532E+02 0.19220607966E+02
 0.21698414301E+02 0.23350731003E+02 0.14927829999E+02 0.14636697228E+02 0.13814622504E+02
 0.12612634816E+02 0.11261087195E+02 0.10011258913E+02 0.90387212179E+01 0.83449069100E+01
 0.77510209027E+01 0.72102975718E+01 0.67600773974E+01 0.64095338616E+01 0.61484565559E+01
 0.59602747177E+01 0.58315931379E+01 0.57555510475E+01 0.57302466151E+01 0.57555510475E+01
 0.58315931379E+01 0.59602747177E+01 0.61484565559E+01 0.64095338616E+01 0.67600773974E+01
 0.72102975718E+01 0.77510209027E+01 0.83449069100E+01 0.90387212179E+01 0.10011258913E+02
 0.11261087195E+02 0.12612634816E+02 0.13814622504E+02 0.14636697228E+02 0.10127861351E+02
 0.10013051360E+02 0.96954234659E+01 0.92489910982E+01 0.87712582957E+01 0.83367596040E+01
 0.79379534437E+01 0.75219913500E+01 0.71184522874E+01 0.67600773974E+01 0.64628440350E+01
 0.62273205401E+01 0.60454778073E+01 0.59082239668E+01 0.58101401657E+01 0.57502812582E+01
 0.57300338190E+01 0.57502812582E+01 0.58101401657E+01 0.59082239668E+01 0.60454778073E+01
 0.62273205401E+01 0.64628440350E+01 0.67600773974E+01 0.71184522874E+01 0.75219913500E+01
 0.79379534437E+01 0.83367596040E+01 0.87712582957E+01 0.92489910982E+01 0.96954234659E+01
 0.10013051360E+02 0.80259829985E+01 0.79942660016E+01 0.79056753876E+01 0.77732667968E+01
 0.75981387424E+01 0.73773796329E+01 0.71270319768E+01 0.68693330115E+01 0.66253929294E+01
 0.64095338616E+01 0.62273205401E+01 0.60774868748E+01 0.59559461636E+01 0.58595371085E+01
 0.57878996645E+01 0.57431077313E+01 0.57277900355E+01 0.57431077313E+01 0.57878996645E+01
 0.58595371085E+01 0.59559461636E+01 0.60774868748E+01 0.62273205401E+01 0.64095338616E+01
 0.66253929294E+01 0.68693330115E+01 0.71270319768E+01 0.73773796329E+01 0.75981387424E+01
 0.77732667968E+01 0.79056753876E+01 0.79942660016E+01 0.70315336565E+01 0.70162489111E+01
 0.69703161471E+01 0.68942872556E+01 0.67910484595E+01 0.66669842262E+01 0.65314766603E+01
 0.63947819079E+01 0.62654177609E+01 0.61484565559E+01 0.60454778073E+01 0.59559461636E+01
 0.58790970913E+01 0.58153415945E+01 0.57666222597E+01 0.57357391340E+01 0.57251254687E+01
 0.57357391340E+01 0.57666222597E+01 0.58153415945E+01 0.58790970913E+01 0.59559461636E+01
 0.60454778073E+01 0.61484565559E+01 0.62654177609E+01 0.63947819079E+01 0.65314766603E+01
 0.66669842262E+01 0.67910484595E+01 0.68942872556E+01 0.69703161471E+01 0.70162489111E+01
 0.63523966568E+01 0.63449342678E+01 0.63229625684E+01 0.62878152904E+01 0.62418567275E+01
 0.61883249724E+01 0.61307775191E+01 0.60723381663E+01 0.60151412531E+01 0.59602747177E+01
 0.59082239668E+01 0.58595371085E+01 0.58153415945E+01 0.57774661789E+01 0.57481542598E+01
 0.57295459262E+01 0.57231608211E+01 0.57295459262E+01 0.57481542598E+01 0.57774661789E+01
 0.58153415945E+01 0.58595371085E+01 0.59082239668E+01 0.59602747177E+01 0.60151412531E+01
 0.60723381663E+01 0.61307775191E+01 0.61883249724E+01 0.62418567275E+01 0.62878152904E+01
 0.63229625684E+01 0.63449342678E+01 0.59358806845E+01 0.59338509701E+01 0.59280659657E+01
 0.59193110450E+01 0.59085197946E+01 0.58963732997E+01 0.58830240817E+01 0.58681054283E+01
 0.58510532557E+01 0.58315931379E+01 0.58101401657E+01 0.57878996645E+01 0.57666222597E+01
 0.57481542598E+01 0.57340187099E+01 0.57252100406E+01 0.57222265416E+01 0.57252100406E+01
 0.57340187099E+01 0.57481542598E+01 0.57666222597E+01 0.57878996645E+01 0.58101401657E+01
 0.58315931379E+01 0.58510532557E+01 0.58681054283E+01 0.58830240817E+01 0.58963732997E+01
 0.59085197946E+01 0.59193110450E+01 0.59280659657E+01 0.59338509701E+01 0.57220118676E+01
 0.57227778926E+01 0.57252100406E+01 0.57295459262E+01 0.57357391340E+01 0.57431077313E+01
 0.57502812582E+01 0.57555510475E+01 0.57574924620E+01 0.57555510475E+01 0.57502812582E+01
 0.57431077313E+01 0.57357391340E+01 0.57295459262E+01 0.57252100406E+01 0.57227778926E+01
 0.57220118676E+01 0.57227778926E+01 0.57252100406E+01 0.57295459262E+01 0.57357391340E+01
 0.57431077313E+01 0.57502812582E+01 0.57555510475E+01 0.57574924620E+01 0.57555510475E+01
 0.57502812582E+01 0.57431077313E+01 0.57357391340E+01 0.57295459262E+01 0.57252100406E+01
 0.57227778926E+01 0.56574744357E+01 0.56590582824E+01 0.56638774083E+01 0.56719704120E+01
 0.56829707782E+01 0.56957973056E+01 0.57086793023E+01 0.57195988032E+01 0.57269751330E+01
 0.57302466151E+01 0.57300338190E+01 0.57277900355E+01 0.57251254687E+01 0.57231608211E+01
 0.57222265416E+01 0.57220118676E+01 0.57220169467E+01 0.57220118676E+01 0.57222265416E+01
 0.57231608211E+01 0.57251254687E+01 0.57277900355E+01 0.57300338190E+01 0.57302466151E+01
 0.57269751330E+01 0.57195988032E+01 0.57086793023E+01 0.56957973056E+01 0.56829707782E+01
 0.56719704120E+01 0.56638774083E+01 0.56590582824E+01 0.57220118676E+01 0.57227778926E+01
 0.57252100406E+01 0.57295459262E+01 0.57357391340E+01 0.57431077313E+01 0.57502812582E+01
 0.57555510475E+01 0.57574924620E+01 0.57555510475E+01 0.57502812582E+01 0.57431077313E+01
 0.57357391340E+01 0.57295459262E+01 0.57252100406E+01 0.57227778926E+01 0.57220118676E+01
 0.57227778926E+01 0.57252100406E+01 0.57295459262E+01 0.57357391340E+01 0.57431077313E+01
 0.57502812582E+01 0.57555510475E+01 0.57574924620E+01 0.57555510475E+01 0.57502812582E+01
 0.57431077313E+01 0.57357391340E+01 0.57295459262E+01 0.57252100406E+01 0.57227778926E+01
 0.59358806845E+01 0.59338509701E+01 0.59280659657E+01 0.59193110450E+01 0.59085197946E+01
 0.58963732997E+01 0.58830240817E+01 0.58681054283E+01 0.58510532557E+01 0.58315931379E+01
 0.58101401657E+01 0.57878996645E+01 0.57666222597E+01 0.57481542598E+01 0.57340187099E+01
 0.57252100406E+01 0.57222265416E+01 0.57252100406E+01 0.57340187099E+01 0.57481542598E+01
 0.57666222597E+01 0.57878996645E+01 0.58101401657E+01 0.58315931379E+01 0.58510532557E+01
 0.58681054283E+01 0.58830240817E+01 0.58963732997E+01 0.59085197946E+01 0.59193110450E+01