    2    2  300    2
  0.1136426E+02  0.2832634E-09  0.2832634E-09  0.2832634E-09  0.5000000E-15
  1.000000000000000E-004
  CAR 
 unknown system                          
     16     20     16
 
  0.6250000E-01  0.6250000E-01  0.6250000E-01  0.1562500E-01
    1       -2.086656     -2.086656   1.000000   1.000000
    2        1.989664      1.989664   1.000000   1.000000
    3        1.989664      1.989664   1.000000   1.000000
    4        4.547208      4.547208   1.000000   1.000000
    5        4.547208      4.547208   1.000000   1.000000
    6        4.748027      4.748027   1.000000   1.000000
    7        6.466539      6.466539   0.374741   0.374741
    8        6.466539      6.466539   0.374741   0.374741
    9        7.103342      7.103342  -0.000013  -0.000013
   10        7.428254      7.428254  -0.000000  -0.000000
   11        7.428254      7.428254  -0.000000  -0.000000
   12       16.270824     16.270824   0.000000   0.000000
   13       16.270824     16.270824   0.000000   0.000000
   14       16.658084     16.658084   0.000000   0.000000
   15       23.511314     23.511314   0.000000   0.000000
   16       23.511314     23.511314   0.000000   0.000000
 
  0.1875000E+00  0.6250000E-01  0.6250000E-01  0.4687500E-01
    1       -1.440246     -1.440246   1.000000   1.000000
    2        2.243950      2.243950   1.000000   1.000000
    3        2.265161      2.265161   1.000000   1.000000
    4        4.443840      4.443840   1.000000   1.000000
    5        4.502492      4.502492   1.000000   1.000000
    6        4.973304      4.973304   1.000000   1.000000
    7        6.188185      6.188185   1.035414   1.035414
    8        6.506557      6.506557   0.222993   0.222993
    9        6.598519      6.598519   0.007497   0.007497
   10        6.897367      6.897367  -0.002657  -0.002657
   11        7.392775      7.392775  -0.000000  -0.000000
   12       13.511389     13.511389   0.000000   0.000000
   13       17.431438     17.431438   0.000000   0.000000
   14       17.702686     17.702686   0.000000   0.000000
   15       23.762777     23.762777   0.000000   0.000000
   16       25.239742     25.239742   0.000000   0.000000
 
  0.3125000E+00  0.6250000E-01  0.6250000E-01  0.4687500E-01
    1       -0.258454     -0.258454   1.000000   1.000000
    2        2.506745      2.506745   1.000000   1.000000
    3        2.758215      2.758215   1.000000   1.000000
    4        4.435490      4.435490   1.000000   1.000000
    5        4.443889      4.443889   1.000000   1.000000
    6        5.144647      5.144647   1.000000   1.000000
    7        5.717578      5.717578   1.000002   1.000002
    8        6.029018      6.029018   1.007063   1.007063
    9        6.222070      6.222070   1.031106   1.031106
   10        6.769655      6.769655  -0.020077  -0.020077
   11        7.124627      7.124627  -0.000006  -0.000006
   12       10.585493     10.585493  -0.000000  -0.000000
   13       19.305425     19.305425   0.000000   0.000000
   14       19.587037     19.587037   0.000000   0.000000
   15       24.340459     24.340459   0.000000   0.000000
   16       25.663861     25.663861   0.000000   0.000000
 
  0.4375000E+00  0.6250000E-01  0.6250000E-01  0.4687500E-01
    1        1.149870      1.149870   1.000000   1.000000
    2        2.283561      2.283561   1.000000   1.000000
    3        3.287236      3.287236   1.000000   1.000000
    4        4.343154      4.343154   1.000000   1.000000
    5        4.560147      4.560147   1.000000   1.000000
    6        5.014723      5.014723   1.000000   1.000000
    7        5.310202      5.310202   1.000000   1.000000
    8        5.749113      5.749113   1.000007   1.000007
    9        6.074745      6.074745   1.014084   1.014084
   10        6.749480      6.749480  -0.024706  -0.024706
   11        6.966460      6.966460  -0.000579  -0.000579
   12        8.607982      8.607982  -0.000000  -0.000000
   13       21.428087     21.428087   0.000000   0.000000
   14       21.900680     21.900680   0.000000   0.000000
   15       23.522011     23.522011   0.000000   0.000000
   16       24.467875     24.467875   0.000000   0.000000
 
  0.1875000E+00  0.1875000E+00  0.6250000E-01  0.4687500E-01
    1       -0.834952     -0.834952   1.000000   1.000000
    2        2.425314      2.425314   1.000000   1.000000
    3        2.569157      2.569157   1.000000   1.000000
    4        4.197715      4.197715   1.000000   1.000000
    5        4.369573      4.369573   1.000000   1.000000
    6        5.103806      5.103806   1.000000   1.000000
    7        6.090650      6.090650   1.017277   1.017277
    8        6.266365      6.266365   1.001971   1.001971
    9        6.528927      6.528927   0.151599   0.151599
   10        6.575658      6.575658   0.041723   0.041723
   11        7.494333      7.494333  -0.000000  -0.000000
   12       13.659059     13.659059   0.000000   0.000000
   13       15.367363     15.367363   0.000000   0.000000
   14       18.517784     18.517784   0.000000   0.000000
   15       24.619897     24.619897   0.000000   0.000000
   16       25.741287     25.741287   0.000000   0.000000
 
  0.3125000E+00  0.1875000E+00  0.6250000E-01  0.9375000E-01
    1        0.236940      0.236940   1.000000   1.000000
    2        2.583851      2.583851   1.000000   1.000000
    3        3.042770      3.042770   1.000000   1.000000
    4        4.044558      4.044558   1.000000   1.000000
    5        4.266939      4.266939   1.000000   1.000000
    6        4.761236      4.761236   1.000000   1.000000
    7        6.016208      6.016208   1.005675   1.005675
    8        6.096895      6.096895   1.018619   1.018619
    9        6.333510      6.333510   0.878376   0.878376
   10        6.711962      6.711962  -0.032580  -0.032580
   11        7.418186      7.418186  -0.000000  -0.000000
   12       11.109087     11.109087  -0.000000  -0.000000
   13       16.425945     16.425945   0.000000   0.000000
   14       20.138345     20.138345   0.000000   0.000000
   15       22.967132     22.967132   0.000000   0.000000
   16       25.251322     25.251322   0.000000   0.000000
 
  0.4375000E+00  0.1875000E+00  0.6250000E-01  0.9375000E-01
    1        1.431606      1.431606   1.000000   1.000000
    2        2.326422      2.326422   1.000000   1.000000
    3        3.433474      3.433474   1.000000   1.000000
    4        4.013966      4.013966   1.000000   1.000000
    5        4.322980      4.322980   1.000000   1.000000
    6        4.456762      4.456762   1.000000   1.000000
    7        5.809829      5.809829   1.000043   1.000043
    8        5.907307      5.907307   1.000588   1.000588
    9        6.575974      6.575974   0.041164   0.041164
   10        7.054114      7.054114  -0.000057  -0.000057
   11        7.285063      7.285063  -0.000000  -0.000000
   12        8.849443      8.849443  -0.000000  -0.000000
   13       18.289752     18.289752   0.000000   0.000000
   14       20.480298     20.480298   0.000000   0.000000
   15       22.164791     22.164791   0.000000   0.000000
   16       24.370156     24.370156   0.000000   0.000000
 
  0.3125000E+00  0.3125000E+00  0.6250000E-01  0.4687500E-01
    1        0.991186      0.991186   1.000000   1.000000
    2        2.409761      2.409761   1.000000   1.000000
    3        3.702177      3.702177   1.000000   1.000000
    4        3.742509      3.742509   1.000000   1.000000
    5        4.216332      4.216332   1.000000   1.000000
    6        4.359791      4.359791   1.000000   1.000000
    7        5.906694      5.906694   1.000579   1.000579
    8        6.420177      6.420177   0.569095   0.569095
    9        6.619384      6.619384  -0.013761  -0.013761
   10        6.891119      6.891119  -0.003007  -0.003007
   11        7.586890      7.586890  -0.000000  -0.000000
   12       10.842204     10.842204  -0.000000  -0.000000
   13       14.789439     14.789439   0.000000   0.000000
   14       20.050126     20.050126   0.000000   0.000000
   15       21.379625     21.379625   0.000000   0.000000
   16       25.704377     25.704377   0.000000   0.000000
 
  0.4375000E+00  0.3125000E+00  0.6250000E-01  0.9375000E-01
    1        1.628826      1.628826   1.000000   1.000000
    2        2.078883      2.078883   1.000000   1.000000
    3        3.645016      3.645016   1.000000   1.000000
    4        3.812780      3.812780   1.000000   1.000000
    5        4.234213      4.234213   1.000000   1.000000
    6        4.926336      4.926336   1.000000   1.000000
    7        5.913306      5.913306   1.000678   1.000678
    8        6.455047      6.455047   0.422171   0.422171
    9        6.787397      6.787397  -0.016254  -0.016254
   10        7.467948      7.467948  -0.000000  -0.000000
   11        7.598279      7.598279  -0.000000  -0.000000
   12        9.037600      9.037600  -0.000000  -0.000000
   13       15.664477     15.664477   0.000000   0.000000
   14       17.571605     17.571605   0.000000   0.000000
   15       22.991850     22.991850   0.000000   0.000000
   16       24.738573     24.738573   0.000000   0.000000
 
  0.4375000E+00  0.4375000E+00  0.6250000E-01  0.4687500E-01
    1        1.680675      1.680675   1.000000   1.000000
    2        1.811906      1.811906   1.000000   1.000000
    3        3.434025      3.434025   1.000000   1.000000
    4        3.493607      3.493607   1.000000   1.000000
    5        5.250329      5.250329   1.000000   1.000000
    6        5.753001      5.753001   1.000007   1.000007
    7        6.197742      6.197742   1.035307   1.035307
    8        6.590068      6.590068   0.018738   0.018738
    9        6.759428      6.759428  -0.022405  -0.022405
   10        7.575035      7.575035  -0.000000  -0.000000
   11        7.979128      7.979128  -0.000000  -0.000000
   12        8.602950      8.602950  -0.000000  -0.000000
   13       14.632177     14.632177   0.000000   0.000000
   14       15.465921     15.465921   0.000000   0.000000
   15       24.007120     24.007120   0.000000   0.000000
   16       24.751812     24.751812   0.000000   0.000000
 
  0.1875000E+00  0.1875000E+00  0.1875000E+00  0.1562500E-01
    1       -0.250766     -0.250766   1.000000   1.000000
    2        2.736693      2.736693   1.000000   1.000000
    3        2.736693      2.736693   1.000000   1.000000
    4        4.069848      4.069848   1.000000   1.000000
    5        4.069848      4.069848   1.000000   1.000000
    6        4.629232      4.629232   1.000000   1.000000
    7        6.312133      6.312133   0.929715   0.929715
    8        6.417935      6.417935   0.578460   0.578460
    9        6.417935      6.417935   0.578460   0.578460
   10        7.003844      7.003844  -0.000226  -0.000226
   11        7.003844      7.003844  -0.000226  -0.000226
   12       14.698875     14.698875   0.000000   0.000000
   13       14.698875     14.698875   0.000000   0.000000
   14       16.646659     16.646659   0.000000   0.000000
   15       25.578665     25.578665   0.000000   0.000000
   16       25.578665     25.578665   0.000000   0.000000
 
  0.3125000E+00  0.1875000E+00  0.1875000E+00  0.4687500E-01
    1        0.756519      0.756519   1.000000   1.000000
    2        2.988388      2.988388   1.000000   1.000000
    3        3.015909      3.015909   1.000000   1.000000
    4        3.874505      3.874505   1.000000   1.000000
    5        3.926983      3.926983   1.000000   1.000000
    6        4.184718      4.184718   1.000000   1.000000
    7        6.191948      6.191948   1.035457   1.035457
    8        6.493817      6.493817   0.268408   0.268408
    9        6.518810      6.518810   0.182480   0.182480
   10        6.934639      6.934639  -0.001209  -0.001209
   11        7.198073      7.198073  -0.000001  -0.000001
   12       11.882688     11.882688  -0.000000  -0.000000
   13       16.335077     16.335077   0.000000   0.000000
   14       17.507119     17.507119   0.000000   0.000000
   15       22.858813     22.858813   0.000000   0.000000
   16       23.886941     23.886941   0.000000   0.000000
 
  0.4375000E+00  0.1875000E+00  0.1875000E+00  0.4687500E-01
    1        1.815708      1.815708   1.000000   1.000000
    2        2.595870      2.595870   1.000000   1.000000
    3        3.295089      3.295089   1.000000   1.000000
    4        3.678051      3.678051   1.000000   1.000000
    5        4.038085      4.038085   1.000000   1.000000
    6        4.349282      4.349282   1.000000   1.000000
    7        5.951781      5.951781   1.001616   1.001616
    8        6.252547      6.252547   1.014725   1.014725
    9        6.339669      6.339669   0.861458   0.861458
   10        7.255754      7.255754  -0.000000  -0.000000
   11        7.869795      7.869795  -0.000000  -0.000000
   12        9.486400      9.486400  -0.000000  -0.000000
   13       18.270729     18.270729   0.000000   0.000000
   14       19.144639     19.144639   0.000000   0.000000
   15       20.446723     20.446723   0.000000   0.000000
   16       21.330991     21.330991   0.000000   0.000000
 
  0.3125000E+00  0.3125000E+00  0.1875000E+00  0.4687500E-01
    1        1.536415      1.536415   1.000000   1.000000
    2        2.813764      2.813764   1.000000   1.000000
    3        3.591635      3.591635   1.000000   1.000000
    4        3.680310      3.680310   1.000000   1.000000
    5        3.735766      3.735766   1.000000   1.000000
    6        3.874108      3.874108   1.000000   1.000000
    7        6.112450      6.112450   1.022117   1.022117
    8        6.462746      6.462746   0.390270   0.390270
    9        6.678097      6.678097  -0.035412  -0.035412
   10        7.225045      7.225045  -0.000000  -0.000000
   11        7.674469      7.674469  -0.000000  -0.000000
   12       12.039402     12.039402   0.000000   0.000000
   13       14.808977     14.808977   0.000000   0.000000
   14       18.115504     18.115504   0.000000   0.000000
   15       20.366637     20.366637   0.000000   0.000000
   16       23.526638     23.526638   0.000000   0.000000
 
  0.4375000E+00  0.3125000E+00  0.1875000E+00  0.9375000E-01
    1        2.111083      2.111083   1.000000   1.000000
    2        2.481340      2.481340   1.000000   1.000000
    3        3.479789      3.479789   1.000000   1.000000
    4        3.544510      3.544510   1.000000   1.000000
    5        3.995280      3.995280   1.000000   1.000000
    6        4.478056      4.478056   1.000000   1.000000
    7        5.988041      5.988041   1.003381   1.003381
    8        6.286786      6.286786   0.975797   0.975797
    9        6.692113      6.692113  -0.035056  -0.035056
   10        7.364131      7.364131  -0.000000  -0.000000
   11        8.645665      8.645665  -0.000000  -0.000000
   12       10.209588     10.209588  -0.000000  -0.000000
   13       15.857266     15.857266   0.000000   0.000000
   14       17.860756     17.860756   0.000000   0.000000
   15       19.633410     19.633410   0.000000   0.000000
   16       21.671196     21.671196   0.000000   0.000000
 
  0.4375000E+00  0.4375000E+00  0.1875000E+00  0.4687500E-01
    1        2.125315      2.125315   1.000000   1.000000
    2        2.256238      2.256238   1.000000   1.000000
    3        3.340563      3.340563   1.000000   1.000000
    4        3.375251      3.375251   1.000000   1.000000
    5        4.867884      4.867884   1.000000   1.000000
    6        4.965224      4.965224   1.000000   1.000000
    7        6.000909      6.000909   1.004310   1.004310
    8        6.058362      6.058362   1.011186   1.011186
    9        6.932698      6.932698  -0.001262  -0.001262
   10        7.460042      7.460042  -0.000000  -0.000000
   11        9.467674      9.467674  -0.000000  -0.000000
   12       10.257223     10.257223  -0.000000  -0.000000
   13       14.691730     14.691730   0.000000   0.000000
   14       15.645288     15.645288   0.000000   0.000000
   15       20.973471     20.973471   0.000000   0.000000
   16       22.355920     22.355920   0.000000   0.000000
 
  0.3125000E+00  0.3125000E+00  0.3125000E+00  0.1562500E-01
    1        2.354597      2.354597   1.000000   1.000000
    2        3.194552      3.194552   1.000000   1.000000
    3        3.414327      3.414327   1.000000   1.000000
    4        3.414327      3.414327   1.000000   1.000000
    5        3.595740      3.595740   1.000000   1.000000
    6        3.595740      3.595740   1.000000   1.000000
    7        6.187535      6.187535   1.035395   1.035395
    8        6.187535      6.187535   1.035395   1.035395
    9        7.065544      7.065544  -0.000041  -0.000041
   10        7.065544      7.065544  -0.000041  -0.000041
   11        8.671012      8.671012  -0.000000  -0.000000
   12       13.793897     13.793897   0.000000   0.000000
   13       13.793897     13.793897   0.000000   0.000000
   14       16.563406     16.563406   0.000000   0.000000
   15       20.760416     20.760416   0.000000   0.000000
   16       20.760416     20.760416   0.000000   0.000000
 
  0.4375000E+00  0.3125000E+00  0.3125000E+00  0.4687500E-01
    1        2.646056      2.646056   1.000000   1.000000
    2        2.996037      2.996037   1.000000   1.000000
    3        3.292700      3.292700   1.000000   1.000000
    4        3.518980      3.518980   1.000000   1.000000
    5        3.581944      3.581944   1.000000   1.000000
    6        4.182418      4.182418   1.000000   1.000000
    7        6.025468      6.025468   1.006655   1.006655
    8        6.041248      6.041248   1.008616   1.008616
    9        7.027129      7.027129  -0.000121  -0.000121
   10        7.360952      7.360952  -0.000000  -0.000000
   11        9.867720      9.867720  -0.000000  -0.000000
   12       11.593824     11.593824  -0.000000  -0.000000
   13       15.864332     15.864332   0.000000   0.000000
   14       17.351490     17.351490   0.000000   0.000000
   15       18.192854     18.192854   0.000000   0.000000
   16       19.129748     19.129748   0.000000   0.000000
 
  0.4375000E+00  0.4375000E+00  0.3125000E+00  0.4687500E-01
    1        2.691768      2.691768   1.000000   1.000000
    2        3.025289      3.025289   1.000000   1.000000
    3        3.226559      3.226559   1.000000   1.000000
    4        3.288545      3.288545   1.000000   1.000000
    5        4.193394      4.193394   1.000000   1.000000
    6        4.253979      4.253979   1.000000   1.000000
    7        5.890883      5.890883   1.000393   1.000393
    8        5.970534      5.970534   1.002391   1.002391
    9        7.221694      7.221694  -0.000000  -0.000000
   10        7.463157      7.463157  -0.000000  -0.000000
   11       11.157103     11.157103  -0.000000  -0.000000
   12       12.269462     12.269462   0.000000   0.000000
   13       14.858864     14.858864   0.000000   0.000000
   14       16.162703     16.162703   0.000000   0.000000
   15       18.139416     18.139416   0.000000   0.000000
   16       19.637014     19.637014   0.000000   0.000000
 
  0.4375000E+00  0.4375000E+00  0.4375000E+00  0.1562500E-01
    1        3.010413      3.010413   1.000000   1.000000
    2        3.170005      3.170005   1.000000   1.000000
    3        3.170005      3.170005   1.000000   1.000000
    4        3.822027      3.822027   1.000000   1.000000
    5        3.847182      3.847182   1.000000   1.000000
    6        3.847182      3.847182   1.000000   1.000000
    7        5.858724      5.858724   1.000171   1.000171
    8        5.858724      5.858724   1.000171   1.000171
    9        7.474581      7.474581  -0.000000  -0.000000
   10        7.474581      7.474581  -0.000000  -0.000000
   11       12.882635     12.882635   0.000000   0.000000
   12       14.530695     14.530695   0.000000   0.000000
   13       14.530695     14.530695   0.000000   0.000000
   14       16.660896     16.660896   0.000000   0.000000
   15       17.002509     17.002509   0.000000   0.000000
   16       17.002509     17.002509   0.000000   0.000000
