 vasp.5.4.4.18Apr17-6-g9f103f2a35 (build Jan 03 2020 21:31:15) complex          
  
 executed on             LinuxIFC date 2024.11.04  02:42:37
 running on   16 total cores
 distrk:  each k-point on   16 cores,    1 groups
 distr:  one band on NCORES_PER_BAND=   1 cores,   16 groups


--------------------------------------------------------------------------------------------------------


 INCAR:
 POTCAR:    PAW_PBE Fe 06Sep2000                  

 ----------------------------------------------------------------------------- 
|                                                                             |
|           W    W    AA    RRRRR   N    N  II  N    N   GGGG   !!!           |
|           W    W   A  A   R    R  NN   N  II  NN   N  G    G  !!!           |
|           W    W  A    A  R    R  N N  N  II  N N  N  G       !!!           |
|           W WW W  AAAAAA  RRRRR   N  N N  II  N  N N  G  GGG   !            |
|           WW  WW  A    A  R   R   N   NN  II  N   NN  G    G                |
|           W    W  A    A  R    R  N    N  II  N    N   GGGG   !!!           |
|                                                                             |
|      For optimal performance we recommend to set                            |
|        NCORE= 4 - approx SQRT( number of cores)                             |
|      NCORE specifies how many cores store one orbital (NPAR=cpu/NCORE).     |
|      This setting can  greatly improve the performance of VASP for DFT.     |
|      The default,   NCORE=1            might be grossly inefficient         |
|      on modern multi-core architectures or massively parallel machines.     |
|      Do your own testing !!!!                                               |
|      Unfortunately you need to use the default for GW and RPA calculations. |
|      (for HF NCORE is supported but not extensively tested yet)             |
|                                                                             |
 ----------------------------------------------------------------------------- 

 POTCAR:    PAW_PBE Fe 06Sep2000                  
   VRHFIN =Fe:  d7 s1                                                           
   LEXCH  = PE                                                                  
   EATOM  =   594.3153 eV,   43.6809 Ry                                         
                                                                                
   TITEL  = PAW_PBE Fe 06Sep2000                                                
   LULTRA =        F    use ultrasoft PP ?                                      
   IUNSCR =        1    unscreen: 0-lin 1-nonlin 2-no                           
   RPACOR =    2.000    partial core radius                                     
   POMASS =   55.847; ZVAL   =    8.000    mass and valenz                      
   RCORE  =    2.300    outmost cutoff radius                                   
   RWIGS  =    2.460; RWIGS  =    1.302    wigner-seitz radius (au A)           
   ENMAX  =  267.882; ENMIN  =  200.911 eV                                      
   RCLOC  =    1.701    cutoff for local pot                                    
   LCOR   =        T    correct aug charges                                     
   LPAW   =        T    paw PP                                                  
   EAUG   =  511.368                                                            
   DEXC   =    0.000                                                            
   RMAX   =    2.356    core radius for proj-oper                               
   RAUG   =    1.300    factor for augmentation sphere                          
   RDEP   =    2.442    radius for radial grids                                 
   RDEPT  =    1.890    core radius for aug-charge                              
                                                                                
   Atomic configuration                                                         
    9 entries                                                                   
     n  l   j            E        occ.                                          
     1  0  0.50     -6993.8440   2.0000                                         
     2  0  0.50      -814.6047   2.0000                                         
     2  1  1.50      -693.3689   6.0000                                         
     3  0  0.50       -89.4732   2.0000                                         
     3  1  1.50       -55.6373   6.0000                                         
     3  2  2.50        -3.8151   7.0000                                         
     4  0  0.50        -4.2551   1.0000                                         
     4  1  1.50        -3.4015   0.0000                                         
     4  3  2.50        -1.3606   0.0000                                         
   Description                                                                  
     l       E           TYP  RCUT    TYP  RCUT                                 
     2     -3.8151135     23  2.300                                             
     2     -5.1756961     23  2.300                                             
     0     -4.2550963     23  2.300                                             
     0      7.2035603     23  2.300                                             
     1     -2.7211652     23  2.300                                             
     1     18.4316424     23  2.300                                             
  local pseudopotential read in
  partial core-charges read in
  partial kinetic energy density read in
  atomic valenz-charges read in
  non local Contribution for L=           2  read in
    real space projection operators read in
  non local Contribution for L=           2  read in
    real space projection operators read in
  non local Contribution for L=           0  read in
    real space projection operators read in
  non local Contribution for L=           0  read in
    real space projection operators read in
  non local Contribution for L=           1  read in
    real space projection operators read in
  non local Contribution for L=           1  read in
    real space projection operators read in
    PAW grid and wavefunctions read in
 
   number of l-projection  operators is LMAX  =           6
   number of lm-projection operators is LMMAX =          18
 
  PAW_PBE Fe 06Sep2000                  :
 energy of atom  1       EATOM= -594.3153
 kinetic energy error for atom=    0.0026 (will be added to EATOM!!)
 
 
 POSCAR: Fe_bcc                                  
  positions in direct lattice
  velocities in cartesian coordinates
 exchange correlation table for  LEXCH =        8
   RHO(1)=    0.500       N(1)  =     2000
   RHO(2)=  100.500       N(2)  =     4000
 


--------------------------------------------------------------------------------------------------------


 ion  position               nearest neighbor table
   1  0.000  0.000  0.000-   2 2.45   2 2.45   2 2.45   2 2.45   2 2.45   2 2.45   2 2.45   2 2.45

   2  0.500  0.500  0.500-   1 2.45   1 2.45   1 2.45   1 2.45   1 2.45   1 2.45   1 2.45   1 2.45

 
  LATTYP: Found a simple cubic cell.
 ALAT       =     2.8326337572
  
  Lattice vectors:
  
 A1 = (   2.8326337572,   0.0000000000,   0.0000000000)
 A2 = (   0.0000000000,   2.8326337572,   0.0000000000)
 A3 = (   0.0000000000,   0.0000000000,   2.8326337572)


Analysis of symmetry for initial positions (statically):
=====================================================================
 Subroutine PRICEL returns following result:
 
  LATTYP: Found a body centered cubic cell.
 ALAT       =     2.8326337572
  
  Lattice vectors:
  
 A1 = (   1.4163168786,   1.4163168786,   1.4163168786)
 A2 = (   1.4163168786,  -1.4163168786,  -1.4163168786)
 A3 = (  -1.4163168786,   1.4163168786,  -1.4163168786)
 
   2 primitive cells build up your supercell.
 

 Routine SETGRP: Setting up the symmetry group for a 
 simple cubic supercell.


 Subroutine GETGRP returns: Found 48 space group operations
 (whereof 48 operations were pure point group operations)
 out of a pool of 48 trial point group operations.


The static configuration has the point symmetry O_h .


Analysis of symmetry for dynamics (positions and initial velocities):
=====================================================================
 Subroutine PRICEL returns following result:
 
  LATTYP: Found a body centered cubic cell.
 ALAT       =     2.8326337572
  
  Lattice vectors:
  
 A1 = (   1.4163168786,   1.4163168786,   1.4163168786)
 A2 = (   1.4163168786,  -1.4163168786,  -1.4163168786)
 A3 = (  -1.4163168786,   1.4163168786,  -1.4163168786)
 
   2 primitive cells build up your supercell.
 

 Routine SETGRP: Setting up the symmetry group for a 
 simple cubic supercell.


 Subroutine GETGRP returns: Found 48 space group operations
 (whereof 48 operations were pure point group operations)
 out of a pool of 48 trial point group operations.


The dynamic configuration has the point symmetry O_h .


Analysis of structural, dynamic, and magnetic symmetry:
=====================================================================
 Subroutine PRICEL returns following result:
 
  LATTYP: Found a body centered cubic cell.
 ALAT       =     2.8326337572
  
  Lattice vectors:
  
 A1 = (   1.4163168786,   1.4163168786,   1.4163168786)
 A2 = (   1.4163168786,  -1.4163168786,  -1.4163168786)
 A3 = (  -1.4163168786,   1.4163168786,  -1.4163168786)
 
   2 primitive cells build up your supercell.
 

 Routine SETGRP: Setting up the symmetry group for a 
 simple cubic supercell.


 Subroutine GETGRP returns: Found 48 space group operations
 (whereof 48 operations were pure point group operations)
 out of a pool of 48 trial point group operations.


The magnetic configuration has the point symmetry O_h .


 Subroutine INISYM returns: Found 48 space group operations
 (whereof 48 operations are pure point group operations),
 and found     2 'primitive' translations

 
 
 KPOINTS: k-points                                

Automatic generation of k-mesh.
Space group operators:
 irot       det(A)        alpha          n_x          n_y          n_z        tau_x        tau_y        tau_z
    1     1.000000     0.000000     1.000000     0.000000     0.000000     0.000000     0.000000     0.000000
    2    -1.000000     0.000000     1.000000     0.000000     0.000000     0.000000     0.000000     0.000000
    3     1.000000   120.000000    -0.577350    -0.577350    -0.577350     0.000000     0.000000     0.000000
    4    -1.000000   120.000000    -0.577350    -0.577350    -0.577350     0.000000     0.000000     0.000000
    5     1.000000   120.000000     0.577350     0.577350     0.577350     0.000000     0.000000     0.000000
    6    -1.000000   120.000000     0.577350     0.577350     0.577350     0.000000     0.000000     0.000000
    7     1.000000    90.000000     0.000000     0.000000    -1.000000     0.000000     0.000000     0.000000
    8    -1.000000    90.000000     0.000000     0.000000    -1.000000     0.000000     0.000000     0.000000
    9     1.000000   180.000000     0.000000    -0.707107    -0.707107     0.000000     0.000000     0.000000
   10    -1.000000   180.000000     0.000000    -0.707107    -0.707107     0.000000     0.000000     0.000000
   11     1.000000    90.000000     0.000000     1.000000     0.000000     0.000000     0.000000     0.000000
   12    -1.000000    90.000000     0.000000     1.000000     0.000000     0.000000     0.000000     0.000000
   13     1.000000   180.000000    -0.000000    -0.000000     1.000000     0.000000     0.000000     0.000000
   14    -1.000000   180.000000    -0.000000    -0.000000     1.000000     0.000000     0.000000     0.000000
   15     1.000000   120.000000    -0.577350     0.577350     0.577350     0.000000     0.000000     0.000000
   16    -1.000000   120.000000    -0.577350     0.577350     0.577350     0.000000     0.000000     0.000000
   17     1.000000   120.000000    -0.577350     0.577350    -0.577350     0.000000     0.000000     0.000000
   18    -1.000000   120.000000    -0.577350     0.577350    -0.577350     0.000000     0.000000     0.000000
   19     1.000000    90.000000    -0.000000    -0.000000     1.000000     0.000000     0.000000     0.000000
   20    -1.000000    90.000000    -0.000000    -0.000000     1.000000     0.000000     0.000000     0.000000
   21     1.000000    90.000000    -1.000000     0.000000    -0.000000     0.000000     0.000000     0.000000
   22    -1.000000    90.000000    -1.000000     0.000000    -0.000000     0.000000     0.000000     0.000000
   23     1.000000   180.000000    -0.707107     0.000000    -0.707107     0.000000     0.000000     0.000000
   24    -1.000000   180.000000    -0.707107     0.000000    -0.707107     0.000000     0.000000     0.000000
   25     1.000000   120.000000     0.577350    -0.577350     0.577350     0.000000     0.000000     0.000000
   26    -1.000000   120.000000     0.577350    -0.577350     0.577350     0.000000     0.000000     0.000000
   27     1.000000   120.000000    -0.577350    -0.577350     0.577350     0.000000     0.000000     0.000000
   28    -1.000000   120.000000    -0.577350    -0.577350     0.577350     0.000000     0.000000     0.000000
   29     1.000000   180.000000     1.000000    -0.000000     0.000000     0.000000     0.000000     0.000000
   30    -1.000000   180.000000     1.000000    -0.000000     0.000000     0.000000     0.000000     0.000000
   31     1.000000    90.000000    -0.000000    -1.000000     0.000000     0.000000     0.000000     0.000000
   32    -1.000000    90.000000    -0.000000    -1.000000     0.000000     0.000000     0.000000     0.000000
   33     1.000000   180.000000     0.707107     0.707107     0.000000     0.000000     0.000000     0.000000
   34    -1.000000   180.000000     0.707107     0.707107     0.000000     0.000000     0.000000     0.000000
   35     1.000000    90.000000     1.000000    -0.000000    -0.000000     0.000000     0.000000     0.000000
   36    -1.000000    90.000000     1.000000    -0.000000    -0.000000     0.000000     0.000000     0.000000
   37     1.000000   120.000000     0.577350    -0.577350    -0.577350     0.000000     0.000000     0.000000
   38    -1.000000   120.000000     0.577350    -0.577350    -0.577350     0.000000     0.000000     0.000000
   39     1.000000   180.000000     0.000000     1.000000     0.000000     0.000000     0.000000     0.000000
   40    -1.000000   180.000000     0.000000     1.000000     0.000000     0.000000     0.000000     0.000000
   41     1.000000   120.000000     0.577350     0.577350    -0.577350     0.000000     0.000000     0.000000
   42    -1.000000   120.000000     0.577350     0.577350    -0.577350     0.000000     0.000000     0.000000
   43     1.000000   180.000000    -0.000000    -0.707107     0.707107     0.000000     0.000000     0.000000
   44    -1.000000   180.000000    -0.000000    -0.707107     0.707107     0.000000     0.000000     0.000000
   45     1.000000   180.000000     0.707107    -0.707107     0.000000     0.000000     0.000000     0.000000
   46    -1.000000   180.000000     0.707107    -0.707107     0.000000     0.000000     0.000000     0.000000
   47     1.000000   180.000000     0.707107    -0.000000    -0.707107     0.000000     0.000000     0.000000
   48    -1.000000   180.000000     0.707107    -0.000000    -0.707107     0.000000     0.000000     0.000000
 
 Subroutine IBZKPT returns following result:
 ===========================================
 
 Found     20 irreducible k-points:
 
 Following reciprocal coordinates:
            Coordinates               Weight
  0.062500  0.062500  0.062500      8.000000
  0.187500  0.062500  0.062500     24.000000
  0.312500  0.062500  0.062500     24.000000
  0.437500  0.062500  0.062500     24.000000
  0.187500  0.187500  0.062500     24.000000
  0.312500  0.187500  0.062500     48.000000
  0.437500  0.187500  0.062500     48.000000
  0.312500  0.312500  0.062500     24.000000
  0.437500  0.312500  0.062500     48.000000
  0.437500  0.437500  0.062500     24.000000
  0.187500  0.187500  0.187500      8.000000
  0.312500  0.187500  0.187500     24.000000
  0.437500  0.187500  0.187500     24.000000
  0.312500  0.312500  0.187500     24.000000
  0.437500  0.312500  0.187500     48.000000
  0.437500  0.437500  0.187500     24.000000
  0.312500  0.312500  0.312500      8.000000
  0.437500  0.312500  0.312500     24.000000
  0.437500  0.437500  0.312500     24.000000
  0.437500  0.437500  0.437500      8.000000
 
 Following cartesian coordinates:
            Coordinates               Weight
  0.022064  0.022064  0.022064      8.000000
  0.066193  0.022064  0.022064     24.000000
  0.110321  0.022064  0.022064     24.000000
  0.154450  0.022064  0.022064     24.000000
  0.066193  0.066193  0.022064     24.000000
  0.110321  0.066193  0.022064     48.000000
  0.154450  0.066193  0.022064     48.000000
  0.110321  0.110321  0.022064     24.000000
  0.154450  0.110321  0.022064     48.000000
  0.154450  0.154450  0.022064     24.000000
  0.066193  0.066193  0.066193      8.000000
  0.110321  0.066193  0.066193     24.000000
  0.154450  0.066193  0.066193     24.000000
  0.110321  0.110321  0.066193     24.000000
  0.154450  0.110321  0.066193     48.000000
  0.154450  0.154450  0.066193     24.000000
  0.110321  0.110321  0.110321      8.000000
  0.154450  0.110321  0.110321     24.000000
  0.154450  0.154450  0.110321     24.000000
  0.154450  0.154450  0.154450      8.000000
 


--------------------------------------------------------------------------------------------------------




 Dimension of arrays:
   k-points           NKPTS =     20   k-points in BZ     NKDIM =     20   number of bands    NBANDS=     16
   number of dos      NEDOS =    301   number of ions     NIONS =      2
   non local maximal  LDIM  =      6   non local SUM 2l+1 LMDIM =     18
   total plane-waves  NPLWV =   4096
   max r-space proj   IRMAX =      1   max aug-charges    IRDMAX=   6618
   dimension x,y,z NGX =    16 NGY =   16 NGZ =   16
   dimension x,y,z NGXF=    32 NGYF=   32 NGZF=   32
   support grid    NGXF=    32 NGYF=   32 NGZF=   32
   ions per type =               2
   NGX,Y,Z   is equivalent  to a cutoff of   9.39,  9.39,  9.39 a.u.
   NGXF,Y,Z  is equivalent  to a cutoff of  18.78, 18.78, 18.78 a.u.

 SYSTEM =  unknown system                          
 POSCAR =  Fe_bcc                                  

 Startparameter for this run:
   NWRITE =      2    write-flag & timer
   PREC   = normal    normal or accurate (medium, high low for compatibility)
   ISTART =      0    job   : 0-new  1-cont  2-samecut
   ICHARG =      2    charge: 1-file 2-atom 10-const
   ISPIN  =      2    spin polarized calculation?
   LNONCOLLINEAR =      F non collinear calculations
   LSORBIT =      F    spin-orbit coupling
   INIWAV =      1    electr: 0-lowe 1-rand  2-diag
   LASPH  =      F    aspherical Exc in radial PAW
   METAGGA=      F    non-selfconsistent MetaGGA calc.

 Electronic Relaxation 1
   ENCUT  =  500.0 eV  36.75 Ry    6.06 a.u.   5.16  5.16  5.16*2*pi/ulx,y,z
   ENINI  =  500.0     initial cutoff
   ENAUG  =  511.4 eV  augmentation charge cutoff
   NELM   =     60;   NELMIN=  2; NELMDL= -5     # of ELM steps 
   EDIFF  = 0.1E-05   stopping-criterion for ELM
   LREAL  =      F    real-space projection
   NLSPLINE    = F    spline interpolate recip. space projectors
   LCOMPAT=      F    compatible to vasp.4.4
   GGA_COMPAT  = T    GGA compatible to vasp.4.4-vasp.4.6
   LMAXPAW     = -100 max onsite density
   LMAXMIX     =    2 max onsite mixed and CHGCAR
   VOSKOWN=      0    Vosko Wilk Nusair interpolation
   ROPT   =    0.00000
 Ionic relaxation
   EDIFFG = -.1E-02   stopping-criterion for IOM
   NSW    =    300    number of steps for IOM
   NBLOCK =      1;   KBLOCK =    300    inner block; outer block 
   IBRION =      2    ionic relax: 0-MD 1-quasi-New 2-CG
   NFREE  =      1    steps in history (QN), initial steepest desc. (CG)
   ISIF   =      3    stress and relaxation
   IWAVPR =     11    prediction:  0-non 1-charg 2-wave 3-comb
   ISYM   =      2    0-nonsym 1-usesym 2-fastsym
   LCORR  =      T    Harris-Foulkes like correction to forces

   POTIM  = 0.5000    time-step for ionic-motion
   TEIN   =    0.0    initial temperature
   TEBEG  =    0.0;   TEEND  =   0.0 temperature during run
   SMASS  =  -3.00    Nose mass-parameter (am)
   estimated Nose-frequenzy (Omega)   =  0.10E-29 period in steps =****** mass=  -0.183E-27a.u.
   SCALEE = 1.0000    scale energy and forces
   NPACO  =    256;   APACO  = 16.0  distance and # of slots for P.C.
   PSTRESS=    0.0 pullay stress

  Mass of Ions in am
   POMASS =  55.85
  Ionic Valenz
   ZVAL   =   8.00
  Atomic Wigner-Seitz radii
   RWIGS  =  -1.00
  virtual crystal weights 
   VCA    =   1.00
   NELECT =      16.0000    total number of electrons
   NUPDOWN=      -1.0000    fix difference up-down

 DOS related values:
   EMIN   =  10.00;   EMAX   =-10.00  energy-range for DOS
   EFERMI =   0.00
   ISMEAR =     1;   SIGMA  =   0.20  broadening in eV -4-tet -1-fermi 0-gaus

 Electronic relaxation 2 (details)
   IALGO  =     38    algorithm
   LDIAG  =      T    sub-space diagonalisation (order eigenvalues)
   LSUBROT=      F    optimize rotation matrix (better conditioning)
   TURBO    =      0    0=normal 1=particle mesh
   IRESTART =      0    0=no restart 2=restart with 2 vectors
   NREBOOT  =      0    no. of reboots
   NMIN     =      0    reboot dimension
   EREF     =   0.00    reference energy to select bands
   IMIX   =      4    mixing-type and parameters
     AMIX     =   0.40;   BMIX     =  1.00
     AMIX_MAG =   1.60;   BMIX_MAG =  1.00
     AMIN     =   0.10
     WC   =   100.;   INIMIX=   1;  MIXPRE=   1;  MAXMIX= -45

 Intra band minimization:
   WEIMIN = 0.0010     energy-eigenvalue tresh-hold
   EBREAK =  0.16E-07  absolut break condition
   DEPER  =   0.30     relativ break condition  

   TIME   =   0.40     timestep for ELM

  volume/ion in A,a.u.               =      11.36        76.69
  Fermi-wavevector in a.u.,A,eV,Ry     =   1.456323  2.752052 28.856282  2.120877
  Thomas-Fermi vector in A             =   2.573255
 
 Write flags
   LWAVE        =      T    write WAVECAR
   LDOWNSAMPLE  =      F    k-point downsampling of WAVECAR
   LCHARG       =      T    write CHGCAR
   LVTOT        =      F    write LOCPOT, total local potential
   LVHAR        =      F    write LOCPOT, Hartree potential only
   LELF         =      F    write electronic localiz. function (ELF)
   LORBIT       =     11    0 simple, 1 ext, 2 COOP (PROOUT), +10 PAW based schemes


 Dipole corrections
   LMONO  =      F    monopole corrections only (constant potential shift)
   LDIPOL =      F    correct potential (dipole corrections)
   IDIPOL =      0    1-x, 2-y, 3-z, 4-all directions 
   EPSILON=  1.0000000 bulk dielectric constant

 Exchange correlation treatment:
   GGA     =    --    GGA type
   LEXCH   =     8    internal setting for exchange type
   VOSKOWN=      0    Vosko Wilk Nusair interpolation
   LHFCALC =     F    Hartree Fock is set to
   LHFONE  =     F    Hartree Fock one center treatment
   AEXX    =    0.0000 exact exchange contribution

 Linear response parameters
   LEPSILON=     F    determine dielectric tensor
   LRPA    =     F    only Hartree local field effects (RPA)
   LNABLA  =     F    use nabla operator in PAW spheres
   LVEL    =     F    velocity operator in full k-point grid
   LINTERFAST=   F  fast interpolation
   KINTER  =     0    interpolate to denser k-point grid
   CSHIFT  =0.1000    complex shift for real part using Kramers Kronig
   OMEGAMAX=  -1.0    maximum frequency
   DEG_THRESHOLD= 0.2000000E-02 threshold for treating states as degnerate
   RTIME   =   -0.100 relaxation time in fs
  (WPLASMAI=    0.000 imaginary part of plasma frequency in eV, 0.658/RTIME)
   DFIELD  = 0.0000000 0.0000000 0.0000000 field for delta impulse in time
 
 Orbital magnetization related:
   ORBITALMAG=     F  switch on orbital magnetization
   LCHIMAG   =     F  perturbation theory with respect to B field
   DQ        =  0.001000  dq finite difference perturbation B field
   LLRAUG    =     F  two centre corrections for induced B field



--------------------------------------------------------------------------------------------------------


 conjugate gradient relaxation of ions
 charge density and potential will be updated during run
 spin polarized calculation
 Variant of blocked Davidson
 Davidson routine will perform the subspace rotation
 perform sub-space diagonalisation
    after iterative eigenvector-optimisation
 modified Broyden-mixing scheme, WC =      100.0
 initial mixing is a Kerker type mixing with AMIX =  0.4000 and BMIX =      1.0000
 Hartree-type preconditioning will be used
 using additional bands            8
 reciprocal scheme for non local part
 use partial core corrections
 calculate Harris-corrections to forces 
   (improved forces if not selfconsistent)
 use gradient corrections 
 use of overlap-Matrix (Vanderbilt PP)
 Methfessel and Paxton  Order N= 1 SIGMA  =   0.20


--------------------------------------------------------------------------------------------------------


  energy-cutoff  :      500.00
  volume of cell :       22.73
      direct lattice vectors                 reciprocal lattice vectors
     2.832633757  0.000000000  0.000000000     0.353028342 -0.000000000  0.000000000
     0.000000000  2.832633757  0.000000000     0.000000000  0.353028342  0.000000000
     0.000000000  0.000000000  2.832633757    -0.000000000 -0.000000000  0.353028342

  length of vectors
     2.832633757  2.832633757  2.832633757     0.353028342  0.353028342  0.353028342


 
 k-points in units of 2pi/SCALE and weight: k-points                                
   0.02206427  0.02206427  0.02206427       0.016
   0.06619281  0.02206427  0.02206427       0.047
   0.11032136  0.02206427  0.02206427       0.047
   0.15444990  0.02206427  0.02206427       0.047
   0.06619281  0.06619281  0.02206427       0.047
   0.11032136  0.06619281  0.02206427       0.094
   0.15444990  0.06619281  0.02206427       0.094
   0.11032136  0.11032136  0.02206427       0.047
   0.15444990  0.11032136  0.02206427       0.094
   0.15444990  0.15444990  0.02206427       0.047
   0.06619281  0.06619281  0.06619281       0.016
   0.11032136  0.06619281  0.06619281       0.047
   0.15444990  0.06619281  0.06619281       0.047
   0.11032136  0.11032136  0.06619281       0.047
   0.15444990  0.11032136  0.06619281       0.094
   0.15444990  0.15444990  0.06619281       0.047
   0.11032136  0.11032136  0.11032136       0.016
   0.15444990  0.11032136  0.11032136       0.047
   0.15444990  0.15444990  0.11032136       0.047
   0.15444990  0.15444990  0.15444990       0.016
 
 k-points in reciprocal lattice and weights: k-points                                
   0.06250000  0.06250000  0.06250000       0.016
   0.18750000  0.06250000  0.06250000       0.047
   0.31250000  0.06250000  0.06250000       0.047
   0.43750000  0.06250000  0.06250000       0.047
   0.18750000  0.18750000  0.06250000       0.047
   0.31250000  0.18750000  0.06250000       0.094
   0.43750000  0.18750000  0.06250000       0.094
   0.31250000  0.31250000  0.06250000       0.047
   0.43750000  0.31250000  0.06250000       0.094
   0.43750000  0.43750000  0.06250000       0.047
   0.18750000  0.18750000  0.18750000       0.016
   0.31250000  0.18750000  0.18750000       0.047
   0.43750000  0.18750000  0.18750000       0.047
   0.31250000  0.31250000  0.18750000       0.047
   0.43750000  0.31250000  0.18750000       0.094
   0.43750000  0.43750000  0.18750000       0.047
   0.31250000  0.31250000  0.31250000       0.016
   0.43750000  0.31250000  0.31250000       0.047
   0.43750000  0.43750000  0.31250000       0.047
   0.43750000  0.43750000  0.43750000       0.016
 
 position of ions in fractional coordinates (direct lattice) 
   0.00000000  0.00000000  0.00000000
   0.50000000  0.50000000  0.50000000
 
 position of ions in cartesian coordinates  (Angst):
   0.00000000  0.00000000  0.00000000
   1.41631688  1.41631688  1.41631688
 


--------------------------------------------------------------------------------------------------------


 k-point  1 :   0.0625 0.0625 0.0625  plane waves:     585
 k-point  2 :   0.1875 0.0625 0.0625  plane waves:     574
 k-point  3 :   0.3125 0.0625 0.0625  plane waves:     575
 k-point  4 :   0.4375 0.0625 0.0625  plane waves:     578
 k-point  5 :   0.1875 0.1875 0.0625  plane waves:     570
 k-point  6 :   0.3125 0.1875 0.0625  plane waves:     574
 k-point  7 :   0.4375 0.1875 0.0625  plane waves:     578
 k-point  8 :   0.3125 0.3125 0.0625  plane waves:     576
 k-point  9 :   0.4375 0.3125 0.0625  plane waves:     579
 k-point 10 :   0.4375 0.4375 0.0625  plane waves:     572
 k-point 11 :   0.1875 0.1875 0.1875  plane waves:     573
 k-point 12 :   0.3125 0.1875 0.1875  plane waves:     580
 k-point 13 :   0.4375 0.1875 0.1875  plane waves:     574
 k-point 14 :   0.3125 0.3125 0.1875  plane waves:     580
 k-point 15 :   0.4375 0.3125 0.1875  plane waves:     576
 k-point 16 :   0.4375 0.4375 0.1875  plane waves:     582
 k-point 17 :   0.3125 0.3125 0.3125  plane waves:     582
 k-point 18 :   0.4375 0.3125 0.3125  plane waves:     581
 k-point 19 :   0.4375 0.4375 0.3125  plane waves:     586
 k-point 20 :   0.4375 0.4375 0.4375  plane waves:     588

 maximum and minimum number of plane-waves per node :       588      570

 maximum number of plane-waves:       588
 maximum index in each direction: 
   IXMAX=    5   IYMAX=    5   IZMAX=    5
   IXMIN=   -5   IYMIN=   -5   IZMIN=   -5


 serial   3D FFT for wavefunctions
 parallel 3D FFT for charge:
    minimum data exchange during FFTs selected (reduces bandwidth)


 total amount of memory used by VASP MPI-rank0    32777. kBytes
=======================================================================

   base      :      30000. kBytes
   nonl-proj :       1723. kBytes
   fftplans  :         93. kBytes
   grid      :        490. kBytes
   one-center:         62. kBytes
   wavefun   :        409. kBytes
 
     INWAV:  cpu time    0.0000: real time    0.0007
 Broyden mixing: mesh for mixing (old mesh)
   NGX = 11   NGY = 11   NGZ = 11
  (NGX  = 32   NGY  = 32   NGZ  = 32)
  gives a total of   1331 points

 initial charge density was supplied:
 charge density of overlapping atoms calculated
 number of electron      16.0000000 magnetization       0.0000000
 keeping initial charge density in first step


--------------------------------------------------------------------------------------------------------


 Maximum index for augmentation-charges          421 (set IRDMAX)


--------------------------------------------------------------------------------------------------------


 First call to EWALD:  gamma=   0.626
 Maximum number of real-space cells 3x 3x 3
 Maximum number of reciprocal cells 3x 3x 3

    FEWALD:  cpu time    0.0030: real time    0.0045


--------------------------------------- Iteration      1(   1)  ---------------------------------------


    POTLOK:  cpu time    0.0140: real time    0.0251
    SETDIJ:  cpu time    0.0150: real time    0.0144
     EDDAV:  cpu time    0.2520: real time    0.2525
       DOS:  cpu time    0.0010: real time    0.0020
    --------------------------------------------
      LOOP:  cpu time    0.2830: real time    0.2944

 eigenvalue-minimisations  :  1296
 total energy-change (2. order) : 0.2763304E+02  (-0.8299446E+03)
 number of electron      16.0000000 magnetization       0.0000000
 augmentation part       16.0000000 magnetization       0.0000000

 Free energy of the ion-electron system (eV)
  ---------------------------------------------------
  alpha Z        PSCENC =       121.63353623
  Ewald energy   TEWEN  =     -1184.01045886
  -Hartree energ DENC   =      -223.12414455
  -exchange      EXHF   =         0.00000000
  -V(xc)+E(xc)   XCENC  =        11.28765511
  PAW double counting   =      1105.78361136    -1121.29561652
  entropy T*S    EENTRO =        -0.00411342
  eigenvalues    EBANDS =       128.73722702
  atomic energy  EATOM  =      1188.62534088
  Solvation  Ediel_sol  =         0.00000000
  ---------------------------------------------------
  free energy    TOTEN  =        27.63303725 eV

  energy without entropy =       27.63715068  energy(sigma->0) =       27.63440839


--------------------------------------------------------------------------------------------------------




--------------------------------------- Iteration      1(   2)  ---------------------------------------


     EDDAV:  cpu time    0.2600: real time    0.2855
       DOS:  cpu time    0.0010: real time    0.0018
    --------------------------------------------
      LOOP:  cpu time    0.2600: real time    0.2873

 eigenvalue-minimisations  :  1312
 total energy-change (2. order) :-0.4526207E+02  (-0.4501626E+02)
 number of electron      16.0000000 magnetization       0.0000000
 augmentation part       16.0000000 magnetization       0.0000000

 Free energy of the ion-electron system (eV)
  ---------------------------------------------------
  alpha Z        PSCENC =       121.63353623
  Ewald energy   TEWEN  =     -1184.01045886
  -Hartree energ DENC   =      -223.12414455
  -exchange      EXHF   =         0.00000000
  -V(xc)+E(xc)   XCENC  =        11.28765511
  PAW double counting   =      1105.78361136    -1121.29561652
  entropy T*S    EENTRO =        -0.00114511
  eigenvalues    EBANDS =        83.47218752
  atomic energy  EATOM  =      1188.62534088
  Solvation  Ediel_sol  =         0.00000000
  ---------------------------------------------------
  free energy    TOTEN  =       -17.62903393 eV

  energy without entropy =      -17.62788882  energy(sigma->0) =      -17.62865223


--------------------------------------------------------------------------------------------------------




--------------------------------------- Iteration      1(   3)  ---------------------------------------


     EDDAV:  cpu time    0.4849: real time    0.5103
       DOS:  cpu time    0.0000: real time    0.0018
    --------------------------------------------
      LOOP:  cpu time    0.4859: real time    0.5121

 eigenvalue-minimisations  :  1936
 total energy-change (2. order) :-0.2646226E+00  (-0.2644295E+00)
 number of electron      16.0000000 magnetization       0.0000000
 augmentation part       16.0000000 magnetization       0.0000000

 Free energy of the ion-electron system (eV)
  ---------------------------------------------------
  alpha Z        PSCENC =       121.63353623
  Ewald energy   TEWEN  =     -1184.01045886
  -Hartree energ DENC   =      -223.12414455
  -exchange      EXHF   =         0.00000000
  -V(xc)+E(xc)   XCENC  =        11.28765511
  PAW double counting   =      1105.78361136    -1121.29561652
  entropy T*S    EENTRO =        -0.00222510
  eigenvalues    EBANDS =        83.20864492
  atomic energy  EATOM  =      1188.62534088
  Solvation  Ediel_sol  =         0.00000000
  ---------------------------------------------------
  free energy    TOTEN  =       -17.89365652 eV

  energy without entropy =      -17.89143143  energy(sigma->0) =      -17.89291482


--------------------------------------------------------------------------------------------------------




--------------------------------------- Iteration      1(   4)  ---------------------------------------


     EDDAV:  cpu time    0.3120: real time    0.3549
       DOS:  cpu time    0.0010: real time    0.0018
    --------------------------------------------
      LOOP:  cpu time    0.3130: real time    0.3567

 eigenvalue-minimisations  :  1456
 total energy-change (2. order) :-0.8412948E-03  (-0.8412778E-03)
 number of electron      16.0000000 magnetization       0.0000000
 augmentation part       16.0000000 magnetization       0.0000000

 Free energy of the ion-electron system (eV)
  ---------------------------------------------------
  alpha Z        PSCENC =       121.63353623
  Ewald energy   TEWEN  =     -1184.01045886
  -Hartree energ DENC   =      -223.12414455
  -exchange      EXHF   =         0.00000000
  -V(xc)+E(xc)   XCENC  =        11.28765511
  PAW double counting   =      1105.78361136    -1121.29561652
  entropy T*S    EENTRO =        -0.00221741
  eigenvalues    EBANDS =        83.20779593
  atomic energy  EATOM  =      1188.62534088
  Solvation  Ediel_sol  =         0.00000000
  ---------------------------------------------------
  free energy    TOTEN  =       -17.89449782 eV

  energy without entropy =      -17.89228041  energy(sigma->0) =      -17.89375868


--------------------------------------------------------------------------------------------------------




--------------------------------------- Iteration      1(   5)  ---------------------------------------


     EDDAV:  cpu time    0.5009: real time    0.5264
       DOS:  cpu time    0.0010: real time    0.0021
    CHARGE:  cpu time    0.0130: real time    0.0132
    MIXING:  cpu time    0.0010: real time    0.0009
    --------------------------------------------
      LOOP:  cpu time    0.5149: real time    0.5426

 eigenvalue-minimisations  :  1984
 total energy-change (2. order) :-0.5666507E-05  (-0.5667151E-05)
 number of electron      16.0000064 magnetization       0.0000000
 augmentation part        7.2241734 magnetization       0.0000000

 Broyden mixing:
  rms(total) = 0.17556E+01    rms(broyden)= 0.17556E+01
  rms(prec ) = 0.36969E+01
  weight for this iteration     100.00

 Free energy of the ion-electron system (eV)
  ---------------------------------------------------
  alpha Z        PSCENC =       121.63353623
  Ewald energy   TEWEN  =     -1184.01045886
  -Hartree energ DENC   =      -223.12414455
  -exchange      EXHF   =         0.00000000
  -V(xc)+E(xc)   XCENC  =        11.28765511
  PAW double counting   =      1105.78361136    -1121.29561652
  entropy T*S    EENTRO =        -0.00221724
  eigenvalues    EBANDS =        83.20779010
  atomic energy  EATOM  =      1188.62534088
  Solvation  Ediel_sol  =         0.00000000
  ---------------------------------------------------
  free energy    TOTEN  =       -17.89450348 eV

  energy without entropy =      -17.89228624  energy(sigma->0) =      -17.89376440


--------------------------------------------------------------------------------------------------------




--------------------------------------- Iteration      1(   6)  ---------------------------------------


    POTLOK:  cpu time    0.0100: real time    0.0388
    SETDIJ:  cpu time    0.0130: real time    0.0134
     EDDAV:  cpu time    0.2720: real time    0.2717
       DOS:  cpu time    0.0010: real time    0.0019
    CHARGE:  cpu time    0.0120: real time    0.0128
    MIXING:  cpu time    0.0010: real time    0.0008
    --------------------------------------------
      LOOP:  cpu time    0.3100: real time    0.3394

 eigenvalue-minimisations  :  1376
 total energy-change (2. order) : 0.2204111E+01  (-0.2642425E+01)
 number of electron      16.0000071 magnetization      -0.0000000
 augmentation part        8.5398335 magnetization      -0.0000000

 Broyden mixing:
  rms(total) = 0.68361E+00    rms(broyden)= 0.68360E+00
  rms(prec ) = 0.86120E+00
  weight for this iteration     100.00

 eigenvalues of (default mixing * dielectric matrix)
  average eigenvalue GAMMA=   0.7469
  0.7469

 Free energy of the ion-electron system (eV)
  ---------------------------------------------------
  alpha Z        PSCENC =       121.63353623
  Ewald energy   TEWEN  =     -1184.01045886
  -Hartree energ DENC   =      -189.57721108
  -exchange      EXHF   =         0.00000000
  -V(xc)+E(xc)   XCENC  =         7.96929190
  PAW double counting   =      1221.70248712    -1233.42744066
  entropy T*S    EENTRO =        -0.01016529
  eigenvalues    EBANDS =        51.40422694
  atomic energy  EATOM  =      1188.62534088
  Solvation  Ediel_sol  =         0.00000000
  ---------------------------------------------------
  free energy    TOTEN  =       -15.69039282 eV

  energy without entropy =      -15.68022753  energy(sigma->0) =      -15.68700439


--------------------------------------------------------------------------------------------------------




--------------------------------------- Iteration      1(   7)  ---------------------------------------


    POTLOK:  cpu time    0.0110: real time    0.0544
    SETDIJ:  cpu time    0.0130: real time    0.0131
     EDDAV:  cpu time    0.3170: real time    0.3179
       DOS:  cpu time    0.0010: real time    0.0018
    CHARGE:  cpu time    0.0130: real time    0.0128
    MIXING:  cpu time    0.0010: real time    0.0007
    --------------------------------------------
      LOOP:  cpu time    0.3549: real time    0.4007

 eigenvalue-minimisations  :  1504
 total energy-change (2. order) : 0.1198016E+00  (-0.1685728E+00)
 number of electron      16.0000069 magnetization      -0.0000000
 augmentation part        8.2192305 magnetization      -0.0000000

 Broyden mixing:
  rms(total) = 0.42936E+00    rms(broyden)= 0.42936E+00
  rms(prec ) = 0.51935E+00
  weight for this iteration     100.00

 eigenvalues of (default mixing * dielectric matrix)
  average eigenvalue GAMMA=   0.8622
  1.2267  0.4976

 Free energy of the ion-electron system (eV)
  ---------------------------------------------------
  alpha Z        PSCENC =       121.63353623
  Ewald energy   TEWEN  =     -1184.01045886
  -Hartree energ DENC   =      -193.94942605
  -exchange      EXHF   =         0.00000000
  -V(xc)+E(xc)   XCENC  =         8.04106035
  PAW double counting   =      1294.37400741    -1309.53541396
  entropy T*S    EENTRO =        -0.00912844
  eigenvalues    EBANDS =        59.25989117
  atomic energy  EATOM  =      1188.62534088
  Solvation  Ediel_sol  =         0.00000000
  ---------------------------------------------------
  free energy    TOTEN  =       -15.57059127 eV

  energy without entropy =      -15.56146283  energy(sigma->0) =      -15.56754845


--------------------------------------------------------------------------------------------------------




--------------------------------------- Iteration      1(   8)  ---------------------------------------


    POTLOK:  cpu time    0.0100: real time    0.0363
    SETDIJ:  cpu time    0.0130: real time    0.0130
     EDDAV:  cpu time    0.3809: real time    0.3821
       DOS:  cpu time    0.0020: real time    0.0018
    CHARGE:  cpu time    0.0100: real time    0.0105
    MIXING:  cpu time    0.0010: real time    0.0007
    --------------------------------------------
      LOOP:  cpu time    0.4169: real time    0.4443

 eigenvalue-minimisations  :  1728
 total energy-change (2. order) : 0.5154873E-02  (-0.6788467E-02)
 number of electron      16.0000068 magnetization       0.0000000
 augmentation part        8.2448911 magnetization       0.0000000

 Broyden mixing:
  rms(total) = 0.12664E+00    rms(broyden)= 0.12664E+00
  rms(prec ) = 0.22090E+00
  weight for this iteration     100.00

 eigenvalues of (default mixing * dielectric matrix)
  average eigenvalue GAMMA=   1.0205
  1.6882  0.6866  0.6866

 Free energy of the ion-electron system (eV)
  ---------------------------------------------------
  alpha Z        PSCENC =       121.63353623
  Ewald energy   TEWEN  =     -1184.01045886
  -Hartree energ DENC   =      -192.28591788
  -exchange      EXHF   =         0.00000000
  -V(xc)+E(xc)   XCENC  =         7.72568863
  PAW double counting   =      1333.12189889    -1349.17711676
  entropy T*S    EENTRO =        -0.00623025
  eigenvalues    EBANDS =        58.80782274
  atomic energy  EATOM  =      1188.62534088
  Solvation  Ediel_sol  =         0.00000000
  ---------------------------------------------------
  free energy    TOTEN  =       -15.56543639 eV

  energy without entropy =      -15.55920614  energy(sigma->0) =      -15.56335964


--------------------------------------------------------------------------------------------------------




--------------------------------------- Iteration      1(   9)  ---------------------------------------


    POTLOK:  cpu time    0.0100: real time    0.0358
    SETDIJ:  cpu time    0.0130: real time    0.0131
     EDDAV:  cpu time    0.4209: real time    0.4216
       DOS:  cpu time    0.0010: real time    0.0018
    CHARGE:  cpu time    0.0110: real time    0.0108
    MIXING:  cpu time    0.0000: real time    0.0007
    --------------------------------------------
      LOOP:  cpu time    0.4569: real time    0.4838

 eigenvalue-minimisations  :  1856
 total energy-change (2. order) : 0.1978401E-03  (-0.1104436E-01)
 number of electron      16.0000068 magnetization      -0.0000000
 augmentation part        8.2758062 magnetization      -0.0000000

 Broyden mixing:
  rms(total) = 0.60348E-01    rms(broyden)= 0.60338E-01
  rms(prec ) = 0.82148E-01
  weight for this iteration     100.00

 eigenvalues of (default mixing * dielectric matrix)
  average eigenvalue GAMMA=   1.3407
  2.5919  1.3669  0.7777  0.6263

 Free energy of the ion-electron system (eV)
  ---------------------------------------------------
  alpha Z        PSCENC =       121.63353623
  Ewald energy   TEWEN  =     -1184.01045886
  -Hartree energ DENC   =      -190.40987064
  -exchange      EXHF   =         0.00000000
  -V(xc)+E(xc)   XCENC  =         7.43381111
  PAW double counting   =      1378.11610783    -1395.15593544
  entropy T*S    EENTRO =        -0.00237082
  eigenvalues    EBANDS =        58.20460115
  atomic energy  EATOM  =      1188.62534088
  Solvation  Ediel_sol  =         0.00000000
  ---------------------------------------------------
  free energy    TOTEN  =       -15.56523855 eV

  energy without entropy =      -15.56286773  energy(sigma->0) =      -15.56444828


--------------------------------------------------------------------------------------------------------




--------------------------------------- Iteration      1(  10)  ---------------------------------------


    POTLOK:  cpu time    0.0150: real time    0.0575
    SETDIJ:  cpu time    0.0130: real time    0.0136
     EDDAV:  cpu time    0.4479: real time    0.4488
       DOS:  cpu time    0.0020: real time    0.0023
    CHARGE:  cpu time    0.0160: real time    0.0165
    MIXING:  cpu time    0.0010: real time    0.0009
    --------------------------------------------
      LOOP:  cpu time    0.4949: real time    0.5398

 eigenvalue-minimisations  :  1440
 total energy-change (2. order) :-0.2542132E-02  (-0.7894925E-02)
 number of electron      16.0000067 magnetization      -0.0000000
 augmentation part        8.2758509 magnetization      -0.0000000

 Broyden mixing:
  rms(total) = 0.30741E-01    rms(broyden)= 0.30719E-01
  rms(prec ) = 0.33212E-01
  weight for this iteration     100.00

 eigenvalues of (default mixing * dielectric matrix)
  average eigenvalue GAMMA=   1.3550
  2.6848  1.8515  0.8873  0.7192  0.6321

 Free energy of the ion-electron system (eV)
  ---------------------------------------------------
  alpha Z        PSCENC =       121.63353623
  Ewald energy   TEWEN  =     -1184.01045886
  -Hartree energ DENC   =      -189.50898806
  -exchange      EXHF   =         0.00000000
  -V(xc)+E(xc)   XCENC  =         7.22666295
  PAW double counting   =      1413.19903530    -1430.99032563
  entropy T*S    EENTRO =        -0.00012898
  eigenvalues    EBANDS =        58.25754547
  atomic energy  EATOM  =      1188.62534088
  Solvation  Ediel_sol  =         0.00000000
  ---------------------------------------------------
  free energy    TOTEN  =       -15.56778069 eV

  energy without entropy =      -15.56765171  energy(sigma->0) =      -15.56773769


--------------------------------------------------------------------------------------------------------




--------------------------------------- Iteration      1(  11)  ---------------------------------------


    POTLOK:  cpu time    0.0140: real time    0.0420
    SETDIJ:  cpu time    0.0140: real time    0.0137
     EDDAV:  cpu time    0.3260: real time    0.3265
       DOS:  cpu time    0.0010: real time    0.0019
    CHARGE:  cpu time    0.0130: real time    0.0127
    MIXING:  cpu time    0.0000: real time    0.0008
    --------------------------------------------
      LOOP:  cpu time    0.3679: real time    0.3976

 eigenvalue-minimisations  :  1344
 total energy-change (2. order) :-0.7483734E-04  (-0.1056763E-03)
 number of electron      16.0000067 magnetization      -0.0000000
 augmentation part        8.2811527 magnetization      -0.0000000

 Broyden mixing:
  rms(total) = 0.88424E-02    rms(broyden)= 0.88388E-02
  rms(prec ) = 0.99649E-02
  weight for this iteration     100.00

 eigenvalues of (default mixing * dielectric matrix)
  average eigenvalue GAMMA=   1.3795
  3.2800  1.9907  0.9646  0.7473  0.6473  0.6473

 Free energy of the ion-electron system (eV)
  ---------------------------------------------------
  alpha Z        PSCENC =       121.63353623
  Ewald energy   TEWEN  =     -1184.01045886
  -Hartree energ DENC   =      -189.59170625
  -exchange      EXHF   =         0.00000000
  -V(xc)+E(xc)   XCENC  =         7.24276486
  PAW double counting   =      1407.88404015    -1425.46899528
  entropy T*S    EENTRO =        -0.00019961
  eigenvalues    EBANDS =        58.11782236
  atomic energy  EATOM  =      1188.62534088
  Solvation  Ediel_sol  =         0.00000000
  ---------------------------------------------------
  free energy    TOTEN  =       -15.56785552 eV

  energy without entropy =      -15.56765591  energy(sigma->0) =      -15.56778899


--------------------------------------------------------------------------------------------------------




--------------------------------------- Iteration      1(  12)  ---------------------------------------


    POTLOK:  cpu time    0.0100: real time    0.0360
    SETDIJ:  cpu time    0.0130: real time    0.0130
     EDDAV:  cpu time    0.3609: real time    0.3604
       DOS:  cpu time    0.0010: real time    0.0018
    CHARGE:  cpu time    0.0120: real time    0.0126
    MIXING:  cpu time    0.0010: real time    0.0009
    --------------------------------------------
      LOOP:  cpu time    0.3979: real time    0.4248

 eigenvalue-minimisations  :  1632
 total energy-change (2. order) : 0.2344662E-04  (-0.9603635E-05)
 number of electron      16.0000067 magnetization       0.0000000
 augmentation part        8.2815429 magnetization       0.0000000

 Broyden mixing:
  rms(total) = 0.21923E-02    rms(broyden)= 0.21880E-02
  rms(prec ) = 0.41915E-02
  weight for this iteration     100.00

 eigenvalues of (default mixing * dielectric matrix)
  average eigenvalue GAMMA=   1.2667
  3.0710  2.1296  1.0018  0.7910  0.6433  0.6433  0.5872

 Free energy of the ion-electron system (eV)
  ---------------------------------------------------
  alpha Z        PSCENC =       121.63353623
  Ewald energy   TEWEN  =     -1184.01045886
  -Hartree energ DENC   =      -189.61482494
  -exchange      EXHF   =         0.00000000
  -V(xc)+E(xc)   XCENC  =         7.23574242
  PAW double counting   =      1407.10774399    -1424.65201458
  entropy T*S    EENTRO =        -0.00020826
  eigenvalues    EBANDS =        58.10731104
  atomic energy  EATOM  =      1188.62534088
  Solvation  Ediel_sol  =         0.00000000
  ---------------------------------------------------
  free energy    TOTEN  =       -15.56783208 eV

  energy without entropy =      -15.56762382  energy(sigma->0) =      -15.56776266


--------------------------------------------------------------------------------------------------------




--------------------------------------- Iteration      1(  13)  ---------------------------------------


    POTLOK:  cpu time    0.0110: real time    0.0547
    SETDIJ:  cpu time    0.0120: real time    0.0130
     EDDAV:  cpu time    0.3729: real time    0.3734
       DOS:  cpu time    0.0010: real time    0.0019
    CHARGE:  cpu time    0.0160: real time    0.0156
    MIXING:  cpu time    0.0010: real time    0.0010
    --------------------------------------------
      LOOP:  cpu time    0.4139: real time    0.4597

 eigenvalue-minimisations  :  1632
 total energy-change (2. order) : 0.6245406E-05  (-0.2702496E-05)
 number of electron      16.0000067 magnetization       0.0000000
 augmentation part        8.2811773 magnetization       0.0000000

 Broyden mixing:
  rms(total) = 0.14169E-02    rms(broyden)= 0.14163E-02
  rms(prec ) = 0.19847E-02
  weight for this iteration     100.00

 eigenvalues of (default mixing * dielectric matrix)
  average eigenvalue GAMMA=   1.4485
  3.3300  2.2630  2.2630  1.0237  0.7803  0.7067  0.6225  0.5988

 Free energy of the ion-electron system (eV)
  ---------------------------------------------------
  alpha Z        PSCENC =       121.63353623
  Ewald energy   TEWEN  =     -1184.01045886
  -Hartree energ DENC   =      -189.65490298
  -exchange      EXHF   =         0.00000000
  -V(xc)+E(xc)   XCENC  =         7.24135654
  PAW double counting   =      1405.91416849    -1423.43058627
  entropy T*S    EENTRO =        -0.00027453
  eigenvalues    EBANDS =        58.11399465
  atomic energy  EATOM  =      1188.62534088
  Solvation  Ediel_sol  =         0.00000000
  ---------------------------------------------------
  free energy    TOTEN  =       -15.56782583 eV

  energy without entropy =      -15.56755130  energy(sigma->0) =      -15.56773432


--------------------------------------------------------------------------------------------------------




--------------------------------------- Iteration      1(  14)  ---------------------------------------


    POTLOK:  cpu time    0.0100: real time    0.0356
    SETDIJ:  cpu time    0.0130: real time    0.0131
     EDDAV:  cpu time    0.2540: real time    0.2550
       DOS:  cpu time    0.0020: real time    0.0018
    CHARGE:  cpu time    0.0130: real time    0.0127
    MIXING:  cpu time    0.0010: real time    0.0010
    --------------------------------------------
      LOOP:  cpu time    0.2920: real time    0.3190

 eigenvalue-minimisations  :  1312
 total energy-change (2. order) : 0.1220651E-05  (-0.3676979E-05)
 number of electron      16.0000067 magnetization      -0.0000000
 augmentation part        8.2805449 magnetization      -0.0000000

 Broyden mixing:
  rms(total) = 0.95720E-03    rms(broyden)= 0.95622E-03
  rms(prec ) = 0.13157E-02
  weight for this iteration     100.00

 eigenvalues of (default mixing * dielectric matrix)
  average eigenvalue GAMMA=   1.3341
  3.1899  2.4221  2.0535  0.9801  0.7140  0.7140  0.7114  0.6418  0.5799

 Free energy of the ion-electron system (eV)
  ---------------------------------------------------
  alpha Z        PSCENC =       121.63353623
  Ewald energy   TEWEN  =     -1184.01045886
  -Hartree energ DENC   =      -189.67554606
  -exchange      EXHF   =         0.00000000
  -V(xc)+E(xc)   XCENC  =         7.23960718
  PAW double counting   =      1405.52410696    -1423.03343548
  entropy T*S    EENTRO =        -0.00026274
  eigenvalues    EBANDS =        58.12928728
  atomic energy  EATOM  =      1188.62534088
  Solvation  Ediel_sol  =         0.00000000
  ---------------------------------------------------
  free energy    TOTEN  =       -15.56782461 eV

  energy without entropy =      -15.56756187  energy(sigma->0) =      -15.56773703


--------------------------------------------------------------------------------------------------------




--------------------------------------- Iteration      1(  15)  ---------------------------------------


    POTLOK:  cpu time    0.0120: real time    0.0359
    SETDIJ:  cpu time    0.0120: real time    0.0131
     EDDAV:  cpu time    0.1270: real time    0.1273
       DOS:  cpu time    0.0010: real time    0.0021
    CHARGE:  cpu time    0.0130: real time    0.0126
    MIXING:  cpu time    0.0010: real time    0.0011
    --------------------------------------------
      LOOP:  cpu time    0.1670: real time    0.1920

 eigenvalue-minimisations  :   640
 total energy-change (2. order) :-0.1460997E-05  (-0.3708813E-06)
 number of electron      16.0000067 magnetization       0.0000000
 augmentation part        8.2807523 magnetization       0.0000000

 Broyden mixing:
  rms(total) = 0.48035E-03    rms(broyden)= 0.48030E-03
  rms(prec ) = 0.54112E-03
  weight for this iteration     100.00

 eigenvalues of (default mixing * dielectric matrix)
  average eigenvalue GAMMA=   1.3410
  3.2317  2.6739  2.1868  0.9447  0.9447  0.5921  0.6173  0.7860  0.7166  0.7166

 Free energy of the ion-electron system (eV)
  ---------------------------------------------------
  alpha Z        PSCENC =       121.63353623
  Ewald energy   TEWEN  =     -1184.01045886
  -Hartree energ DENC   =      -189.66895628
  -exchange      EXHF   =         0.00000000
  -V(xc)+E(xc)   XCENC  =         7.23980786
  PAW double counting   =      1405.57999909    -1423.09105085
  entropy T*S    EENTRO =        -0.00026787
  eigenvalues    EBANDS =        58.12422371
  atomic energy  EATOM  =      1188.62534088
  Solvation  Ediel_sol  =         0.00000000
  ---------------------------------------------------
  free energy    TOTEN  =       -15.56782607 eV

  energy without entropy =      -15.56755820  energy(sigma->0) =      -15.56773678


--------------------------------------------------------------------------------------------------------




--------------------------------------- Iteration      1(  16)  ---------------------------------------


    POTLOK:  cpu time    0.0100: real time    0.0385
    SETDIJ:  cpu time    0.0140: real time    0.0132
     EDDAV:  cpu time    0.1270: real time    0.1273
       DOS:  cpu time    0.0010: real time    0.0019
    --------------------------------------------
      LOOP:  cpu time    0.1510: real time    0.1809

 eigenvalue-minimisations  :   640
 total energy-change (2. order) :-0.3427426E-06  (-0.3225173E-07)
 number of electron      16.0000067 magnetization       0.0000000
 augmentation part        8.2807523 magnetization       0.0000000

 Free energy of the ion-electron system (eV)
  ---------------------------------------------------
  alpha Z        PSCENC =       121.63353623
  Ewald energy   TEWEN  =     -1184.01045886
  -Hartree energ DENC   =      -189.66588796
  -exchange      EXHF   =         0.00000000
  -V(xc)+E(xc)   XCENC  =         7.23976941
  PAW double counting   =      1405.62099895    -1423.13455466
  entropy T*S    EENTRO =        -0.00026496
  eigenvalues    EBANDS =        58.12369454
  atomic energy  EATOM  =      1188.62534088
  Solvation  Ediel_sol  =         0.00000000
  ---------------------------------------------------
  free energy    TOTEN  =       -15.56782642 eV

  energy without entropy =      -15.56756145  energy(sigma->0) =      -15.56773809


--------------------------------------------------------------------------------------------------------




 average (electrostatic) potential at core
  the test charge radii are     1.0103
  (the norm of the test charge is              1.0000)
       1 -43.4660       2 -43.4660
 
 
 
 E-fermi :   6.0503     XC(G=0): -13.1363     alpha+bet :-13.6397


 spin component 1

 k-point     1 :       0.0625    0.0625    0.0625
  band No.  band energies     occupation 
      1      -2.2929      1.00000
      2       1.7817      1.00000
      3       1.7817      1.00000
      4       4.1682      1.00000
      5       4.1682      1.00000
      6       4.3461      1.00000
      7       6.0860      0.35162
      8       6.0860      0.35162
      9       6.6983     -0.00002
     10       6.9927     -0.00000
     11       6.9927     -0.00000
     12      15.5107      0.00000
     13      15.5107      0.00000
     14      15.8746      0.00000
     15      22.6003      0.00000
     16      22.6003      0.00000

 k-point     2 :       0.1875    0.0625    0.0625
  band No.  band energies     occupation 
      1      -1.6668      1.00000
      2       2.0147      1.00000
      3       2.0365      1.00000
      4       4.0710      1.00000
      5       4.1200      1.00000
      6       4.5341      1.00000
      7       5.8331      1.03191
      8       6.1538      0.12047
      9       6.2105      0.00970
     10       6.5008     -0.00325
     11       6.9599     -0.00000
     12      12.8080      0.00000
     13      16.6252      0.00000
     14      16.8772      0.00000
     15      22.8515      0.00000
     16      24.2726      0.00000

 k-point     3 :       0.3125    0.0625    0.0625
  band No.  band energies     occupation 
      1      -0.5170      1.00000
      2       2.2485      1.00000
      3       2.4855      1.00000
      4       4.0512      1.00000
      5       4.0545      1.00000
      6       4.6695      1.00000
      7       5.4062      1.00003
      8       5.7298      1.02296
      9       5.8822      0.99966
     10       6.3385     -0.03018
     11       6.7220     -0.00001
     12       9.9767     -0.00000
     13      18.4367      0.00000
     14      18.6941      0.00000
     15      23.4203      0.00000
     16      24.7610      0.00000

 k-point     4 :       0.4375    0.0625    0.0625
  band No.  band energies     occupation 
      1       0.8632      1.00000
      2       2.0111      1.00000
      3       2.9453      1.00000
      4       3.9724      1.00000
      5       4.1461      1.00000
      6       4.6012      1.00000
      7       5.0256      1.00000
      8       5.4649      1.00014
      9       5.6934      1.01503
     10       6.3491     -0.02791
     11       6.4870     -0.00423
     12       8.1477     -0.00000
     13      20.5133      0.00000
     14      20.9399      0.00000
     15      22.6039      0.00000
     16      23.4543      0.00000

 k-point     5 :       0.1875    0.1875    0.0625
  band No.  band energies     occupation 
      1      -1.0782      1.00000
      2       2.1830      1.00000
      3       2.3165      1.00000
      4       3.8483      1.00000
      5       3.9912      1.00000
      6       4.6189      1.00000
      7       5.7990      1.03531
      8       5.9048      0.96913
      9       6.1428      0.15104
     10       6.2057      0.01604
     11       7.0467     -0.00000
     12      12.9630      0.00000
     13      14.5745      0.00000
     14      17.6667      0.00000
     15      23.6803      0.00000
     16      24.8036      0.00000

 k-point     6 :       0.3125    0.1875    0.0625
  band No.  band energies     occupation 
      1      -0.0288      1.00000
      2       2.3232      1.00000
      3       2.7499      1.00000
      4       3.7040      1.00000
      5       3.8904      1.00000
      6       4.3420      1.00000
      7       5.6635      1.00984
      8       5.7517      1.02796
      9       5.9902      0.74183
     10       6.3048     -0.03513
     11       6.9788     -0.00000
     12      10.4845     -0.00000
     13      15.6028      0.00000
     14      19.2376      0.00000
     15      22.0393      0.00000
     16      24.3078      0.00000

 k-point     7 :       0.4375    0.1875    0.0625
  band No.  band energies     occupation 
      1       1.1542      1.00000
      2       2.0569      1.00000
      3       3.0879      1.00000
      4       3.6660      1.00000
      5       3.9751      1.00000
      6       4.0989      1.00000
      7       5.4530      1.00010
      8       5.5739      1.00193
      9       6.1299      0.19078
     10       6.6222     -0.00020
     11       6.8489     -0.00000
     12       8.3582     -0.00000
     13      17.4223      0.00000
     14      19.5788      0.00000
     15      21.2193      0.00000
     16      23.4070      0.00000

 k-point     8 :       0.3125    0.3125    0.0625
  band No.  band energies     occupation 
      1       0.7283      1.00000
      2       2.1594      1.00000
      3       3.3632      1.00000
      4       3.4291      1.00000
      5       3.8568      1.00000
      6       3.9622      1.00000
      7       5.5483      1.00111
      8       6.0643      0.44068
      9       6.2201     -0.00150
     10       6.4827     -0.00457
     11       7.1307     -0.00000
     12      10.2465     -0.00000
     13      13.9788      0.00000
     14      19.1541      0.00000
     15      20.4548      0.00000
     16      24.7584      0.00000

 k-point     9 :       0.4375    0.3125    0.0625
  band No.  band energies     occupation 
      1       1.3836      1.00000
      2       1.8365      1.00000
      3       3.3336      1.00000
      4       3.4921      1.00000
      5       3.8285      1.00000
      6       4.5582      1.00000
      7       5.5043      1.00039
      8       6.0951      0.31562
      9       6.3430     -0.02925
     10       7.0216     -0.00000
     11       7.1505     -0.00000
     12       8.5272     -0.00000
     13      14.8363      0.00000
     14      16.7121      0.00000
     15      22.0549      0.00000
     16      23.8314      0.00000

 k-point    10 :       0.4375    0.4375    0.0625
  band No.  band energies     occupation 
      1       1.4593      1.00000
      2       1.5886      1.00000
      3       3.1406      1.00000
      4       3.1952      1.00000
      5       4.7821      1.00000
      6       5.2944      1.00000
      7       5.7902      1.03467
      8       6.1558      0.11524
      9       6.3967     -0.01717
     10       7.1753     -0.00000
     11       7.4888     -0.00000
     12       8.1084     -0.00000
     13      13.8118      0.00000
     14      14.6348      0.00000
     15      23.1155      0.00000
     16      23.9150      0.00000

 k-point    11 :       0.1875    0.1875    0.1875
  band No.  band energies     occupation 
      1      -0.5100      1.00000
      2       2.4716      1.00000
      3       2.4716      1.00000
      4       3.7251      1.00000
      5       3.7251      1.00000
      6       4.2191      1.00000
      7       5.9622      0.83581
      8       6.0398      0.54438
      9       6.0398      0.54438
     10       6.5924     -0.00043
     11       6.5924     -0.00043
     12      13.9633      0.00000
     13      13.9633      0.00000
     14      15.7903      0.00000
     15      24.6579      0.00000
     16      24.6579      0.00000

 k-point    12 :       0.3125    0.1875    0.1875
  band No.  band energies     occupation 
      1       0.4778      1.00000
      2       2.6991      1.00000
      3       2.7286      1.00000
      4       3.5365      1.00000
      5       3.5947      1.00000
      6       3.8310      1.00000
      7       5.8251      1.03375
      8       6.0902      0.33488
      9       6.1287      0.19473
     10       6.5205     -0.00220
     11       6.7915     -0.00000
     12      11.2265     -0.00000
     13      15.5486      0.00000
     14      16.6293      0.00000
     15      21.9658      0.00000
     16      22.9249      0.00000

 k-point    13 :       0.4375    0.1875    0.1875
  band No.  band energies     occupation 
      1       1.5322      1.00000
      2       2.3103      1.00000
      3       2.9833      1.00000
      4       3.3497      1.00000
      5       3.6837      1.00000
      6       4.0302      1.00000
      7       5.5995      1.00323
      8       5.8348      1.03140
      9       5.9139      0.95347
     10       6.8630     -0.00000
     11       7.3940     -0.00000
     12       8.9361     -0.00000
     13      17.4387      0.00000
     14      18.2312      0.00000
     15      19.5834      0.00000
     16      20.3814      0.00000

 k-point    14 :       0.3125    0.3125    0.1875
  band No.  band energies     occupation 
      1       1.2517      1.00000
      2       2.5401      1.00000
      3       3.2595      1.00000
      4       3.3706      1.00000
      5       3.4085      1.00000
      6       3.5435      1.00000
      7       5.7123      1.01898
      8       6.0353      0.56336
      9       6.3226     -0.03308
     10       6.8309     -0.00000
     11       7.1980     -0.00000
     12      11.3924     -0.00000
     13      14.0206      0.00000
     14      17.2452      0.00000
     15      19.4804      0.00000
     16      22.6431      0.00000

 k-point    15 :       0.4375    0.3125    0.1875
  band No.  band energies     occupation 
      1       1.8412      1.00000
      2       2.2243      1.00000
      3       3.1596      1.00000
      4       3.2448      1.00000
      5       3.6133      1.00000
      6       4.1691      1.00000
      7       5.5613      1.00148
      8       5.8171      1.03488
      9       6.3414     -0.02958
     10       6.9907     -0.00000
     11       8.1178     -0.00000
     12       9.6214     -0.00000
     13      15.0421      0.00000
     14      17.0098      0.00000
     15      18.7445      0.00000
     16      20.7660      0.00000

 k-point    16 :       0.4375    0.4375    0.1875
  band No.  band energies     occupation 
      1       1.8642      1.00000
      2       2.0307      1.00000
      3       3.0413      1.00000
      4       3.0716      1.00000
      5       4.4837      1.00000
      6       4.6111      1.00000
      7       5.5509      1.00117
      8       5.5694      1.00176
      9       6.5744     -0.00066
     10       7.1162     -0.00000
     11       8.9024     -0.00000
     12       9.6740     -0.00000
     13      13.8807      0.00000
     14      14.8225      0.00000
     15      20.0835      0.00000
     16      21.5048      0.00000

 k-point    17 :       0.3125    0.3125    0.3125
  band No.  band energies     occupation 
      1       2.0352      1.00000
      2       2.9364      1.00000
      3       3.0829      1.00000
      4       3.0829      1.00000
      5       3.3039      1.00000
      6       3.3039      1.00000
      7       5.7469      1.02688
      8       5.7469      1.02688
      9       6.7082     -0.00002
     10       6.7082     -0.00002
     11       8.1312     -0.00000
     12      13.0875      0.00000
     13      13.0875      0.00000
     14      15.6783      0.00000
     15      19.9073      0.00000
     16      19.9073      0.00000

 k-point    18 :       0.4375    0.3125    0.3125
  band No.  band energies     occupation 
      1       2.3351      1.00000
      2       2.7617      1.00000
      3       2.9588      1.00000
      4       3.2121      1.00000
      5       3.2451      1.00000
      6       3.9159      1.00000
      7       5.5392      1.00090
      8       5.5819      1.00228
      9       6.6808     -0.00004
     10       7.0097     -0.00000
     11       9.2750     -0.00000
     12      10.9470     -0.00000
     13      15.1024      0.00000
     14      16.4601      0.00000
     15      17.3816      0.00000
     16      18.2289      0.00000

 k-point    19 :       0.4375    0.4375    0.3125
  band No.  band energies     occupation 
      1       2.3822      1.00000
      2       2.7882      1.00000
      3       2.9097      1.00000
      4       2.9674      1.00000
      5       3.9191      1.00000
      6       3.9623      1.00000
      7       5.3698      1.00001
      8       5.4868      1.00025
      9       6.8752     -0.00000
     10       7.1269     -0.00000
     11      10.5201     -0.00000
     12      11.6135      0.00000
     13      14.0735      0.00000
     14      15.3541      0.00000
     15      17.2741      0.00000
     16      18.8110      0.00000

 k-point    20 :       0.4375    0.4375    0.4375
  band No.  band energies     occupation 
      1       2.6829      1.00000
      2       2.8252      1.00000
      3       2.8252      1.00000
      4       3.5891      1.00000
      5       3.6173      1.00000
      6       3.6173      1.00000
      7       5.3293      1.00000
      8       5.3293      1.00000
      9       7.1396     -0.00000
     10       7.1396     -0.00000
     11      12.1897      0.00000
     12      13.8075      0.00000
     13      13.8075      0.00000
     14      15.7898      0.00000
     15      16.2228      0.00000
     16      16.2228      0.00000

 spin component 2

 k-point     1 :       0.0625    0.0625    0.0625
  band No.  band energies     occupation 
      1      -2.2929      1.00000
      2       1.7817      1.00000
      3       1.7817      1.00000
      4       4.1682      1.00000
      5       4.1682      1.00000
      6       4.3461      1.00000
      7       6.0860      0.35162
      8       6.0860      0.35162
      9       6.6983     -0.00002
     10       6.9927     -0.00000
     11       6.9927     -0.00000
     12      15.5107      0.00000
     13      15.5107      0.00000
     14      15.8746      0.00000
     15      22.6003      0.00000
     16      22.6003      0.00000

 k-point     2 :       0.1875    0.0625    0.0625
  band No.  band energies     occupation 
      1      -1.6668      1.00000
      2       2.0147      1.00000
      3       2.0365      1.00000
      4       4.0710      1.00000
      5       4.1200      1.00000
      6       4.5341      1.00000
      7       5.8331      1.03191
      8       6.1538      0.12047
      9       6.2105      0.00970
     10       6.5008     -0.00325
     11       6.9599     -0.00000
     12      12.8080      0.00000
     13      16.6252      0.00000
     14      16.8772      0.00000
     15      22.8515      0.00000
     16      24.2726      0.00000

 k-point     3 :       0.3125    0.0625    0.0625
  band No.  band energies     occupation 
      1      -0.5170      1.00000
      2       2.2485      1.00000
      3       2.4855      1.00000
      4       4.0512      1.00000
      5       4.0545      1.00000
      6       4.6695      1.00000
      7       5.4062      1.00003
      8       5.7298      1.02296
      9       5.8822      0.99966
     10       6.3385     -0.03018
     11       6.7220     -0.00001
     12       9.9767     -0.00000
     13      18.4367      0.00000
     14      18.6941      0.00000
     15      23.4203      0.00000
     16      24.7610      0.00000

 k-point     4 :       0.4375    0.0625    0.0625
  band No.  band energies     occupation 
      1       0.8632      1.00000
      2       2.0111      1.00000
      3       2.9453      1.00000
      4       3.9724      1.00000
      5       4.1461      1.00000
      6       4.6012      1.00000
      7       5.0256      1.00000
      8       5.4649      1.00014
      9       5.6934      1.01503
     10       6.3491     -0.02791
     11       6.4870     -0.00423
     12       8.1477     -0.00000
     13      20.5133      0.00000
     14      20.9399      0.00000
     15      22.6039      0.00000
     16      23.4543      0.00000

 k-point     5 :       0.1875    0.1875    0.0625
  band No.  band energies     occupation 
      1      -1.0782      1.00000
      2       2.1830      1.00000
      3       2.3165      1.00000
      4       3.8483      1.00000
      5       3.9912      1.00000
      6       4.6189      1.00000
      7       5.7990      1.03531
      8       5.9048      0.96913
      9       6.1428      0.15104
     10       6.2057      0.01604
     11       7.0467     -0.00000
     12      12.9630      0.00000
     13      14.5745      0.00000
     14      17.6667      0.00000
     15      23.6803      0.00000
     16      24.8036      0.00000

 k-point     6 :       0.3125    0.1875    0.0625
  band No.  band energies     occupation 
      1      -0.0288      1.00000
      2       2.3232      1.00000
      3       2.7499      1.00000
      4       3.7040      1.00000
      5       3.8904      1.00000
      6       4.3420      1.00000
      7       5.6635      1.00984
      8       5.7517      1.02796
      9       5.9902      0.74183
     10       6.3048     -0.03513
     11       6.9788     -0.00000
     12      10.4845     -0.00000
     13      15.6028      0.00000
     14      19.2376      0.00000
     15      22.0393      0.00000
     16      24.3078      0.00000

 k-point     7 :       0.4375    0.1875    0.0625
  band No.  band energies     occupation 
      1       1.1542      1.00000
      2       2.0569      1.00000
      3       3.0879      1.00000
      4       3.6660      1.00000
      5       3.9751      1.00000
      6       4.0989      1.00000
      7       5.4530      1.00010
      8       5.5739      1.00193
      9       6.1299      0.19078
     10       6.6222     -0.00020
     11       6.8489     -0.00000
     12       8.3582     -0.00000
     13      17.4223      0.00000
     14      19.5788      0.00000
     15      21.2193      0.00000
     16      23.4070      0.00000

 k-point     8 :       0.3125    0.3125    0.0625
  band No.  band energies     occupation 
      1       0.7283      1.00000
      2       2.1594      1.00000
      3       3.3632      1.00000
      4       3.4291      1.00000
      5       3.8568      1.00000
      6       3.9622      1.00000
      7       5.5483      1.00111
      8       6.0643      0.44068
      9       6.2201     -0.00150
     10       6.4827     -0.00457
     11       7.1307     -0.00000
     12      10.2465     -0.00000
     13      13.9788      0.00000
     14      19.1541      0.00000
     15      20.4548      0.00000
     16      24.7584      0.00000

 k-point     9 :       0.4375    0.3125    0.0625
  band No.  band energies     occupation 
      1       1.3836      1.00000
      2       1.8365      1.00000
      3       3.3336      1.00000
      4       3.4921      1.00000
      5       3.8285      1.00000
      6       4.5582      1.00000
      7       5.5043      1.00039
      8       6.0951      0.31562
      9       6.3430     -0.02925
     10       7.0216     -0.00000
     11       7.1505     -0.00000
     12       8.5272     -0.00000
     13      14.8363      0.00000
     14      16.7121      0.00000
     15      22.0549      0.00000
     16      23.8314      0.00000

 k-point    10 :       0.4375    0.4375    0.0625
  band No.  band energies     occupation 
      1       1.4593      1.00000
      2       1.5886      1.00000
      3       3.1406      1.00000
      4       3.1952      1.00000
      5       4.7821      1.00000
      6       5.2944      1.00000
      7       5.7902      1.03467
      8       6.1558      0.11524
      9       6.3967     -0.01717
     10       7.1753     -0.00000
     11       7.4888     -0.00000
     12       8.1084     -0.00000
     13      13.8118      0.00000
     14      14.6348      0.00000
     15      23.1155      0.00000
     16      23.9150      0.00000

 k-point    11 :       0.1875    0.1875    0.1875
  band No.  band energies     occupation 
      1      -0.5100      1.00000
      2       2.4716      1.00000
      3       2.4716      1.00000
      4       3.7251      1.00000
      5       3.7251      1.00000
      6       4.2191      1.00000
      7       5.9622      0.83581
      8       6.0398      0.54438
      9       6.0398      0.54438
     10       6.5924     -0.00043
     11       6.5924     -0.00043
     12      13.9633      0.00000
     13      13.9633      0.00000
     14      15.7903      0.00000
     15      24.6579      0.00000
     16      24.6579      0.00000

 k-point    12 :       0.3125    0.1875    0.1875
  band No.  band energies     occupation 
      1       0.4778      1.00000
      2       2.6991      1.00000
      3       2.7286      1.00000
      4       3.5365      1.00000
      5       3.5947      1.00000
      6       3.8310      1.00000
      7       5.8251      1.03375
      8       6.0902      0.33488
      9       6.1287      0.19473
     10       6.5205     -0.00220
     11       6.7915     -0.00000
     12      11.2265     -0.00000
     13      15.5486      0.00000
     14      16.6293      0.00000
     15      21.9658      0.00000
     16      22.9249      0.00000

 k-point    13 :       0.4375    0.1875    0.1875
  band No.  band energies     occupation 
      1       1.5322      1.00000
      2       2.3103      1.00000
      3       2.9833      1.00000
      4       3.3497      1.00000
[...]
      8       6.4938      0.26841
      9       6.5188      0.18248
     10       6.9346     -0.00121
     11       7.1981     -0.00000
     12      11.8827     -0.00000
     13      16.3351      0.00000
     14      17.5071      0.00000
     15      22.8588      0.00000
     16      23.8869      0.00000

 k-point    13 :       0.4375    0.1875    0.1875
  band No.  band energies     occupation 
      1       1.8157      1.00000
      2       2.5959      1.00000
      3       3.2951      1.00000
      4       3.6781      1.00000
      5       4.0381      1.00000
      6       4.3493      1.00000
      7       5.9518      1.00162
      8       6.2525      1.01473
      9       6.3397      0.86146
     10       7.2558     -0.00000
     11       7.8698     -0.00000
     12       9.4864     -0.00000
     13      18.2707      0.00000
     14      19.1446      0.00000
     15      20.4467      0.00000
     16      21.3310      0.00000

 k-point    14 :       0.3125    0.3125    0.1875
  band No.  band energies     occupation 
      1       1.5364      1.00000
      2       2.8138      1.00000
      3       3.5916      1.00000
      4       3.6803      1.00000
      5       3.7358      1.00000
      6       3.8741      1.00000
      7       6.1125      1.02212
      8       6.4627      0.39027
      9       6.6781     -0.03541
     10       7.2250     -0.00000
     11       7.6745     -0.00000
     12      12.0394      0.00000
     13      14.8090      0.00000
     14      18.1155      0.00000
     15      20.3666      0.00000
     16      23.5266      0.00000

 k-point    15 :       0.4375    0.3125    0.1875
  band No.  band energies     occupation 
      1       2.1111      1.00000
      2       2.4813      1.00000
      3       3.4798      1.00000
      4       3.5445      1.00000
      5       3.9953      1.00000
      6       4.4781      1.00000
      7       5.9880      1.00338
      8       6.2868      0.97580
      9       6.6921     -0.03506
     10       7.3641     -0.00000
     11       8.6457     -0.00000
     12      10.2096     -0.00000
     13      15.8573      0.00000
     14      17.8608      0.00000
     15      19.6334      0.00000
     16      21.6712      0.00000

 k-point    16 :       0.4375    0.4375    0.1875
  band No.  band energies     occupation 
      1       2.1253      1.00000
      2       2.2562      1.00000
      3       3.3406      1.00000
      4       3.3753      1.00000
      5       4.8679      1.00000
      6       4.9652      1.00000
      7       6.0009      1.00431
      8       6.0584      1.01119
      9       6.9327     -0.00126
     10       7.4600     -0.00000
     11       9.4677     -0.00000
     12      10.2572     -0.00000
     13      14.6917      0.00000
     14      15.6453      0.00000
     15      20.9735      0.00000
     16      22.3559      0.00000

 k-point    17 :       0.3125    0.3125    0.3125
  band No.  band energies     occupation 
      1       2.3546      1.00000
      2       3.1946      1.00000
      3       3.4143      1.00000
      4       3.4143      1.00000
      5       3.5957      1.00000
      6       3.5957      1.00000
      7       6.1875      1.03540
      8       6.1875      1.03540
      9       7.0655     -0.00004
     10       7.0655     -0.00004
     11       8.6710     -0.00000
     12      13.7939      0.00000
     13      13.7939      0.00000
     14      16.5634      0.00000
     15      20.7604      0.00000
     16      20.7604      0.00000

 k-point    18 :       0.4375    0.3125    0.3125
  band No.  band energies     occupation 
      1       2.6461      1.00000
      2       2.9960      1.00000
      3       3.2927      1.00000
      4       3.5190      1.00000
      5       3.5819      1.00000
      6       4.1824      1.00000
      7       6.0255      1.00665
      8       6.0412      1.00862
      9       7.0271     -0.00012
     10       7.3610     -0.00000
     11       9.8677     -0.00000
     12      11.5938     -0.00000
     13      15.8643      0.00000
     14      17.3515      0.00000
     15      18.1929      0.00000
     16      19.1297      0.00000

 k-point    19 :       0.4375    0.4375    0.3125
  band No.  band energies     occupation 
      1       2.6918      1.00000
      2       3.0253      1.00000
      3       3.2266      1.00000
      4       3.2885      1.00000
      5       4.1934      1.00000
      6       4.2540      1.00000
      7       5.8909      1.00039
      8       5.9705      1.00239
      9       7.2217     -0.00000
     10       7.4632     -0.00000
     11      11.1571     -0.00000
     12      12.2695      0.00000
     13      14.8589      0.00000
     14      16.1627      0.00000
     15      18.1394      0.00000
     16      19.6370      0.00000

 k-point    20 :       0.4375    0.4375    0.4375
  band No.  band energies     occupation 
      1       3.0104      1.00000
      2       3.1700      1.00000
      3       3.1700      1.00000
      4       3.8220      1.00000
      5       3.8472      1.00000
      6       3.8472      1.00000
      7       5.8587      1.00017
      8       5.8587      1.00017
      9       7.4746     -0.00000
     10       7.4746     -0.00000
     11      12.8826      0.00000
     12      14.5307      0.00000
     13      14.5307      0.00000
     14      16.6609      0.00000
     15      17.0025      0.00000
     16      17.0025      0.00000


--------------------------------------------------------------------------------------------------------


 soft charge-density along one line, spin component           1
         0         1         2         3         4         5         6         7         8         9
 total charge-density along one line
 
 soft charge-density along one line, spin component           2
         0         1         2         3         4         5         6         7         8         9
 total charge-density along one line
 
 pseudopotential strength for first ion, spin component:           1
 -5.093  -0.000  -0.000  -0.000  -0.000  -5.638  -0.000  -0.000
 -0.000  -5.093  -0.000   0.000   0.000  -0.000  -5.638  -0.000
 -0.000  -0.000  -5.278  -0.000  -0.000  -0.000  -0.000  -5.818
 -0.000   0.000  -0.000  -5.093  -0.000  -0.000   0.000  -0.000
 -0.000   0.000  -0.000  -0.000  -5.278  -0.000   0.000  -0.000
 -5.638  -0.000  -0.000  -0.000  -0.000  -6.140  -0.000  -0.000
 -0.000  -5.638  -0.000   0.000   0.000  -0.000  -6.140  -0.000
 -0.000  -0.000  -5.818  -0.000  -0.000  -0.000  -0.000  -6.316
 -0.000   0.000  -0.000  -5.638  -0.000  -0.000   0.000  -0.000
 -0.000   0.000  -0.000  -0.000  -5.818  -0.000   0.000  -0.000
 -0.000   0.000  -0.000   0.000  -0.000  -0.000   0.000  -0.000
 -0.000   0.000  -0.000   0.000  -0.000  -0.000   0.000  -0.000
  0.000  -0.000   0.000   0.000   0.000  -0.000  -0.000   0.000
  0.000  -0.000  -0.000   0.000  -0.000   0.000  -0.000  -0.000
 -0.000   0.000  -0.000  -0.000   0.000  -0.000   0.000  -0.000
  0.000  -0.000   0.000   0.000   0.000   0.000  -0.000   0.000
  0.000  -0.000  -0.000   0.000  -0.000   0.000  -0.000  -0.000
 -0.000   0.000  -0.000  -0.000   0.000  -0.000   0.000  -0.000
 pseudopotential strength for first ion, spin component:           2
 -4.352  -0.000  -0.000  -0.000  -0.000  -4.921  -0.000  -0.000
 -0.000  -4.352  -0.000   0.000   0.000  -0.000  -4.921  -0.000
 -0.000  -0.000  -4.147  -0.000  -0.000  -0.000  -0.000  -4.721
 -0.000   0.000  -0.000  -4.352  -0.000  -0.000   0.000  -0.000
 -0.000   0.000  -0.000  -0.000  -4.147  -0.000   0.000  -0.000
 -4.921  -0.000  -0.000  -0.000  -0.000  -5.447  -0.000  -0.000
 -0.000  -4.921  -0.000   0.000   0.000  -0.000  -5.447  -0.000
 -0.000  -0.000  -4.721  -0.000  -0.000  -0.000  -0.000  -5.251
 -0.000   0.000  -0.000  -4.921  -0.000  -0.000   0.000  -0.000
 -0.000   0.000  -0.000  -0.000  -4.721  -0.000   0.000  -0.000
 -0.000   0.000  -0.000   0.000  -0.000  -0.000   0.000  -0.000
 -0.000   0.000  -0.000   0.000  -0.000  -0.000   0.000  -0.000
  0.000  -0.000   0.000   0.000   0.000  -0.000  -0.000   0.000
  0.000  -0.000  -0.000   0.000  -0.000   0.000  -0.000  -0.000
 -0.000   0.000  -0.000  -0.000   0.000  -0.000   0.000   0.000
  0.000  -0.000   0.000   0.000   0.000   0.000  -0.000   0.000
  0.000  -0.000  -0.000  -0.000  -0.000   0.000  -0.000  -0.000
 -0.000   0.000  -0.000  -0.000   0.000  -0.000   0.000  -0.000
 total augmentation occupancy for first ion, spin component:           1
  1.606   0.000  -0.000   0.000  -0.000  -0.767  -0.000   0.000  -0.000   0.000  -0.000   0.000  -0.000   0.000   0.000  -0.000
  0.000   1.606   0.000   0.000  -0.000  -0.000  -0.767   0.000  -0.000   0.000   0.000  -0.000   0.000  -0.000   0.000   0.000
 -0.000  -0.000   3.193  -0.000   0.000   0.000   0.000  -2.062   0.000   0.000  -0.000  -0.000  -0.000  -0.000   0.000   0.000
  0.000   0.000   0.000   1.606   0.000  -0.000  -0.000   0.000  -0.767  -0.000   0.000   0.000   0.000   0.000   0.000  -0.000
 -0.000  -0.000   0.000   0.000   3.193   0.000   0.000  -0.000  -0.000  -2.062  -0.000   0.000   0.000   0.000  -0.000   0.000
 -0.767  -0.000   0.000  -0.000   0.000   1.334   0.000  -0.000   0.000  -0.000   0.000  -0.000   0.000   0.000   0.000   0.000
 -0.000  -0.767   0.000  -0.000   0.000   0.000   1.334   0.000   0.000  -0.000  -0.000   0.000   0.000  -0.000  -0.000   0.000
  0.000   0.000  -2.062   0.000  -0.000  -0.000   0.000   2.188   0.000  -0.000   0.000   0.000  -0.000   0.000  -0.000  -0.000
 -0.000  -0.000   0.000  -0.767  -0.000   0.000   0.000   0.000   1.334   0.000   0.000   0.000   0.000   0.000  -0.000   0.000
  0.000   0.000  -0.000  -0.000  -2.062  -0.000  -0.000  -0.000   0.000   2.188   0.000   0.000   0.000  -0.000   0.000   0.000
 -0.000  -0.000  -0.000   0.000  -0.000   0.000  -0.000  -0.000   0.000  -0.000   2.480  -0.282  -0.000   0.000   0.000   0.000
  0.000  -0.000   0.000   0.000   0.000  -0.000   0.000  -0.000   0.000   0.000  -0.282   0.037  -0.000  -0.000   0.000   0.000
 -0.000   0.000  -0.000  -0.000   0.000   0.000   0.000   0.000  -0.000   0.000   0.000   0.000   0.309   0.000   0.000  -0.026
  0.000  -0.000   0.000   0.000   0.000  -0.000  -0.000   0.000   0.000   0.000  -0.000  -0.000   0.000   0.309   0.000  -0.000
  0.000   0.000   0.000   0.000  -0.000   0.000   0.000   0.000  -0.000   0.000   0.000  -0.000   0.000   0.000   0.309  -0.000
  0.000  -0.000   0.000   0.000  -0.000   0.000   0.000   0.000   0.000   0.000   0.000  -0.000  -0.026  -0.000  -0.000   0.002
  0.000  -0.000   0.000  -0.000   0.000   0.000   0.000   0.000   0.000   0.000   0.000   0.000  -0.000  -0.026  -0.000   0.000
 -0.000   0.000   0.000  -0.000  -0.000   0.000   0.000   0.000   0.000   0.000   0.000   0.000  -0.000  -0.000  -0.026   0.000
 total augmentation occupancy for first ion, spin component:           2
  0.251   0.000  -0.000   0.000  -0.000   0.107   0.000   0.000   0.000   0.000  -0.000  -0.000   0.000   0.000   0.000   0.000
  0.000   0.251  -0.000   0.000  -0.000   0.000   0.107   0.000   0.000   0.000   0.000  -0.000   0.000   0.000  -0.000  -0.000
 -0.000  -0.000   2.126  -0.000   0.000   0.000   0.000  -1.066   0.000   0.000  -0.000  -0.000   0.000   0.000   0.000   0.000
  0.000   0.000  -0.000   0.251   0.000   0.000   0.000   0.000   0.107  -0.000   0.000  -0.000   0.000  -0.000   0.000   0.000
 -0.000  -0.000  -0.000   0.000   2.126   0.000   0.000   0.000  -0.000  -1.066  -0.000   0.000   0.000   0.000   0.000   0.000
  0.107   0.000   0.000   0.000   0.000  -0.302  -0.000  -0.000  -0.000  -0.000   0.000   0.000   0.000   0.000   0.000  -0.000
  0.000   0.107   0.000   0.000   0.000  -0.000  -0.302  -0.000  -0.000  -0.000  -0.000   0.000   0.000  -0.000   0.000  -0.000
  0.000   0.000  -1.066   0.000   0.000  -0.000  -0.000   0.492  -0.000   0.000   0.000   0.000   0.000  -0.000   0.000   0.000
  0.000   0.000   0.000   0.107  -0.000  -0.000  -0.000  -0.000  -0.302   0.000   0.000   0.000   0.000  -0.000   0.000   0.000
  0.000   0.000   0.000  -0.000  -1.066  -0.000  -0.000   0.000   0.000   0.492   0.000  -0.000  -0.000   0.000  -0.000   0.000
 -0.000   0.000  -0.000   0.000   0.000   0.000  -0.000   0.000   0.000   0.000  -0.120   0.058   0.000   0.000  -0.000   0.000
 -0.000  -0.000  -0.000  -0.000   0.000  -0.000   0.000   0.000   0.000   0.000   0.058  -0.010   0.000   0.000  -0.000  -0.000
  0.000   0.000   0.000  -0.000   0.000   0.000   0.000   0.000   0.000   0.000   0.000   0.000   0.004   0.000   0.000   0.003
  0.000   0.000  -0.000  -0.000   0.000   0.000  -0.000   0.000  -0.000   0.000   0.000   0.000   0.000   0.004   0.000   0.000
  0.000   0.000   0.000   0.000   0.000   0.000   0.000   0.000   0.000  -0.000   0.000   0.000   0.000   0.000   0.004   0.000
  0.000   0.000  -0.000   0.000  -0.000  -0.000  -0.000  -0.000  -0.000  -0.000  -0.000   0.000   0.003   0.000   0.000  -0.001
  0.000   0.000   0.000   0.000   0.000  -0.000  -0.000  -0.000  -0.000   0.000  -0.000   0.000   0.000   0.003   0.000  -0.000
 -0.000   0.000   0.000   0.000   0.000  -0.000   0.000   0.000   0.000   0.000  -0.000  -0.000   0.000   0.000   0.003  -0.000


------------------------ aborting loop because EDIFF is reached ----------------------------------------


 


 total charge     
 
# of ion       s       p       d       tot
------------------------------------------
    1        0.504   0.574   6.280   7.358
    2        0.504   0.574   6.280   7.358
--------------------------------------------------
tot          1.009   1.147  12.559  14.715
 


 magnetization (x)
 
# of ion       s       p       d       tot
------------------------------------------
    1        0.015   0.023   1.272   1.311
    2       -0.015  -0.023  -1.272  -1.311
--------------------------------------------------
tot          0.000   0.000   0.000   0.000
 
    CHARGE:  cpu time    0.0100: real time    0.0106
    FORLOC:  cpu time    0.0000: real time    0.0002
    FORNL :  cpu time    0.0230: real time    0.0242
    STRESS:  cpu time    0.1260: real time    0.1260
    FORCOR:  cpu time    0.0080: real time    0.0081
    FORHAR:  cpu time    0.0010: real time    0.0011
    MIXING:  cpu time    0.0000: real time    0.0004
    OFIELD:  cpu time    0.0000: real time    0.0002

  FORCE on cell =-STRESS in cart. coord.  units (eV):
  Direction    XX          YY          ZZ          XY          YZ          ZX
  --------------------------------------------------------------------------------------
  Alpha Z   126.94977   126.94977   126.94977
  Ewald    -400.33827  -400.33827  -400.33827    -0.00000    -0.00000    -0.00000
  Hartree    61.06600    61.06600    61.06600    -0.00000    -0.00000    -0.00000
  E(xc)     -78.49951   -78.49951   -78.49951    -0.00000    -0.00000    -0.00000
  Local     119.87025   119.87025   119.87025     0.00000    -0.00000    -0.00000
  n-local   -54.83575   -52.23164   -50.75430     2.56446     0.16879     0.74961
  augment    76.32780    76.32780    76.32780     0.00000    -0.00000     0.00000
  Kinetic   147.11106   148.59768   145.98965     4.08333    -1.36907    -0.06134
  Fock        0.00000     0.00000     0.00000     0.00000     0.00000     0.00000
  -------------------------------------------------------------------------------------
  Total       0.00161     0.00161     0.00161     0.00000     0.00000    -0.00000
  in kB       0.11816     0.11816     0.11816     0.00000     0.00000    -0.00000
  external pressure =        0.12 kB  Pullay stress =        0.00 kB


 VOLUME and BASIS-vectors are now :
 -----------------------------------------------------------------------------
  energy-cutoff  :      500.00
  volume of cell :       21.78
      direct lattice vectors                 reciprocal lattice vectors
     2.792528201 -0.000000000  0.000000000     0.358098443 -0.000000000  0.000000000
     0.000000000  2.792528201  0.000000000     0.000000000  0.358098443 -0.000000000
    -0.000000000  0.000000000  2.792528201    -0.000000000 -0.000000000  0.358098443

  length of vectors
     2.792528201  2.792528201  2.792528201     0.358098443  0.358098443  0.358098443


 FORCES acting on ions
    electron-ion (+dipol)            ewald-force                    non-local-force                 convergence-correction
 -----------------------------------------------------------------------------------------------
   -.266E-15 -.937E-15 0.560E-14   0.984E-15 0.283E-15 -.214E-14   -.398E-26 0.321E-26 0.323E-26   -.431E-14 -.364E-14 0.187E-14
   0.588E-13 0.736E-12 0.147E-12   0.318E-15 -.223E-15 0.973E-15   0.103E-25 -.786E-28 -.129E-25   0.907E-14 0.323E-15 0.290E-15
 -----------------------------------------------------------------------------------------------
   0.585E-13 0.735E-12 0.153E-12   0.130E-14 0.600E-16 -.116E-14   0.637E-26 0.313E-26 -.969E-26   0.476E-14 -.331E-14 0.216E-14
 
 
 POSITION                                       TOTAL-FORCE (eV/Angst)
 -----------------------------------------------------------------------------------
      0.00000      0.00000      0.00000         0.000000     -0.000000     -0.000000
      1.39626      1.39626      1.39626        -0.000000      0.000000      0.000000
 -----------------------------------------------------------------------------------
    total drift:                                0.000000      0.000000      0.000000


--------------------------------------------------------------------------------------------------------



  FREE ENERGIE OF THE ION-ELECTRON SYSTEM (eV)
  ---------------------------------------------------
  free  energy   TOTEN  =       -15.58814939 eV

  energy  without entropy=      -15.58948555  energy(sigma->0) =      -15.58859477
 
 d Force = 0.0000000E+00[ 0.000E+00, 0.000E+00]  d Energy = 0.7295287E-06-0.730E-06
 d Force = 0.0000000E+00[ 0.000E+00, 0.000E+00]  d Ewald  =-0.6458174E-01 0.646E-01


--------------------------------------------------------------------------------------------------------


    POTLOK:  cpu time    0.0250: real time    0.0347


--------------------------------------------------------------------------------------------------------




--------------------------------------------------------------------------------------------------------


  
 reached required accuracy - stopping structural energy minimisation
 writing wavefunctions
     LOOP+:  cpu time    1.0888: real time    1.4619
    4ORBIT:  cpu time    0.0000: real time    0.0000
 


 total charge     
 
# of ion       s       p       d       tot
------------------------------------------
    1        0.504   0.574   6.280   7.358
    2        0.504   0.574   6.280   7.358
--------------------------------------------------
tot          1.009   1.147  12.559  14.715
 


 magnetization (x)
 
# of ion       s       p       d       tot
------------------------------------------
    1        0.015   0.023   1.272   1.311
    2       -0.015  -0.023  -1.272  -1.311
--------------------------------------------------
tot          0.000   0.000   0.000   0.000
 

 total amount of memory used by VASP MPI-rank0    32777. kBytes
=======================================================================

   base      :      30000. kBytes
   nonl-proj :       1723. kBytes
   fftplans  :         93. kBytes
   grid      :        490. kBytes
   one-center:         62. kBytes
   wavefun   :        409. kBytes
 
  
  
 General timing and accounting informations for this job:
 ========================================================
  
                  Total CPU time used (sec):       18.541
                            User time (sec):       17.409
                          System time (sec):        1.132
                         Elapsed time (sec):       24.353
  
                   Maximum memory used (kb):       43276.
                   Average memory used (kb):           0.
  
                          Minor page faults:         7827
                          Major page faults:            1
                 Voluntary context switches:        85057
