 running on   16 total cores
 distrk:  each k-point on   16 cores,    1 groups
 distr:  one band on    1 cores,   16 groups
 using from now: INCAR     
 vasp.5.4.4.18Apr17-6-g9f103f2a35 (build Jan 03 2020 21:31:15) complex          
  
 POSCAR found type information on POSCAR  Fe
 POSCAR found :  1 types and       2 ions
 scaLAPACK will be used

 ----------------------------------------------------------------------------- 
|                                                                             |
|           W    W    AA    RRRRR   N    N  II  N    N   GGGG   !!!           |
|           W    W   A  A   R    R  NN   N  II  NN   N  G    G  !!!           |
|           W    W  A    A  R    R  N N  N  II  N N  N  G       !!!           |
|           W WW W  AAAAAA  RRRRR   N  N N  II  N  N N  G  GGG   !            |
|           WW  WW  A    A  R   R   N   NN  II  N   NN  G    G                |
|           W    W  A    A  R    R  N    N  II  N    N   GGGG   !!!           |
|                                                                             |
|      For optimal performance we recommend to set                            |
|        NCORE= 4 - approx SQRT( number of cores)                             |
|      NCORE specifies how many cores store one orbital (NPAR=cpu/NCORE).     |
|      This setting can  greatly improve the performance of VASP for DFT.     |
|      The default,   NCORE=1            might be grossly inefficient         |
|      on modern multi-core architectures or massively parallel machines.     |
|      Do your own testing !!!!                                               |
|      Unfortunately you need to use the default for GW and RPA calculations. |
|      (for HF NCORE is supported but not extensively tested yet)             |
|                                                                             |
 ----------------------------------------------------------------------------- 

 LDA part: xc-table for Pade appr. of Perdew
 POSCAR, INCAR and KPOINTS ok, starting setup
 FFT: planning ...
 WAVECAR not read
 entering main loop
       N       E                     dE             d eps       ncg     rms          rms(c)
DAV:   1     0.276330372535E+02    0.27633E+02   -0.82994E+03  1296   0.127E+03
DAV:   2    -0.176290339318E+02   -0.45262E+02   -0.45016E+02  1312   0.133E+02
DAV:   3    -0.178936565213E+02   -0.26462E+00   -0.26443E+00  1936   0.146E+01
DAV:   4    -0.178944978161E+02   -0.84129E-03   -0.84128E-03  1456   0.545E-01
DAV:   5    -0.178945034826E+02   -0.56665E-05   -0.56672E-05  1984   0.280E-02    0.176E+01
DAV:   6    -0.156903928219E+02    0.22041E+01   -0.26424E+01  1376   0.634E+01    0.684E+00
DAV:   7    -0.155705912675E+02    0.11980E+00   -0.16857E+00  1504   0.149E+01    0.429E+00
DAV:   8    -0.155654363943E+02    0.51549E-02   -0.67885E-02  1728   0.263E+00    0.127E+00
DAV:   9    -0.155652385542E+02    0.19784E-03   -0.11044E-01  1856   0.299E+00    0.603E-01
DAV:  10    -0.155677806867E+02   -0.25421E-02   -0.78949E-02  1440   0.244E+00    0.307E-01
DAV:  11    -0.155678555240E+02   -0.74837E-04   -0.10568E-03  1344   0.384E-01    0.884E-02
DAV:  12    -0.155678320774E+02    0.23447E-04   -0.96036E-05  1632   0.679E-02    0.219E-02
DAV:  13    -0.155678258320E+02    0.62454E-05   -0.27025E-05  1632   0.588E-02    0.142E-02
DAV:  14    -0.155678246113E+02    0.12207E-05   -0.36770E-05  1312   0.509E-02    0.957E-03
DAV:  15    -0.155678260723E+02   -0.14610E-05   -0.37088E-06   640   0.180E-02    0.480E-03
DAV:  16    -0.155678264151E+02   -0.34274E-06   -0.32252E-07   640   0.554E-03
   1 F= -.15567826E+02 E0= -.15567738E+02  d E =-.155678E+02  mag=    -0.0000
 curvature:   0.00 expect dE= 0.000E+00 dE for cont linesearch  0.000E+00
 trial: gam= 0.00000 g(F)=  0.746E-62 g(S)=  0.615E-01 ort = 0.000E+00 (trialstep = 0.100E+01)
 search vector abs. value=  0.615E-01
 bond charge predicted
       N       E                     dE             d eps       ncg     rms          rms(c)
DAV:   1    -0.162660292052E+02   -0.69820E+00   -0.17511E+01  1280   0.556E+01    0.735E+00
DAV:   2    -0.156409303518E+02    0.62510E+00   -0.67788E+00  1312   0.316E+01    0.302E+00
DAV:   3    -0.155896962888E+02    0.51234E-01   -0.34979E-01  1408   0.740E+00    0.153E+00
DAV:   4    -0.155840893345E+02    0.56070E-02   -0.55430E-03  1632   0.819E-01    0.568E-01
DAV:   5    -0.155804770652E+02    0.36123E-02   -0.23938E-02  1760   0.143E+00    0.212E-01
DAV:   6    -0.155807225253E+02   -0.24546E-03   -0.15764E-03  1536   0.321E-01    0.911E-02
DAV:   7    -0.155807391995E+02   -0.16674E-04   -0.17840E-04  1792   0.166E-01    0.418E-02
DAV:   8    -0.155807400159E+02   -0.81641E-06   -0.58228E-05  1600   0.720E-02    0.707E-03
DAV:   9    -0.155807403540E+02   -0.33810E-06   -0.47324E-06   640   0.208E-02
   2 F= -.15580740E+02 E0= -.15581049E+02  d E =-.129139E-01  mag=    -0.0000
 trial-energy change:   -0.012914  1 .order   -0.010510   -0.061498    0.040479
 step:   0.6358(harm=  0.6031)  dis= 0.00000  next Energy=   -15.587995 (dE=-0.202E-01)
 bond charge predicted
       N       E                     dE             d eps       ncg     rms          rms(c)
DAV:   1    -0.156819692295E+02   -0.10123E+00   -0.24271E+00  1280   0.214E+01    0.268E+00
DAV:   2    -0.156006094669E+02    0.81360E-01   -0.11117E+00  1312   0.120E+01    0.121E+00
DAV:   3    -0.155892515810E+02    0.11358E-01   -0.75266E-02  1376   0.342E+00    0.553E-01
DAV:   4    -0.155885437570E+02    0.70782E-03   -0.89143E-04  1472   0.352E-01    0.215E-01
DAV:   5    -0.155881162313E+02    0.42753E-03   -0.46633E-03  1696   0.649E-01    0.778E-02
DAV:   6    -0.155881276258E+02   -0.11394E-04   -0.48317E-05  1632   0.658E-02    0.473E-02
DAV:   7    -0.155881502560E+02   -0.22630E-04   -0.21059E-04  1632   0.149E-01    0.933E-03
DAV:   8    -0.155881499345E+02    0.32145E-06   -0.36219E-06  1376   0.183E-02
   3 F= -.15588150E+02 E0= -.15588596E+02  d E =-.203235E-01  mag=    -0.0000
 curvature:  -0.30 expect dE=-0.660E-06 dE for cont linesearch -0.660E-06
 ZBRENT: interpolating
 opt :   0.6391  next Energy=   -15.588151 (dE=-0.203E-01)
 bond charge predicted
       N       E                     dE             d eps       ncg     rms          rms(c)
DAV:   1    -0.155881552800E+02   -0.50240E-05   -0.18638E-04  1280   0.186E-01    0.228E-02
DAV:   2    -0.155881493796E+02    0.59004E-05   -0.76758E-05  1312   0.102E-01    0.101E-02
DAV:   3    -0.155881486559E+02    0.72364E-06   -0.44269E-06  1280   0.266E-02
   4 F= -.15588149E+02 E0= -.15588593E+02  d E =-.203222E-01  mag=     0.0000
 curvature:  -0.27 expect dE=-0.426E-05 dE for cont linesearch -0.426E-05
 ZBRENT: interpolating
 opt :   0.6367  next Energy=   -15.588150 (dE=-0.203E-01)
 bond charge predicted
       N       E                     dE             d eps       ncg     rms          rms(c)
DAV:   1    -0.155881532516E+02   -0.38720E-05   -0.10188E-04  1280   0.137E-01    0.160E-02
DAV:   2    -0.155881496728E+02    0.35788E-05   -0.40811E-05  1312   0.753E-02    0.753E-03
DAV:   3    -0.155881493855E+02    0.28738E-06   -0.22123E-06   640   0.184E-02
   5 F= -.15588149E+02 E0= -.15588595E+02  d E =-.203230E-01  mag=     0.0000
 curvature:  -0.01 expect dE=-0.199E-08 dE for cont linesearch -0.199E-08
 trial: gam= 0.00000 g(F)=  0.539E-63 g(S)=  0.187E-06 ort =-0.107E-03 (trialstep = 0.927E+00)
 search vector abs. value=  0.187E-06
 reached required accuracy - stopping structural energy minimisation
 writing wavefunctions
