    2    2  100    1
  0.2016476E+02  0.3849278E-09  0.3849279E-09  0.3849278E-09  0.5000000E-15
  1.000000000000000E-004
  CAR 
 unknown system                          
      8    120      8
 
  0.0000000E+00  0.0000000E+00  0.0000000E+00  0.2962963E-03
    1       -6.198643   1.000000
    2        5.615992   1.000000
    3        5.615992   1.000000
    4        5.615995   1.000000
    5        8.173022   0.000000
    6        8.173029   0.000000
    7        8.173031   0.000000
    8        8.750231   0.000000
 
  0.6666667E-01 -0.3469447E-17  0.0000000E+00  0.2370370E-02
    1       -6.141397   1.000000
    2        5.023023   1.000000
    3        5.522953   1.000000
    4        5.522955   1.000000
    5        8.208387   0.000000
    6        8.309847   0.000000
    7        8.309854   0.000000
    8        9.211056   0.000000
 
  0.1333333E+00 -0.6938894E-17  0.0000000E+00  0.2370370E-02
    1       -5.970747   1.000000
    2        3.872296   1.000000
    3        5.302597   1.000000
    4        5.302599   1.000000
    5        8.029716   0.000000
    6        8.633128   0.000000
    7        8.633136   0.000000
    8       10.296341   0.000000
 
  0.2000000E+00  0.0000000E+00  0.0000000E+00  0.2370370E-02
    1       -5.690637   1.000000
    2        2.634196   1.000000
    3        5.048482   1.000000
    4        5.048485   1.000000
    5        7.768813   0.000000
    6        8.960632   0.000000
    7        8.960640   0.000000
    8       11.494802   0.000000
 
  0.2666667E+00 -0.1387779E-16  0.0000000E+00  0.2370370E-02
    1       -5.309945   1.000000
    2        1.438571   1.000000
    3        4.816978   1.000000
    4        4.816981   1.000000
    5        7.515772   0.000000
    6        9.129302   0.000000
    7        9.129310   0.000000
    8       12.640449   0.000000
 
  0.3333333E+00 -0.1387779E-16  0.0000000E+00  0.2370370E-02
    1       -4.848574   1.000000
    2        0.346668   1.000000
    3        4.633565   1.000000
    4        4.633568   1.000000
    5        7.308907   0.000000
    6        9.119602   0.000000
    7        9.119611   0.000000
    8       13.400072   0.000000
 
  0.4000000E+00 -0.2775558E-16  0.0000000E+00  0.2370370E-02
    1       -4.357527   1.000000
    2       -0.572044   1.000000
    3        4.508532   1.000000
    4        4.508535   1.000000
    5        7.165278   0.000000
    6        9.036802   0.000000
    7        9.036810   0.000000
    8       13.421594   0.000000
 
  0.4666667E+00 -0.2775558E-16  0.0000000E+00  0.2370370E-02
    1       -3.979824   1.000000
    2       -1.165552   1.000000
    3        4.445520   1.000000
    4        4.445523   1.000000
    5        7.092152   0.000000
    6        8.974380   0.000000
    7        8.974388   0.000000
    8       13.332037   0.000000
 
  0.6666667E-01  0.6666667E-01  0.0000000E+00  0.1777778E-02
    1       -6.122249   1.000000
    2        5.132158   1.000000
    3        5.329960   1.000000
    4        5.329961   1.000000
    5        7.994476   0.000000
    6        8.553103   0.000000
    7        8.553108   0.000000
    8        9.211284   0.000000
 
  0.1333333E+00  0.6666667E-01  0.0000000E+00  0.7111111E-02
    1       -5.989195   1.000000
    2        4.208695   1.000000
    3        5.057174   1.000000
    4        5.222653   1.000000
    5        7.991869   0.000000
    6        8.617040   0.000000
    7        8.947318   0.000000
    8       10.004416   0.000000
 
  0.2000000E+00  0.6666667E-01  0.0000000E+00  0.7111111E-02
    1       -5.745091   1.000000
    2        3.022594   1.000000
    3        4.786753   1.000000
    4        5.007360   1.000000
    5        8.068197   0.000000
    6        8.614758   0.000000
    7        9.330860   0.000000
    8       10.883988   0.000000
 
  0.2666667E+00  0.6666667E-01  0.0000000E+00  0.7111111E-02
    1       -5.396730   1.000000
    2        1.828543   1.000000
    3        4.562210   1.000000
    4        4.737068   1.000000
    5        7.924774   0.000000
    6        8.803194   0.000000
    7        9.543208   0.000000
    8       11.370177   0.000000
 
  0.3333333E+00  0.6666667E-01  0.0000000E+00  0.7111111E-02
    1       -4.959024   1.000000
    2        0.709144   1.000000
    3        4.403043   1.000000
    4        4.477686   1.000000
    5        7.731799   0.000000
    6        8.897669   0.000000
    7        9.533634   0.000000
    8       11.935792   0.000000
 
  0.4000000E+00  0.6666667E-01  0.0000000E+00  0.7111111E-02
    1       -4.468477   1.000000
    2       -0.270707   1.000000
    3        4.259632   1.000000
    4        4.316602   1.000000
    5        7.576600   0.000000
    6        8.886137   0.000000
    7        9.398803   0.000000
    8       12.736727   0.000000
 
  0.4666667E+00  0.6666667E-01  0.0000000E+00  0.7111111E-02
    1       -4.026721   1.000000
    2       -0.995735   1.000000
    3        4.097482   1.000000
    4        4.303812   1.000000
    5        7.482604   0.000000
    6        8.875158   0.000000
    7        9.249664   0.000000
    8       13.380670   0.000000
 
 -0.4666667E+00  0.6666667E-01  0.0000000E+00  0.7111111E-02
    1       -3.875877   1.000000
    2       -1.217543   1.000000
    3        3.999790   1.000000
    4        4.361867   1.000000
    5        7.457752   0.000000
    6        8.923631   0.000000
    7        9.146522   0.000000
    8       13.520169   0.000000
 
 -0.4000000E+00  0.6666667E-01  0.0000000E+00  0.7111111E-02
    1       -4.157435   1.000000
    2       -0.793323   1.000000
    3        3.972727   1.000000
    4        4.485453   1.000000
    5        7.503905   0.000000
    6        9.042011   0.000000
    7        9.105585   0.000000
    8       13.490817   0.000000
 
 -0.3333333E+00  0.6666667E-01  0.0000000E+00  0.7111111E-02
    1       -4.634485   1.000000
    2        0.036987   1.000000
    3        4.020981   1.000000
    4        4.666919   1.000000
    5        7.619190   0.000000
    6        9.102490   0.000000
    7        9.200419   0.000000
    8       13.081427   0.000000
 
 -0.2666667E+00  0.6666667E-01  0.0000000E+00  0.7111111E-02
    1       -5.113886   1.000000
    2        1.071431   1.000000
    3        4.147530   1.000000
    4        4.894812   1.000000
    5        7.797358   0.000000
    6        9.062024   0.000000
    7        9.313465   0.000000
    8       12.325569   0.000000
 
 -0.2000000E+00  0.6666667E-01  0.0000000E+00  0.7111111E-02
    1       -5.524215   1.000000
    2        2.219016   1.000000
    3        4.353263   1.000000
    4        5.149086   1.000000
    5        8.023732   0.000000
    6        8.883975   0.000000
    7        9.233233   0.000000
    8       11.588727   0.000000
 
 -0.1333333E+00  0.6666667E-01  0.0000000E+00  0.7111111E-02
    1       -5.838805   1.000000
    2        3.405623   1.000000
    3        4.639673   1.000000
    4        5.390064   1.000000
    5        8.264401   0.000000
    6        8.581675   0.000000
    7        8.887307   0.000000
    8       10.774249   0.000000
 
 -0.6666667E-01  0.6666667E-01  0.0000000E+00  0.3555556E-02
    1       -6.046253   1.000000
    2        4.460490   1.000000
    3        5.042346   1.000000
    4        5.543406   1.000000
    5        8.330407   0.000000
    6        8.430758   0.000000
    7        8.438435   0.000000
    8        9.838663   0.000000
 
  0.1333333E+00  0.1333333E+00  0.0000000E+00  0.1777778E-02
    1       -5.893777   1.000000
    2        4.126775   1.000000
    3        4.753428   1.000000
    4        4.753428   1.000000
    5        7.572627   0.000000
    6        9.408810   0.000000
    7        9.408813   0.000000
    8        9.881923   0.000000
 
  0.2000000E+00  0.1333333E+00  0.0000000E+00  0.7111111E-02
    1       -5.686384   1.000000
    2        3.253011   1.000000
    3        4.465998   1.000000
    4        4.535308   1.000000
    5        7.539166   0.000000
    6        9.423934   0.000000
    7        9.874419   0.000000
    8       10.218500   0.000000
 
  0.2666667E+00  0.1333333E+00  0.0000000E+00  0.7111111E-02
    1       -5.372166   1.000000
    2        2.162117   1.000000
    3        4.234230   1.000000
    4        4.249976   1.000000
    5        7.729652   0.000000
    6        9.337931   0.000000
    7       10.181342   0.000000
    8       10.266862   0.000000
 
  0.3333333E+00  0.1333333E+00  0.0000000E+00  0.7111111E-02
    1       -4.962273   1.000000
    2        1.072274   1.000000
    3        3.923559   1.000000
    4        4.076727   1.000000
    5        7.826246   0.000000
    6        9.353148   0.000000
    7       10.231352   0.000000
    8       10.478417   0.000000
 
  0.4000000E+00  0.1333333E+00  0.0000000E+00  0.7111111E-02
    1       -4.482931   1.000000
    2        0.072228   1.000000
    3        3.619976   1.000000
    4        4.001233   1.000000
    5        7.799031   0.000000
    6        9.293410   0.000000
    7       10.094281   0.000000
    8       11.179531   0.000000
 
  0.4666667E+00  0.1333333E+00  0.0000000E+00  0.7111111E-02
    1       -4.004976   1.000000
    2       -0.739283   1.000000
    3        3.370304   1.000000
    4        4.009295   1.000000
    5        7.768614   0.000000
    6        9.216912   0.000000
    7        9.897495   0.000000
    8       12.187984   0.000000
 
 -0.4666667E+00  0.1333333E+00  0.0000000E+00  0.7111111E-02
    1       -3.723299   1.000000
    2       -1.154523   1.000000
    3        3.191046   1.000000
    4        4.098129   1.000000
    5        7.795534   0.000000
    6        9.194528   0.000000
    7        9.720636   0.000000
    8       13.292170   0.000000
 
 -0.4000000E+00  0.1333333E+00  0.0000000E+00  0.7111111E-02
    1       -3.878884   1.000000
    2       -0.928435   1.000000
    3        3.093470   1.000000
    4        4.261093   1.000000
    5        7.892757   0.000000
    6        9.247422   0.000000
    7        9.593208   0.000000
    8       13.725407   0.000000
 
 -0.3333333E+00  0.1333333E+00  0.0000000E+00  0.7111111E-02
    1       -4.323440   1.000000
    2       -0.212839   1.000000
    3        3.087551   1.000000
    4        4.486931   1.000000
    5        8.051994   0.000000
    6        9.366069   0.000000
    7        9.502034   0.000000
    8       12.880029   0.000000
 
 -0.2666667E+00  0.1333333E+00  0.0000000E+00  0.7111111E-02
    1       -4.813530   1.000000
    2        0.733893   1.000000
    3        3.186091   1.000000
    4        4.757273   1.000000
    5        8.254822   0.000000
    6        9.380732   0.000000
    7        9.483792   0.000000
    8       11.981213   0.000000
 
 -0.2000000E+00  0.1333333E+00  0.0000000E+00  0.7111111E-02
    1       -5.249594   1.000000
    2        1.769613   1.000000
    3        3.417573   1.000000
    4        5.040559   1.000000
    5        8.471016   0.000000
    6        9.134696   0.000000
    7        9.408682   0.000000
    8       11.364891   0.000000
 
 -0.1333333E+00  0.1333333E+00  0.0000000E+00  0.3555556E-02
    1       -5.596205   1.000000
    2        2.730604   1.000000
    3        3.872023   1.000000
    4        5.280486   1.000000
    5        8.598085   0.000000
    6        8.801342   0.000000
    7        9.035157   0.000000
    8       11.111748   0.000000
 
  0.2000000E+00  0.2000000E+00  0.0000000E+00  0.1777778E-02
    1       -5.515583   1.000000
    2        2.981457   1.000000
    3        4.161743   1.000000
    4        4.161744   1.000000
    5        7.092524   0.000000
    6        9.469391   0.000000
    7       10.457234   0.000000
    8       10.457236   0.000000
 
  0.2666667E+00  0.2000000E+00  0.0000000E+00  0.7111111E-02
    1       -5.236367   1.000000
    2        2.215626   1.000000
    3        3.853489   1.000000
    4        3.914709   1.000000
    5        7.083554   0.000000
    6        9.115289   0.000000
    7       10.727866   0.000000
    8       10.916249   0.000000
 
  0.3333333E+00  0.2000000E+00  0.0000000E+00  0.7111111E-02
    1       -4.857102   1.000000
    2        1.286715   1.000000
    3        3.450478   1.000000
    4        3.744953   1.000000
    5        7.295444   0.000000
    6        9.132150   0.000000
    7       10.643615   0.000000
    8       11.096221   0.000000
 
  0.4000000E+00  0.2000000E+00  0.0000000E+00  0.7111111E-02
    1       -4.396635   1.000000
    2        0.352680   1.000000
    3        3.039308   1.000000
    4        3.661601   1.000000
    5        7.403187   0.000000
    6        9.685937   0.000000
    7       10.476719   0.000000
    8       11.012153   0.000000
 
  0.4666667E+00  0.2000000E+00  0.0000000E+00  0.7111111E-02
    1       -3.903961   1.000000
    2       -0.476588   1.000000
    3        2.684614   1.000000
    4        3.667487   1.000000
    5        7.437548   0.000000
    6       10.316411   0.000000
    7       10.646392   0.000000
    8       10.806885   0.000000
 
 -0.4666667E+00  0.2000000E+00  0.0000000E+00  0.7111111E-02
    1       -3.523365   1.000000
    2       -1.026708   1.000000
    3        2.414752   1.000000
    4        3.760996   1.000000
    5        7.514735   0.000000
    6       10.211250   0.000000
    7       10.587255   0.000000
    8       11.819552   0.000000
 
 -0.4000000E+00  0.2000000E+00  0.0000000E+00  0.7111111E-02
    1       -3.535801   1.000000
    2       -1.005608   1.000000
    3        2.246724   1.000000
    4        3.936230   1.000000
    5        7.674667   0.000000
    6       10.163004   0.000000
    7       10.396659   0.000000
    8       13.110849   0.000000
 
 -0.3333333E+00  0.2000000E+00  0.0000000E+00  0.7111111E-02
    1       -3.927248   1.000000
    2       -0.433841   1.000000
    3        2.199737   1.000000
    4        4.181712   1.000000
    5        7.914821   0.000000
    6       10.168919   0.000000
    7       10.223605   0.000000
    8       12.758267   0.000000
 
 -0.2666667E+00  0.2000000E+00  0.0000000E+00  0.7111111E-02
    1       -4.418832   1.000000
    2        0.372441   1.000000
    3        2.312693   1.000000
    4        4.476939   1.000000
    5        8.204568   0.000000
    6        9.984714   0.000000
    7       10.164444   0.000000
    8       11.772348   0.000000
 
 -0.2000000E+00  0.2000000E+00  0.0000000E+00  0.3555556E-02
    1       -4.875060   1.000000
    2        1.169565   1.000000
    3        2.682783   1.000000
    4        4.785013   1.000000
    5        8.467117   0.000000
    6        9.581749   0.000000
    7        9.885724   0.000000
    8       11.273174   0.000000
 
  0.2666667E+00  0.2666667E+00  0.0000000E+00  0.1777778E-02
    1       -4.991805   1.000000
    2        1.802149   1.000000
    3        3.649045   1.000000
    4        3.649047   1.000000
    5        6.672489   0.000000
    6        8.511072   0.000000
    7       11.596560   0.000000
    8       11.596561   0.000000
 
  0.3333333E+00  0.2666667E+00  0.0000000E+00  0.7111111E-02
    1       -4.644581   1.000000
    2        1.122749   1.000000
    3        3.301533   1.000000
    4        3.460128   1.000000
    5        6.714938   0.000000
    6        8.208667   0.000000
    7       11.874901   0.000000
    8       12.012653   0.000000
 
  0.4000000E+00  0.2666667E+00  0.0000000E+00  0.7111111E-02
    1       -4.208172   1.000000
    2        0.362954   1.000000
    3        2.792691   1.000000
    4        3.358948   1.000000
    5        6.925137   0.000000
    6        8.406488   0.000000
    7       11.810226   0.000000
    8       12.064640   0.000000
 
  0.4666667E+00  0.2666667E+00  0.0000000E+00  0.7111111E-02
    1       -3.716246   1.000000
    2       -0.378469   1.000000
    3        2.292171   1.000000
    4        3.349775   1.000000
    5        7.019959   0.000000
    6        9.171908   0.000000
    7       11.666036   0.000000
    8       11.894952   0.000000
 
 -0.4666667E+00  0.2666667E+00  0.0000000E+00  0.7111111E-02
    1       -3.270352   1.000000
    2       -0.966728   1.000000
    3        1.891823   1.000000
    4        3.432281   1.000000
    5        7.113110   0.000000
    6       10.256349   0.000000
    7       11.544729   0.000000
    8       11.657569   0.000000
 
 -0.4000000E+00  0.2666667E+00  0.0000000E+00  0.7111111E-02
    1       -3.144355   1.000000
    2       -1.114054   1.000000
    3        1.632977   1.000000
    4        3.601831   1.000000
    5        7.286811   0.000000
    6       11.233545   0.000000
    7       11.415146   0.000000
    8       11.748126   0.000000
 
 -0.3333333E+00  0.2666667E+00  0.0000000E+00  0.7111111E-02
    1       -3.468274   1.000000
    2       -0.708091   1.000000
    3        1.557301   1.000000
    4        3.848202   1.000000
    5        7.551852   0.000000
    6       11.135796   0.000000
    7       11.275581   0.000000
    8       12.664334   0.000000
 
 -0.2666667E+00  0.2666667E+00  0.0000000E+00  0.3555556E-02
    1       -3.951482   1.000000
    2       -0.116907   1.000000
    3        1.749138   1.000000
    4        4.151994   1.000000
    5        7.883883   0.000000
    6       10.662591   0.000000
    7       11.002212   0.000000
    8       11.858761   0.000000
 
  0.3333333E+00  0.3333333E+00  0.0000000E+00  0.1777778E-02
    1       -4.328783   1.000000
    2        0.625927   1.000000
    3        3.249152   1.000000
    4        3.249155   1.000000
    5        6.374650   0.000000
    6        7.637881   0.000000
    7       12.789065   0.000000
    8       12.789066   0.000000
 
  0.4000000E+00  0.3333333E+00  0.0000000E+00  0.7111111E-02
    1       -3.919184   1.000000
    2        0.010871   1.000000
    3        2.905377   1.000000
    4        3.125329   1.000000
    5        6.477758   0.000000
    6        7.462508   0.000000
    7       13.090924   0.000000
    8       13.147334   0.000000
 
  0.4666667E+00  0.3333333E+00  0.0000000E+00  0.7111111E-02
    1       -3.438458   1.000000
    2       -0.611236   1.000000
    3        2.349022   1.000000
    4        3.094478   1.000000
    5        6.661630   0.000000
    6        7.899440   0.000000
    7       13.046255   0.000000
    8       13.096463   0.000000
 
 -0.4666667E+00  0.3333333E+00  0.0000000E+00  0.7111111E-02
    1       -2.955768   1.000000
    2       -1.155251   1.000000
    3        1.810049   1.000000
    4        3.157572   1.000000
    5        6.767360   0.000000
    6        8.865639   0.000000
    7       12.869076   0.000000
    8       12.914779   0.000000
 
 -0.4000000E+00  0.3333333E+00  0.0000000E+00  0.7111111E-02
    1       -2.724516   1.000000
    2       -1.384711   1.000000
    3        1.427480   1.000000
    4        3.311332   1.000000
    5        6.937182   0.000000
    6       10.083460   0.000000
    7       12.559006   0.000000
    8       12.787279   0.000000
 
 -0.3333333E+00  0.3333333E+00  0.0000000E+00  0.3555556E-02
    1       -3.001947   1.000000
    2       -1.097272   1.000000
    3        1.305681   1.000000
    4        3.547211   1.000000
    5        7.204094   0.000000
    6       11.393438   0.000000
    7       12.023946   0.000000
    8       12.586953   0.000000
 
  0.4000000E+00  0.4000000E+00  0.0000000E+00  0.1777778E-02
    1       -3.535573   1.000000
    2       -0.521021   1.000000
    3        2.976857   1.000000
    4        2.976859   1.000000
    5        6.234078   0.000000
    6        6.965725   0.000000
    7       14.016691   0.000000
    8       14.016693   0.000000
 
  0.4666667E+00  0.4000000E+00  0.0000000E+00  0.7111111E-02
    1       -3.071926   1.000000
    2       -1.080878   1.000000
    3        2.667992   1.000000
    4        2.921116   1.000000
    5        6.390045   0.000000
    6        6.945796   0.000000
    7       14.309829   0.000000
    8       14.335047   0.000000
 
 -0.4666667E+00  0.4000000E+00  0.0000000E+00  0.7111111E-02
    1       -2.573491   1.000000
    2       -1.589475   1.000000
    3        2.130383   1.000000
    4        2.960390   1.000000
    5        6.525186   0.000000
    6        7.645013   0.000000
    7       14.145348   0.000000
    8       14.307058   0.000000
 
 -0.4000000E+00  0.4000000E+00  0.0000000E+00  0.3555556E-02
    1       -2.360239   1.000000
    2       -1.757014   1.000000
    3        1.647004   1.000000
    4        3.092742   1.000000
    5        6.679996   0.000000
    6        8.765046   0.000000
    7       13.613104   0.000000
    8       14.188161   0.000000
 
  0.4666667E+00  0.4666667E+00  0.0000000E+00  0.1777778E-02
    1       -2.624677   1.000000
    2       -1.612784   1.000000
    3        2.839235   1.000000
    4        2.839238   1.000000
    5        6.274194   0.000000
    6        6.513260   0.000000
    7       15.215327   0.000000
    8       15.215329   0.000000
 
 -0.4666667E+00  0.4666667E+00  0.0000000E+00  0.3555556E-02
    1       -2.147915   1.000000
    2       -2.088604   1.000000
    3        2.588952   1.000000
    4        2.852542   1.000000
    5        6.403053   0.000000
    6        6.729750   0.000000
    7       15.190291   0.000000
    8       15.335529   0.000000
 
  0.2000000E+00  0.1333333E+00  0.6666667E-01  0.7111111E-02
    1       -5.819124   1.000000
    2        3.557223   1.000000
    3        4.461281   1.000000
    4        5.146464   1.000000
    5        7.977761   0.000000
    6        8.877479   0.000000
    7        9.271453   0.000000
    8       10.493855   0.000000
 
  0.2666667E+00  0.1333333E+00  0.6666667E-01  0.1422222E-01
    1       -5.539925   1.000000
    2        2.546418   1.000000
    3        4.024381   1.000000
    4        4.968327   1.000000
    5        8.161953   0.000000
    6        8.869624   0.000000
    7        9.661571   0.000000
    8       10.724165   0.000000
 
  0.3333333E+00  0.1333333E+00  0.6666667E-01  0.1422222E-01
    1       -5.160260   1.000000
    2        1.439528   1.000000
    3        3.750265   1.000000
    4        4.715701   1.000000
    5        8.195414   0.000000
    6        8.921450   0.000000
    7        9.857942   0.000000
    8       10.959475   0.000000
 
  0.4000000E+00  0.1333333E+00  0.6666667E-01  0.1422222E-01
    1       -4.699665   1.000000
    2        0.389513   1.000000
    3        3.574227   1.000000
    4        4.469109   1.000000
    5        8.086024   0.000000
    6        8.927633   0.000000
    7        9.833909   0.000000
    8       11.576343   0.000000
 
  0.4666667E+00  0.1333333E+00  0.6666667E-01  0.1422222E-01
    1       -4.208149   1.000000
    2       -0.509046   1.000000
    3        3.473420   1.000000
    4        4.276540   1.000000
    5        7.979001   0.000000
    6        8.855880   0.000000
    7        9.736492   0.000000
    8       12.492506   0.000000
 
 -0.4666667E+00  0.1333333E+00  0.6666667E-01  0.1422222E-01
    1       -3.827966   1.000000
    2       -1.096172   1.000000
    3        3.430035   1.000000
    4        4.170161   1.000000
    5        7.920163   0.000000
    6        8.797924   0.000000
    7        9.666346   0.000000
    8       13.450439   0.000000
 
  0.2666667E+00  0.2000000E+00  0.6666667E-01  0.7111111E-02
    1       -5.443395   1.000000
    2        2.591813   1.000000
    3        3.866991   1.000000
    4        4.455428   1.000000
    5        7.516772   0.000000
    6        9.487844   0.000000
    7       10.147851   0.000000
    8       10.353327   0.000000
 
  0.3333333E+00  0.2000000E+00  0.6666667E-01  0.1422222E-01
    1       -5.096615   1.000000
    2        1.683269   1.000000
    3        3.428815   1.000000
    4        4.255473   1.000000
    5        7.749058   0.000000
    6        9.476512   0.000000
    7        9.999526   0.000000
    8       10.723058   0.000000
 
  0.4000000E+00  0.2000000E+00  0.6666667E-01  0.1422222E-01
    1       -4.660441   1.000000
    2        0.704973   1.000000
    3        3.132677   1.000000
    4        4.023174   1.000000
    5        7.901185   0.000000
    6        9.590443   0.000000
    7       10.088351   0.000000
    8       10.823911   0.000000
 
  0.4666667E+00  0.2000000E+00  0.6666667E-01  0.1422222E-01
    1       -4.169886   1.000000
    2       -0.202775   1.000000
    3        2.913804   1.000000
    4        3.855607   1.000000
    5        7.935127   0.000000
    6        9.407803   0.000000
    7       10.704282   0.000000
    8       10.948877   0.000000
 
 -0.4666667E+00  0.2000000E+00  0.6666667E-01  0.1422222E-01
    1       -3.724846   1.000000
    2       -0.895395   1.000000
    3        2.746422   1.000000
    4        3.798252   1.000000
    5        7.977286   0.000000
    6        9.218830   0.000000
    7       10.627841   0.000000
    8       12.022975   0.000000
 
 -0.4000000E+00  0.2000000E+00  0.6666667E-01  0.1422222E-01
    1       -3.574086   1.000000
    2       -1.106570   1.000000
    3        2.633616   1.000000
    4        3.858058   1.000000
    5        8.083349   0.000000
    6        9.087188   0.000000
    7       10.555904   0.000000
    8       13.247787   0.000000
 
 -0.3333333E+00  0.2000000E+00  0.6666667E-01  0.1422222E-01
    1       -3.863848   1.000000
    2       -0.687386   1.000000
    3        2.593763   1.000000
    4        4.020284   1.000000
    5        8.256819   0.000000
    6        9.024938   0.000000
    7       10.525492   0.000000
    8       12.365553   0.000000
 
 -0.2666667E+00  0.2000000E+00  0.6666667E-01  0.1422222E-01
    1       -4.343579   1.000000
    2        0.099392   1.000000
    3        2.651676   1.000000
    4        4.260419   1.000000
    5        8.471272   0.000000
    6        9.008547   0.000000
    7       10.499121   0.000000
    8       11.364137   0.000000
 
 -0.2000000E+00  0.2000000E+00  0.6666667E-01  0.1422222E-01
    1       -4.821128   1.000000
    2        1.020439   1.000000
    3        2.847858   1.000000
    4        4.543319   1.000000
    5        8.656240   0.000000
    6        8.938490   0.000000
    7       10.385670   0.000000
    8       10.698436   0.000000
 
 -0.1333333E+00  0.2000000E+00  0.6666667E-01  0.7111111E-02
    1       -5.228303   1.000000
    2        1.894901   1.000000
    3        3.275027   1.000000
    4        4.810969   1.000000
    5        8.491364   0.000000
    6        8.928099   0.000000
    7       10.088753   0.000000
    8       10.513316   0.000000
 
  0.3333333E+00  0.2666667E+00  0.6666667E-01  0.7111111E-02
    1       -4.923639   1.000000
    2        1.574696   1.000000
    3        3.357409   1.000000
    4        3.787499   1.000000
    5        7.106692   0.000000
    6        8.774191   0.000000
    7       10.895158   0.000000
    8       11.529842   0.000000
 
  0.4000000E+00  0.2666667E+00  0.6666667E-01  0.1422222E-01
    1       -4.515718   1.000000
    2        0.794515   1.000000
    3        2.908782   1.000000
    4        3.582262   1.000000
    5        7.370051   0.000000
    6        8.825384   0.000000
    7       10.743438   0.000000
    8       11.877676   0.000000
 
  0.4666667E+00  0.2666667E+00  0.6666667E-01  0.1422222E-01
    1       -4.037138   1.000000
    2       -0.015640   1.000000
    3        2.518477   1.000000
    4        3.434080   1.000000
    5        7.513344   0.000000
    6        9.444617   0.000000
    7       10.512819   0.000000
    8       11.905712   0.000000
 
 -0.4666667E+00  0.2666667E+00  0.6666667E-01  0.1422222E-01
    1       -3.556118   1.000000
    2       -0.723989   1.000000
    3        2.195390   1.000000
    4        3.403088   1.000000
    5        7.592090   0.000000
    6       10.198165   0.000000
    7       10.545487   0.000000
    8       11.807174   0.000000
 
 -0.4000000E+00  0.2666667E+00  0.6666667E-01  0.1422222E-01
    1       -3.274992   1.000000
    2       -1.093217   1.000000
    3        1.963197   1.000000
    4        3.488513   1.000000
    5        7.725947   0.000000
    6       10.048759   0.000000
    7       11.650368   0.000000
    8       11.768585   0.000000
 
 -0.3333333E+00  0.2666667E+00  0.6666667E-01  0.1422222E-01
    1       -3.451587   1.000000
    2       -0.858010   1.000000
    3        1.849657   1.000000
    4        3.674754   1.000000
    5        7.944274   0.000000
    6        9.902074   0.000000
    7       11.574488   0.000000
    8       12.322519   0.000000
 
 -0.2666667E+00  0.2666667E+00  0.6666667E-01  0.1422222E-01
    1       -3.906114   1.000000
    2       -0.225917   1.000000
    3        1.898499   1.000000
    4        3.939963   1.000000
    5        8.236225   0.000000
    6        9.751232   0.000000
    7       11.189171   0.000000
    8       11.535081   0.000000
 
 -0.2000000E+00  0.2666667E+00  0.6666667E-01  0.7111111E-02
    1       -4.392592   1.000000
    2        0.468414   1.000000
    3        2.198984   1.000000
    4        4.249943   1.000000
    5        8.556166   0.000000
    6        9.389162   0.000000
    7       10.648966   0.000000
    8       11.106761   0.000000
 
  0.4000000E+00  0.3333333E+00  0.6666667E-01  0.7111111E-02
    1       -4.266963   1.000000
    2        0.515203   1.000000
    3        2.968618   1.000000
    4        3.251245   1.000000
    5        6.809498   0.000000
    6        7.947134   0.000000
    7       11.947587   0.000000
    8       12.757223   0.000000
 
  0.4666667E+00  0.3333333E+00  0.6666667E-01  0.1422222E-01
    1       -3.807882   1.000000
    2       -0.141860   1.000000
    3        2.495297   1.000000
    4        3.089042   1.000000
    5        7.088065   0.000000
    6        8.184487   0.000000
    7       11.757661   0.000000
    8       13.094822   0.000000
 
 -0.4666667E+00  0.3333333E+00  0.6666667E-01  0.1422222E-01
    1       -3.312788   1.000000
    2       -0.769455   1.000000
    3        2.002153   1.000000
    4        3.060960   1.000000
    5        7.215445   0.000000
    6        9.026864   0.000000
    7       11.516147   0.000000
    8       13.085056   0.000000
 