<?xml version="1.0" encoding="ISO-8859-1"?>
<modeling>
 <generator>
  <i name="program" type="string">vasp </i>
  <i name="version" type="string">6.2.0  </i>
  <i name="subversion" type="string">18Jan21 (build Aug 12 2022 13:00:08) complex                          parallel </i>
  <i name="platform" type="string">LinuxIFC </i>
  <i name="date" type="string">2024 11 03 </i>
  <i name="time" type="string">22:29:22 </i>
 </generator>
 <incar>
  <i type="int" name="ISTART">     0</i>
  <i type="string" name="PREC">Accurate      (Accurate strictly avoids</i>
  <i type="logical" name="ADDGRID"> T  </i>
  <i type="int" name="ISPIN">     1</i>
  <i type="int" name="NELM">    90</i>
  <i type="int" name="NELMIN">     6</i>
  <i type="int" name="IBRION">     2</i>
  <i name="EDIFF">      0.00000100</i>
  <i name="EDIFFG">     -0.00200000</i>
  <i type="int" name="NSW">   100</i>
  <i type="int" name="ISIF">     3</i>
  <i type="int" name="ISYM">     2</i>
  <i name="ENCUT">    700.00000000</i>
  <i type="logical" name="LREAL"> F  </i>
  <i type="int" name="ISMEAR">     0</i>
  <i name="SIGMA">      0.05000000</i>
  <i type="logical" name="LWAVE"> F  </i>
  <i type="logical" name="LCHARG"> F  </i>
  <i type="logical" name="LASPH"> T  </i>
 </incar>
 <primitive_cell>
  <structure name="primitive_cell" >
   <crystal>
    <varray name="basis" >
     <v>       3.33357300       0.00000000       1.92463900 </v>
     <v>       1.11119100       3.14292400       1.92463900 </v>
     <v>       0.00000000       0.00000000       3.84927800 </v>
    </varray>
    <i name="volume">     40.32952685 </i>
    <varray name="rec_basis" >
     <v>       0.29997843      -0.10605835       0.00000000 </v>
     <v>       0.00000000       0.31817505       0.00000000 </v>
     <v>      -0.14998922      -0.10605835       0.25978898 </v>
    </varray>
   </crystal>
   <varray name="positions" >
    <v>       0.87500000       0.87500000       0.87500000 </v>
    <v>       0.12500000       0.12500000       0.12500000 </v>
   </varray>
  </structure>
  <varray name="primitive_index" >
   <v type="int" >        1 </v>
   <v type="int" >        2 </v>
  </varray>
 </primitive_cell>
 <kpoints>
  <generation param="Monkhorst-Pack">
   <v type="int" name="divisions">      15       15       15 </v>
   <v name="usershift">      0.00000000       0.00000000       0.00000000 </v>
   <v name="genvec1">      0.06666667       0.00000000       0.00000000 </v>
   <v name="genvec2">      0.00000000       0.06666667       0.00000000 </v>
   <v name="genvec3">      0.00000000       0.00000000       0.06666667 </v>
   <v name="shift">      0.00000000       0.00000000       0.00000000 </v>
  </generation>
  <varray name="kpointlist" >
   <v>       0.00000000       0.00000000       0.00000000 </v>
   <v>       0.06666667      -0.00000000       0.00000000 </v>
   <v>       0.13333333      -0.00000000       0.00000000 </v>
   <v>       0.20000000       0.00000000       0.00000000 </v>
   <v>       0.26666667      -0.00000000       0.00000000 </v>
   <v>       0.33333333      -0.00000000       0.00000000 </v>
   <v>       0.40000000      -0.00000000       0.00000000 </v>
   <v>       0.46666667      -0.00000000       0.00000000 </v>
   <v>       0.06666667       0.06666667       0.00000000 </v>
   <v>       0.13333333       0.06666667       0.00000000 </v>
   <v>       0.20000000       0.06666667       0.00000000 </v>
   <v>       0.26666667       0.06666667       0.00000000 </v>
   <v>       0.33333333       0.06666667       0.00000000 </v>
   <v>       0.40000000       0.06666667       0.00000000 </v>
   <v>       0.46666667       0.06666667       0.00000000 </v>
   <v>      -0.46666667       0.06666667       0.00000000 </v>
   <v>      -0.40000000       0.06666667       0.00000000 </v>
   <v>      -0.33333333       0.06666667       0.00000000 </v>
   <v>      -0.26666667       0.06666667       0.00000000 </v>
   <v>      -0.20000000       0.06666667       0.00000000 </v>
   <v>      -0.13333333       0.06666667       0.00000000 </v>
   <v>      -0.06666667       0.06666667       0.00000000 </v>
   <v>       0.13333333       0.13333333       0.00000000 </v>
   <v>       0.20000000       0.13333333       0.00000000 </v>
   <v>       0.26666667       0.13333333       0.00000000 </v>
   <v>       0.33333333       0.13333333       0.00000000 </v>
   <v>       0.40000000       0.13333333       0.00000000 </v>
   <v>       0.46666667       0.13333333       0.00000000 </v>
   <v>      -0.46666667       0.13333333       0.00000000 </v>
   <v>      -0.40000000       0.13333333       0.00000000 </v>
   <v>      -0.33333333       0.13333333       0.00000000 </v>
   <v>      -0.26666667       0.13333333       0.00000000 </v>
   <v>      -0.20000000       0.13333333       0.00000000 </v>
   <v>      -0.13333333       0.13333333       0.00000000 </v>
   <v>       0.20000000       0.20000000       0.00000000 </v>
   <v>       0.26666667       0.20000000       0.00000000 </v>
   <v>       0.33333333       0.20000000       0.00000000 </v>
   <v>       0.40000000       0.20000000       0.00000000 </v>
   <v>       0.46666667       0.20000000       0.00000000 </v>
   <v>      -0.46666667       0.20000000       0.00000000 </v>
   <v>      -0.40000000       0.20000000       0.00000000 </v>
   <v>      -0.33333333       0.20000000       0.00000000 </v>
   <v>      -0.26666667       0.20000000       0.00000000 </v>
   <v>      -0.20000000       0.20000000       0.00000000 </v>
   <v>       0.26666667       0.26666667       0.00000000 </v>
   <v>       0.33333333       0.26666667       0.00000000 </v>
   <v>       0.40000000       0.26666667       0.00000000 </v>
   <v>       0.46666667       0.26666667       0.00000000 </v>
   <v>      -0.46666667       0.26666667       0.00000000 </v>
   <v>      -0.40000000       0.26666667       0.00000000 </v>
   <v>      -0.33333333       0.26666667       0.00000000 </v>
   <v>      -0.26666667       0.26666667       0.00000000 </v>
   <v>       0.33333333       0.33333333       0.00000000 </v>
   <v>       0.40000000       0.33333333       0.00000000 </v>
   <v>       0.46666667       0.33333333       0.00000000 </v>
   <v>      -0.46666667       0.33333333       0.00000000 </v>
   <v>      -0.40000000       0.33333333       0.00000000 </v>
   <v>      -0.33333333       0.33333333       0.00000000 </v>
   <v>       0.40000000       0.40000000       0.00000000 </v>
   <v>       0.46666667       0.40000000       0.00000000 </v>
   <v>      -0.46666667       0.40000000       0.00000000 </v>
   <v>      -0.40000000       0.40000000       0.00000000 </v>
   <v>       0.46666667       0.46666667       0.00000000 </v>
   <v>      -0.46666667       0.46666667       0.00000000 </v>
   <v>       0.20000000       0.13333333       0.06666667 </v>
   <v>       0.26666667       0.13333333       0.06666667 </v>
   <v>       0.33333333       0.13333333       0.06666667 </v>
   <v>       0.40000000       0.13333333       0.06666667 </v>
   <v>       0.46666667       0.13333333       0.06666667 </v>
   <v>      -0.46666667       0.13333333       0.06666667 </v>
   <v>       0.26666667       0.20000000       0.06666667 </v>
   <v>       0.33333333       0.20000000       0.06666667 </v>
   <v>       0.40000000       0.20000000       0.06666667 </v>
   <v>       0.46666667       0.20000000       0.06666667 </v>
   <v>      -0.46666667       0.20000000       0.06666667 </v>
   <v>      -0.40000000       0.20000000       0.06666667 </v>
   <v>      -0.33333333       0.20000000       0.06666667 </v>
   <v>      -0.26666667       0.20000000       0.06666667 </v>
   <v>      -0.20000000       0.20000000       0.06666667 </v>
   <v>      -0.13333333       0.20000000       0.06666667 </v>
   <v>       0.33333333       0.26666667       0.06666667 </v>
   <v>       0.40000000       0.26666667       0.06666667 </v>
   <v>       0.46666667       0.26666667       0.06666667 </v>
   <v>      -0.46666667       0.26666667       0.06666667 </v>
   <v>      -0.40000000       0.26666667       0.06666667 </v>
   <v>      -0.33333333       0.26666667       0.06666667 </v>
   <v>      -0.26666667       0.26666667       0.06666667 </v>
   <v>      -0.20000000       0.26666667       0.06666667 </v>
   <v>       0.40000000       0.33333333       0.06666667 </v>
   <v>       0.46666667       0.33333333       0.06666667 </v>
   <v>      -0.46666667       0.33333333       0.06666667 </v>
   <v>      -0.40000000       0.33333333       0.06666667 </v>
   <v>      -0.33333333       0.33333333       0.06666667 </v>
   <v>      -0.26666667       0.33333333       0.06666667 </v>
   <v>       0.46666667       0.40000000       0.06666667 </v>
   <v>      -0.46666667       0.40000000       0.06666667 </v>
   <v>      -0.40000000       0.40000000       0.06666667 </v>
   <v>      -0.33333333       0.40000000       0.06666667 </v>
   <v>      -0.46666667       0.46666667       0.06666667 </v>
   <v>      -0.40000000       0.46666667       0.06666667 </v>
   <v>       0.40000000       0.26666667       0.13333333 </v>
   <v>       0.46666667       0.26666667       0.13333333 </v>
   <v>      -0.46666667       0.26666667       0.13333333 </v>
   <v>      -0.40000000       0.26666667       0.13333333 </v>
   <v>       0.46666667       0.33333333       0.13333333 </v>
   <v>      -0.46666667       0.33333333       0.13333333 </v>
   <v>      -0.40000000       0.33333333       0.13333333 </v>
   <v>      -0.33333333       0.33333333       0.13333333 </v>
   <v>      -0.26666667       0.33333333       0.13333333 </v>
   <v>      -0.20000000       0.33333333       0.13333333 </v>
   <v>      -0.46666667       0.40000000       0.13333333 </v>
   <v>      -0.40000000       0.40000000       0.13333333 </v>
   <v>      -0.33333333       0.40000000       0.13333333 </v>
   <v>      -0.26666667       0.40000000       0.13333333 </v>
   <v>      -0.40000000       0.46666667       0.13333333 </v>
   <v>      -0.33333333       0.46666667       0.13333333 </v>
   <v>      -0.40000000       0.40000000       0.20000000 </v>
   <v>      -0.33333333       0.40000000       0.20000000 </v>
   <v>      -0.33333333       0.46666667       0.20000000 </v>
   <v>      -0.26666667       0.46666667       0.20000000 </v>
  </varray>
  <varray name="weights" >
   <v>       0.00029630 </v>
   <v>       0.00237037 </v>
   <v>       0.00237037 </v>
   <v>       0.00237037 </v>
   <v>       0.00237037 </v>
   <v>       0.00237037 </v>
   <v>       0.00237037 </v>
   <v>       0.00237037 </v>
   <v>       0.00177778 </v>
   <v>       0.00711111 </v>
   <v>       0.00711111 </v>
   <v>       0.00711111 </v>
   <v>       0.00711111 </v>
   <v>       0.00711111 </v>
   <v>       0.00711111 </v>
   <v>       0.00711111 </v>
   <v>       0.00711111 </v>
   <v>       0.00711111 </v>
   <v>       0.00711111 </v>
   <v>       0.00711111 </v>
   <v>       0.00711111 </v>
   <v>       0.00355556 </v>
   <v>       0.00177778 </v>
   <v>       0.00711111 </v>
   <v>       0.00711111 </v>
   <v>       0.00711111 </v>
   <v>       0.00711111 </v>
   <v>       0.00711111 </v>
   <v>       0.00711111 </v>
   <v>       0.00711111 </v>
   <v>       0.00711111 </v>
   <v>       0.00711111 </v>
   <v>       0.00711111 </v>
   <v>       0.00355556 </v>
   <v>       0.00177778 </v>
   <v>       0.00711111 </v>
   <v>       0.00711111 </v>
   <v>       0.00711111 </v>
   <v>       0.00711111 </v>
   <v>       0.00711111 </v>
   <v>       0.00711111 </v>
   <v>       0.00711111 </v>
   <v>       0.00711111 </v>
   <v>       0.00355556 </v>
   <v>       0.00177778 </v>
   <v>       0.00711111 </v>
   <v>       0.00711111 </v>
   <v>       0.00711111 </v>
   <v>       0.00711111 </v>
   <v>       0.00711111 </v>
   <v>       0.00711111 </v>
   <v>       0.00355556 </v>
   <v>       0.00177778 </v>
   <v>       0.00711111 </v>
   <v>       0.00711111 </v>
   <v>       0.00711111 </v>
   <v>       0.00711111 </v>
   <v>       0.00355556 </v>
   <v>       0.00177778 </v>
   <v>       0.00711111 </v>
   <v>       0.00711111 </v>
   <v>       0.00355556 </v>
   <v>       0.00177778 </v>
   <v>       0.00355556 </v>
   <v>       0.00711111 </v>
   <v>       0.01422222 </v>
   <v>       0.01422222 </v>
   <v>       0.01422222 </v>
   <v>       0.01422222 </v>
   <v>       0.01422222 </v>
   <v>       0.00711111 </v>
   <v>       0.01422222 </v>
   <v>       0.01422222 </v>
   <v>       0.01422222 </v>
   <v>       0.01422222 </v>
   <v>       0.01422222 </v>
   <v>       0.01422222 </v>
   <v>       0.01422222 </v>
   <v>       0.01422222 </v>
   <v>       0.00711111 </v>
   <v>       0.00711111 </v>
   <v>       0.01422222 </v>
   <v>       0.01422222 </v>
   <v>       0.01422222 </v>
   <v>       0.01422222 </v>
   <v>       0.01422222 </v>
   <v>       0.01422222 </v>
   <v>       0.00711111 </v>
   <v>       0.00711111 </v>
   <v>       0.01422222 </v>
   <v>       0.01422222 </v>
   <v>       0.01422222 </v>
   <v>       0.01422222 </v>
   <v>       0.00711111 </v>
   <v>       0.00711111 </v>
   <v>       0.01422222 </v>
   <v>       0.01422222 </v>
   <v>       0.00711111 </v>
   <v>       0.00711111 </v>
   <v>       0.00711111 </v>
   <v>       0.00711111 </v>
   <v>       0.01422222 </v>
   <v>       0.01422222 </v>
   <v>       0.01422222 </v>
   <v>       0.00711111 </v>
   <v>       0.01422222 </v>
   <v>       0.01422222 </v>
   <v>       0.01422222 </v>
   <v>       0.01422222 </v>
   <v>       0.00711111 </v>
   <v>       0.00711111 </v>
   <v>       0.01422222 </v>
   <v>       0.01422222 </v>
   <v>       0.00711111 </v>
   <v>       0.00711111 </v>
   <v>       0.00711111 </v>
   <v>       0.00711111 </v>
   <v>       0.01422222 </v>
   <v>       0.00711111 </v>
   <v>       0.00711111 </v>
  </varray>
 </kpoints>
 <parameters>
  <separator name="general" >
   <i type="string" name="SYSTEM">unknown system</i>
   <i type="logical" name="LCOMPAT"> F  </i>
  </separator>
  <separator name="electronic" >
   <i type="string" name="PREC">accura</i>
   <i name="ENMAX">    700.00000000</i>
   <i name="ENAUG">    322.06900000</i>
   <i name="EDIFF">      0.00000100</i>
   <i type="int" name="IALGO">    38</i>
   <i type="int" name="IWAVPR">    11</i>
   <i type="int" name="NBANDS">     8</i>
   <i type="int" name="NBANDSLOW">    -1</i>
   <i type="int" name="NBANDSHIGH">    -1</i>
   <i name="NELECT">      8.00000000</i>
   <i type="int" name="TURBO">     0</i>
   <i type="int" name="IRESTART">     0</i>
   <i type="int" name="NREBOOT">     0</i>
   <i type="int" name="NMIN">     0</i>
   <i name="EREF">      0.00000000</i>
   <separator name="electronic smearing" >
    <i type="int" name="ISMEAR">     0</i>
    <i name="SIGMA">      0.05000000</i>
    <i name="KSPACING">      0.50000000</i>
    <i type="logical" name="KGAMMA"> T  </i>
    <i type="logical" name="KBLOWUP"> T  </i>
   </separator>
   <separator name="electronic projectors" >
    <i type="logical" name="LREAL"> F  </i>
    <v name="ROPT">      0.00000000</v>
    <i type="int" name="LMAXPAW">  -100</i>
    <i type="int" name="LMAXMIX">     2</i>
    <i type="logical" name="NLSPLINE"> F  </i>
   </separator>
   <separator name="electronic startup" >
    <i type="int" name="ISTART">     0</i>
    <i type="int" name="ICHARG">     2</i>
    <i type="int" name="INIWAV">     1</i>
   </separator>
   <separator name="electronic spin" >
    <i type="int" name="ISPIN">     1</i>
    <i type="logical" name="LNONCOLLINEAR"> F  </i>
    <v name="MAGMOM">      1.00000000      1.00000000</v>
    <i name="NUPDOWN">     -1.00000000</i>
    <i type="logical" name="LSORBIT"> F  </i>
    <v name="SAXIS">      0.00000000      0.00000000      1.00000000</v>
    <i type="logical" name="LSPIRAL"> F  </i>
    <v name="QSPIRAL">      0.00000000      0.00000000      0.00000000</v>
    <i type="logical" name="LZEROZ"> F  </i>
   </separator>
   <separator name="electronic exchange-correlation" >
    <i type="logical" name="LASPH"> T  </i>
    <i type="logical" name="LMETAGGA"> F  </i>
   </separator>
   <separator name="electronic convergence" >
    <i type="int" name="NELM">    90</i>
    <i type="int" name="NELMDL">    -5</i>
    <i type="int" name="NELMIN">     6</i>
    <i name="ENINI">    700.00000000</i>
    <separator name="electronic convergence detail" >
     <i type="logical" name="LDIAG"> T  </i>
     <i type="logical" name="LSUBROT"> F  </i>
     <i name="WEIMIN">      0.00100000</i>
     <i name="EBREAK">      0.00000003</i>
     <i name="DEPER">      0.30000000</i>
     <i type="int" name="NRMM">     4</i>
     <i name="TIME">      0.40000000</i>
    </separator>
   </separator>
   <separator name="electronic mixer" >
    <i name="AMIX">      0.40000000</i>
    <i name="BMIX">      1.00000000</i>
    <i name="AMIN">      0.10000000</i>
    <i name="AMIX_MAG">      1.60000000</i>
    <i name="BMIX_MAG">      1.00000000</i>
    <separator name="electronic mixer details" >
     <i type="int" name="IMIX">     4</i>
     <i type="logical" name="MIXFIRST"> F  </i>
     <i type="int" name="MAXMIX">   -45</i>
     <i name="WC">    100.00000000</i>
     <i type="int" name="INIMIX">     1</i>
     <i type="int" name="MIXPRE">     1</i>
     <i type="int" name="MREMOVE">     5</i>
    </separator>
   </separator>
   <separator name="electronic dipolcorrection" >
    <i type="logical" name="LDIPOL"> F  </i>
    <i type="logical" name="LMONO"> F  </i>
    <i type="int" name="IDIPOL">     0</i>
    <i name="EPSILON">      1.00000000</i>
    <v name="DIPOL">   -100.00000000   -100.00000000   -100.00000000</v>
    <i name="EFIELD">      0.00000000</i>
   </separator>
  </separator>
  <separator name="grids" >
   <i type="int" name="NGX">    36</i>
   <i type="int" name="NGY">    36</i>
   <i type="int" name="NGZ">    36</i>
   <i type="int" name="NGXF">    72</i>
   <i type="int" name="NGYF">    72</i>
   <i type="int" name="NGZF">    72</i>
   <i type="logical" name="ADDGRID"> T  </i>
  </separator>
  <separator name="ionic" >
   <i type="int" name="NSW">   100</i>
   <i type="int" name="IBRION">     2</i>
   <i type="int" name="MDALGO">     0</i>
   <i type="int" name="ISIF">     3</i>
   <i name="PSTRESS">      0.00000000</i>
   <i name="EDIFFG">     -0.00200000</i>
   <i type="int" name="NFREE">     1</i>
   <i name="POTIM">      0.50000000</i>
   <i name="SMASS">     -3.00000000</i>
   <i name="SCALEE">      1.00000000</i>
  </separator>
  <separator name="ionic md" >
   <i name="TEBEG">      0.00010000</i>
   <i name="TEEND">      0.00010000</i>
   <i type="int" name="NBLOCK">     1</i>
   <i type="int" name="KBLOCK">   100</i>
   <i type="int" name="NPACO">   256</i>
   <i name="APACO">     16.00000000</i>
  </separator>
  <separator name="symmetry" >
   <i type="int" name="ISYM">     2</i>
   <i name="SYMPREC">      0.00001000</i>
  </separator>
  <separator name="dos" >
   <i type="int" name="LORBIT">     0</i>
   <v name="RWIGS">     -1.00000000</v>
   <i type="int" name="NEDOS">   301</i>
   <i name="EMIN">     10.00000000</i>
   <i name="EMAX">    -10.00000000</i>
   <i name="EFERMI">      0.00000000</i>
  </separator>
  <separator name="writing" >
   <i type="int" name="NWRITE">     2</i>
   <i type="logical" name="LWAVE"> F  </i>
   <i type="logical" name="LDOWNSAMPLE"> F  </i>
   <i type="logical" name="LCHARG"> F  </i>
   <i type="logical" name="LPARD"> F  </i>
   <i type="logical" name="LVTOT"> F  </i>
   <i type="logical" name="LVHAR"> F  </i>
   <i type="logical" name="LELF"> F  </i>
   <i type="logical" name="LOPTICS"> F  </i>
   <v name="STM">      0.00000000      0.00000000      0.00000000      0.00000000      0.00000000      0.00000000      0.00000000</v>
  </separator>
  <separator name="performance" >
   <i type="int" name="NPAR">     4</i>
   <i type="int" name="NSIM">     4</i>
   <i type="int" name="NBLK">    -1</i>
   <i type="logical" name="LPLANE"> T  </i>
   <i type="logical" name="LSCALAPACK"> T  </i>
   <i type="logical" name="LSCAAWARE"> F  </i>
   <i type="logical" name="LSCALU"> F  </i>
   <i type="logical" name="LASYNC"> F  </i>
   <i type="logical" name="LORBITALREAL"> F  </i>
  </separator>
  <separator name="miscellaneous" >
   <i type="int" name="IDIOT">     3</i>
   <i type="int" name="PHON_NSTRUCT">    -1</i>
   <i type="logical" name="LMUSIC"> F  </i>
   <v name="POMASS">     28.08500000</v>
   <v name="DARWINR">      0.00000000</v>
   <v name="DARWINV">      1.00000000</v>
   <i type="logical" name="LCORR"> T  </i>
  </separator>
  <i type="logical" name="GGA_COMPAT"> T  </i>
  <i type="logical" name="LBERRY"> F  </i>
  <i type="int" name="ICORELEVEL">     0</i>
  <i type="logical" name="LDAU"> F  </i>
  <i type="int" name="I_CONSTRAINED_M">     0</i>
  <separator name="electronic exchange-correlation" >
   <i type="string" name="GGA">--</i>
   <i type="int" name="VOSKOWN">     0</i>
   <i type="logical" name="LHFCALC"> F  </i>
   <i type="string" name="PRECFOCK"></i>
   <i type="logical" name="LSYMGRAD"> F  </i>
   <i type="logical" name="LHFONE"> F  </i>
   <i type="logical" name="LRHFCALC"> F  </i>
   <i type="logical" name="LTHOMAS"> F  </i>
   <i type="logical" name="LMODELHF"> F  </i>
   <i type="logical" name="LFOCKACE"> F  </i>
   <i name="ENCUT4O">     -1.00000000</i>
   <i type="int" name="EXXOEP">     0</i>
   <i type="int" name="FOURORBIT">     0</i>
   <i name="AEXX">      0.00000000</i>
   <i name="HFALPHA">      0.00000000</i>
   <i name="MCALPHA">      0.00000000</i>
   <i name="ALDAX">      1.00000000</i>
   <i name="AGGAX">      1.00000000</i>
   <i name="ALDAC">      1.00000000</i>
   <i name="AGGAC">      1.00000000</i>
   <i type="int" name="NKREDX">     1</i>
   <i type="int" name="NKREDY">     1</i>
   <i type="int" name="NKREDZ">     1</i>
   <i type="logical" name="SHIFTRED"> F  </i>
   <i type="logical" name="ODDONLY"> F  </i>
   <i type="logical" name="EVENONLY"> F  </i>
   <i type="int" name="LMAXFOCK">     0</i>
   <i type="int" name="NMAXFOCKAE">     0</i>
   <i type="logical" name="LFOCKAEDFT"> F  </i>
   <i name="HFSCREEN">      0.00000000</i>
   <i name="HFSCREENC">      0.00000000</i>
   <i type="int" name="NBANDSGWLOW">     0</i>
  </separator>
  <separator name="vdW DFT" >
   <i type="logical" name="LUSE_VDW"> F  </i>
   <i name="Zab_VDW">     -0.84910000</i>
   <i name="PARAM1">      0.12340000</i>
   <i name="PARAM2">      1.00000000</i>
   <i name="PARAM3">      0.00000000</i>
  </separator>
  <separator name="model GW" >
   <i type="int" name="MODEL_GW">     0</i>
   <i name="MODEL_EPS0">     12.09885805</i>
   <i name="MODEL_ALPHA">      1.00000000</i>
  </separator>
  <separator name="linear response parameters" >
   <i type="logical" name="LEPSILON"> F  </i>
   <i type="logical" name="LRPA"> F  </i>
   <i type="logical" name="LNABLA"> F  </i>
   <i type="logical" name="LVEL"> F  </i>
   <i type="int" name="KINTER">     0</i>
   <i name="CSHIFT">      0.10000000</i>
   <i name="OMEGAMAX">     -1.00000000</i>
   <i name="DEG_THRESHOLD">      0.00200000</i>
   <i name="RTIME">     -0.10000000</i>
   <i name="WPLASMAI">      0.00000000</i>
   <v name="DFIELD">      0.00000000      0.00000000      0.00000000</v>
   <v name="WPLASMA">      0.00000000      0.00000000      0.00000000      0.00000000      0.00000000      0.00000000      0.00000000      0.00000000      0.00000000</v>
  </separator>
  <separator name="orbital magnetization" >
   <i type="logical" name="NUCIND"> F  </i>
   <v name="MAGPOS">      0.00000000      0.00000000      0.00000000</v>
   <i type="logical" name="LNICSALL"> T  </i>
   <i type="logical" name="ORBITALMAG"> F  </i>
   <i type="logical" name="LMAGBLOCH"> F  </i>
   <i type="logical" name="LCHIMAG"> F  </i>
   <i type="logical" name="LGAUGE"> T  </i>
   <i type="int" name="MAGATOM">     0</i>
   <v name="MAGDIPOL">      0.00000000      0.00000000      0.00000000</v>
   <v name="AVECCONST">      0.00000000      0.00000000      0.00000000</v>
  </separator>
  <separator name="response functions" >
   <i type="logical" name="LFINITE_TEMPERATURE"> F  </i>
   <i type="logical" name="LADDER"> F  </i>
   <i type="logical" name="LRPAFORCE"> F  </i>
   <i type="logical" name="LFXC"> F  </i>
   <i type="logical" name="LHARTREE"> T  </i>
   <i type="int" name="IBSE">     0</i>
   <v type="int" name="KPOINT">    -1     0     0     0</v>
   <i type="logical" name="LTCTC"> F  </i>
   <i type="logical" name="LTCTE"> F  </i>
   <i type="logical" name="LTETE"> F  </i>
   <i type="logical" name="LTRIPLET"> F  </i>
   <i type="logical" name="LFXCEPS"> F  </i>
   <i type="logical" name="LFXHEG"> F  </i>
   <i type="int" name="NATURALO">     2</i>
   <i type="logical" name="LHOLEGF"> F  </i>
   <i type="logical" name="L2ORDER"> F  </i>
   <i type="logical" name="LDMP1"> F  </i>
   <i type="logical" name="LMP2LT"> F  </i>
   <i type="logical" name="LSMP2LT"> F  </i>
   <i type="logical" name="LGWLF"> F  </i>
   <i name="ENCUTGW">     -2.00000000</i>
   <i name="ENCUTGWSOFT">     -2.00000000</i>
   <i name="ENCUTLF">     -1.00000000</i>
   <i type="logical" name="LESF_SPLINES"> F  </i>
   <i type="int" name="LMAXMP2">    -1</i>
   <i name="SCISSOR">      0.00000000</i>
   <i type="int" name="NOMEGA">     0</i>
   <i type="int" name="NOMEGAR">     0</i>
   <i type="int" name="NBANDSGW">    -1</i>
   <i type="int" name="NBANDSO">    -1</i>
   <i type="int" name="NBANDSV">    -1</i>
   <i type="int" name="NELM">    90</i>
   <i type="int" name="NELMHF">     1</i>
   <i type="int" name="DIM">     3</i>
   <i type="int" name="IESPILON">     4</i>
   <i type="int" name="ANTIRES">     0</i>
   <i name="OMEGAMAX">    -30.00000000</i>
   <i name="OMEGAMIN">    -30.00000000</i>
   <i name="OMEGATL">   -200.00000000</i>
   <i type="int" name="OMEGAGRID">     0</i>
   <i name="CSHIFT">     -0.10000000</i>
   <i type="logical" name="LSELFENERGY"> F  </i>
   <i type="logical" name="LSPECTRAL"> F  </i>
   <i type="logical" name="LSPECTRALGW"> F  </i>
   <i type="logical" name="LSINGLES"> F  </i>
   <i type="logical" name="LFERMIGW"> F  </i>
   <i type="logical" name="ODDONLYGW"> F  </i>
   <i type="logical" name="EVENONLYGW"> F  </i>
   <i type="int" name="NKREDLFX">     1</i>
   <i type="int" name="NKREDLFY">     1</i>
   <i type="int" name="NKREDLFZ">     1</i>
   <i type="int" name="MAXMEM">  2800</i>
   <i type="int" name="TELESCOPE">     0</i>
   <i type="int" name="NTAUPAR">    -1</i>
   <i type="int" name="NOMEGAPAR">    -1</i>
   <i name="DAMP_NEWTON">      0.80000001</i>
   <i name="LAMBDA">      1.00000000</i>
  </separator>
  <separator name="External order field" >
   <i name="OFIELD_KAPPA">      0.00000000</i>
   <v name="OFIELD_K">      0.00000000      0.00000000      0.00000000</v>
   <i name="OFIELD_Q6_NEAR">      0.00000000</i>
   <i name="OFIELD_Q6_FAR">      0.00000000</i>
   <i name="OFIELD_A">      0.00000000</i>
  </separator>
 </parameters>
 <atominfo>
  <atoms>       2 </atoms>
  <types>       1 </types>
  <array name="atoms" >
   <dimension dim="1">ion</dimension>
   <field type="string">element</field>
   <field type="int">atomtype</field>
   <set>
    <rc><c>Si</c><c>   1</c></rc>
    <rc><c>Si</c><c>   1</c></rc>
   </set>
  </array>
  <array name="atomtypes" >
   <dimension dim="1">type</dimension>
   <field type="int">atomspertype</field>
   <field type="string">element</field>
   <field>mass</field>
   <field>valence</field>
   <field type="string">pseudopotential</field>
   <set>
    <rc><c>   2</c><c>Si</c><c>     28.08500000</c><c>      4.00000000</c><c>  PAW_PBE Si 05Jan2001                  </c></rc>
   </set>
  </array>
 </atominfo>
 <structure name="initialpos" >
  <crystal>
   <varray name="basis" >
    <v>       3.33357300       0.00000000       1.92463900 </v>
    <v>       1.11119100       3.14292400       1.92463900 </v>
    <v>       0.00000000       0.00000000       3.84927800 </v>
   </varray>
   <i name="volume">     40.32952685 </i>
   <varray name="rec_basis" >
    <v>       0.29997843      -0.10605835       0.00000000 </v>
    <v>       0.00000000       0.31817505       0.00000000 </v>
    <v>      -0.14998922      -0.10605835       0.25978898 </v>
   </varray>
  </crystal>
  <varray name="positions" >
   <v>       0.87500000       0.87500000       0.87500000 </v>
   <v>       0.12500000       0.12500000       0.12500000 </v>
  </varray>
 </structure>
 <calculation>
  <scstep>
   <time name="dav">    2.72    2.72</time>
   <time name="total">    3.06    3.06</time>
   <energy>
    <i name="alphaZ">      3.33880741 </i>
    <i name="ewald">   -227.98820643 </i>
    <i name="hartreedc">    -11.11484531 </i>
    <i name="XCdc">    -18.63153739 </i>
    <i name="pawpsdc">    176.24759923 </i>
    <i name="pawaedc">   -141.06103558 </i>
    <i name="eentropy">     -0.00065575 </i>
    <i name="bandstr">     21.36305058 </i>
    <i name="atom">    206.13324734 </i>
    <i name="e_fr_energy">      8.28642409 </i>
    <i name="e_wo_entrp">      8.28707985 </i>
    <i name="e_0_energy">      8.28675197 </i>
   </energy>
  </scstep>
  <scstep>
   <time name="dav">    3.78    3.80</time>
   <time name="total">    3.78    3.80</time>
   <energy>
    <i name="e_fr_energy">    -10.77719123 </i>
    <i name="e_wo_entrp">    -10.77719123 </i>
    <i name="e_0_energy">    -10.77719123 </i>
   </energy>
  </scstep>
  <scstep>
   <time name="dav">    3.32    3.33</time>
   <time name="total">    3.32    3.34</time>
   <energy>
    <i name="e_fr_energy">    -11.02279393 </i>
    <i name="e_wo_entrp">    -11.02279393 </i>
    <i name="e_0_energy">    -11.02279393 </i>
   </energy>
  </scstep>
  <scstep>
   <time name="dav">    3.93    3.95</time>
   <time name="total">    3.93    3.95</time>
   <energy>
    <i name="e_fr_energy">    -11.02381552 </i>
    <i name="e_wo_entrp">    -11.02381552 </i>
    <i name="e_0_energy">    -11.02381552 </i>
   </energy>
  </scstep>
  <scstep>
   <time name="dav">    3.45    3.47</time>
   <time name="total">    3.74    3.76</time>
   <energy>
    <i name="e_fr_energy">    -11.02381678 </i>
    <i name="e_wo_entrp">    -11.02381678 </i>
    <i name="e_0_energy">    -11.02381678 </i>
   </energy>
  </scstep>
  <scstep>
   <time name="dav">    3.20    3.20</time>
   <time name="total">    3.79    3.81</time>
   <energy>
    <i name="e_fr_energy">    -10.90224336 </i>
    <i name="e_wo_entrp">    -10.90224336 </i>
    <i name="e_0_energy">    -10.90224336 </i>
   </energy>
  </scstep>
  <scstep>
   <time name="dav">    3.24    3.24</time>
   <time name="total">    3.83    3.85</time>
   <energy>
    <i name="e_fr_energy">    -10.84664345 </i>
    <i name="e_wo_entrp">    -10.84664345 </i>
    <i name="e_0_energy">    -10.84664345 </i>
   </energy>
  </scstep>
  <scstep>
   <time name="dav">    3.04    3.04</time>
   <time name="total">    3.63    3.65</time>
   <energy>
    <i name="e_fr_energy">    -10.84771747 </i>
    <i name="e_wo_entrp">    -10.84771747 </i>
    <i name="e_0_energy">    -10.84771747 </i>
   </energy>
  </scstep>
  <scstep>
   <time name="dav">    3.68    3.68</time>
   <time name="total">    4.27    4.29</time>
   <energy>
    <i name="e_fr_energy">    -10.84791072 </i>
    <i name="e_wo_entrp">    -10.84791072 </i>
    <i name="e_0_energy">    -10.84791072 </i>
   </energy>
  </scstep>
  <scstep>
   <time name="dav">    3.07    3.11</time>
   <time name="total">    3.66    3.72</time>
   <energy>
    <i name="e_fr_energy">    -10.84793641 </i>
    <i name="e_wo_entrp">    -10.84793641 </i>
    <i name="e_0_energy">    -10.84793641 </i>
   </energy>
  </scstep>
  <scstep>
   <time name="dav">    3.53    3.53</time>
   <time name="total">    3.85    3.87</time>
   <energy>
    <i name="alphaZ">      3.33880741 </i>
    <i name="ewald">   -227.98820643 </i>
    <i name="hartreedc">    -15.00498309 </i>
    <i name="XCdc">    -17.99889591 </i>
    <i name="pawpsdc">    853.93824345 </i>
    <i name="pawaedc">   -818.96881016 </i>
    <i name="eentropy">     -0.00000000 </i>
    <i name="bandstr">      5.70266133 </i>
    <i name="atom">    206.13324734 </i>
    <i name="e_fr_energy">    -10.84793606 </i>
    <i name="e_wo_entrp">    -10.84793606 </i>
    <i name="e_0_energy">    -10.84793606 </i>
   </energy>
  </scstep>
  <structure>
   <crystal>
    <varray name="basis" >
     <v>       3.33357300       0.00000000       1.92463900 </v>
     <v>       1.11119100       3.14292400       1.92463900 </v>
     <v>       0.00000000       0.00000000       3.84927800 </v>
    </varray>
    <i name="volume">     40.32952685 </i>
    <varray name="rec_basis" >
     <v>       0.29997843      -0.10605835       0.00000000 </v>
     <v>       0.00000000       0.31817505       0.00000000 </v>
     <v>      -0.14998922      -0.10605835       0.25978898 </v>
    </varray>
   </crystal>
   <varray name="positions" >
    <v>       0.87500000       0.87500000       0.87500000 </v>
    <v>       0.12500000       0.12500000       0.12500000 </v>
   </varray>
  </structure>
  <varray name="forces" >
   <v>       0.00000000      -0.00000000      -0.00000000 </v>
   <v>      -0.00000000       0.00000000       0.00000000 </v>
  </varray>
  <varray name="stress" >
   <v>      12.70775243       0.00000000      -0.00000000 </v>
   <v>       0.00000000      12.70776242       0.00000000 </v>
   <v>      -0.00000000       0.00000000      12.70774888 </v>
  </varray>
  <energy>
   <i name="e_fr_energy">    -10.84793606 </i>
   <i name="e_wo_entrp">    -10.84793606 </i>
   <i name="e_0_energy">    -10.84793606 </i>
  </energy>
  <time name="totalsc">   45.75   46.11</time>
 </calculation>
 <calculation>
  <scstep>
   <time name="dav">    3.17    3.17</time>
   <time name="total">    3.76    3.76</time>
   <energy>
    <i name="alphaZ">      3.26269989 </i>
    <i name="ewald">   -226.24255768 </i>
    <i name="hartreedc">    -14.89166332 </i>
    <i name="XCdc">    -18.11165132 </i>
    <i name="pawpsdc">    853.91069481 </i>
    <i name="pawaedc">   -818.94126517 </i>
    <i name="eentropy">     -0.00000000 </i>
    <i name="bandstr">      4.02838937 </i>
    <i name="atom">    206.13324734 </i>
    <i name="e_fr_energy">    -10.85210608 </i>
    <i name="e_wo_entrp">    -10.85210608 </i>
    <i name="e_0_energy">    -10.85210608 </i>
   </energy>
  </scstep>
  <scstep>
   <time name="dav">    3.44    3.44</time>
   <time name="total">    4.03    4.05</time>
   <energy>
    <i name="e_fr_energy">    -10.85016862 </i>
    <i name="e_wo_entrp">    -10.85016862 </i>
    <i name="e_0_energy">    -10.85016862 </i>
   </energy>
  </scstep>
  <scstep>
   <time name="dav">    3.06    3.06</time>
   <time name="total">    3.65    3.67</time>
   <energy>
    <i name="e_fr_energy">    -10.84914648 </i>
    <i name="e_wo_entrp">    -10.84914648 </i>
    <i name="e_0_energy">    -10.84914648 </i>
   </energy>
  </scstep>
  <scstep>
   <time name="dav">    3.56    3.56</time>
   <time name="total">    4.15    4.17</time>
   <energy>
    <i name="e_fr_energy">    -10.84914651 </i>
    <i name="e_wo_entrp">    -10.84914651 </i>
    <i name="e_0_energy">    -10.84914651 </i>
   </energy>
  </scstep>
  <scstep>
   <time name="dav">    3.03    3.04</time>
   <time name="total">    3.62    3.65</time>
   <energy>
    <i name="e_fr_energy">    -10.84913988 </i>
    <i name="e_wo_entrp">    -10.84913988 </i>
    <i name="e_0_energy">    -10.84913988 </i>
   </energy>
  </scstep>
  <scstep>
   <time name="dav">    2.13    2.13</time>
   <time name="total">    2.45    2.47</time>
   <energy>
    <i name="alphaZ">      3.26269989 </i>
    <i name="ewald">   -226.24255768 </i>
    <i name="hartreedc">    -15.28172043 </i>
    <i name="XCdc">    -18.10406403 </i>
    <i name="pawpsdc">    812.26875524 </i>
    <i name="pawaedc">   -777.27936573 </i>
    <i name="eentropy">     -0.00000000 </i>
    <i name="bandstr">      4.39386532 </i>
    <i name="atom">    206.13324734 </i>
    <i name="e_fr_energy">    -10.84914007 </i>
    <i name="e_wo_entrp">    -10.84914007 </i>
    <i name="e_0_energy">    -10.84914007 </i>
   </energy>
  </scstep>
  <structure>
   <crystal>
    <varray name="basis" >
     <v>       3.35929427       0.00000000       1.93948918 </v>
     <v>       1.11976476       3.16717428       1.93948918 </v>
     <v>      -0.00000000       0.00000000       3.87897836 </v>
    </varray>
    <i name="volume">     41.27027543 </i>
    <varray name="rec_basis" >
     <v>       0.29768157      -0.10524629       0.00000000 </v>
     <v>      -0.00000000       0.31573886      -0.00000000 </v>
     <v>      -0.14884079      -0.10524629       0.25779984 </v>
    </varray>
   </crystal>
   <varray name="positions" >
    <v>       0.87500000       0.87500000       0.87500000 </v>
    <v>       0.12500000       0.12500000       0.12500000 </v>
   </varray>
  </structure>
  <varray name="forces" >
   <v>       0.00000000       0.00000000      -0.00000000 </v>
   <v>      -0.00000000      -0.00000000       0.00000000 </v>
  </varray>
  <varray name="stress" >
   <v>      -8.02841973       0.00000000      -0.00000000 </v>
   <v>       0.00000000      -8.02842613       0.00000000 </v>
   <v>      -0.00000000       0.00000000      -8.02841745 </v>
  </varray>
  <energy>
   <i name="e_fr_energy">    -10.84914007 </i>
   <i name="e_wo_entrp">    -10.84914007 </i>
   <i name="e_0_energy">    -10.84914007 </i>
  </energy>
  <time name="totalsc">   26.60   26.84</time>
 </calculation>
 <calculation>
  <scstep>
   <time name="dav">    3.16    3.17</time>
   <time name="total">    3.75    3.76</time>
   <energy>
    <i name="alphaZ">      3.29324699 </i>
    <i name="ewald">   -226.94643254 </i>
    <i name="hartreedc">    -15.33004755 </i>
    <i name="XCdc">    -18.05875118 </i>
    <i name="pawpsdc">    810.59982135 </i>
    <i name="pawaedc">   -775.61055639 </i>
    <i name="eentropy">     -0.00000000 </i>
    <i name="bandstr">      5.06888657 </i>
    <i name="atom">    206.13324734 </i>
    <i name="e_fr_energy">    -10.85058541 </i>
    <i name="e_wo_entrp">    -10.85058541 </i>
    <i name="e_0_energy">    -10.85058541 </i>
   </energy>
  </scstep>
  <scstep>
   <time name="dav">    3.42    3.42</time>
   <time name="total">    4.01    4.03</time>
   <energy>
    <i name="e_fr_energy">    -10.85026896 </i>
    <i name="e_wo_entrp">    -10.85026896 </i>
    <i name="e_0_energy">    -10.85026896 </i>
   </energy>
  </scstep>
  <scstep>
   <time name="dav">    3.09    3.10</time>
   <time name="total">    3.68    3.70</time>
   <energy>
    <i name="e_fr_energy">    -10.85010880 </i>
    <i name="e_wo_entrp">    -10.85010880 </i>
    <i name="e_0_energy">    -10.85010880 </i>
   </energy>
  </scstep>
  <scstep>
   <time name="dav">    3.45    3.45</time>
   <time name="total">    4.04    4.06</time>
   <energy>
    <i name="e_fr_energy">    -10.85010944 </i>
    <i name="e_wo_entrp">    -10.85010944 </i>
    <i name="e_0_energy">    -10.85010944 </i>
   </energy>
  </scstep>
  <scstep>
   <time name="dav">    2.83    2.83</time>
   <time name="total">    3.42    3.44</time>
   <energy>
    <i name="e_fr_energy">    -10.85011128 </i>
    <i name="e_wo_entrp">    -10.85011128 </i>
    <i name="e_0_energy">    -10.85011128 </i>
   </energy>
  </scstep>
  <scstep>
   <time name="dav">    1.88    1.89</time>
   <time name="total">    2.21    2.22</time>
   <energy>
    <i name="alphaZ">      3.29324699 </i>
    <i name="ewald">   -226.94643254 </i>
    <i name="hartreedc">    -15.17075698 </i>
    <i name="XCdc">    -18.06163644 </i>
    <i name="pawpsdc">    827.65316383 </i>
    <i name="pawaedc">   -792.67183337 </i>
    <i name="eentropy">     -0.00000000 </i>
    <i name="bandstr">      4.92088997 </i>
    <i name="atom">    206.13324734 </i>
    <i name="e_fr_energy">    -10.85011120 </i>
    <i name="e_wo_entrp">    -10.85011120 </i>
    <i name="e_0_energy">    -10.85011120 </i>
   </energy>
  </scstep>
  <structure>
   <crystal>
    <varray name="basis" >
     <v>       3.34887542       0.00000000       1.93347385 </v>
     <v>       1.11629181       3.15735127       1.93347385 </v>
     <v>      -0.00000000       0.00000000       3.86694770 </v>
    </varray>
    <i name="volume">     40.88746563 </i>
    <varray name="rec_basis" >
     <v>       0.29860770      -0.10557372       0.00000000 </v>
     <v>      -0.00000000       0.31672117      -0.00000000 </v>
     <v>      -0.14930385      -0.10557372       0.25860189 </v>
    </varray>
   </crystal>
   <varray name="positions" >
    <v>       0.87500000       0.87500000       0.87500000 </v>
    <v>       0.12500000       0.12500000       0.12500000 </v>
   </varray>
  </structure>
  <varray name="forces" >
   <v>      -0.00000000       0.00000000       0.00000000 </v>
   <v>       0.00000000      -0.00000000      -0.00000000 </v>
  </varray>
  <varray name="stress" >
   <v>       0.07004974      -0.00000000       0.00000000 </v>
   <v>      -0.00000000       0.07004980      -0.00000000 </v>
   <v>       0.00000000       0.00000000       0.07004972 </v>
  </varray>
  <energy>
   <i name="e_fr_energy">    -10.85011120 </i>
   <i name="e_wo_entrp">    -10.85011120 </i>
   <i name="e_0_energy">    -10.85011120 </i>
  </energy>
  <time name="totalsc">   25.68   25.92</time>
  <eigenvalues>
   <array>
    <dimension dim="1">band</dimension>
    <dimension dim="2">kpoint</dimension>
    <dimension dim="3">spin</dimension>
    <field>eigene</field>
    <field>occ</field>
    <set>
     <set comment="spin 1">
      <set comment="kpoint 1">
       <r>   -6.1986    1.0000 </r>
       <r>    5.6160    1.0000 </r>
       <r>    5.6160    1.0000 </r>
       <r>    5.6160    1.0000 </r>
       <r>    8.1730    0.0000 </r>
       <r>    8.1730    0.0000 </r>
       <r>    8.1730    0.0000 </r>
       <r>    8.7502    0.0000 </r>
      </set>
      <set comment="kpoint 2">
       <r>   -6.1414    1.0000 </r>
       <r>    5.0230    1.0000 </r>
       <r>    5.5230    1.0000 </r>
       <r>    5.5230    1.0000 </r>
       <r>    8.2084    0.0000 </r>
       <r>    8.3098    0.0000 </r>
       <r>    8.3099    0.0000 </r>
       <r>    9.2111    0.0000 </r>
      </set>
      <set comment="kpoint 3">
       <r>   -5.9707    1.0000 </r>
       <r>    3.8723    1.0000 </r>
       <r>    5.3026    1.0000 </r>
       <r>    5.3026    1.0000 </r>
       <r>    8.0297    0.0000 </r>
       <r>    8.6331    0.0000 </r>
       <r>    8.6331    0.0000 </r>
       <r>   10.2963    0.0000 </r>
      </set>
      <set comment="kpoint 4">
       <r>   -5.6906    1.0000 </r>
       <r>    2.6342    1.0000 </r>
       <r>    5.0485    1.0000 </r>
       <r>    5.0485    1.0000 </r>
       <r>    7.7688    0.0000 </r>
       <r>    8.9606    0.0000 </r>
       <r>    8.9606    0.0000 </r>
       <r>   11.4948    0.0000 </r>
      </set>
      <set comment="kpoint 5">
       <r>   -5.3099    1.0000 </r>
       <r>    1.4386    1.0000 </r>
       <r>    4.8170    1.0000 </r>
       <r>    4.8170    1.0000 </r>
       <r>    7.5158    0.0000 </r>
       <r>    9.1293    0.0000 </r>
       <r>    9.1293    0.0000 </r>
       <r>   12.6404    0.0000 </r>
      </set>
      <set comment="kpoint 6">
       <r>   -4.8486    1.0000 </r>
       <r>    0.3467    1.0000 </r>
       <r>    4.6336    1.0000 </r>
       <r>    4.6336    1.0000 </r>
       <r>    7.3089    0.0000 </r>
       <r>    9.1196    0.0000 </r>
       <r>    9.1196    0.0000 </r>
       <r>   13.4001    0.0000 </r>
      </set>
      <set comment="kpoint 7">
       <r>   -4.3575    1.0000 </r>
       <r>   -0.5720    1.0000 </r>
       <r>    4.5085    1.0000 </r>
       <r>    4.5085    1.0000 </r>
       <r>    7.1653    0.0000 </r>
       <r>    9.0368    0.0000 </r>
       <r>    9.0368    0.0000 </r>
       <r>   13.4216    0.0000 </r>
      </set>
      <set comment="kpoint 8">
       <r>   -3.9798    1.0000 </r>
       <r>   -1.1656    1.0000 </r>
       <r>    4.4455    1.0000 </r>
       <r>    4.4455    1.0000 </r>
       <r>    7.0922    0.0000 </r>
       <r>    8.9744    0.0000 </r>
       <r>    8.9744    0.0000 </r>
       <r>   13.3320    0.0000 </r>
      </set>
      <set comment="kpoint 9">
       <r>   -6.1222    1.0000 </r>
       <r>    5.1322    1.0000 </r>
       <r>    5.3300    1.0000 </r>
       <r>    5.3300    1.0000 </r>
       <r>    7.9945    0.0000 </r>
       <r>    8.5531    0.0000 </r>
       <r>    8.5531    0.0000 </r>
       <r>    9.2113    0.0000 </r>
      </set>
      <set comment="kpoint 10">
       <r>   -5.9892    1.0000 </r>
       <r>    4.2087    1.0000 </r>
       <r>    5.0572    1.0000 </r>
       <r>    5.2227    1.0000 </r>
       <r>    7.9919    0.0000 </r>
       <r>    8.6170    0.0000 </r>
       <r>    8.9473    0.0000 </r>
       <r>   10.0044    0.0000 </r>
      </set>
      <set comment="kpoint 11">
       <r>   -5.7451    1.0000 </r>
       <r>    3.0226    1.0000 </r>
       <r>    4.7868    1.0000 </r>
       <r>    5.0074    1.0000 </r>
       <r>    8.0682    0.0000 </r>
       <r>    8.6148    0.0000 </r>
       <r>    9.3309    0.0000 </r>
       <r>   10.8840    0.0000 </r>
      </set>
      <set comment="kpoint 12">
       <r>   -5.3967    1.0000 </r>
       <r>    1.8285    1.0000 </r>
       <r>    4.5622    1.0000 </r>
       <r>    4.7371    1.0000 </r>
       <r>    7.9248    0.0000 </r>
       <r>    8.8032    0.0000 </r>
       <r>    9.5432    0.0000 </r>
       <r>   11.3702    0.0000 </r>
      </set>
      <set comment="kpoint 13">
       <r>   -4.9590    1.0000 </r>
       <r>    0.7091    1.0000 </r>
       <r>    4.4030    1.0000 </r>
       <r>    4.4777    1.0000 </r>
       <r>    7.7318    0.0000 </r>
       <r>    8.8977    0.0000 </r>
       <r>    9.5336    0.0000 </r>
       <r>   11.9358    0.0000 </r>
      </set>
      <set comment="kpoint 14">
       <r>   -4.4685    1.0000 </r>
       <r>   -0.2707    1.0000 </r>
       <r>    4.2596    1.0000 </r>
       <r>    4.3166    1.0000 </r>
       <r>    7.5766    0.0000 </r>
       <r>    8.8861    0.0000 </r>
       <r>    9.3988    0.0000 </r>
       <r>   12.7367    0.0000 </r>
      </set>
      <set comment="kpoint 15">
       <r>   -4.0267    1.0000 </r>
       <r>   -0.9957    1.0000 </r>
       <r>    4.0975    1.0000 </r>
       <r>    4.3038    1.0000 </r>
       <r>    7.4826    0.0000 </r>
       <r>    8.8752    0.0000 </r>
       <r>    9.2497    0.0000 </r>
       <r>   13.3807    0.0000 </r>
      </set>
      <set comment="kpoint 16">
       <r>   -3.8759    1.0000 </r>
       <r>   -1.2175    1.0000 </r>
       <r>    3.9998    1.0000 </r>
       <r>    4.3619    1.0000 </r>
       <r>    7.4578    0.0000 </r>
       <r>    8.9236    0.0000 </r>
       <r>    9.1465    0.0000 </r>
       <r>   13.5202    0.0000 </r>
      </set>
      <set comment="kpoint 17">
       <r>   -4.1574    1.0000 </r>
       <r>   -0.7933    1.0000 </r>
       <r>    3.9727    1.0000 </r>
       <r>    4.4855    1.0000 </r>
       <r>    7.5039    0.0000 </r>
       <r>    9.0420    0.0000 </r>
       <r>    9.1056    0.0000 </r>
       <r>   13.4908    0.0000 </r>
      </set>
      <set comment="kpoint 18">
       <r>   -4.6345    1.0000 </r>
       <r>    0.0370    1.0000 </r>
       <r>    4.0210    1.0000 </r>
       <r>    4.6669    1.0000 </r>
       <r>    7.6192    0.0000 </r>
       <r>    9.1025    0.0000 </r>
       <r>    9.2004    0.0000 </r>
       <r>   13.0814    0.0000 </r>
      </set>
      <set comment="kpoint 19">
       <r>   -5.1139    1.0000 </r>
       <r>    1.0714    1.0000 </r>
       <r>    4.1475    1.0000 </r>
       <r>    4.8948    1.0000 </r>
       <r>    7.7974    0.0000 </r>
       <r>    9.0620    0.0000 </r>
       <r>    9.3135    0.0000 </r>
       <r>   12.3256    0.0000 </r>
      </set>
      <set comment="kpoint 20">
       <r>   -5.5242    1.0000 </r>
       <r>    2.2190    1.0000 </r>
       <r>    4.3533    1.0000 </r>
       <r>    5.1491    1.0000 </r>
       <r>    8.0237    0.0000 </r>
       <r>    8.8840    0.0000 </r>
       <r>    9.2332    0.0000 </r>
       <r>   11.5887    0.0000 </r>
      </set>
      <set comment="kpoint 21">
       <r>   -5.8388    1.0000 </r>
       <r>    3.4056    1.0000 </r>
       <r>    4.6397    1.0000 </r>
       <r>    5.3901    1.0000 </r>
       <r>    8.2644    0.0000 </r>
       <r>    8.5817    0.0000 </r>
       <r>    8.8873    0.0000 </r>
       <r>   10.7742    0.0000 </r>
      </set>
      <set comment="kpoint 22">
       <r>   -6.0463    1.0000 </r>
       <r>    4.4605    1.0000 </r>
       <r>    5.0423    1.0000 </r>
       <r>    5.5434    1.0000 </r>
       <r>    8.3304    0.0000 </r>
       <r>    8.4308    0.0000 </r>
       <r>    8.4384    0.0000 </r>
       <r>    9.8387    0.0000 </r>
      </set>
      <set comment="kpoint 23">
       <r>   -5.8938    1.0000 </r>
       <r>    4.1268    1.0000 </r>
       <r>    4.7534    1.0000 </r>
       <r>    4.7534    1.0000 </r>
       <r>    7.5726    0.0000 </r>
       <r>    9.4088    0.0000 </r>
       <r>    9.4088    0.0000 </r>
       <r>    9.8819    0.0000 </r>
      </set>
      <set comment="kpoint 24">
       <r>   -5.6864    1.0000 </r>
       <r>    3.2530    1.0000 </r>
       <r>    4.4660    1.0000 </r>
       <r>    4.5353    1.0000 </r>
       <r>    7.5392    0.0000 </r>
       <r>    9.4239    0.0000 </r>
       <r>    9.8744    0.0000 </r>
       <r>   10.2185    0.0000 </r>
      </set>
      <set comment="kpoint 25">
       <r>   -5.3722    1.0000 </r>
       <r>    2.1621    1.0000 </r>
       <r>    4.2342    1.0000 </r>
       <r>    4.2500    1.0000 </r>
       <r>    7.7297    0.0000 </r>
       <r>    9.3379    0.0000 </r>
       <r>   10.1813    0.0000 </r>
       <r>   10.2669    0.0000 </r>
      </set>
      <set comment="kpoint 26">
       <r>   -4.9623    1.0000 </r>
       <r>    1.0723    1.0000 </r>
       <r>    3.9236    1.0000 </r>
       <r>    4.0767    1.0000 </r>
       <r>    7.8262    0.0000 </r>
       <r>    9.3531    0.0000 </r>
       <r>   10.2314    0.0000 </r>
       <r>   10.4784    0.0000 </r>
      </set>
      <set comment="kpoint 27">
       <r>   -4.4829    1.0000 </r>
       <r>    0.0722    1.0000 </r>
       <r>    3.6200    1.0000 </r>
       <r>    4.0012    1.0000 </r>
       <r>    7.7990    0.0000 </r>
       <r>    9.2934    0.0000 </r>
       <r>   10.0943    0.0000 </r>
       <r>   11.1795    0.0000 </r>
      </set>
      <set comment="kpoint 28">
       <r>   -4.0050    1.0000 </r>
       <r>   -0.7393    1.0000 </r>
       <r>    3.3703    1.0000 </r>
       <r>    4.0093    1.0000 </r>
       <r>    7.7686    0.0000 </r>
       <r>    9.2169    0.0000 </r>
       <r>    9.8975    0.0000 </r>
       <r>   12.1880    0.0000 </r>
      </set>
      <set comment="kpoint 29">
       <r>   -3.7233    1.0000 </r>
       <r>   -1.1545    1.0000 </r>
       <r>    3.1910    1.0000 </r>
       <r>    4.0981    1.0000 </r>
       <r>    7.7955    0.0000 </r>
       <r>    9.1945    0.0000 </r>
       <r>    9.7206    0.0000 </r>
       <r>   13.2922    0.0000 </r>
      </set>
      <set comment="kpoint 30">
       <r>   -3.8789    1.0000 </r>
       <r>   -0.9284    1.0000 </r>
       <r>    3.0935    1.0000 </r>
       <r>    4.2611    1.0000 </r>
       <r>    7.8928    0.0000 </r>
       <r>    9.2474    0.0000 </r>
       <r>    9.5932    0.0000 </r>
       <r>   13.7254    0.0000 </r>
      </set>
      <set comment="kpoint 31">
       <r>   -4.3234    1.0000 </r>
       <r>   -0.2128    1.0000 </r>
       <r>    3.0876    1.0000 </r>
       <r>    4.4869    1.0000 </r>
       <r>    8.0520    0.0000 </r>
       <r>    9.3661    0.0000 </r>
       <r>    9.5020    0.0000 </r>
       <r>   12.8800    0.0000 </r>
      </set>
      <set comment="kpoint 32">
       <r>   -4.8135    1.0000 </r>
       <r>    0.7339    1.0000 </r>
       <r>    3.1861    1.0000 </r>
       <r>    4.7573    1.0000 </r>
       <r>    8.2548    0.0000 </r>
       <r>    9.3807    0.0000 </r>
       <r>    9.4838    0.0000 </r>
       <r>   11.9812    0.0000 </r>
      </set>
      <set comment="kpoint 33">
       <r>   -5.2496    1.0000 </r>
       <r>    1.7696    1.0000 </r>
       <r>    3.4176    1.0000 </r>
       <r>    5.0406    1.0000 </r>
       <r>    8.4710    0.0000 </r>
       <r>    9.1347    0.0000 </r>
       <r>    9.4087    0.0000 </r>
       <r>   11.3649    0.0000 </r>
      </set>
      <set comment="kpoint 34">
       <r>   -5.5962    1.0000 </r>
       <r>    2.7306    1.0000 </r>
       <r>    3.8720    1.0000 </r>
       <r>    5.2805    1.0000 </r>
       <r>    8.5981    0.0000 </r>
       <r>    8.8013    0.0000 </r>
       <r>    9.0352    0.0000 </r>
       <r>   11.1117    0.0000 </r>
      </set>
      <set comment="kpoint 35">
       <r>   -5.5156    1.0000 </r>
       <r>    2.9815    1.0000 </r>
       <r>    4.1617    1.0000 </r>
       <r>    4.1617    1.0000 </r>
       <r>    7.0925    0.0000 </r>
       <r>    9.4694    0.0000 </r>
       <r>   10.4572    0.0000 </r>
       <r>   10.4572    0.0000 </r>
      </set>
      <set comment="kpoint 36">
       <r>   -5.2364    1.0000 </r>
       <r>    2.2156    1.0000 </r>
       <r>    3.8535    1.0000 </r>
       <r>    3.9147    1.0000 </r>
       <r>    7.0836    0.0000 </r>
       <r>    9.1153    0.0000 </r>
       <r>   10.7279    0.0000 </r>
       <r>   10.9162    0.0000 </r>
      </set>
      <set comment="kpoint 37">
       <r>   -4.8571    1.0000 </r>
       <r>    1.2867    1.0000 </r>
       <r>    3.4505    1.0000 </r>
       <r>    3.7450    1.0000 </r>
       <r>    7.2954    0.0000 </r>
       <r>    9.1322    0.0000 </r>
       <r>   10.6436    0.0000 </r>
       <r>   11.0962    0.0000 </r>
      </set>
      <set comment="kpoint 38">
       <r>   -4.3966    1.0000 </r>
       <r>    0.3527    1.0000 </r>
       <r>    3.0393    1.0000 </r>
       <r>    3.6616    1.0000 </r>
       <r>    7.4032    0.0000 </r>
       <r>    9.6859    0.0000 </r>
       <r>   10.4767    0.0000 </r>
       <r>   11.0122    0.0000 </r>
      </set>
      <set comment="kpoint 39">
       <r>   -3.9040    1.0000 </r>
       <r>   -0.4766    1.0000 </r>
       <r>    2.6846    1.0000 </r>
       <r>    3.6675    1.0000 </r>
       <r>    7.4375    0.0000 </r>
       <r>   10.3164    0.0000 </r>
       <r>   10.6464    0.0000 </r>
       <r>   10.8069    0.0000 </r>
      </set>
      <set comment="kpoint 40">
       <r>   -3.5234    1.0000 </r>
       <r>   -1.0267    1.0000 </r>
       <r>    2.4148    1.0000 </r>
       <r>    3.7610    1.0000 </r>
       <r>    7.5147    0.0000 </r>
       <r>   10.2112    0.0000 </r>
       <r>   10.5873    0.0000 </r>
       <r>   11.8196    0.0000 </r>
      </set>
      <set comment="kpoint 41">
       <r>   -3.5358    1.0000 </r>
       <r>   -1.0056    1.0000 </r>
       <r>    2.2467    1.0000 </r>
       <r>    3.9362    1.0000 </r>
       <r>    7.6747    0.0000 </r>
       <r>   10.1630    0.0000 </r>
       <r>   10.3967    0.0000 </r>
       <r>   13.1108    0.0000 </r>
      </set>
      <set comment="kpoint 42">
       <r>   -3.9272    1.0000 </r>
       <r>   -0.4338    1.0000 </r>
       <r>    2.1997    1.0000 </r>
       <r>    4.1817    1.0000 </r>
       <r>    7.9148    0.0000 </r>
       <r>   10.1689    0.0000 </r>
       <r>   10.2236    0.0000 </r>
       <r>   12.7583    0.0000 </r>
      </set>
      <set comment="kpoint 43">
       <r>   -4.4188    1.0000 </r>
       <r>    0.3724    1.0000 </r>
       <r>    2.3127    1.0000 </r>
       <r>    4.4769    1.0000 </r>
       <r>    8.2046    0.0000 </r>
       <r>    9.9847    0.0000 </r>
       <r>   10.1644    0.0000 </r>
       <r>   11.7723    0.0000 </r>
      </set>
      <set comment="kpoint 44">
       <r>   -4.8751    1.0000 </r>
       <r>    1.1696    1.0000 </r>
       <r>    2.6828    1.0000 </r>
       <r>    4.7850    1.0000 </r>
       <r>    8.4671    0.0000 </r>
       <r>    9.5817    0.0000 </r>
       <r>    9.8857    0.0000 </r>
       <r>   11.2732    0.0000 </r>
      </set>
      <set comment="kpoint 45">
       <r>   -4.9918    1.0000 </r>
       <r>    1.8021    1.0000 </r>
       <r>    3.6490    1.0000 </r>
       <r>    3.6490    1.0000 </r>
       <r>    6.6725    0.0000 </r>
       <r>    8.5111    0.0000 </r>
       <r>   11.5966    0.0000 </r>
       <r>   11.5966    0.0000 </r>
      </set>
      <set comment="kpoint 46">
       <r>   -4.6446    1.0000 </r>
       <r>    1.1227    1.0000 </r>
       <r>    3.3015    1.0000 </r>
       <r>    3.4601    1.0000 </r>
       <r>    6.7149    0.0000 </r>
       <r>    8.2087    0.0000 </r>
       <r>   11.8749    0.0000 </r>
       <r>   12.0127    0.0000 </r>
      </set>
      <set comment="kpoint 47">
       <r>   -4.2082    1.0000 </r>
       <r>    0.3630    1.0000 </r>
       <r>    2.7927    1.0000 </r>
       <r>    3.3589    1.0000 </r>
       <r>    6.9251    0.0000 </r>
       <r>    8.4065    0.0000 </r>
       <r>   11.8102    0.0000 </r>
       <r>   12.0646    0.0000 </r>
      </set>
      <set comment="kpoint 48">
       <r>   -3.7162    1.0000 </r>
       <r>   -0.3785    1.0000 </r>
       <r>    2.2922    1.0000 </r>
       <r>    3.3498    1.0000 </r>
       <r>    7.0200    0.0000 </r>
       <r>    9.1719    0.0000 </r>
       <r>   11.6660    0.0000 </r>
       <r>   11.8950    0.0000 </r>
      </set>
      <set comment="kpoint 49">
       <r>   -3.2704    1.0000 </r>
       <r>   -0.9667    1.0000 </r>
       <r>    1.8918    1.0000 </r>
       <r>    3.4323    1.0000 </r>
       <r>    7.1131    0.0000 </r>
       <r>   10.2563    0.0000 </r>
       <r>   11.5447    0.0000 </r>
       <r>   11.6576    0.0000 </r>
      </set>
      <set comment="kpoint 50">
       <r>   -3.1444    1.0000 </r>
       <r>   -1.1141    1.0000 </r>
       <r>    1.6330    1.0000 </r>
       <r>    3.6018    1.0000 </r>
       <r>    7.2868    0.0000 </r>
       <r>   11.2335    0.0000 </r>
       <r>   11.4151    0.0000 </r>
       <r>   11.7481    0.0000 </r>
      </set>
      <set comment="kpoint 51">
       <r>   -3.4683    1.0000 </r>
       <r>   -0.7081    1.0000 </r>
       <r>    1.5573    1.0000 </r>
       <r>    3.8482    1.0000 </r>
       <r>    7.5519    0.0000 </r>
       <r>   11.1358    0.0000 </r>
       <r>   11.2756    0.0000 </r>
       <r>   12.6643    0.0000 </r>
      </set>
      <set comment="kpoint 52">
       <r>   -3.9515    1.0000 </r>
       <r>   -0.1169    1.0000 </r>
       <r>    1.7491    1.0000 </r>
       <r>    4.1520    1.0000 </r>
       <r>    7.8839    0.0000 </r>
       <r>   10.6626    0.0000 </r>
       <r>   11.0022    0.0000 </r>
       <r>   11.8588    0.0000 </r>
      </set>
      <set comment="kpoint 53">
       <r>   -4.3288    1.0000 </r>
       <r>    0.6259    1.0000 </r>
       <r>    3.2492    1.0000 </r>
       <r>    3.2492    1.0000 </r>
       <r>    6.3746    0.0000 </r>
       <r>    7.6379    0.0000 </r>
       <r>   12.7891    0.0000 </r>
       <r>   12.7891    0.0000 </r>
      </set>
      <set comment="kpoint 54">
       <r>   -3.9192    1.0000 </r>
       <r>    0.0109    1.0000 </r>
       <r>    2.9054    1.0000 </r>
       <r>    3.1253    1.0000 </r>
       <r>    6.4778    0.0000 </r>
       <r>    7.4625    0.0000 </r>
       <r>   13.0909    0.0000 </r>
       <r>   13.1473    0.0000 </r>
      </set>
      <set comment="kpoint 55">
       <r>   -3.4385    1.0000 </r>
       <r>   -0.6112    1.0000 </r>
       <r>    2.3490    1.0000 </r>
       <r>    3.0945    1.0000 </r>
       <r>    6.6616    0.0000 </r>
       <r>    7.8994    0.0000 </r>
       <r>   13.0463    0.0000 </r>
       <r>   13.0965    0.0000 </r>
      </set>
      <set comment="kpoint 56">
       <r>   -2.9558    1.0000 </r>
       <r>   -1.1553    1.0000 </r>
       <r>    1.8100    1.0000 </r>
       <r>    3.1576    1.0000 </r>
       <r>    6.7674    0.0000 </r>
       <r>    8.8656    0.0000 </r>
       <r>   12.8691    0.0000 </r>
       <r>   12.9148    0.0000 </r>
      </set>
      <set comment="kpoint 57">
       <r>   -2.7245    1.0000 </r>
       <r>   -1.3847    1.0000 </r>
       <r>    1.4275    1.0000 </r>
       <r>    3.3113    1.0000 </r>
       <r>    6.9372    0.0000 </r>
       <r>   10.0835    0.0000 </r>
       <r>   12.5590    0.0000 </r>
       <r>   12.7873    0.0000 </r>
      </set>
      <set comment="kpoint 58">
       <r>   -3.0019    1.0000 </r>
       <r>   -1.0973    1.0000 </r>
       <r>    1.3057    1.0000 </r>
       <r>    3.5472    1.0000 </r>
       <r>    7.2041    0.0000 </r>
       <r>   11.3934    0.0000 </r>
       <r>   12.0239    0.0000 </r>
       <r>   12.5870    0.0000 </r>
      </set>
      <set comment="kpoint 59">
       <r>   -3.5356    1.0000 </r>
       <r>   -0.5210    1.0000 </r>
       <r>    2.9769    1.0000 </r>
       <r>    2.9769    1.0000 </r>
       <r>    6.2341    0.0000 </r>
       <r>    6.9657    0.0000 </r>
       <r>   14.0167    0.0000 </r>
       <r>   14.0167    0.0000 </r>
      </set>
      <set comment="kpoint 60">
       <r>   -3.0719    1.0000 </r>
       <r>   -1.0809    1.0000 </r>
       <r>    2.6680    1.0000 </r>
       <r>    2.9211    1.0000 </r>
       <r>    6.3900    0.0000 </r>
       <r>    6.9458    0.0000 </r>
       <r>   14.3098    0.0000 </r>
       <r>   14.3350    0.0000 </r>
      </set>
      <set comment="kpoint 61">
       <r>   -2.5735    1.0000 </r>
       <r>   -1.5895    1.0000 </r>
       <r>    2.1304    1.0000 </r>
       <r>    2.9604    1.0000 </r>
       <r>    6.5252    0.0000 </r>
       <r>    7.6450    0.0000 </r>
       <r>   14.1453    0.0000 </r>
       <r>   14.3071    0.0000 </r>
      </set>
      <set comment="kpoint 62">
       <r>   -2.3602    1.0000 </r>
       <r>   -1.7570    1.0000 </r>
       <r>    1.6470    1.0000 </r>
       <r>    3.0927    1.0000 </r>
       <r>    6.6800    0.0000 </r>
       <r>    8.7650    0.0000 </r>
       <r>   13.6131    0.0000 </r>
       <r>   14.1882    0.0000 </r>
      </set>
      <set comment="kpoint 63">
       <r>   -2.6247    1.0000 </r>
       <r>   -1.6128    1.0000 </r>
       <r>    2.8392    1.0000 </r>
       <r>    2.8392    1.0000 </r>
       <r>    6.2742    0.0000 </r>
       <r>    6.5133    0.0000 </r>
       <r>   15.2153    0.0000 </r>
       <r>   15.2153    0.0000 </r>
      </set>
      <set comment="kpoint 64">
       <r>   -2.1479    1.0000 </r>
       <r>   -2.0886    1.0000 </r>
       <r>    2.5890    1.0000 </r>
       <r>    2.8525    1.0000 </r>
       <r>    6.4031    0.0000 </r>
       <r>    6.7297    0.0000 </r>
       <r>   15.1903    0.0000 </r>
       <r>   15.3355    0.0000 </r>
      </set>
      <set comment="kpoint 65">
       <r>   -5.8191    1.0000 </r>
       <r>    3.5572    1.0000 </r>
       <r>    4.4613    1.0000 </r>
       <r>    5.1465    1.0000 </r>
       <r>    7.9778    0.0000 </r>
       <r>    8.8775    0.0000 </r>
       <r>    9.2715    0.0000 </r>
       <r>   10.4939    0.0000 </r>
      </set>
      <set comment="kpoint 66">
       <r>   -5.5399    1.0000 </r>
       <r>    2.5464    1.0000 </r>
       <r>    4.0244    1.0000 </r>
       <r>    4.9683    1.0000 </r>
       <r>    8.1620    0.0000 </r>
       <r>    8.8696    0.0000 </r>
       <r>    9.6616    0.0000 </r>
       <r>   10.7242    0.0000 </r>
      </set>
      <set comment="kpoint 67">
       <r>   -5.1603    1.0000 </r>
       <r>    1.4395    1.0000 </r>
       <r>    3.7503    1.0000 </r>
       <r>    4.7157    1.0000 </r>
       <r>    8.1954    0.0000 </r>
       <r>    8.9214    0.0000 </r>
       <r>    9.8579    0.0000 </r>
       <r>   10.9595    0.0000 </r>
      </set>
      <set comment="kpoint 68">
       <r>   -4.6997    1.0000 </r>
       <r>    0.3895    1.0000 </r>
       <r>    3.5742    1.0000 </r>
       <r>    4.4691    1.0000 </r>
       <r>    8.0860    0.0000 </r>
       <r>    8.9276    0.0000 </r>
       <r>    9.8339    0.0000 </r>
       <r>   11.5763    0.0000 </r>
      </set>
      <set comment="kpoint 69">
       <r>   -4.2081    1.0000 </r>
       <r>   -0.5090    1.0000 </r>
       <r>    3.4734    1.0000 </r>
       <r>    4.2765    1.0000 </r>
       <r>    7.9790    0.0000 </r>
       <r>    8.8559    0.0000 </r>
       <r>    9.7365    0.0000 </r>
       <r>   12.4925    0.0000 </r>
      </set>
      <set comment="kpoint 70">
       <r>   -3.8280    1.0000 </r>
       <r>   -1.0962    1.0000 </r>
       <r>    3.4300    1.0000 </r>
       <r>    4.1702    1.0000 </r>
       <r>    7.9202    0.0000 </r>
       <r>    8.7979    0.0000 </r>
       <r>    9.6663    0.0000 </r>
       <r>   13.4504    0.0000 </r>
      </set>
      <set comment="kpoint 71">
       <r>   -5.4434    1.0000 </r>
       <r>    2.5918    1.0000 </r>
       <r>    3.8670    1.0000 </r>
       <r>    4.4554    1.0000 </r>
       <r>    7.5168    0.0000 </r>
       <r>    9.4878    0.0000 </r>
       <r>   10.1479    0.0000 </r>
       <r>   10.3533    0.0000 </r>
      </set>
      <set comment="kpoint 72">
       <r>   -5.0966    1.0000 </r>
       <r>    1.6833    1.0000 </r>
       <r>    3.4288    1.0000 </r>
       <r>    4.2555    1.0000 </r>
       <r>    7.7491    0.0000 </r>
       <r>    9.4765    0.0000 </r>
       <r>    9.9995    0.0000 </r>
       <r>   10.7231    0.0000 </r>
      </set>
      <set comment="kpoint 73">
       <r>   -4.6604    1.0000 </r>
       <r>    0.7050    1.0000 </r>
       <r>    3.1327    1.0000 </r>
       <r>    4.0232    1.0000 </r>
       <r>    7.9012    0.0000 </r>
       <r>    9.5904    0.0000 </r>
       <r>   10.0884    0.0000 </r>
       <r>   10.8239    0.0000 </r>
      </set>
      <set comment="kpoint 74">
       <r>   -4.1699    1.0000 </r>
       <r>   -0.2028    1.0000 </r>
       <r>    2.9138    1.0000 </r>
       <r>    3.8556    1.0000 </r>
       <r>    7.9351    0.0000 </r>
       <r>    9.4078    0.0000 </r>
       <r>   10.7043    0.0000 </r>
       <r>   10.9489    0.0000 </r>
      </set>
      <set comment="kpoint 75">
       <r>   -3.7248    1.0000 </r>
       <r>   -0.8954    1.0000 </r>
       <r>    2.7464    1.0000 </r>
       <r>    3.7983    1.0000 </r>
       <r>    7.9773    0.0000 </r>
       <r>    9.2188    0.0000 </r>
       <r>   10.6278    0.0000 </r>
       <r>   12.0230    0.0000 </r>
      </set>
      <set comment="kpoint 76">
       <r>   -3.5741    1.0000 </r>
       <r>   -1.1066    1.0000 </r>
       <r>    2.6336    1.0000 </r>
       <r>    3.8581    1.0000 </r>
       <r>    8.0833    0.0000 </r>
       <r>    9.0872    0.0000 </r>
       <r>   10.5559    0.0000 </r>
       <r>   13.2478    0.0000 </r>
      </set>
      <set comment="kpoint 77">
       <r>   -3.8638    1.0000 </r>
       <r>   -0.6874    1.0000 </r>
       <r>    2.5938    1.0000 </r>
       <r>    4.0203    1.0000 </r>
       <r>    8.2568    0.0000 </r>
       <r>    9.0249    0.0000 </r>
       <r>   10.5255    0.0000 </r>
       <r>   12.3656    0.0000 </r>
      </set>
      <set comment="kpoint 78">
       <r>   -4.3436    1.0000 </r>
       <r>    0.0994    1.0000 </r>
       <r>    2.6517    1.0000 </r>
       <r>    4.2604    1.0000 </r>
       <r>    8.4713    0.0000 </r>
       <r>    9.0085    0.0000 </r>
       <r>   10.4991    0.0000 </r>
       <r>   11.3641    0.0000 </r>
      </set>
      <set comment="kpoint 79">
       <r>   -4.8211    1.0000 </r>
       <r>    1.0204    1.0000 </r>
       <r>    2.8479    1.0000 </r>
       <r>    4.5433    1.0000 </r>
       <r>    8.6562    0.0000 </r>
       <r>    8.9385    0.0000 </r>
       <r>   10.3857    0.0000 </r>
       <r>   10.6984    0.0000 </r>
      </set>
      <set comment="kpoint 80">
       <r>   -5.2283    1.0000 </r>
       <r>    1.8949    1.0000 </r>
       <r>    3.2750    1.0000 </r>
       <r>    4.8110    1.0000 </r>
       <r>    8.4914    0.0000 </r>
       <r>    8.9281    0.0000 </r>
       <r>   10.0888    0.0000 </r>
       <r>   10.5133    0.0000 </r>
      </set>
      <set comment="kpoint 81">
       <r>   -4.9236    1.0000 </r>
       <r>    1.5747    1.0000 </r>
       <r>    3.3574    1.0000 </r>
       <r>    3.7875    1.0000 </r>
       <r>    7.1067    0.0000 </r>
       <r>    8.7742    0.0000 </r>
       <r>   10.8952    0.0000 </r>
       <r>   11.5298    0.0000 </r>
      </set>
      <set comment="kpoint 82">
       <r>   -4.5157    1.0000 </r>
       <r>    0.7945    1.0000 </r>
       <r>    2.9088    1.0000 </r>
       <r>    3.5823    1.0000 </r>
       <r>    7.3701    0.0000 </r>
       <r>    8.8254    0.0000 </r>
       <r>   10.7434    0.0000 </r>
       <r>   11.8777    0.0000 </r>
      </set>
      <set comment="kpoint 83">
       <r>   -4.0371    1.0000 </r>
       <r>   -0.0156    1.0000 </r>
       <r>    2.5185    1.0000 </r>
       <r>    3.4341    1.0000 </r>
       <r>    7.5133    0.0000 </r>
       <r>    9.4446    0.0000 </r>
       <r>   10.5128    0.0000 </r>
       <r>   11.9057    0.0000 </r>
      </set>
      <set comment="kpoint 84">
       <r>   -3.5561    1.0000 </r>
       <r>   -0.7240    1.0000 </r>
       <r>    2.1954    1.0000 </r>
       <r>    3.4031    1.0000 </r>
       <r>    7.5921    0.0000 </r>
       <r>   10.1982    0.0000 </r>
       <r>   10.5455    0.0000 </r>
       <r>   11.8072    0.0000 </r>
      </set>
      <set comment="kpoint 85">
       <r>   -3.2750    1.0000 </r>
       <r>   -1.0932    1.0000 </r>
       <r>    1.9632    1.0000 </r>
       <r>    3.4885    1.0000 </r>
       <r>    7.7259    0.0000 </r>
       <r>   10.0488    0.0000 </r>
       <r>   11.6504    0.0000 </r>
       <r>   11.7686    0.0000 </r>
      </set>
      <set comment="kpoint 86">
       <r>   -3.4516    1.0000 </r>
       <r>   -0.8580    1.0000 </r>
       <r>    1.8497    1.0000 </r>
       <r>    3.6748    1.0000 </r>
       <r>    7.9443    0.0000 </r>
       <r>    9.9021    0.0000 </r>
       <r>   11.5745    0.0000 </r>
       <r>   12.3225    0.0000 </r>
      </set>
      <set comment="kpoint 87">
       <r>   -3.9061    1.0000 </r>
       <r>   -0.2259    1.0000 </r>
       <r>    1.8985    1.0000 </r>
       <r>    3.9400    1.0000 </r>
       <r>    8.2362    0.0000 </r>
       <r>    9.7512    0.0000 </r>
       <r>   11.1892    0.0000 </r>
       <r>   11.5351    0.0000 </r>
      </set>
      <set comment="kpoint 88">
       <r>   -4.3926    1.0000 </r>
       <r>    0.4684    1.0000 </r>
       <r>    2.1990    1.0000 </r>
       <r>    4.2499    1.0000 </r>
       <r>    8.5562    0.0000 </r>
       <r>    9.3892    0.0000 </r>
       <r>   10.6490    0.0000 </r>
       <r>   11.1068    0.0000 </r>
      </set>
      <set comment="kpoint 89">
       <r>   -4.2670    1.0000 </r>
       <r>    0.5152    1.0000 </r>
       <r>    2.9686    1.0000 </r>
       <r>    3.2512    1.0000 </r>
       <r>    6.8095    0.0000 </r>
       <r>    7.9471    0.0000 </r>
       <r>   11.9476    0.0000 </r>
       <r>   12.7572    0.0000 </r>
      </set>
      <set comment="kpoint 90">
       <r>   -3.8079    1.0000 </r>
       <r>   -0.1419    1.0000 </r>
       <r>    2.4953    1.0000 </r>
       <r>    3.0890    1.0000 </r>
       <r>    7.0881    0.0000 </r>
       <r>    8.1845    0.0000 </r>
       <r>   11.7577    0.0000 </r>
       <r>   13.0948    0.0000 </r>
      </set>
      <set comment="kpoint 91">
       <r>   -3.3128    1.0000 </r>
       <r>   -0.7695    1.0000 </r>
       <r>    2.0022    1.0000 </r>
       <r>    3.0610    1.0000 </r>
       <r>    7.2154    0.0000 </r>
       <r>    9.0269    0.0000 </r>
       <r>   11.5161    0.0000 </r>
       <r>   13.0851    0.0000 </r>
      </set>
      <set comment="kpoint 92">
       <r>   -2.9341    1.0000 </r>
       <r>   -1.2019    1.0000 </r>
       <r>    1.6188    1.0000 </r>
       <r>    3.1501    1.0000 </r>
       <r>    7.3519    0.0000 </r>
       <r>   10.1654    0.0000 </r>
       <r>   11.3055    0.0000 </r>
       <r>   12.9443    0.0000 </r>
      </set>
      <set comment="kpoint 93">
       <r>   -2.9988    1.0000 </r>
       <r>   -1.1209    1.0000 </r>
       <r>    1.4180    1.0000 </r>
       <r>    3.3406    1.0000 </r>
       <r>    7.5736    0.0000 </r>
       <r>   10.9403    0.0000 </r>
       <r>   11.6242    0.0000 </r>
       <r>   12.3469    0.0000 </r>
      </set>
      <set comment="kpoint 94">
       <r>   -3.4224    1.0000 </r>
       <r>   -0.6658    1.0000 </r>
       <r>    1.4797    1.0000 </r>
       <r>    3.6140    1.0000 </r>
       <r>    7.8807    0.0000 </r>
       <r>   10.5986    0.0000 </r>
       <r>   11.4507    0.0000 </r>
       <r>   12.3298    0.0000 </r>
      </set>
      <set comment="kpoint 95">
       <r>   -3.4838    1.0000 </r>
       <r>   -0.5574    1.0000 </r>
       <r>    2.7176    1.0000 </r>
       <r>    2.8761    1.0000 </r>
       <r>    6.6604    0.0000 </r>
       <r>    7.3143    0.0000 </r>
       <r>   13.0640    0.0000 </r>
       <r>   14.0109    0.0000 </r>
      </set>
      <set comment="kpoint 96">
       <r>   -2.9901    1.0000 </r>
       <r>   -1.1105    1.0000 </r>
       <r>    2.2272    1.0000 </r>
       <r>    2.8042    1.0000 </r>
       <r>    6.9214    0.0000 </r>
       <r>    7.7835    0.0000 </r>
       <r>   12.8496    0.0000 </r>
       <r>   14.3113    0.0000 </r>
      </set>
      <set comment="kpoint 97">
       <r>   -2.5497    1.0000 </r>
       <r>   -1.5431    1.0000 </r>
       <r>    1.7157    1.0000 </r>
       <r>    2.8847    1.0000 </r>
       <r>    7.0573    0.0000 </r>
       <r>    8.8220    0.0000 </r>
       <r>   12.5979    0.0000 </r>
       <r>   13.7783    0.0000 </r>
      </set>
      <set comment="kpoint 98">
       <r>   -2.5817    1.0000 </r>
       <r>   -1.4862    1.0000 </r>
       <r>    1.3980    1.0000 </r>
       <r>    3.0688    1.0000 </r>
       <r>    7.2683    0.0000 </r>
       <r>   10.0856    0.0000 </r>
       <r>   12.1941    0.0000 </r>
       <r>   12.6673    0.0000 </r>
      </set>
      <set comment="kpoint 99">
       <r>   -2.5892    1.0000 </r>
       <r>   -1.6042    1.0000 </r>
       <r>    2.6141    1.0000 </r>
       <r>    2.6651    1.0000 </r>
       <r>    6.6829    0.0000 </r>
       <r>    6.8956    0.0000 </r>
       <r>   14.2281    0.0000 </r>
       <r>   15.0783    0.0000 </r>
      </set>
      <set comment="kpoint 100">
       <r>   -2.1722    1.0000 </r>
       <r>   -1.9820    1.0000 </r>
       <r>    2.1349    1.0000 </r>
       <r>    2.7121    1.0000 </r>
       <r>    6.8676    0.0000 </r>
       <r>    7.6468    0.0000 </r>
       <r>   13.9180    0.0000 </r>
       <r>   14.1009    0.0000 </r>
      </set>
      <set comment="kpoint 101">
       <r>   -4.7214    1.0000 </r>
       <r>    1.0623    1.0000 </r>
       <r>    2.7736    1.0000 </r>
       <r>    4.0549    1.0000 </r>
       <r>    8.1158    0.0000 </r>
       <r>    9.4569    0.0000 </r>
       <r>    9.7479    0.0000 </r>
       <r>   11.3490    0.0000 </r>
      </set>
      <set comment="kpoint 102">
       <r>   -4.2645    1.0000 </r>
       <r>    0.2987    1.0000 </r>
       <r>    2.3793    1.0000 </r>
       <r>    3.7797    1.0000 </r>
       <r>    8.4358    0.0000 </r>
       <r>    9.4056    0.0000 </r>
       <r>    9.8888    0.0000 </r>
       <r>   11.7077    0.0000 </r>
      </set>
      <set comment="kpoint 103">
       <r>   -3.7721    1.0000 </r>
       <r>   -0.4648    1.0000 </r>
       <r>    2.1809    1.0000 </r>
       <r>    3.5434    1.0000 </r>
       <r>    8.5638    0.0000 </r>
       <r>    9.1123    0.0000 </r>
       <r>   10.7837    0.0000 </r>
       <r>   11.7901    0.0000 </r>
      </set>
      <set comment="kpoint 104">
       <r>   -3.3822    1.0000 </r>
       <r>   -1.0069    1.0000 </r>
       <r>    2.1007    1.0000 </r>
       <r>    3.4098    1.0000 </r>
       <r>    8.6782    0.0000 </r>
       <r>    8.8659    0.0000 </r>
       <r>   11.7618    0.0000 </r>
       <r>   11.9705    0.0000 </r>
      </set>
      <set comment="kpoint 105">
       <r>   -4.0853    1.0000 </r>
       <r>    0.2105    1.0000 </r>
       <r>    2.4082    1.0000 </r>
       <r>    3.3080    1.0000 </r>
       <r>    7.8326    0.0000 </r>
       <r>    8.7833    0.0000 </r>
       <r>   10.5103    0.0000 </r>
       <r>   12.6649    0.0000 </r>
      </set>
      <set comment="kpoint 106">
       <r>   -3.5966    1.0000 </r>
       <r>   -0.4282    1.0000 </r>
       <r>    2.0391    1.0000 </r>
       <r>    3.0577    1.0000 </r>
       <r>    8.1543    0.0000 </r>
       <r>    9.3257    0.0000 </r>
       <r>   10.2358    0.0000 </r>
       <r>   13.0327    0.0000 </r>
      </set>
      <set comment="kpoint 107">
       <r>   -3.1424    1.0000 </r>
       <r>   -0.9863    1.0000 </r>
       <r>    1.7854    1.0000 </r>
       <r>    2.9423    1.0000 </r>
       <r>    8.2975    0.0000 </r>
       <r>    9.8613    0.0000 </r>
       <r>   10.4933    0.0000 </r>
       <r>   13.0773    0.0000 </r>
      </set>
      <set comment="kpoint 108">
       <r>   -2.9936    1.0000 </r>
       <r>   -1.1575    1.0000 </r>
       <r>    1.6435    1.0000 </r>
       <r>    2.9869    1.0000 </r>
       <r>    8.4814    0.0000 </r>
       <r>    9.6810    0.0000 </r>
       <r>   11.6550    0.0000 </r>
       <r>   12.0971    0.0000 </r>
      </set>
      <set comment="kpoint 109">
       <r>   -3.3115    1.0000 </r>
       <r>   -0.7819    1.0000 </r>
       <r>    1.6480    1.0000 </r>
       <r>    3.1715    1.0000 </r>
       <r>    8.7430    0.0000 </r>
       <r>    9.5005    0.0000 </r>
       <r>   10.7815    0.0000 </r>
       <r>   12.9127    0.0000 </r>
      </set>
      <set comment="kpoint 110">
       <r>   -3.7960    1.0000 </r>
       <r>   -0.2115    1.0000 </r>
       <r>    1.8699    1.0000 </r>
       <r>    3.4569    1.0000 </r>
       <r>    9.0686    0.0000 </r>
       <r>    9.1407    0.0000 </r>
       <r>   10.0043    0.0000 </r>
       <r>   12.5241    0.0000 </r>
      </set>
      <set comment="kpoint 111">
       <r>   -3.3350    1.0000 </r>
       <r>   -0.6793    1.0000 </r>
       <r>    2.2013    1.0000 </r>
       <r>    2.7171    1.0000 </r>
       <r>    7.6799    0.0000 </r>
       <r>    8.2203    0.0000 </r>
       <r>   11.4855    0.0000 </r>
       <r>   13.9897    0.0000 </r>
      </set>
      <set comment="kpoint 112">
       <r>   -2.8471    1.0000 </r>
       <r>   -1.1899    1.0000 </r>
       <r>    1.8385    1.0000 </r>
       <r>    2.5595    1.0000 </r>
       <r>    7.9727    0.0000 </r>
       <r>    8.9990    0.0000 </r>
       <r>   11.2082    0.0000 </r>
       <r>   13.5296    0.0000 </r>
      </set>
      <set comment="kpoint 113">
       <r>   -2.5764    1.0000 </r>
       <r>   -1.4530    1.0000 </r>
       <r>    1.5302    1.0000 </r>
       <r>    2.6300    1.0000 </r>
       <r>    8.1524    0.0000 </r>
       <r>   10.1506    0.0000 </r>
       <r>   11.0106    0.0000 </r>
       <r>   12.1454    0.0000 </r>
      </set>
      <set comment="kpoint 114">
       <r>   -2.8425    1.0000 </r>
       <r>   -1.1856    1.0000 </r>
       <r>    1.4342    1.0000 </r>
       <r>    2.8486    1.0000 </r>
       <r>    8.4098    0.0000 </r>
       <r>   10.4473    0.0000 </r>
       <r>   11.0277    0.0000 </r>
       <r>   11.7360    0.0000 </r>
      </set>
      <set comment="kpoint 115">
       <r>   -2.4933    1.0000 </r>
       <r>   -1.5938    1.0000 </r>
       <r>    2.1714    1.0000 </r>
       <r>    2.3376    1.0000 </r>
       <r>    7.6818    0.0000 </r>
       <r>    7.8567    0.0000 </r>
       <r>   12.5735    0.0000 </r>
       <r>   13.7528    0.0000 </r>
      </set>
      <set comment="kpoint 116">
       <r>   -2.1962    1.0000 </r>
       <r>   -1.8421    1.0000 </r>
       <r>    1.7742    1.0000 </r>
       <r>    2.3825    1.0000 </r>
       <r>    7.9104    0.0000 </r>
       <r>    8.8902    0.0000 </r>
       <r>   12.2426    0.0000 </r>
       <r>   12.3951    0.0000 </r>
      </set>
      <set comment="kpoint 117">
       <r>   -3.1091    1.0000 </r>
       <r>   -0.8982    1.0000 </r>
       <r>    1.7272    1.0000 </r>
       <r>    2.6942    1.0000 </r>
       <r>    8.9988    0.0000 </r>
       <r>    9.3960    0.0000 </r>
       <r>    9.9878    0.0000 </r>
       <r>   13.3194    0.0000 </r>
      </set>
      <set comment="kpoint 118">
       <r>   -2.6879    1.0000 </r>
       <r>   -1.3196    1.0000 </r>
       <r>    1.5896    1.0000 </r>
       <r>    2.4781    1.0000 </r>
       <r>    9.2677    0.0000 </r>
       <r>    9.5909    0.0000 </r>
       <r>   10.5279    0.0000 </r>
       <r>   11.8904    0.0000 </r>
      </set>
      <set comment="kpoint 119">
       <r>   -2.3682    1.0000 </r>
       <r>   -1.6186    1.0000 </r>
       <r>    1.8017    1.0000 </r>
       <r>    2.1225    1.0000 </r>
       <r>    8.9906    0.0000 </r>
       <r>    9.1308    0.0000 </r>
       <r>   10.9291    0.0000 </r>
       <r>   12.0634    0.0000 </r>
      </set>
      <set comment="kpoint 120">
       <r>   -2.2585    1.0000 </r>
       <r>   -1.7062    1.0000 </r>
       <r>    1.6511    1.0000 </r>
       <r>    2.1413    1.0000 </r>
       <r>    9.2408    0.0000 </r>
       <r>   10.1286    0.0000 </r>
       <r>   10.7745    0.0000 </r>
       <r>   10.8252    0.0000 </r>
      </set>
     </set>
    </set>
   </array>
  </eigenvalues>
  <separator name="orbital magnetization" >
   <v name="MAGDIPOLOUT">      0.00000000      0.00000000      0.00000000</v>
  </separator>
  <dos>
   <i name="efermi">      5.83424849 </i>
   <total>
    <array>
     <dimension dim="1">gridpoints</dimension>
     <dimension dim="2">spin</dimension>
     <field>energy</field>
     <field>total</field>
     <field>integrated</field>
     <set>
      <set comment="spin 1">
       <r>    -7.2754     0.0000     0.0000 </r>
       <r>    -7.1964     0.0000     0.0000 </r>
       <r>    -7.1174     0.0000     0.0000 </r>
       <r>    -7.0385     0.0000     0.0000 </r>
       <r>    -6.9595     0.0000     0.0000 </r>
       <r>    -6.8806     0.0000     0.0000 </r>
       <r>    -6.8016     0.0000     0.0000 </r>
       <r>    -6.7226     0.0000     0.0000 </r>
       <r>    -6.6437     0.0000     0.0000 </r>
       <r>    -6.5647     0.0000     0.0000 </r>
       <r>    -6.4858     0.0000     0.0000 </r>
       <r>    -6.4068     0.0000     0.0000 </r>
       <r>    -6.3278     0.0000     0.0000 </r>
       <r>    -6.2489     0.0007     0.0001 </r>
       <r>    -6.1699     0.0219     0.0018 </r>
       <r>    -6.0910     0.0866     0.0086 </r>
       <r>    -6.0120     0.1325     0.0191 </r>
       <r>    -5.9331     0.1892     0.0340 </r>
       <r>    -5.8541     0.1402     0.0451 </r>
       <r>    -5.7751     0.2885     0.0679 </r>
       <r>    -5.6962     0.2505     0.0876 </r>
       <r>    -5.6172     0.1835     0.1021 </r>
       <r>    -5.5383     0.3218     0.1275 </r>
       <r>    -5.4593     0.3828     0.1578 </r>
       <r>    -5.3803     0.3162     0.1827 </r>
       <r>    -5.3014     0.2231     0.2004 </r>
       <r>    -5.2224     0.3806     0.2304 </r>
       <r>    -5.1435     0.4794     0.2683 </r>
       <r>    -5.0645     0.5077     0.3084 </r>
       <r>    -4.9856     0.1993     0.3241 </r>
       <r>    -4.9066     0.4240     0.3576 </r>
       <r>    -4.8276     0.5267     0.3992 </r>
       <r>    -4.7487     0.4445     0.4343 </r>
       <r>    -4.6697     0.6119     0.4826 </r>
       <r>    -4.5908     0.5566     0.5265 </r>
       <r>    -4.5118     0.2879     0.5492 </r>
       <r>    -4.4328     0.5368     0.5916 </r>
       <r>    -4.3539     0.6393     0.6421 </r>
       <r>    -4.2749     0.6769     0.6956 </r>
       <r>    -4.1960     0.7772     0.7569 </r>
       <r>    -4.1170     0.6321     0.8068 </r>
       <r>    -4.0380     0.4540     0.8427 </r>
       <r>    -3.9591     0.6073     0.8906 </r>
       <r>    -3.8801     1.0497     0.9735 </r>
       <r>    -3.8012     1.2013     1.0684 </r>
       <r>    -3.7222     0.9575     1.1440 </r>
       <r>    -3.6433     0.4306     1.1780 </r>
       <r>    -3.5643     0.6982     1.2331 </r>
       <r>    -3.4853     0.9273     1.3063 </r>
       <r>    -3.4064     0.8634     1.3745 </r>
       <r>    -3.3274     0.7588     1.4344 </r>
       <r>    -3.2485     0.9280     1.5077 </r>
       <r>    -3.1695     0.2866     1.5303 </r>
       <r>    -3.0905     0.5571     1.5743 </r>
       <r>    -3.0116     0.5926     1.6211 </r>
       <r>    -2.9326     1.0677     1.7054 </r>
       <r>    -2.8537     0.4806     1.7433 </r>
       <r>    -2.7747     0.3280     1.7692 </r>
       <r>    -2.6958     0.2885     1.7920 </r>
       <r>    -2.6168     0.4099     1.8244 </r>
       <r>    -2.5378     0.9190     1.8969 </r>
       <r>    -2.4589     0.3740     1.9265 </r>
       <r>    -2.3799     0.1232     1.9362 </r>
       <r>    -2.3010     0.1892     1.9511 </r>
       <r>    -2.2220     0.1991     1.9669 </r>
       <r>    -2.1430     0.3363     1.9934 </r>
       <r>    -2.0641     0.1523     2.0054 </r>
       <r>    -1.9851     0.1048     2.0137 </r>
       <r>    -1.9062     0.0999     2.0216 </r>
       <r>    -1.8272     0.1181     2.0309 </r>
       <r>    -1.7482     0.1329     2.0414 </r>
       <r>    -1.6693     0.1959     2.0569 </r>
       <r>    -1.5903     0.5111     2.0972 </r>
       <r>    -1.5114     0.6036     2.1449 </r>
       <r>    -1.4324     0.4550     2.1808 </r>
       <r>    -1.3535     0.3028     2.2047 </r>
       <r>    -1.2745     0.3188     2.2299 </r>
       <r>    -1.1955     0.7030     2.2854 </r>
       <r>    -1.1166     1.8861     2.4343 </r>
       <r>    -1.0376     1.6761     2.5667 </r>
       <r>    -0.9587     1.1299     2.6559 </r>
       <r>    -0.8797     0.8048     2.7194 </r>
       <r>    -0.8007     0.6929     2.7742 </r>
       <r>    -0.7218     1.0724     2.8588 </r>
       <r>    -0.6428     0.9408     2.9331 </r>
       <r>    -0.5639     0.3901     2.9639 </r>
       <r>    -0.4849     0.6295     3.0136 </r>
       <r>    -0.4060     0.8550     3.0811 </r>
       <r>    -0.3270     0.2941     3.1044 </r>
       <r>    -0.2480     0.3245     3.1300 </r>
       <r>    -0.1691     0.9039     3.2013 </r>
       <r>    -0.0901     0.4461     3.2366 </r>
       <r>    -0.0112     0.3034     3.2605 </r>
       <r>     0.0678     0.5573     3.3045 </r>
       <r>     0.1468     0.4105     3.3369 </r>
       <r>     0.2257     0.1565     3.3493 </r>
       <r>     0.3047     0.2963     3.3727 </r>
       <r>     0.3836     0.7110     3.4288 </r>
       <r>     0.4626     0.4486     3.4643 </r>
       <r>     0.5416     0.2341     3.4827 </r>
       <r>     0.6205     0.0679     3.4881 </r>
       <r>     0.6995     0.2799     3.5102 </r>
       <r>     0.7784     0.5487     3.5535 </r>
       <r>     0.8574     0.2597     3.5740 </r>
       <r>     0.9363     0.0168     3.5754 </r>
       <r>     1.0153     0.1927     3.5906 </r>
       <r>     1.0943     0.6098     3.6387 </r>
       <r>     1.1732     0.3093     3.6631 </r>
       <r>     1.2522     0.0905     3.6703 </r>
       <r>     1.3311     0.2047     3.6865 </r>
       <r>     1.4101     0.4839     3.7247 </r>
       <r>     1.4891     0.9670     3.8010 </r>
       <r>     1.5680     0.7205     3.8579 </r>
       <r>     1.6470     1.3822     3.9670 </r>
       <r>     1.7259     1.2844     4.0685 </r>
       <r>     1.8049     1.1923     4.1626 </r>
       <r>     1.8838     1.4033     4.2734 </r>
       <r>     1.9628     0.8372     4.3395 </r>
       <r>     2.0418     0.6716     4.3925 </r>
       <r>     2.1207     0.7889     4.4548 </r>
       <r>     2.1997     1.6905     4.5883 </r>
       <r>     2.2786     1.3439     4.6944 </r>
       <r>     2.3576     0.7144     4.7508 </r>
       <r>     2.4366     0.8317     4.8165 </r>
       <r>     2.5155     0.9048     4.8879 </r>
       <r>     2.5945     1.3769     4.9967 </r>
       <r>     2.6734     1.7548     5.1352 </r>
       <r>     2.7524     1.3910     5.2450 </r>
       <r>     2.8314     1.0727     5.3297 </r>
       <r>     2.9103     1.5647     5.4533 </r>
       <r>     2.9893     1.5275     5.5739 </r>
       <r>     3.0682     1.3999     5.6844 </r>
       <r>     3.1472     1.8215     5.8283 </r>
       <r>     3.2261     1.1662     5.9203 </r>
       <r>     3.3051     0.8902     5.9906 </r>
       <r>     3.3841     1.4957     6.1087 </r>
       <r>     3.4630     2.4071     6.2988 </r>
       <r>     3.5420     1.3805     6.4078 </r>
       <r>     3.6209     1.2984     6.5103 </r>
       <r>     3.6999     0.9479     6.5851 </r>
       <r>     3.7789     1.0267     6.6662 </r>
       <r>     3.8578     1.3829     6.7754 </r>
       <r>     3.9368     1.2570     6.8747 </r>
       <r>     4.0157     1.4263     6.9873 </r>
       <r>     4.0947     1.3709     7.0955 </r>
       <r>     4.1736     0.8808     7.1651 </r>
       <r>     4.2526     1.3749     7.2736 </r>
       <r>     4.3316     1.4178     7.3856 </r>
       <r>     4.4105     0.6021     7.4331 </r>
       <r>     4.4895     1.3612     7.5406 </r>
       <r>     4.5684     1.1089     7.6281 </r>
       <r>     4.6474     0.4440     7.6632 </r>
       <r>     4.7264     0.5853     7.7094 </r>
       <r>     4.8053     0.7464     7.7684 </r>
       <r>     4.8843     0.3490     7.7959 </r>
       <r>     4.9632     0.2976     7.8194 </r>
       <r>     5.0422     0.6161     7.8680 </r>
       <r>     5.1212     0.4593     7.9043 </r>
       <r>     5.2001     0.3409     7.9312 </r>
       <r>     5.2791     0.2288     7.9493 </r>
       <r>     5.3580     0.2346     7.9678 </r>
       <r>     5.4370     0.1591     7.9804 </r>
       <r>     5.5159     0.0860     7.9872 </r>
       <r>     5.5949     0.1370     7.9980 </r>
       <r>     5.6739     0.0242     7.9999 </r>
       <r>     5.7528     0.0012     8.0000 </r>
       <r>     5.8318     0.0000     8.0000 </r>
       <r>     5.9107     0.0000     8.0000 </r>
       <r>     5.9897     0.0000     8.0000 </r>
       <r>     6.0687     0.0000     8.0000 </r>
       <r>     6.1476     0.0003     8.0000 </r>
       <r>     6.2266     0.0224     8.0018 </r>
       <r>     6.3055     0.0608     8.0066 </r>
       <r>     6.3845     0.1405     8.0177 </r>
       <r>     6.4635     0.2462     8.0371 </r>
       <r>     6.5424     0.2688     8.0584 </r>
       <r>     6.6214     0.1341     8.0689 </r>
       <r>     6.7003     0.5587     8.1131 </r>
       <r>     6.7793     0.4604     8.1494 </r>
       <r>     6.8582     0.3277     8.1753 </r>
       <r>     6.9372     0.7615     8.2354 </r>
       <r>     7.0162     0.5710     8.2805 </r>
       <r>     7.0951     0.8573     8.3482 </r>
       <r>     7.1741     0.6393     8.3987 </r>
       <r>     7.2530     0.4933     8.4376 </r>
       <r>     7.3320     0.7524     8.4970 </r>
       <r>     7.4110     0.8048     8.5606 </r>
       <r>     7.4899     0.8986     8.6315 </r>
       <r>     7.5689     1.4229     8.7439 </r>
       <r>     7.6478     1.1639     8.8358 </r>
       <r>     7.7268     1.1398     8.9258 </r>
       <r>     7.8057     1.5021     9.0444 </r>
       <r>     7.8847     1.3525     9.1512 </r>
       <r>     7.9637     2.4011     9.3408 </r>
       <r>     8.0426     1.6406     9.4703 </r>
       <r>     8.1216     1.1948     9.5646 </r>
       <r>     8.2005     1.7506     9.7029 </r>
       <r>     8.2795     1.6327     9.8318 </r>
       <r>     8.3585     0.6807     9.8855 </r>
       <r>     8.4374     0.7387     9.9438 </r>
       <r>     8.5164     1.2744    10.0445 </r>
       <r>     8.5953     0.9363    10.1184 </r>
       <r>     8.6743     0.9475    10.1932 </r>
       <r>     8.7533     0.7441    10.2520 </r>
       <r>     8.8322     1.6490    10.3822 </r>
       <r>     8.9112     2.7091    10.5961 </r>
       <r>     8.9901     2.1991    10.7697 </r>
       <r>     9.0691     2.0449    10.9312 </r>
       <r>     9.1480     2.0351    11.0919 </r>
       <r>     9.2270     1.6080    11.2188 </r>
       <r>     9.3060     1.5834    11.3439 </r>
       <r>     9.3849     1.6332    11.4728 </r>
       <r>     9.4639     2.0053    11.6311 </r>
       <r>     9.5428     1.4391    11.7448 </r>
       <r>     9.6218     1.0798    11.8300 </r>
       <r>     9.7008     1.2207    11.9264 </r>
       <r>     9.7797     1.0797    12.0117 </r>
       <r>     9.8587     1.0374    12.0936 </r>
       <r>     9.9376     1.3913    12.2034 </r>
       <r>    10.0166     0.9348    12.2772 </r>
       <r>    10.0955     1.2690    12.3774 </r>
       <r>    10.1745     1.7591    12.5163 </r>
       <r>    10.2535     1.7663    12.6558 </r>
       <r>    10.3324     0.7173    12.7124 </r>
       <r>    10.4114     0.6213    12.7615 </r>
       <r>    10.4903     1.2927    12.8636 </r>
       <r>    10.5693     2.2580    13.0419 </r>
       <r>    10.6483     1.2104    13.1374 </r>
       <r>    10.7272     1.5959    13.2634 </r>
       <r>    10.8062     1.8297    13.4079 </r>
       <r>    10.8851     0.9660    13.4842 </r>
       <r>    10.9641     1.2172    13.5803 </r>
       <r>    11.0431     1.0114    13.6601 </r>
       <r>    11.1220     0.5517    13.7037 </r>
       <r>    11.2010     0.7724    13.7647 </r>
       <r>    11.2799     0.7597    13.8247 </r>
       <r>    11.3589     0.8258    13.8899 </r>
       <r>    11.4378     0.7748    13.9510 </r>
       <r>    11.5168     0.7815    14.0128 </r>
       <r>    11.5958     1.4542    14.1276 </r>
       <r>    11.6747     1.4077    14.2387 </r>
       <r>    11.7537     1.3994    14.3492 </r>
       <r>    11.8326     1.7704    14.4890 </r>
       <r>    11.9116     1.3809    14.5980 </r>
       <r>    11.9906     1.1399    14.6880 </r>
       <r>    12.0695     0.9370    14.7620 </r>
       <r>    12.1485     0.6939    14.8168 </r>
       <r>    12.2274     0.5187    14.8578 </r>
       <r>    12.3064     0.4486    14.8932 </r>
       <r>    12.3853     1.0539    14.9764 </r>
       <r>    12.4643     0.3750    15.0060 </r>
       <r>    12.5433     0.5067    15.0460 </r>
       <r>    12.6222     0.7171    15.1027 </r>
       <r>    12.7012     0.6096    15.1508 </r>
       <r>    12.7801     0.5855    15.1970 </r>
       <r>    12.8591     0.6311    15.2468 </r>
       <r>    12.9381     0.9021    15.3181 </r>
       <r>    13.0170     0.5576    15.3621 </r>
       <r>    13.0960     1.4965    15.4803 </r>
       <r>    13.1749     0.9483    15.5551 </r>
       <r>    13.2539     0.2867    15.5778 </r>
       <r>    13.3329     0.4440    15.6128 </r>
       <r>    13.4118     0.3581    15.6411 </r>
       <r>    13.4908     0.5305    15.6830 </r>
       <r>    13.5697     0.5395    15.7256 </r>
       <r>    13.6487     0.1319    15.7360 </r>
       <r>    13.7276     0.1761    15.7499 </r>
       <r>    13.8066     0.4660    15.7867 </r>
       <r>    13.8856     0.1219    15.7963 </r>
       <r>    13.9645     0.1972    15.8119 </r>
       <r>    14.0435     0.3468    15.8393 </r>
       <r>    14.1224     0.2349    15.8578 </r>
       <r>    14.2014     0.2685    15.8790 </r>
       <r>    14.2804     0.3249    15.9047 </r>
       <r>    14.3593     0.6541    15.9563 </r>
       <r>    14.4383     0.1025    15.9644 </r>
       <r>    14.5172     0.0004    15.9644 </r>
       <r>    14.5962     0.0000    15.9644 </r>
       <r>    14.6751     0.0000    15.9644 </r>
       <r>    14.7541     0.0000    15.9644 </r>
       <r>    14.8331     0.0000    15.9644 </r>
       <r>    14.9120     0.0000    15.9644 </r>
       <r>    14.9910     0.0012    15.9645 </r>
       <r>    15.0699     0.0721    15.9702 </r>
       <r>    15.1489     0.1163    15.9794 </r>
       <r>    15.2279     0.1252    15.9893 </r>
       <r>    15.3068     0.0637    15.9943 </r>
       <r>    15.3858     0.0648    15.9994 </r>
       <r>    15.4647     0.0070    16.0000 </r>
       <r>    15.5437     0.0000    16.0000 </r>
       <r>    15.6227     0.0000    16.0000 </r>
       <r>    15.7016     0.0000    16.0000 </r>
       <r>    15.7806     0.0000    16.0000 </r>
       <r>    15.8595     0.0000    16.0000 </r>
       <r>    15.9385     0.0000    16.0000 </r>
       <r>    16.0174     0.0000    16.0000 </r>
       <r>    16.0964     0.0000    16.0000 </r>
       <r>    16.1754     0.0000    16.0000 </r>
       <r>    16.2543     0.0000    16.0000 </r>
       <r>    16.3333     0.0000    16.0000 </r>
       <r>    16.4122     0.0000    16.0000 </r>
      </set>
     </set>
    </array>
   </total>
  </dos>
 </calculation>
 <structure name="finalpos" >
  <crystal>
   <varray name="basis" >
    <v>       3.34887542       0.00000000       1.93347385 </v>
    <v>       1.11629181       3.15735127       1.93347385 </v>
    <v>      -0.00000000       0.00000000       3.86694770 </v>
   </varray>
   <i name="volume">     40.88746563 </i>
   <varray name="rec_basis" >
    <v>       0.29860770      -0.10557372       0.00000000 </v>
    <v>      -0.00000000       0.31672117      -0.00000000 </v>
    <v>      -0.14930385      -0.10557372       0.25860189 </v>
   </varray>
  </crystal>
  <varray name="positions" >
   <v>       0.87500000       0.87500000       0.87500000 </v>
   <v>       0.12500000       0.12500000       0.12500000 </v>
  </varray>
 </structure>
</modeling>
