   1   1   0   0
  0.1471152E+02  0.2673580E-09  0.2673580E-09  0.2673580E-09  0.5000000E-15
  1.000000000000000E-004
  CAR 
 unknown system                          
     35.84400857     -6.25342447  301      9.81558497      1.00000000
     -6.253  0.0000E+00  0.0000E+00
     -6.113  0.0000E+00  0.0000E+00
     -5.973  0.0000E+00  0.0000E+00
     -5.832  0.0000E+00  0.0000E+00
     -5.692  0.0000E+00  0.0000E+00
     -5.552  0.0000E+00  0.0000E+00
     -5.411  0.0000E+00  0.0000E+00
     -5.271  0.0000E+00  0.0000E+00
     -5.131  0.0000E+00  0.0000E+00
     -4.991  0.0000E+00  0.0000E+00
     -4.850  0.0000E+00  0.0000E+00
     -4.710  0.0000E+00  0.0000E+00
     -4.570  0.4455E-14  0.6251E-15
     -4.429  0.6182E-06  0.8675E-07
     -4.289  0.9849E-04  0.1391E-04
     -4.149  0.6353E-04  0.2282E-04
     -4.008  0.1214E-02  0.1932E-03
     -3.868  0.1346E-03  0.2120E-03
     -3.728  0.5228E-03  0.2854E-03
     -3.587  0.1218E-02  0.4563E-03
     -3.447  0.1354E-02  0.6462E-03
     -3.307  0.1001E-02  0.7867E-03
     -3.166  0.3070E-03  0.8298E-03
     -3.026  0.2409E-02  0.1168E-02
     -2.886  0.1942E-03  0.1195E-02
     -2.745  0.7934E-03  0.1306E-02
     -2.605  0.1357E-02  0.1497E-02
     -2.465  0.3786E-02  0.2028E-02
     -2.324  0.3820E-03  0.2082E-02
     -2.184  0.2709E-03  0.2120E-02
     -2.044  0.3337E-02  0.2588E-02
     -1.903  0.5738E-03  0.2669E-02
     -1.763  0.2449E-02  0.3012E-02
     -1.623  0.4278E-03  0.3072E-02
     -1.482  0.2195E-02  0.3380E-02
     -1.342  0.1129E-02  0.3539E-02
     -1.202  0.1450E-02  0.3742E-02
     -1.061  0.5977E-02  0.4581E-02
     -0.921  0.1728E-02  0.4823E-02
     -0.781  0.9032E-08  0.4823E-02
     -0.640  0.4500E-03  0.4887E-02
     -0.500  0.4667E-02  0.5541E-02
     -0.360  0.4700E-03  0.5607E-02
     -0.219  0.8395E-03  0.5725E-02
     -0.079  0.3635E-02  0.6235E-02
      0.061  0.1526E-02  0.6449E-02
      0.202  0.2977E-02  0.6867E-02
      0.342  0.7295E-03  0.6970E-02
      0.482  0.7142E-02  0.7972E-02
      0.622  0.8252E-03  0.8087E-02
      0.763  0.1798E-02  0.8340E-02
      0.903  0.3585E-02  0.8843E-02
      1.043  0.1571E-02  0.9063E-02
      1.184  0.2372E-02  0.9396E-02
      1.324  0.5531E-03  0.9474E-02
      1.464  0.4738E-02  0.1014E-01
      1.605  0.2961E-03  0.1018E-01
      1.745  0.5948E-03  0.1026E-01
      1.885  0.6472E-02  0.1117E-01
      2.026  0.2558E-02  0.1153E-01
      2.166  0.2439E-02  0.1187E-01
      2.306  0.1147E-02  0.1203E-01
      2.447  0.9189E-02  0.1332E-01
      2.587  0.2385E-02  0.1366E-01
      2.727  0.2795E-02  0.1405E-01
      2.868  0.2138E-02  0.1435E-01
      3.008  0.4296E-03  0.1441E-01
      3.148  0.1876E-02  0.1467E-01
      3.289  0.1718E-02  0.1491E-01
      3.429  0.4110E-02  0.1549E-01
      3.569  0.2442E-02  0.1583E-01
      3.710  0.3350E-02  0.1630E-01
      3.850  0.4627E-02  0.1695E-01
      3.990  0.1383E-02  0.1715E-01
      4.131  0.8809E-02  0.1838E-01
      4.271  0.5945E-03  0.1847E-01
      4.411  0.1200E-04  0.1847E-01
      4.552  0.5680E-02  0.1927E-01
      4.692  0.5866E-02  0.2009E-01
      4.832  0.2048E-02  0.2038E-01
      4.973  0.3270E-02  0.2084E-01
      5.113  0.4895E-02  0.2152E-01
      5.253  0.1107E-02  0.2168E-01
      5.394  0.4473E-02  0.2231E-01
      5.534  0.2318E-02  0.2263E-01
      5.674  0.1246E-02  0.2281E-01
      5.815  0.2181E-02  0.2311E-01
      5.955  0.3130E-02  0.2355E-01
      6.095  0.6966E-02  0.2453E-01
      6.235  0.2641E-02  0.2490E-01
      6.376  0.4647E-02  0.2555E-01
      6.516  0.4782E-02  0.2622E-01
      6.656  0.3659E-02  0.2674E-01
      6.797  0.6600E-02  0.2766E-01
      6.937  0.2344E-02  0.2799E-01
      7.077  0.2682E-02  0.2837E-01
      7.218  0.4480E-02  0.2900E-01
      7.358  0.3226E-02  0.2945E-01
      7.498  0.3917E-02  0.3000E-01
      7.639  0.5165E-02  0.3072E-01
      7.779  0.3947E-02  0.3128E-01
      7.919  0.4790E-02  0.3195E-01
      8.060  0.6937E-03  0.3205E-01
      8.200  0.4457E-02  0.3267E-01
      8.340  0.3895E-02  0.3322E-01
      8.481  0.3488E-02  0.3371E-01
      8.621  0.6671E-02  0.3464E-01
      8.761  0.3414E-02  0.3512E-01
      8.902  0.5210E-02  0.3585E-01
      9.042  0.4595E-02  0.3650E-01
      9.182  0.2671E-02  0.3687E-01
      9.323  0.4430E-02  0.3749E-01
      9.463  0.1408E-02  0.3769E-01
      9.603  0.8304E-02  0.3886E-01
      9.744  0.3527E-02  0.3935E-01
      9.884  0.7942E-02  0.4047E-01
     10.024  0.7662E-02  0.4154E-01
     10.165  0.5092E-02  0.4226E-01
     10.305  0.2688E-02  0.4263E-01
     10.445  0.3632E-02  0.4314E-01
     10.586  0.3010E-02  0.4357E-01
     10.726  0.4782E-02  0.4424E-01
     10.866  0.3329E-02  0.4470E-01
     11.007  0.7224E-02  0.4572E-01
     11.147  0.6387E-03  0.4581E-01
     11.287  0.2894E-02  0.4621E-01
     11.427  0.3633E-02  0.4672E-01
     11.568  0.3299E-02  0.4719E-01
     11.708  0.6424E-02  0.4809E-01
     11.848  0.3213E-02  0.4854E-01
     11.989  0.5213E-02  0.4927E-01
     12.129  0.4378E-02  0.4988E-01
     12.269  0.6127E-02  0.5074E-01
     12.410  0.9488E-02  0.5208E-01
     12.550  0.5693E-02  0.5287E-01
     12.690  0.2367E-02  0.5321E-01
     12.831  0.1558E-04  0.5321E-01
     12.971  0.2254E-02  0.5353E-01
     13.111  0.5982E-02  0.5436E-01
     13.252  0.5989E-02  0.5520E-01
     13.392  0.4677E-02  0.5586E-01
     13.532  0.6551E-02  0.5678E-01
     13.673  0.5243E-02  0.5752E-01
     13.813  0.7812E-02  0.5861E-01
     13.953  0.4681E-02  0.5927E-01
     14.094  0.1759E-02  0.5952E-01
     14.234  0.4314E-02  0.6012E-01
     14.374  0.8947E-02  0.6138E-01
     14.515  0.5367E-02  0.6213E-01
     14.655  0.3153E-03  0.6217E-01
     14.795  0.2922E-02  0.6258E-01
     14.936  0.2296E-02  0.6291E-01
     15.076  0.4801E-02  0.6358E-01
     15.216  0.8035E-02  0.6471E-01
     15.357  0.4250E-02  0.6530E-01
     15.497  0.9855E-02  0.6669E-01
     15.637  0.6530E-02  0.6760E-01
     15.778  0.7540E-02  0.6866E-01
     15.918  0.7106E-02  0.6966E-01
     16.058  0.5166E-02  0.7038E-01
     16.199  0.1143E-02  0.7054E-01
     16.339  0.4879E-02  0.7123E-01
     16.479  0.2471E-02  0.7158E-01
     16.620  0.8545E-02  0.7277E-01
     16.760  0.6148E-02  0.7364E-01
     16.900  0.6065E-02  0.7449E-01
     17.040  0.7817E-02  0.7559E-01
     17.181  0.7040E-02  0.7657E-01
     17.321  0.5705E-02  0.7737E-01
     17.461  0.2021E-02  0.7766E-01
     17.602  0.2762E-02  0.7804E-01
     17.742  0.8815E-02  0.7928E-01
     17.882  0.6888E-02  0.8025E-01
     18.023  0.1040E-01  0.8171E-01
     18.163  0.2098E-02  0.8200E-01
     18.303  0.9307E-02  0.8331E-01
     18.444  0.1998E-02  0.8359E-01
     18.584  0.3072E-03  0.8363E-01
     18.724  0.3651E-02  0.8414E-01
     18.865  0.5017E-03  0.8421E-01
     19.005  0.1500E-02  0.8442E-01
     19.145  0.3301E-02  0.8489E-01
     19.286  0.2455E-02  0.8523E-01
     19.426  0.2960E-02  0.8565E-01
     19.566  0.7330E-02  0.8668E-01
     19.707  0.1070E-01  0.8818E-01
     19.847  0.8158E-02  0.8932E-01
     19.987  0.8330E-02  0.9049E-01
     20.128  0.1015E-01  0.9192E-01
     20.268  0.4335E-02  0.9252E-01
     20.408  0.7083E-02  0.9352E-01
     20.549  0.7257E-03  0.9362E-01
     20.689  0.5063E-02  0.9433E-01
     20.829  0.3132E-02  0.9477E-01
     20.970  0.6952E-03  0.9487E-01
     21.110  0.1064E-01  0.9636E-01
     21.250  0.1619E-01  0.9863E-01
     21.391  0.2596E-02  0.9900E-01
     21.531  0.5882E-02  0.9982E-01
     21.671  0.5627E-02  0.1006E+00
     21.812  0.3949E-02  0.1012E+00
     21.952  0.1467E-01  0.1032E+00
     22.092  0.6290E-02  0.1041E+00
     22.233  0.3988E-02  0.1047E+00
     22.373  0.3714E-02  0.1052E+00
     22.513  0.5313E-02  0.1059E+00
     22.653  0.5533E-02  0.1067E+00
     22.794  0.9565E-02  0.1081E+00
     22.934  0.8017E-02  0.1092E+00
     23.074  0.3613E-02  0.1097E+00
     23.215  0.7661E-02  0.1108E+00
     23.355  0.7956E-02  0.1119E+00
     23.495  0.2768E-02  0.1123E+00
     23.636  0.1009E-01  0.1137E+00
     23.776  0.9090E-02  0.1150E+00
     23.916  0.3933E-02  0.1155E+00
     24.057  0.3959E-03  0.1156E+00
     24.197  0.7263E-02  0.1166E+00
     24.337  0.4647E-02  0.1172E+00
     24.478  0.1045E-01  0.1187E+00
     24.618  0.1084E-02  0.1189E+00
     24.758  0.6174E-02  0.1197E+00
     24.899  0.1129E-01  0.1213E+00
     25.039  0.4373E-02  0.1219E+00
     25.179  0.4938E-02  0.1226E+00
     25.320  0.3849E-02  0.1231E+00
     25.460  0.1850E-02  0.1234E+00
     25.600  0.1955E-02  0.1237E+00
     25.741  0.5120E-02  0.1244E+00
     25.881  0.1268E-01  0.1262E+00
     26.021  0.1122E-01  0.1278E+00
     26.162  0.8750E-02  0.1290E+00
     26.302  0.2779E-02  0.1294E+00
     26.442  0.6071E-02  0.1302E+00
     26.583  0.4525E-02  0.1309E+00
     26.723  0.8966E-02  0.1321E+00
     26.863  0.7720E-02  0.1332E+00
     27.004  0.5106E-02  0.1339E+00
     27.144  0.6635E-02  0.1348E+00
     27.284  0.7939E-02  0.1360E+00
     27.425  0.6390E-02  0.1369E+00
     27.565  0.1024E-01  0.1383E+00
     27.705  0.3438E-02  0.1388E+00
     27.845  0.4055E-02  0.1393E+00
     27.986  0.2771E-02  0.1397E+00
     28.126  0.6636E-02  0.1407E+00
     28.266  0.4387E-02  0.1413E+00
     28.407  0.2092E-02  0.1416E+00
     28.547  0.5087E-02  0.1423E+00
     28.687  0.4172E-02  0.1429E+00
     28.828  0.1399E-01  0.1448E+00
     28.968  0.1566E-01  0.1470E+00
     29.108  0.9328E-02  0.1483E+00
     29.249  0.1793E-02  0.1486E+00
     29.389  0.6923E-02  0.1496E+00
     29.529  0.4240E-02  0.1502E+00
     29.670  0.1024E-01  0.1516E+00
     29.810  0.4806E-02  0.1523E+00
     29.950  0.4308E-02  0.1529E+00
     30.091  0.4871E-02  0.1536E+00
     30.231  0.3455E-02  0.1540E+00
     30.371  0.6922E-02  0.1550E+00
     30.512  0.7713E-02  0.1561E+00
     30.652  0.5903E-02  0.1569E+00
     30.792  0.2075E-02  0.1572E+00
     30.933  0.3036E-02  0.1576E+00
     31.073  0.3783E-02  0.1582E+00
     31.213  0.1416E-02  0.1584E+00
     31.354  0.1949E-07  0.1584E+00
     31.494  0.1365E-06  0.1584E+00
     31.634  0.2137E-02  0.1587E+00
     31.775  0.4782E-02  0.1593E+00
     31.915  0.1624E-02  0.1596E+00
     32.055  0.2259E-04  0.1596E+00
     32.196  0.1500E-11  0.1596E+00
     32.336  0.1417E-13  0.1596E+00
     32.476  0.3315E-05  0.1596E+00
     32.617  0.7713E-03  0.1597E+00
     32.757  0.8208E-04  0.1597E+00
     32.897  0.5694E-10  0.1597E+00
     33.038  0.0000E+00  0.1597E+00
     33.178  0.0000E+00  0.1597E+00
     33.318  0.4273E-12  0.1597E+00
     33.458  0.1163E-04  0.1597E+00
     33.599  0.6113E-03  0.1598E+00
     33.739  0.3176E-03  0.1598E+00
     33.879  0.4082E-03  0.1599E+00
     34.020  0.7879E-03  0.1600E+00
     34.160  0.4946E-05  0.1600E+00
     34.300  0.3564E-13  0.1600E+00
     34.441  0.0000E+00  0.1600E+00
     34.581  0.0000E+00  0.1600E+00
     34.721  0.0000E+00  0.1600E+00
     34.862  0.0000E+00  0.1600E+00
     35.002  0.0000E+00  0.1600E+00
     35.142  0.0000E+00  0.1600E+00
     35.283  0.0000E+00  0.1600E+00
     35.423  0.0000E+00  0.1600E+00
     35.563  0.0000E+00  0.1600E+00
     35.704  0.0000E+00  0.1600E+00
     35.844  0.0000E+00  0.1600E+00
