    1    1  100    1
  0.1471152E+02  0.2673580E-09  0.2673580E-09  0.2673580E-09  0.5000000E-15
  1.000000000000000E-004
  CAR 
 unknown system                          
      4     56      8
 
  0.0000000E+00  0.0000000E+00  0.0000000E+00  0.7513148E-03
    1       -4.339905   1.000000
    2       21.138621   0.000000
    3       21.138621   0.000000
    4       21.138622   0.000000
    5       22.353968   0.000000
    6       22.353969   0.000000
    7       22.353969   0.000000
    8       26.031771   0.000000
 
  0.9090909E-01  0.0000000E+00  0.0000000E+00  0.9015778E-02
    1       -4.087943   1.000000
    2       18.668177   0.000000
    3       19.530625   0.000000
    4       20.795496   0.000000
    5       21.591253   0.000000
    6       23.200703   0.000000
    7       24.391229   0.000000
    8       24.889008   0.000000
 
  0.1818182E+00  0.0000000E+00  0.0000000E+00  0.9015778E-02
    1       -3.333866   1.000000
    2       14.925152   0.000000
    3       17.857591   0.000000
    4       19.953882   0.000000
    5       20.167919   0.000000
    6       22.173518   0.000000
    7       25.643426   0.000000
    8       25.971247   0.000000
 
  0.2727273E+00  0.0000000E+00  0.0000000E+00  0.9015778E-02
    1       -2.083271   1.000000
    2       11.150774   0.000000
    3       16.589665   0.000000
    4       18.884324   0.000000
    5       19.031682   0.000000
    6       20.986396   0.000000
    7       26.780186   0.000000
    8       27.079591   0.000000
 
  0.3636364E+00  0.0000000E+00  0.0000000E+00  0.9015778E-02
    1       -0.345949   1.000000
    2        7.659191   1.000000
    3       15.743500   0.000000
    4       17.975522   0.000000
    5       18.320425   0.000000
    6       20.141511   0.000000
    7       28.091882   0.000000
    8       28.762672   0.000000
 
  0.4545455E+00  0.0000000E+00  0.0000000E+00  0.9015778E-02
    1        1.857873   1.000000
    2        4.564907   1.000000
    3       15.320493   0.000000
    4       17.508493   0.000000
    5       17.943764   0.000000
    6       19.708490   0.000000
    7       29.633214   0.000000
    8       30.338467   0.000000
 
  0.9090909E-01  0.9090909E-01  0.0000000E+00  0.1803156E-01
    1       -3.584914   1.000000
    2       16.679314   0.000000
    3       17.240261   0.000000
    4       19.221115   0.000000
    5       21.911140   0.000000
    6       23.293111   0.000000
    7       24.463082   0.000000
    8       25.665246   0.000000
 
  0.1818182E+00  0.9090909E-01 -0.6938894E-17  0.3606311E-01
    1       -2.582555   1.000000
    2       13.163208   0.000000
    3       15.486322   0.000000
    4       17.920372   0.000000
    5       21.242557   0.000000
    6       22.740454   0.000000
    7       25.038519   0.000000
    8       27.476732   0.000000
 
  0.2727273E+00  0.9090909E-01  0.2081668E-16  0.3606311E-01
    1       -1.088398   1.000000
    2        9.531570   1.000000
    3       14.372422   0.000000
    4       16.900117   0.000000
    5       20.340504   0.000000
    6       22.243633   0.000000
    7       25.919690   0.000000
    8       29.322166   0.000000
 
  0.3636364E+00  0.9090909E-01 -0.6938894E-17  0.3606311E-01
    1        0.884851   1.000000
    2        6.235487   1.000000
    3       13.702475   0.000000
    4       16.262359   0.000000
    5       19.727770   0.000000
    6       21.817352   0.000000
    7       27.427104   0.000000
    8       30.403825   0.000000
 
  0.4545455E+00  0.9090909E-01 -0.3469447E-16  0.1803156E-01
    1        3.126614   1.000000
    2        3.548107   1.000000
    3       13.479020   0.000000
    4       16.046744   0.000000
    5       19.516303   0.000000
    6       21.656628   0.000000
    7       29.117412   0.000000
    8       29.424759   0.000000
 
  0.1818182E+00  0.1818182E+00  0.0000000E+00  0.1803156E-01
    1       -1.336505   1.000000
    2       11.628969   0.000000
    3       12.026742   0.000000
    4       16.712661   0.000000
    5       21.831510   0.000000
    6       22.767186   0.000000
    7       26.646958   0.000000
    8       27.778046   0.000000
 
  0.2727273E+00  0.1818182E+00  0.2775558E-16  0.3606311E-01
    1        0.394622   1.000000
    2        8.356235   1.000000
    3       10.920251   0.000000
    4       15.878323   0.000000
    5       21.489100   0.000000
    6       23.546941   0.000000
    7       26.855506   0.000000
    8       29.550177   0.000000
 
  0.3636364E+00  0.1818182E+00 -0.2775558E-16  0.3606311E-01
    1        2.590864   1.000000
    2        5.282848   1.000000
    3       10.452181   0.000000
    4       15.450851   0.000000
    5       21.128460   0.000000
    6       24.404366   0.000000
    7       27.222669   0.000000
    8       29.032321   0.000000
 
  0.2727273E+00  0.2727273E+00  0.0000000E+00  0.1803156E-01
    1        2.352595   1.000000
    2        7.496590   1.000000
    3        7.826111   1.000000
    4       15.252669   0.000000
    5       22.739295   0.000000
    6       23.673967   0.000000
    7       27.527085   0.000000
    8       29.826650   0.000000
 
  0.3636364E+00  0.2727273E+00  0.5551115E-16  0.1803156E-01
    1        4.582449   1.000000
    2        4.978909   1.000000
    3        7.439520   1.000000
    4       15.040147   0.000000
    5       22.887004   0.000000
    6       24.895998   0.000000
    7       25.937943   0.000000
    8       30.671269   0.000000
 
  0.9090909E-01  0.9090909E-01  0.9090909E-01  0.6010518E-02
    1       -2.832692   1.000000
    2       14.820900   0.000000
    3       15.724103   0.000000
    4       15.724103   0.000000
    5       23.818365   0.000000
    6       23.818365   0.000000
    7       25.868923   0.000000
    8       25.868923   0.000000
 
  0.1818182E+00  0.9090909E-01  0.9090909E-01  0.1803156E-01
    1       -1.585141   1.000000
    2       11.589308   0.000000
    3       13.852658   0.000000
    4       14.432020   0.000000
    5       23.638523   0.000000
    6       24.093613   0.000000
    7       27.008981   0.000000
    8       27.178131   0.000000
 
  0.2727273E+00  0.9090909E-01  0.9090909E-01  0.1803156E-01
    1        0.148185   1.000000
    2        8.129909   1.000000
    3       12.931398   0.000000
    4       13.533323   0.000000
    5       23.242708   0.000000
    6       23.527486   0.000000
    7       28.508595   0.000000
    8       28.911882   0.000000
 
  0.3636364E+00  0.9090909E-01  0.9090909E-01  0.1803156E-01
    1        2.347299   1.000000
    2        5.045733   1.000000
    3       12.478086   0.000000
    4       13.078028   0.000000
    5       22.972810   0.000000
    6       23.182263   0.000000
    7       29.946798   0.000000
    8       30.553569   0.000000
 
 -0.9090909E-01  0.9090909E-01  0.9090909E-01  0.4507889E-02
    1       -3.836250   1.000000
    2       18.167803   0.000000
    3       18.167803   0.000000
    4       19.430123   0.000000
    5       22.386897   0.000000
    6       22.853143   0.000000
    7       24.143396   0.000000
    8       24.143396   0.000000
 
  0.1818182E+00  0.1818182E+00  0.9090909E-01  0.1803156E-01
    1       -0.098182   1.000000
    2       10.262511   0.000000
    3       10.676567   0.000000
    4       13.056477   0.000000
    5       24.691222   0.000000
    6       25.593240   0.000000
    7       27.715482   0.000000
    8       28.576091   0.000000
 
  0.2727273E+00  0.1818182E+00  0.9090909E-01  0.3606311E-01
    1        1.865767   1.000000
    2        7.182156   1.000000
    3        9.785986   0.798755
    4       12.369941   0.000000
    5       24.796653   0.000000
    6       26.154031   0.000000
    7       28.790868   0.000000
    8       30.242940   0.000000
 
  0.3636364E+00  0.1818182E+00  0.9090909E-01  0.1803156E-01
    1        4.103149   1.000000
    2        4.506817   1.000000
    3        9.547524   1.000000
    4       12.141102   0.000000
    5       24.713855   0.000000
    6       26.346180   0.000000
    7       29.688723   0.000000
    8       30.439262   0.000000
 
 -0.1818182E+00  0.1818182E+00  0.9090909E-01  0.1803156E-01
    1       -3.083041   1.000000
    2       15.052229   0.000000
    3       16.500656   0.000000
    4       18.653495   0.000000
    5       21.105442   0.000000
    6       21.932523   0.000000
    7       24.403473   0.000000
    8       26.598880   0.000000
 
  0.2727273E+00  0.2727273E+00  0.9090909E-01  0.1803156E-01
    1        4.041400   1.000000
    2        6.559028   1.000000
    3        6.892338   1.000000
    4       11.909564   0.000000
    5       26.017380   0.000000
    6       27.309868   0.000000
    7       28.961088   0.000000
    8       31.059538   0.000000
 
 -0.2727273E+00  0.2727273E+00  0.9090909E-01  0.1803156E-01
    1       -1.833944   1.000000
    2       11.358587   0.000000
    3       15.200027   0.000000
    4       17.704302   0.000000
    5       20.718301   0.000000
    6       21.136622   0.000000
    7       24.215494   0.000000
    8       29.784903   0.000000
 
 -0.1818182E+00  0.2727273E+00  0.9090909E-01  0.1803156E-01
    1       -2.083044   1.000000
    2       13.360397   0.000000
    3       13.680956   0.000000
    4       18.164197   0.000000
    5       19.967380   0.000000
    6       21.560995   0.000000
    7       26.046081   0.000000
    8       27.003033   0.000000
 
 -0.3636364E+00  0.3636364E+00  0.9090909E-01  0.1803156E-01
    1       -0.098679   1.000000
    2        7.889247   1.000000
    3       14.323199   0.000000
    4       16.901641   0.000000
    5       19.847933   0.000000
    6       21.216802   0.000000
    7       24.819661   0.000000
    8       30.099289   0.000000
 
 -0.2727273E+00  0.3636364E+00  0.9090909E-01  0.3606311E-01
    1       -0.592491   1.000000
    2        9.968382   0.000008
    3       12.404904   0.000000
    4       17.619297   0.000000
    5       20.003295   0.000000
    6       21.105664   0.000000
    7       25.792581   0.000000
    8       28.935204   0.000000
 
 -0.4545455E+00  0.4545455E+00  0.9090909E-01  0.1803156E-01
    1        2.102470   1.000000
    2        4.803222   1.000000
    3       13.883459   0.000000
    4       16.476255   0.000000
    5       19.403350   0.000000
    6       21.123660   0.000000
    7       26.341155   0.000000
    8       28.414705   0.000000
 
 -0.3636364E+00  0.4545455E+00  0.9090909E-01  0.3606311E-01
    1        1.375728   1.000000
    2        6.703463   1.000000
    3       11.716419   0.000000
    4       17.072364   0.000000
    5       19.675175   0.000000
    6       22.057579   0.000000
    7       25.299180   0.000000
    8       28.047040   0.000000
 
 -0.2727273E+00  0.4545455E+00  0.9090909E-01  0.1803156E-01
    1        1.131840   1.000000
    2        8.890563   1.000000
    3        9.200196   1.000000
    4       17.885721   0.000000
    5       20.149580   0.000000
    6       20.601590   0.000000
    7       26.447377   0.000000
    8       28.843780   0.000000
 
 -0.4545455E+00 -0.4545455E+00  0.9090909E-01  0.1803156E-01
    1        3.618261   1.000000
    2        4.020985   1.000000
    3       11.486997   0.000000
    4       16.873800   0.000000
    5       19.493238   0.000000
    6       22.831293   0.000000
    7       25.124592   0.000000
    8       27.041985   0.000000
 
 -0.3636364E+00 -0.4545455E+00  0.9090909E-01  0.3606311E-01
    1        3.318466   1.000000
    2        5.988697   1.000000
    3        8.586636   1.000000
    4       17.733785   0.000000
    5       20.026210   0.000000
    6       21.887421   0.000000
    7       24.187586   0.000000
    8       29.577974   0.000000
 
 -0.3636364E+00 -0.3636364E+00  0.9090909E-01  0.6010518E-02
    1        5.399665   1.000000
    2        5.917653   1.000000
    3        5.917653   1.000000
    4       17.814489   0.000000
    5       21.474511   0.000000
    6       21.945619   0.000000
    7       21.945619   0.000000
    8       32.570373   0.000000
 
  0.1818182E+00  0.1818182E+00  0.1818182E+00  0.6010518E-02
    1        1.622360   1.000000
    2        9.187680   1.000000
    3        9.752588   0.962611
    4        9.752588   0.962611
    5       27.318383   0.000000
    6       27.318383   0.000000
    7       29.324267   0.000000
    8       29.324267   0.000000
 
  0.2727273E+00  0.1818182E+00  0.1818182E+00  0.1803156E-01
    1        3.804552   1.000000
    2        6.472223   1.000000
    3        8.937277   1.000000
    4        9.286713   1.000000
    5       27.927340   0.000000
    6       28.236882   0.000000
    7       30.594421   0.000000
    8       30.862093   0.000000
 
 -0.1818182E+00  0.1818182E+00  0.1818182E+00  0.4507889E-02
    1       -2.332495   1.000000
    2       14.809027   0.000000
    3       14.809027   0.000000
    4       16.626999   0.000000
    5       18.431171   0.000000
    6       24.322557   0.000000
    7       25.846138   0.000000
    8       25.846138   0.000000
 
  0.2727273E+00  0.2727273E+00  0.1818182E+00  0.6010518E-02
    1        5.853978   1.000000
    2        6.422199   1.000000
    3        6.422199   1.000000
    4        8.893086   1.000000
    5       29.050991   0.000000
    6       30.307545   0.000000
    7       30.307545   0.000000
    8       31.846425   0.000000
 
 -0.2727273E+00  0.2727273E+00  0.1818182E+00  0.1803156E-01
    1       -1.087868   1.000000
    2       11.930120   0.000000
    3       13.487282   0.000000
    4       15.901956   0.000000
    5       17.905412   0.000000
    6       23.738006   0.000000
    7       25.817540   0.000000
    8       28.563196   0.000000
 
 -0.3636364E+00  0.3636364E+00  0.1818182E+00  0.1803156E-01
    1        0.640946   1.000000
    2        8.568289   1.000000
    3       12.596209   0.000000
    4       15.137716   0.000000
    5       19.047333   0.000000
    6       22.927885   0.000000
    7       24.783599   0.000000
    8       27.591929   0.000000
 
 -0.2727273E+00  0.3636364E+00  0.1818182E+00  0.1803156E-01
    1        0.395263   1.000000
    2       10.670195   0.000000
    3       10.915115   0.000000
    4       15.946989   0.000000
    5       17.091832   0.000000
    6       23.509692   0.000000
    7       25.812578   0.000000
    8       28.236607   0.000000
 
 -0.4545455E+00  0.4545455E+00  0.1818182E+00  0.1803156E-01
    1        2.833495   1.000000
    2        5.514188   1.000000
    3       12.148462   0.000000
    4       14.697789   0.000000
    5       20.583996   0.000000
    6       22.499653   0.000000
    7       23.342966   0.000000
    8       26.672670   0.000000
 
 -0.3636364E+00  0.4545455E+00  0.1818182E+00  0.3606311E-01
    1        2.352608   1.000000
    2        7.623095   1.000000
    3       10.109590   0.000000
    4       15.698972   0.000000
    5       18.232722   0.000000
    6       22.509274   0.000000
    7       23.767121   0.000000
    8       28.805061   0.000000
 
 -0.4545455E+00 -0.4545455E+00  0.1818182E+00  0.1803156E-01
    1        4.592542   1.000000
    2        4.961879   1.000000
    3        9.875765   0.044364
    4       15.508593   0.000000
    5       19.686178   0.000000
    6       21.038304   0.000000
    7       23.200941   0.000000
    8       28.779154   0.000000
 
 -0.3636364E+00 -0.4545455E+00  0.1818182E+00  0.1803156E-01
    1        4.518352   1.000000
    2        7.020164   1.000000
    3        7.303604   1.000000
    4       17.002333   0.000000
    5       18.277281   0.000000
    6       20.304854   0.000000
    7       23.148873   0.000000
    8       31.631569   0.000000
 
 -0.2727273E+00  0.2727273E+00  0.2727273E+00  0.4507889E-02
    1        0.149109   1.000000
    2       12.152646   0.000000
    3       12.152646   0.000000
    4       14.140743   0.000000
    5       15.399003   0.000000
    6       25.448386   0.000000
    7       26.733736   0.000000
    8       28.030833   0.000000
 
 -0.3636364E+00  0.3636364E+00  0.2727273E+00  0.1803156E-01
    1        1.866146   1.000000
    2        9.630096   1.000000
    3       11.255068   0.000000
    4       13.676421   0.000000
    5       15.536741   0.000000
    6       22.552861   0.000000
    7       26.476806   0.000000
    8       28.824053   0.000000
 
 -0.4545455E+00  0.4545455E+00  0.2727273E+00  0.1803156E-01
    1        4.041547   1.000000
    2        6.680778   1.000000
    3       10.804356   0.000000
    4       13.279645   0.000000
    5       17.290159   0.000000
    6       19.863633   0.000000
    7       26.081033   0.000000
    8       28.936804   0.000000
 
 -0.3636364E+00  0.4545455E+00  0.2727273E+00  0.1803156E-01
    1        3.804172   1.000000
    2        8.827713   1.000000
    3        9.049439   1.000000
    4       14.241171   0.000000
    5       15.136119   0.000000
    6       19.603640   0.000000
    7       26.809314   0.000000
    8       31.043094   0.000000
 
 -0.4545455E+00 -0.4545455E+00  0.2727273E+00  0.1803156E-01
    1        6.025654   1.000000
    2        6.352811   1.000000
    3        8.715476   1.000000
    4       14.332458   0.000000
    5       16.600473   0.000000
    6       17.324614   0.000000
    7       26.691119   0.000000
    8       31.652693   0.000000
 
 -0.3636364E+00  0.3636364E+00  0.3636364E+00  0.4507889E-02
    1        3.563877   1.000000
    2       10.352753   0.000000
    3       10.352753   0.000000
    4       12.346383   0.000000
    5       13.362772   0.000000
    6       19.373644   0.000000
    7       29.992223   0.000000
    8       30.840423   0.000000
 
 -0.4545455E+00  0.4545455E+00  0.3636364E+00  0.1803156E-01
    1        5.704483   1.000000
    2        8.234565   1.000000
    3        9.900695   0.008036
    4       12.255268   0.000000
    5       14.084461   0.000000
    6       16.519810   0.000000
    7       29.981765   0.000000
    8       31.757482   0.000000
 
 -0.4545455E+00 -0.4545455E+00  0.3636364E+00  0.6010518E-02
    1        7.762853   1.000000
    2        8.112471   1.000000
    3        8.112472   1.000000
    4       13.068014   0.000000
    5       14.152150   0.000000
    6       14.152150   0.000000
    7       30.510847   0.000000
    8       33.930489   0.000000
 
 -0.4545455E+00  0.4545455E+00  0.4545455E+00  0.4507889E-02
    1        7.748992   1.000000
    2        9.447960   1.000000
    3        9.447960   1.000000
    4       11.341727   0.000000
    5       12.342754   0.000000
    6       13.682585   0.000000
    7       33.532548   0.000000
    8       33.742343   0.000000
