 running on    4 total cores
 distrk:  each k-point on    4 cores,    1 groups
 distr:  one band on    1 cores,    4 groups
 vasp.6.2.0 18Jan21 (build Aug 12 2022 13:00:08) complex                        
  
 POSCAR found type information on POSCAR Si
 POSCAR found :  1 types and       1 ions
 scaLAPACK will be used
 LDA part: xc-table for Pade appr. of Perdew
 POSCAR, INCAR and KPOINTS ok, starting setup
 FFT: planning ...
 WAVECAR not read
 entering main loop
       N       E                     dE             d eps       ncg     rms          rms(c)
DAV:   1    -0.318288964367E+01   -0.31829E+01   -0.13550E+03   944   0.272E+02
DAV:   2    -0.489177695814E+01   -0.17089E+01   -0.16736E+01  1384   0.245E+01
DAV:   3    -0.490010984014E+01   -0.83329E-02   -0.83318E-02  1008   0.171E+00
DAV:   4    -0.490011505203E+01   -0.52119E-05   -0.52123E-05  1416   0.470E-02
DAV:   5    -0.490011505307E+01   -0.10359E-08   -0.10221E-08  1024   0.377E-04    0.255E+00
DAV:   6    -0.488890560052E+01    0.11209E-01   -0.39595E-03   960   0.276E-01    0.141E+00
DAV:   7    -0.488259466543E+01    0.63109E-02   -0.78811E-03   968   0.388E-01    0.132E-01
DAV:   8    -0.488257678716E+01    0.17878E-04   -0.35556E-05  1320   0.445E-02    0.139E-02
DAV:   9    -0.488257748124E+01   -0.69409E-06   -0.45301E-07  1048   0.381E-03
   1 F= -.48825775E+01 E0= -.48821107E+01  d E =-.488258E+01
 curvature:   0.00 expect dE= 0.000E+00 dE for cont linesearch  0.000E+00
 trial: gam= 0.00000 g(F)=  0.137E-65 g(S)=  0.000E+00 ort = 0.000E+00 (trialstep = 0.100E+01)
 search vector abs. value=  0.100E-09
 reached required accuracy - stopping structural energy minimisation
