<?xml version="1.0" encoding="ISO-8859-1"?>
<modeling>
 <generator>
  <i name="program" type="string">vasp </i>
  <i name="version" type="string">6.2.0  </i>
  <i name="subversion" type="string">18Jan21 (build Aug 12 2022 13:00:08) complex                          parallel </i>
  <i name="platform" type="string">LinuxIFC </i>
  <i name="date" type="string">2024 11 05 </i>
  <i name="time" type="string">05:29:19 </i>
 </generator>
 <incar>
  <i type="int" name="ISTART">     0</i>
  <i type="string" name="PREC">Accurate      (Accurate strictly avoids</i>
  <i type="logical" name="ADDGRID"> T  </i>
  <i type="int" name="ISPIN">     1</i>
  <i type="int" name="NELM">    90</i>
  <i type="int" name="NELMIN">     6</i>
  <i type="int" name="IBRION">     2</i>
  <i name="EDIFF">      0.00000100</i>
  <i name="EDIFFG">     -0.00200000</i>
  <i type="int" name="NSW">   100</i>
  <i type="int" name="ISIF">     2</i>
  <i type="int" name="ISYM">     2</i>
  <i name="ENCUT">    350.00000000</i>
  <i type="logical" name="LREAL"> F  </i>
  <i type="int" name="ISMEAR">     0</i>
  <i name="SIGMA">      0.05000000</i>
  <i type="logical" name="LWAVE"> F  </i>
  <i type="logical" name="LCHARG"> F  </i>
  <i type="logical" name="LASPH"> T  </i>
 </incar>
 <primitive_cell>
  <structure name="primitive_cell" >
   <crystal>
    <varray name="basis" >
     <v>       1.54359214       1.54359214       1.54359214 </v>
     <v>       1.54359214      -1.54359214      -1.54359214 </v>
     <v>      -1.54359214       1.54359214      -1.54359214 </v>
    </varray>
    <i name="volume">     14.71152415 </i>
    <varray name="rec_basis" >
     <v>       0.32391976       0.32391976       0.00000000 </v>
     <v>       0.32391976       0.00000000      -0.32391976 </v>
     <v>       0.00000000       0.32391976      -0.32391976 </v>
    </varray>
   </crystal>
   <varray name="positions" >
    <v>       0.00000000       0.00000000       0.00000000 </v>
   </varray>
  </structure>
  <varray name="primitive_index" >
   <v type="int" >        1 </v>
  </varray>
 </primitive_cell>
 <kpoints>
  <generation param="Monkhorst-Pack">
   <v type="int" name="divisions">      11       11       11 </v>
   <v name="usershift">      0.00000000       0.00000000       0.00000000 </v>
   <v name="genvec1">      0.09090909       0.00000000       0.00000000 </v>
   <v name="genvec2">      0.00000000       0.09090909       0.00000000 </v>
   <v name="genvec3">      0.00000000       0.00000000       0.09090909 </v>
   <v name="shift">      0.00000000       0.00000000       0.00000000 </v>
  </generation>
  <varray name="kpointlist" >
   <v>       0.00000000       0.00000000       0.00000000 </v>
   <v>       0.09090909       0.00000000       0.00000000 </v>
   <v>       0.18181818       0.00000000       0.00000000 </v>
   <v>       0.27272727       0.00000000       0.00000000 </v>
   <v>       0.36363636       0.00000000       0.00000000 </v>
   <v>       0.45454545       0.00000000       0.00000000 </v>
   <v>       0.09090909       0.09090909       0.00000000 </v>
   <v>       0.18181818       0.09090909      -0.00000000 </v>
   <v>       0.27272727       0.09090909       0.00000000 </v>
   <v>       0.36363636       0.09090909      -0.00000000 </v>
   <v>       0.45454545       0.09090909      -0.00000000 </v>
   <v>       0.18181818       0.18181818       0.00000000 </v>
   <v>       0.27272727       0.18181818       0.00000000 </v>
   <v>       0.36363636       0.18181818      -0.00000000 </v>
   <v>       0.27272727       0.27272727       0.00000000 </v>
   <v>       0.36363636       0.27272727       0.00000000 </v>
   <v>       0.09090909       0.09090909       0.09090909 </v>
   <v>       0.18181818       0.09090909       0.09090909 </v>
   <v>       0.27272727       0.09090909       0.09090909 </v>
   <v>       0.36363636       0.09090909       0.09090909 </v>
   <v>      -0.09090909       0.09090909       0.09090909 </v>
   <v>       0.18181818       0.18181818       0.09090909 </v>
   <v>       0.27272727       0.18181818       0.09090909 </v>
   <v>       0.36363636       0.18181818       0.09090909 </v>
   <v>      -0.18181818       0.18181818       0.09090909 </v>
   <v>       0.27272727       0.27272727       0.09090909 </v>
   <v>      -0.27272727       0.27272727       0.09090909 </v>
   <v>      -0.18181818       0.27272727       0.09090909 </v>
   <v>      -0.36363636       0.36363636       0.09090909 </v>
   <v>      -0.27272727       0.36363636       0.09090909 </v>
   <v>      -0.45454545       0.45454545       0.09090909 </v>
   <v>      -0.36363636       0.45454545       0.09090909 </v>
   <v>      -0.27272727       0.45454545       0.09090909 </v>
   <v>      -0.45454545      -0.45454545       0.09090909 </v>
   <v>      -0.36363636      -0.45454545       0.09090909 </v>
   <v>      -0.36363636      -0.36363636       0.09090909 </v>
   <v>       0.18181818       0.18181818       0.18181818 </v>
   <v>       0.27272727       0.18181818       0.18181818 </v>
   <v>      -0.18181818       0.18181818       0.18181818 </v>
   <v>       0.27272727       0.27272727       0.18181818 </v>
   <v>      -0.27272727       0.27272727       0.18181818 </v>
   <v>      -0.36363636       0.36363636       0.18181818 </v>
   <v>      -0.27272727       0.36363636       0.18181818 </v>
   <v>      -0.45454545       0.45454545       0.18181818 </v>
   <v>      -0.36363636       0.45454545       0.18181818 </v>
   <v>      -0.45454545      -0.45454545       0.18181818 </v>
   <v>      -0.36363636      -0.45454545       0.18181818 </v>
   <v>      -0.27272727       0.27272727       0.27272727 </v>
   <v>      -0.36363636       0.36363636       0.27272727 </v>
   <v>      -0.45454545       0.45454545       0.27272727 </v>
   <v>      -0.36363636       0.45454545       0.27272727 </v>
   <v>      -0.45454545      -0.45454545       0.27272727 </v>
   <v>      -0.36363636       0.36363636       0.36363636 </v>
   <v>      -0.45454545       0.45454545       0.36363636 </v>
   <v>      -0.45454545      -0.45454545       0.36363636 </v>
   <v>      -0.45454545       0.45454545       0.45454545 </v>
  </varray>
  <varray name="weights" >
   <v>       0.00075131 </v>
   <v>       0.00901578 </v>
   <v>       0.00901578 </v>
   <v>       0.00901578 </v>
   <v>       0.00901578 </v>
   <v>       0.00901578 </v>
   <v>       0.01803156 </v>
   <v>       0.03606311 </v>
   <v>       0.03606311 </v>
   <v>       0.03606311 </v>
   <v>       0.01803156 </v>
   <v>       0.01803156 </v>
   <v>       0.03606311 </v>
   <v>       0.03606311 </v>
   <v>       0.01803156 </v>
   <v>       0.01803156 </v>
   <v>       0.00601052 </v>
   <v>       0.01803156 </v>
   <v>       0.01803156 </v>
   <v>       0.01803156 </v>
   <v>       0.00450789 </v>
   <v>       0.01803156 </v>
   <v>       0.03606311 </v>
   <v>       0.01803156 </v>
   <v>       0.01803156 </v>
   <v>       0.01803156 </v>
   <v>       0.01803156 </v>
   <v>       0.01803156 </v>
   <v>       0.01803156 </v>
   <v>       0.03606311 </v>
   <v>       0.01803156 </v>
   <v>       0.03606311 </v>
   <v>       0.01803156 </v>
   <v>       0.01803156 </v>
   <v>       0.03606311 </v>
   <v>       0.00601052 </v>
   <v>       0.00601052 </v>
   <v>       0.01803156 </v>
   <v>       0.00450789 </v>
   <v>       0.00601052 </v>
   <v>       0.01803156 </v>
   <v>       0.01803156 </v>
   <v>       0.01803156 </v>
   <v>       0.01803156 </v>
   <v>       0.03606311 </v>
   <v>       0.01803156 </v>
   <v>       0.01803156 </v>
   <v>       0.00450789 </v>
   <v>       0.01803156 </v>
   <v>       0.01803156 </v>
   <v>       0.01803156 </v>
   <v>       0.01803156 </v>
   <v>       0.00450789 </v>
   <v>       0.01803156 </v>
   <v>       0.00601052 </v>
   <v>       0.00450789 </v>
  </varray>
 </kpoints>
 <parameters>
  <separator name="general" >
   <i type="string" name="SYSTEM">unknown system</i>
   <i type="logical" name="LCOMPAT"> F  </i>
  </separator>
  <separator name="electronic" >
   <i type="string" name="PREC">accura</i>
   <i name="ENMAX">    350.00000000</i>
   <i name="ENAUG">    322.06900000</i>
   <i name="EDIFF">      0.00000100</i>
   <i type="int" name="IALGO">    38</i>
   <i type="int" name="IWAVPR">    11</i>
   <i type="int" name="NBANDS">     8</i>
   <i type="int" name="NBANDSLOW">    -1</i>
   <i type="int" name="NBANDSHIGH">    -1</i>
   <i name="NELECT">      4.00000000</i>
   <i type="int" name="TURBO">     0</i>
   <i type="int" name="IRESTART">     0</i>
   <i type="int" name="NREBOOT">     0</i>
   <i type="int" name="NMIN">     0</i>
   <i name="EREF">      0.00000000</i>
   <separator name="electronic smearing" >
    <i type="int" name="ISMEAR">     0</i>
    <i name="SIGMA">      0.05000000</i>
    <i name="KSPACING">      0.50000000</i>
    <i type="logical" name="KGAMMA"> T  </i>
    <i type="logical" name="KBLOWUP"> T  </i>
   </separator>
   <separator name="electronic projectors" >
    <i type="logical" name="LREAL"> F  </i>
    <v name="ROPT">      0.00000000</v>
    <i type="int" name="LMAXPAW">  -100</i>
    <i type="int" name="LMAXMIX">     2</i>
    <i type="logical" name="NLSPLINE"> F  </i>
   </separator>
   <separator name="electronic startup" >
    <i type="int" name="ISTART">     0</i>
    <i type="int" name="ICHARG">     2</i>
    <i type="int" name="INIWAV">     1</i>
   </separator>
   <separator name="electronic spin" >
    <i type="int" name="ISPIN">     1</i>
    <i type="logical" name="LNONCOLLINEAR"> F  </i>
    <v name="MAGMOM">      1.00000000</v>
    <i name="NUPDOWN">     -1.00000000</i>
    <i type="logical" name="LSORBIT"> F  </i>
    <v name="SAXIS">      0.00000000      0.00000000      1.00000000</v>
    <i type="logical" name="LSPIRAL"> F  </i>
    <v name="QSPIRAL">      0.00000000      0.00000000      0.00000000</v>
    <i type="logical" name="LZEROZ"> F  </i>
   </separator>
   <separator name="electronic exchange-correlation" >
    <i type="logical" name="LASPH"> T  </i>
    <i type="logical" name="LMETAGGA"> F  </i>
   </separator>
   <separator name="electronic convergence" >
    <i type="int" name="NELM">    90</i>
    <i type="int" name="NELMDL">    -5</i>
    <i type="int" name="NELMIN">     6</i>
    <i name="ENINI">    350.00000000</i>
    <separator name="electronic convergence detail" >
     <i type="logical" name="LDIAG"> T  </i>
     <i type="logical" name="LSUBROT"> F  </i>
     <i name="WEIMIN">      0.00100000</i>
     <i name="EBREAK">      0.00000003</i>
     <i name="DEPER">      0.30000000</i>
     <i type="int" name="NRMM">     4</i>
     <i name="TIME">      0.40000000</i>
    </separator>
   </separator>
   <separator name="electronic mixer" >
    <i name="AMIX">      0.40000000</i>
    <i name="BMIX">      1.00000000</i>
    <i name="AMIN">      0.10000000</i>
    <i name="AMIX_MAG">      1.60000000</i>
    <i name="BMIX_MAG">      1.00000000</i>
    <separator name="electronic mixer details" >
     <i type="int" name="IMIX">     4</i>
     <i type="logical" name="MIXFIRST"> F  </i>
     <i type="int" name="MAXMIX">   -45</i>
     <i name="WC">    100.00000000</i>
     <i type="int" name="INIMIX">     1</i>
     <i type="int" name="MIXPRE">     1</i>
     <i type="int" name="MREMOVE">     5</i>
    </separator>
   </separator>
   <separator name="electronic dipolcorrection" >
    <i type="logical" name="LDIPOL"> F  </i>
    <i type="logical" name="LMONO"> F  </i>
    <i type="int" name="IDIPOL">     0</i>
    <i name="EPSILON">      1.00000000</i>
    <v name="DIPOL">   -100.00000000   -100.00000000   -100.00000000</v>
    <i name="EFIELD">      0.00000000</i>
   </separator>
  </separator>
  <separator name="grids" >
   <i type="int" name="NGX">    16</i>
   <i type="int" name="NGY">    16</i>
   <i type="int" name="NGZ">    16</i>
   <i type="int" name="NGXF">    32</i>
   <i type="int" name="NGYF">    32</i>
   <i type="int" name="NGZF">    32</i>
   <i type="logical" name="ADDGRID"> T  </i>
  </separator>
  <separator name="ionic" >
   <i type="int" name="NSW">   100</i>
   <i type="int" name="IBRION">     2</i>
   <i type="int" name="MDALGO">     0</i>
   <i type="int" name="ISIF">     2</i>
   <i name="PSTRESS">      0.00000000</i>
   <i name="EDIFFG">     -0.00200000</i>
   <i type="int" name="NFREE">     1</i>
   <i name="POTIM">      0.50000000</i>
   <i name="SMASS">     -3.00000000</i>
   <i name="SCALEE">      1.00000000</i>
  </separator>
  <separator name="ionic md" >
   <i name="TEBEG">      0.00010000</i>
   <i name="TEEND">      0.00010000</i>
   <i type="int" name="NBLOCK">     1</i>
   <i type="int" name="KBLOCK">   100</i>
   <i type="int" name="NPACO">   256</i>
   <i name="APACO">     16.00000000</i>
  </separator>
  <separator name="symmetry" >
   <i type="int" name="ISYM">     2</i>
   <i name="SYMPREC">      0.00001000</i>
  </separator>
  <separator name="dos" >
   <i type="int" name="LORBIT">     0</i>
   <v name="RWIGS">     -1.00000000</v>
   <i type="int" name="NEDOS">   301</i>
   <i name="EMIN">     10.00000000</i>
   <i name="EMAX">    -10.00000000</i>
   <i name="EFERMI">      0.00000000</i>
  </separator>
  <separator name="writing" >
   <i type="int" name="NWRITE">     2</i>
   <i type="logical" name="LWAVE"> F  </i>
   <i type="logical" name="LDOWNSAMPLE"> F  </i>
   <i type="logical" name="LCHARG"> F  </i>
   <i type="logical" name="LPARD"> F  </i>
   <i type="logical" name="LVTOT"> F  </i>
   <i type="logical" name="LVHAR"> F  </i>
   <i type="logical" name="LELF"> F  </i>
   <i type="logical" name="LOPTICS"> F  </i>
   <v name="STM">      0.00000000      0.00000000      0.00000000      0.00000000      0.00000000      0.00000000      0.00000000</v>
  </separator>
  <separator name="performance" >
   <i type="int" name="NPAR">     4</i>
   <i type="int" name="NSIM">     4</i>
   <i type="int" name="NBLK">    -1</i>
   <i type="logical" name="LPLANE"> T  </i>
   <i type="logical" name="LSCALAPACK"> T  </i>
   <i type="logical" name="LSCAAWARE"> F  </i>
   <i type="logical" name="LSCALU"> F  </i>
   <i type="logical" name="LASYNC"> F  </i>
   <i type="logical" name="LORBITALREAL"> F  </i>
  </separator>
  <separator name="miscellaneous" >
   <i type="int" name="IDIOT">     3</i>
   <i type="int" name="PHON_NSTRUCT">    -1</i>
   <i type="logical" name="LMUSIC"> F  </i>
   <v name="POMASS">     28.08500000</v>
   <v name="DARWINR">      0.00000000</v>
   <v name="DARWINV">      1.00000000</v>
   <i type="logical" name="LCORR"> T  </i>
  </separator>
  <i type="logical" name="GGA_COMPAT"> T  </i>
  <i type="logical" name="LBERRY"> F  </i>
  <i type="int" name="ICORELEVEL">     0</i>
  <i type="logical" name="LDAU"> F  </i>
  <i type="int" name="I_CONSTRAINED_M">     0</i>
  <separator name="electronic exchange-correlation" >
   <i type="string" name="GGA">--</i>
   <i type="int" name="VOSKOWN">     0</i>
   <i type="logical" name="LHFCALC"> F  </i>
   <i type="string" name="PRECFOCK"></i>
   <i type="logical" name="LSYMGRAD"> F  </i>
   <i type="logical" name="LHFONE"> F  </i>
   <i type="logical" name="LRHFCALC"> F  </i>
   <i type="logical" name="LTHOMAS"> F  </i>
   <i type="logical" name="LMODELHF"> F  </i>
   <i type="logical" name="LFOCKACE"> F  </i>
   <i name="ENCUT4O">     -1.00000000</i>
   <i type="int" name="EXXOEP">     0</i>
   <i type="int" name="FOURORBIT">     0</i>
   <i name="AEXX">      0.00000000</i>
   <i name="HFALPHA">      0.00000000</i>
   <i name="MCALPHA">      0.00000000</i>
   <i name="ALDAX">      1.00000000</i>
   <i name="AGGAX">      1.00000000</i>
   <i name="ALDAC">      1.00000000</i>
   <i name="AGGAC">      1.00000000</i>
   <i type="int" name="NKREDX">     1</i>
   <i type="int" name="NKREDY">     1</i>
   <i type="int" name="NKREDZ">     1</i>
   <i type="logical" name="SHIFTRED"> F  </i>
   <i type="logical" name="ODDONLY"> F  </i>
   <i type="logical" name="EVENONLY"> F  </i>
   <i type="int" name="LMAXFOCK">     0</i>
   <i type="int" name="NMAXFOCKAE">     0</i>
   <i type="logical" name="LFOCKAEDFT"> F  </i>
   <i name="HFSCREEN">      0.00000000</i>
   <i name="HFSCREENC">      0.00000000</i>
   <i type="int" name="NBANDSGWLOW">     0</i>
  </separator>
  <separator name="vdW DFT" >
   <i type="logical" name="LUSE_VDW"> F  </i>
   <i name="Zab_VDW">     -0.84910000</i>
   <i name="PARAM1">      0.12340000</i>
   <i name="PARAM2">      1.00000000</i>
   <i name="PARAM3">      0.00000000</i>
  </separator>
  <separator name="model GW" >
   <i type="int" name="MODEL_GW">     0</i>
   <i name="MODEL_EPS0">      8.82691449</i>
   <i name="MODEL_ALPHA">      1.00000000</i>
  </separator>
  <separator name="linear response parameters" >
   <i type="logical" name="LEPSILON"> F  </i>
   <i type="logical" name="LRPA"> F  </i>
   <i type="logical" name="LNABLA"> F  </i>
   <i type="logical" name="LVEL"> F  </i>
   <i type="int" name="KINTER">     0</i>
   <i name="CSHIFT">      0.10000000</i>
   <i name="OMEGAMAX">     -1.00000000</i>
   <i name="DEG_THRESHOLD">      0.00200000</i>
   <i name="RTIME">     -0.10000000</i>
   <i name="WPLASMAI">      0.00000000</i>
   <v name="DFIELD">      0.00000000      0.00000000      0.00000000</v>
   <v name="WPLASMA">      0.00000000      0.00000000      0.00000000      0.00000000      0.00000000      0.00000000      0.00000000      0.00000000      0.00000000</v>
  </separator>
  <separator name="orbital magnetization" >
   <i type="logical" name="NUCIND"> F  </i>
   <v name="MAGPOS">      0.00000000      0.00000000      0.00000000</v>
   <i type="logical" name="LNICSALL"> T  </i>
   <i type="logical" name="ORBITALMAG"> F  </i>
   <i type="logical" name="LMAGBLOCH"> F  </i>
   <i type="logical" name="LCHIMAG"> F  </i>
   <i type="logical" name="LGAUGE"> T  </i>
   <i type="int" name="MAGATOM">     0</i>
   <v name="MAGDIPOL">      0.00000000      0.00000000      0.00000000</v>
   <v name="AVECCONST">      0.00000000      0.00000000      0.00000000</v>
  </separator>
  <separator name="response functions" >
   <i type="logical" name="LFINITE_TEMPERATURE"> F  </i>
   <i type="logical" name="LADDER"> F  </i>
   <i type="logical" name="LRPAFORCE"> F  </i>
   <i type="logical" name="LFXC"> F  </i>
   <i type="logical" name="LHARTREE"> T  </i>
   <i type="int" name="IBSE">     0</i>
   <v type="int" name="KPOINT">    -1     0     0     0</v>
   <i type="logical" name="LTCTC"> F  </i>
   <i type="logical" name="LTCTE"> F  </i>
   <i type="logical" name="LTETE"> F  </i>
   <i type="logical" name="LTRIPLET"> F  </i>
   <i type="logical" name="LFXCEPS"> F  </i>
   <i type="logical" name="LFXHEG"> F  </i>
   <i type="int" name="NATURALO">     2</i>
   <i type="logical" name="LHOLEGF"> F  </i>
   <i type="logical" name="L2ORDER"> F  </i>
   <i type="logical" name="LDMP1"> F  </i>
   <i type="logical" name="LMP2LT"> F  </i>
   <i type="logical" name="LSMP2LT"> F  </i>
   <i type="logical" name="LGWLF"> F  </i>
   <i name="ENCUTGW">     -2.00000000</i>
   <i name="ENCUTGWSOFT">     -2.00000000</i>
   <i name="ENCUTLF">     -1.00000000</i>
   <i type="logical" name="LESF_SPLINES"> F  </i>
   <i type="int" name="LMAXMP2">    -1</i>
   <i name="SCISSOR">      0.00000000</i>
   <i type="int" name="NOMEGA">     0</i>
   <i type="int" name="NOMEGAR">     0</i>
   <i type="int" name="NBANDSGW">    -1</i>
   <i type="int" name="NBANDSO">    -1</i>
   <i type="int" name="NBANDSV">    -1</i>
   <i type="int" name="NELM">    90</i>
   <i type="int" name="NELMHF">     1</i>
   <i type="int" name="DIM">     3</i>
   <i type="int" name="IESPILON">     4</i>
   <i type="int" name="ANTIRES">     0</i>
   <i name="OMEGAMAX">    -30.00000000</i>
   <i name="OMEGAMIN">    -30.00000000</i>
   <i name="OMEGATL">   -200.00000000</i>
   <i type="int" name="OMEGAGRID">     0</i>
   <i name="CSHIFT">     -0.10000000</i>
   <i type="logical" name="LSELFENERGY"> F  </i>
   <i type="logical" name="LSPECTRAL"> F  </i>
   <i type="logical" name="LSPECTRALGW"> F  </i>
   <i type="logical" name="LSINGLES"> F  </i>
   <i type="logical" name="LFERMIGW"> F  </i>
   <i type="logical" name="ODDONLYGW"> F  </i>
   <i type="logical" name="EVENONLYGW"> F  </i>
   <i type="int" name="NKREDLFX">     1</i>
   <i type="int" name="NKREDLFY">     1</i>
   <i type="int" name="NKREDLFZ">     1</i>
   <i type="int" name="MAXMEM">  2800</i>
   <i type="int" name="TELESCOPE">     0</i>
   <i type="int" name="NTAUPAR">    -1</i>
   <i type="int" name="NOMEGAPAR">    -1</i>
   <i name="DAMP_NEWTON">      0.80000001</i>
   <i name="LAMBDA">      1.00000000</i>
  </separator>
  <separator name="External order field" >
   <i name="OFIELD_KAPPA">      0.00000000</i>
   <v name="OFIELD_K">      0.00000000      0.00000000      0.00000000</v>
   <i name="OFIELD_Q6_NEAR">      0.00000000</i>
   <i name="OFIELD_Q6_FAR">      0.00000000</i>
   <i name="OFIELD_A">      0.00000000</i>
  </separator>
 </parameters>
 <atominfo>
  <atoms>       1 </atoms>
  <types>       1 </types>
  <array name="atoms" >
   <dimension dim="1">ion</dimension>
   <field type="string">element</field>
   <field type="int">atomtype</field>
   <set>
    <rc><c>Si</c><c>   1</c></rc>
   </set>
  </array>
  <array name="atomtypes" >
   <dimension dim="1">type</dimension>
   <field type="int">atomspertype</field>
   <field type="string">element</field>
   <field>mass</field>
   <field>valence</field>
   <field type="string">pseudopotential</field>
   <set>
    <rc><c>   1</c><c>Si</c><c>     28.08500000</c><c>      4.00000000</c><c>  PAW_PBE Si 05Jan2001                  </c></rc>
   </set>
  </array>
 </atominfo>
 <structure name="initialpos" >
  <crystal>
   <varray name="basis" >
    <v>       1.54359214       1.54359214       1.54359214 </v>
    <v>       1.54359214      -1.54359214      -1.54359214 </v>
    <v>      -1.54359214       1.54359214      -1.54359214 </v>
   </varray>
   <i name="volume">     14.71152415 </i>
   <varray name="rec_basis" >
    <v>       0.32391976       0.32391976       0.00000000 </v>
    <v>       0.32391976       0.00000000      -0.32391976 </v>
    <v>       0.00000000       0.32391976      -0.32391976 </v>
   </varray>
  </crystal>
  <varray name="positions" >
   <v>       0.00000000       0.00000000       0.00000000 </v>
  </varray>
 </structure>
 <calculation>
  <scstep>
   <time name="dav">    0.16    0.16</time>
   <time name="total">    0.33    0.34</time>
   <energy>
    <i name="alphaZ">      2.28821504 </i>
    <i name="ewald">   -135.79801470 </i>
    <i name="hartreedc">     -0.60392443 </i>
    <i name="XCdc">     -8.85188937 </i>
    <i name="pawpsdc">     88.12379961 </i>
    <i name="pawaedc">    -70.53051779 </i>
    <i name="eentropy">     -0.00079218 </i>
    <i name="bandstr">     19.12460709 </i>
    <i name="atom">    103.06562707 </i>
    <i name="e_fr_energy">     -3.18288964 </i>
    <i name="e_wo_entrp">     -3.18209747 </i>
    <i name="e_0_energy">     -3.18249356 </i>
   </energy>
  </scstep>
  <scstep>
   <time name="dav">    0.24    0.25</time>
   <time name="total">    0.24    0.25</time>
   <energy>
    <i name="e_fr_energy">     -4.89177696 </i>
    <i name="e_wo_entrp">     -4.89096861 </i>
    <i name="e_0_energy">     -4.89137278 </i>
   </energy>
  </scstep>
  <scstep>
   <time name="dav">    0.17    0.19</time>
   <time name="total">    0.17    0.19</time>
   <energy>
    <i name="e_fr_energy">     -4.90010984 </i>
    <i name="e_wo_entrp">     -4.89926703 </i>
    <i name="e_0_energy">     -4.89968844 </i>
   </energy>
  </scstep>
  <scstep>
   <time name="dav">    0.25    0.26</time>
   <time name="total">    0.25    0.26</time>
   <energy>
    <i name="e_fr_energy">     -4.90011505 </i>
    <i name="e_wo_entrp">     -4.89927216 </i>
    <i name="e_0_energy">     -4.89969361 </i>
   </energy>
  </scstep>
  <scstep>
   <time name="dav">    0.17    0.18</time>
   <time name="total">    0.19    0.20</time>
   <energy>
    <i name="e_fr_energy">     -4.90011505 </i>
    <i name="e_wo_entrp">     -4.89927216 </i>
    <i name="e_0_energy">     -4.89969361 </i>
   </energy>
  </scstep>
  <scstep>
   <time name="dav">    0.16    0.16</time>
   <time name="total">    0.35    0.36</time>
   <energy>
    <i name="e_fr_energy">     -4.88890560 </i>
    <i name="e_wo_entrp">     -4.88803223 </i>
    <i name="e_0_energy">     -4.88846891 </i>
   </energy>
  </scstep>
  <scstep>
   <time name="dav">    0.16    0.16</time>
   <time name="total">    0.35    0.36</time>
   <energy>
    <i name="e_fr_energy">     -4.88259467 </i>
    <i name="e_wo_entrp">     -4.88166351 </i>
    <i name="e_0_energy">     -4.88212909 </i>
   </energy>
  </scstep>
  <scstep>
   <time name="dav">    0.23    0.23</time>
   <time name="total">    0.42    0.43</time>
   <energy>
    <i name="e_fr_energy">     -4.88257679 </i>
    <i name="e_wo_entrp">     -4.88164375 </i>
    <i name="e_0_energy">     -4.88211027 </i>
   </energy>
  </scstep>
  <scstep>
   <time name="dav">    0.18    0.18</time>
   <time name="total">    0.35    0.36</time>
   <energy>
    <i name="alphaZ">      2.28821504 </i>
    <i name="ewald">   -135.79801470 </i>
    <i name="hartreedc">     -0.43346082 </i>
    <i name="XCdc">     -8.79928627 </i>
    <i name="pawpsdc">    290.71663715 </i>
    <i name="pawaedc">   -273.13530199 </i>
    <i name="eentropy">     -0.00093354 </i>
    <i name="bandstr">     17.21394057 </i>
    <i name="atom">    103.06562707 </i>
    <i name="e_fr_energy">     -4.88257748 </i>
    <i name="e_wo_entrp">     -4.88164395 </i>
    <i name="e_0_energy">     -4.88211071 </i>
   </energy>
  </scstep>
  <structure>
   <crystal>
    <varray name="basis" >
     <v>       1.54359214       1.54359214       1.54359214 </v>
     <v>       1.54359214      -1.54359214      -1.54359214 </v>
     <v>      -1.54359214       1.54359214      -1.54359214 </v>
    </varray>
    <i name="volume">     14.71152415 </i>
    <varray name="rec_basis" >
     <v>       0.32391976       0.32391976       0.00000000 </v>
     <v>       0.32391976       0.00000000      -0.32391976 </v>
     <v>       0.00000000       0.32391976      -0.32391976 </v>
    </varray>
   </crystal>
   <varray name="positions" >
    <v>       0.00000000       0.00000000       0.00000000 </v>
   </varray>
  </structure>
  <varray name="forces" >
   <v>      -0.00000000      -0.00000000       0.00000000 </v>
  </varray>
  <varray name="stress" >
   <v>      -9.63812281       0.00000000      -0.00000000 </v>
   <v>      -0.00000000      -9.63812281       0.00000000 </v>
   <v>      -0.00000000       0.00000000      -9.63812281 </v>
  </varray>
  <energy>
   <i name="e_fr_energy">     -4.88257748 </i>
   <i name="e_wo_entrp">     -4.88164395 </i>
   <i name="e_0_energy">     -4.88211071 </i>
  </energy>
  <time name="totalsc">    3.27    3.43</time>
  <eigenvalues>
   <array>
    <dimension dim="1">band</dimension>
    <dimension dim="2">kpoint</dimension>
    <dimension dim="3">spin</dimension>
    <field>eigene</field>
    <field>occ</field>
    <set>
     <set comment="spin 1">
      <set comment="kpoint 1">
       <r>   -4.3399    1.0000 </r>
       <r>   21.1386    0.0000 </r>
       <r>   21.1386    0.0000 </r>
       <r>   21.1386    0.0000 </r>
       <r>   22.3540    0.0000 </r>
       <r>   22.3540    0.0000 </r>
       <r>   22.3540    0.0000 </r>
       <r>   26.0318    0.0000 </r>
      </set>
      <set comment="kpoint 2">
       <r>   -4.0879    1.0000 </r>
       <r>   18.6682    0.0000 </r>
       <r>   19.5306    0.0000 </r>
       <r>   20.7955    0.0000 </r>
       <r>   21.5913    0.0000 </r>
       <r>   23.2007    0.0000 </r>
       <r>   24.3912    0.0000 </r>
       <r>   24.8890    0.0000 </r>
      </set>
      <set comment="kpoint 3">
       <r>   -3.3339    1.0000 </r>
       <r>   14.9252    0.0000 </r>
       <r>   17.8576    0.0000 </r>
       <r>   19.9539    0.0000 </r>
       <r>   20.1679    0.0000 </r>
       <r>   22.1735    0.0000 </r>
       <r>   25.6434    0.0000 </r>
       <r>   25.9712    0.0000 </r>
      </set>
      <set comment="kpoint 4">
       <r>   -2.0833    1.0000 </r>
       <r>   11.1508    0.0000 </r>
       <r>   16.5897    0.0000 </r>
       <r>   18.8843    0.0000 </r>
       <r>   19.0317    0.0000 </r>
       <r>   20.9864    0.0000 </r>
       <r>   26.7802    0.0000 </r>
       <r>   27.0796    0.0000 </r>
      </set>
      <set comment="kpoint 5">
       <r>   -0.3459    1.0000 </r>
       <r>    7.6592    1.0000 </r>
       <r>   15.7435    0.0000 </r>
       <r>   17.9755    0.0000 </r>
       <r>   18.3204    0.0000 </r>
       <r>   20.1415    0.0000 </r>
       <r>   28.0919    0.0000 </r>
       <r>   28.7627    0.0000 </r>
      </set>
      <set comment="kpoint 6">
       <r>    1.8579    1.0000 </r>
       <r>    4.5649    1.0000 </r>
       <r>   15.3205    0.0000 </r>
       <r>   17.5085    0.0000 </r>
       <r>   17.9438    0.0000 </r>
       <r>   19.7085    0.0000 </r>
       <r>   29.6332    0.0000 </r>
       <r>   30.3385    0.0000 </r>
      </set>
      <set comment="kpoint 7">
       <r>   -3.5849    1.0000 </r>
       <r>   16.6793    0.0000 </r>
       <r>   17.2403    0.0000 </r>
       <r>   19.2211    0.0000 </r>
       <r>   21.9111    0.0000 </r>
       <r>   23.2931    0.0000 </r>
       <r>   24.4631    0.0000 </r>
       <r>   25.6652    0.0000 </r>
      </set>
      <set comment="kpoint 8">
       <r>   -2.5826    1.0000 </r>
       <r>   13.1632    0.0000 </r>
       <r>   15.4863    0.0000 </r>
       <r>   17.9204    0.0000 </r>
       <r>   21.2426    0.0000 </r>
       <r>   22.7405    0.0000 </r>
       <r>   25.0385    0.0000 </r>
       <r>   27.4767    0.0000 </r>
      </set>
      <set comment="kpoint 9">
       <r>   -1.0884    1.0000 </r>
       <r>    9.5316    1.0000 </r>
       <r>   14.3724    0.0000 </r>
       <r>   16.9001    0.0000 </r>
       <r>   20.3405    0.0000 </r>
       <r>   22.2436    0.0000 </r>
       <r>   25.9197    0.0000 </r>
       <r>   29.3222    0.0000 </r>
      </set>
      <set comment="kpoint 10">
       <r>    0.8849    1.0000 </r>
       <r>    6.2355    1.0000 </r>
       <r>   13.7025    0.0000 </r>
       <r>   16.2624    0.0000 </r>
       <r>   19.7278    0.0000 </r>
       <r>   21.8174    0.0000 </r>
       <r>   27.4271    0.0000 </r>
       <r>   30.4038    0.0000 </r>
      </set>
      <set comment="kpoint 11">
       <r>    3.1266    1.0000 </r>
       <r>    3.5481    1.0000 </r>
       <r>   13.4790    0.0000 </r>
       <r>   16.0467    0.0000 </r>
       <r>   19.5163    0.0000 </r>
       <r>   21.6566    0.0000 </r>
       <r>   29.1174    0.0000 </r>
       <r>   29.4248    0.0000 </r>
      </set>
      <set comment="kpoint 12">
       <r>   -1.3365    1.0000 </r>
       <r>   11.6290    0.0000 </r>
       <r>   12.0267    0.0000 </r>
       <r>   16.7127    0.0000 </r>
       <r>   21.8315    0.0000 </r>
       <r>   22.7672    0.0000 </r>
       <r>   26.6470    0.0000 </r>
       <r>   27.7780    0.0000 </r>
      </set>
      <set comment="kpoint 13">
       <r>    0.3946    1.0000 </r>
       <r>    8.3562    1.0000 </r>
       <r>   10.9203    0.0000 </r>
       <r>   15.8783    0.0000 </r>
       <r>   21.4891    0.0000 </r>
       <r>   23.5469    0.0000 </r>
       <r>   26.8555    0.0000 </r>
       <r>   29.5502    0.0000 </r>
      </set>
      <set comment="kpoint 14">
       <r>    2.5909    1.0000 </r>
       <r>    5.2828    1.0000 </r>
       <r>   10.4522    0.0000 </r>
       <r>   15.4509    0.0000 </r>
       <r>   21.1285    0.0000 </r>
       <r>   24.4044    0.0000 </r>
       <r>   27.2227    0.0000 </r>
       <r>   29.0323    0.0000 </r>
      </set>
      <set comment="kpoint 15">
       <r>    2.3526    1.0000 </r>
       <r>    7.4966    1.0000 </r>
       <r>    7.8261    1.0000 </r>
       <r>   15.2527    0.0000 </r>
       <r>   22.7393    0.0000 </r>
       <r>   23.6740    0.0000 </r>
       <r>   27.5271    0.0000 </r>
       <r>   29.8267    0.0000 </r>
      </set>
      <set comment="kpoint 16">
       <r>    4.5824    1.0000 </r>
       <r>    4.9789    1.0000 </r>
       <r>    7.4395    1.0000 </r>
       <r>   15.0401    0.0000 </r>
       <r>   22.8870    0.0000 </r>
       <r>   24.8960    0.0000 </r>
       <r>   25.9379    0.0000 </r>
       <r>   30.6713    0.0000 </r>
      </set>
      <set comment="kpoint 17">
       <r>   -2.8327    1.0000 </r>
       <r>   14.8209    0.0000 </r>
       <r>   15.7241    0.0000 </r>
       <r>   15.7241    0.0000 </r>
       <r>   23.8184    0.0000 </r>
       <r>   23.8184    0.0000 </r>
       <r>   25.8689    0.0000 </r>
       <r>   25.8689    0.0000 </r>
      </set>
      <set comment="kpoint 18">
       <r>   -1.5851    1.0000 </r>
       <r>   11.5893    0.0000 </r>
       <r>   13.8527    0.0000 </r>
       <r>   14.4320    0.0000 </r>
       <r>   23.6385    0.0000 </r>
       <r>   24.0936    0.0000 </r>
       <r>   27.0090    0.0000 </r>
       <r>   27.1781    0.0000 </r>
      </set>
      <set comment="kpoint 19">
       <r>    0.1482    1.0000 </r>
       <r>    8.1299    1.0000 </r>
       <r>   12.9314    0.0000 </r>
       <r>   13.5333    0.0000 </r>
       <r>   23.2427    0.0000 </r>
       <r>   23.5275    0.0000 </r>
       <r>   28.5086    0.0000 </r>
       <r>   28.9119    0.0000 </r>
      </set>
      <set comment="kpoint 20">
       <r>    2.3473    1.0000 </r>
       <r>    5.0457    1.0000 </r>
       <r>   12.4781    0.0000 </r>
       <r>   13.0780    0.0000 </r>
       <r>   22.9728    0.0000 </r>
       <r>   23.1823    0.0000 </r>
       <r>   29.9468    0.0000 </r>
       <r>   30.5536    0.0000 </r>
      </set>
      <set comment="kpoint 21">
       <r>   -3.8363    1.0000 </r>
       <r>   18.1678    0.0000 </r>
       <r>   18.1678    0.0000 </r>
       <r>   19.4301    0.0000 </r>
       <r>   22.3869    0.0000 </r>
       <r>   22.8531    0.0000 </r>
       <r>   24.1434    0.0000 </r>
       <r>   24.1434    0.0000 </r>
      </set>
      <set comment="kpoint 22">
       <r>   -0.0982    1.0000 </r>
       <r>   10.2625    0.0000 </r>
       <r>   10.6766    0.0000 </r>
       <r>   13.0565    0.0000 </r>
       <r>   24.6912    0.0000 </r>
       <r>   25.5932    0.0000 </r>
       <r>   27.7155    0.0000 </r>
       <r>   28.5761    0.0000 </r>
      </set>
      <set comment="kpoint 23">
       <r>    1.8658    1.0000 </r>
       <r>    7.1822    1.0000 </r>
       <r>    9.7860    0.7988 </r>
       <r>   12.3699    0.0000 </r>
       <r>   24.7967    0.0000 </r>
       <r>   26.1540    0.0000 </r>
       <r>   28.7909    0.0000 </r>
       <r>   30.2429    0.0000 </r>
      </set>
      <set comment="kpoint 24">
       <r>    4.1031    1.0000 </r>
       <r>    4.5068    1.0000 </r>
       <r>    9.5475    1.0000 </r>
       <r>   12.1411    0.0000 </r>
       <r>   24.7139    0.0000 </r>
       <r>   26.3462    0.0000 </r>
       <r>   29.6887    0.0000 </r>
       <r>   30.4393    0.0000 </r>
      </set>
      <set comment="kpoint 25">
       <r>   -3.0830    1.0000 </r>
       <r>   15.0522    0.0000 </r>
       <r>   16.5007    0.0000 </r>
       <r>   18.6535    0.0000 </r>
       <r>   21.1054    0.0000 </r>
       <r>   21.9325    0.0000 </r>
       <r>   24.4035    0.0000 </r>
       <r>   26.5989    0.0000 </r>
      </set>
      <set comment="kpoint 26">
       <r>    4.0414    1.0000 </r>
       <r>    6.5590    1.0000 </r>
       <r>    6.8923    1.0000 </r>
       <r>   11.9096    0.0000 </r>
       <r>   26.0174    0.0000 </r>
       <r>   27.3099    0.0000 </r>
       <r>   28.9611    0.0000 </r>
       <r>   31.0595    0.0000 </r>
      </set>
      <set comment="kpoint 27">
       <r>   -1.8339    1.0000 </r>
       <r>   11.3586    0.0000 </r>
       <r>   15.2000    0.0000 </r>
       <r>   17.7043    0.0000 </r>
       <r>   20.7183    0.0000 </r>
       <r>   21.1366    0.0000 </r>
       <r>   24.2155    0.0000 </r>
       <r>   29.7849    0.0000 </r>
      </set>
      <set comment="kpoint 28">
       <r>   -2.0830    1.0000 </r>
       <r>   13.3604    0.0000 </r>
       <r>   13.6810    0.0000 </r>
       <r>   18.1642    0.0000 </r>
       <r>   19.9674    0.0000 </r>
       <r>   21.5610    0.0000 </r>
       <r>   26.0461    0.0000 </r>
       <r>   27.0030    0.0000 </r>
      </set>
      <set comment="kpoint 29">
       <r>   -0.0987    1.0000 </r>
       <r>    7.8892    1.0000 </r>
       <r>   14.3232    0.0000 </r>
       <r>   16.9016    0.0000 </r>
       <r>   19.8479    0.0000 </r>
       <r>   21.2168    0.0000 </r>
       <r>   24.8197    0.0000 </r>
       <r>   30.0993    0.0000 </r>
      </set>
      <set comment="kpoint 30">
       <r>   -0.5925    1.0000 </r>
       <r>    9.9684    0.0000 </r>
       <r>   12.4049    0.0000 </r>
       <r>   17.6193    0.0000 </r>
       <r>   20.0033    0.0000 </r>
       <r>   21.1057    0.0000 </r>
       <r>   25.7926    0.0000 </r>
       <r>   28.9352    0.0000 </r>
      </set>
      <set comment="kpoint 31">
       <r>    2.1025    1.0000 </r>
       <r>    4.8032    1.0000 </r>
       <r>   13.8835    0.0000 </r>
       <r>   16.4763    0.0000 </r>
       <r>   19.4034    0.0000 </r>
       <r>   21.1237    0.0000 </r>
       <r>   26.3412    0.0000 </r>
       <r>   28.4147    0.0000 </r>
      </set>
      <set comment="kpoint 32">
       <r>    1.3757    1.0000 </r>
       <r>    6.7035    1.0000 </r>
       <r>   11.7164    0.0000 </r>
       <r>   17.0724    0.0000 </r>
       <r>   19.6752    0.0000 </r>
       <r>   22.0576    0.0000 </r>
       <r>   25.2992    0.0000 </r>
       <r>   28.0470    0.0000 </r>
      </set>
      <set comment="kpoint 33">
       <r>    1.1318    1.0000 </r>
       <r>    8.8906    1.0000 </r>
       <r>    9.2002    1.0000 </r>
       <r>   17.8857    0.0000 </r>
       <r>   20.1496    0.0000 </r>
       <r>   20.6016    0.0000 </r>
       <r>   26.4474    0.0000 </r>
       <r>   28.8438    0.0000 </r>
      </set>
      <set comment="kpoint 34">
       <r>    3.6183    1.0000 </r>
       <r>    4.0210    1.0000 </r>
       <r>   11.4870    0.0000 </r>
       <r>   16.8738    0.0000 </r>
       <r>   19.4932    0.0000 </r>
       <r>   22.8313    0.0000 </r>
       <r>   25.1246    0.0000 </r>
       <r>   27.0420    0.0000 </r>
      </set>
      <set comment="kpoint 35">
       <r>    3.3185    1.0000 </r>
       <r>    5.9887    1.0000 </r>
       <r>    8.5866    1.0000 </r>
       <r>   17.7338    0.0000 </r>
       <r>   20.0262    0.0000 </r>
       <r>   21.8874    0.0000 </r>
       <r>   24.1876    0.0000 </r>
       <r>   29.5780    0.0000 </r>
      </set>
      <set comment="kpoint 36">
       <r>    5.3997    1.0000 </r>
       <r>    5.9177    1.0000 </r>
       <r>    5.9177    1.0000 </r>
       <r>   17.8145    0.0000 </r>
       <r>   21.4745    0.0000 </r>
       <r>   21.9456    0.0000 </r>
       <r>   21.9456    0.0000 </r>
       <r>   32.5704    0.0000 </r>
      </set>
      <set comment="kpoint 37">
       <r>    1.6224    1.0000 </r>
       <r>    9.1877    1.0000 </r>
       <r>    9.7526    0.9626 </r>
       <r>    9.7526    0.9626 </r>
       <r>   27.3184    0.0000 </r>
       <r>   27.3184    0.0000 </r>
       <r>   29.3243    0.0000 </r>
       <r>   29.3243    0.0000 </r>
      </set>
      <set comment="kpoint 38">
       <r>    3.8046    1.0000 </r>
       <r>    6.4722    1.0000 </r>
       <r>    8.9373    1.0000 </r>
       <r>    9.2867    1.0000 </r>
       <r>   27.9273    0.0000 </r>
       <r>   28.2369    0.0000 </r>
       <r>   30.5944    0.0000 </r>
       <r>   30.8621    0.0000 </r>
      </set>
      <set comment="kpoint 39">
       <r>   -2.3325    1.0000 </r>
       <r>   14.8090    0.0000 </r>
       <r>   14.8090    0.0000 </r>
       <r>   16.6270    0.0000 </r>
       <r>   18.4312    0.0000 </r>
       <r>   24.3226    0.0000 </r>
       <r>   25.8461    0.0000 </r>
       <r>   25.8461    0.0000 </r>
      </set>
      <set comment="kpoint 40">
       <r>    5.8540    1.0000 </r>
       <r>    6.4222    1.0000 </r>
       <r>    6.4222    1.0000 </r>
       <r>    8.8931    1.0000 </r>
       <r>   29.0510    0.0000 </r>
       <r>   30.3075    0.0000 </r>
       <r>   30.3075    0.0000 </r>
       <r>   31.8464    0.0000 </r>
      </set>
      <set comment="kpoint 41">
       <r>   -1.0879    1.0000 </r>
       <r>   11.9301    0.0000 </r>
       <r>   13.4873    0.0000 </r>
       <r>   15.9020    0.0000 </r>
       <r>   17.9054    0.0000 </r>
       <r>   23.7380    0.0000 </r>
       <r>   25.8175    0.0000 </r>
       <r>   28.5632    0.0000 </r>
      </set>
      <set comment="kpoint 42">
       <r>    0.6409    1.0000 </r>
       <r>    8.5683    1.0000 </r>
       <r>   12.5962    0.0000 </r>
       <r>   15.1377    0.0000 </r>
       <r>   19.0473    0.0000 </r>
       <r>   22.9279    0.0000 </r>
       <r>   24.7836    0.0000 </r>
       <r>   27.5919    0.0000 </r>
      </set>
      <set comment="kpoint 43">
       <r>    0.3953    1.0000 </r>
       <r>   10.6702    0.0000 </r>
       <r>   10.9151    0.0000 </r>
       <r>   15.9470    0.0000 </r>
       <r>   17.0918    0.0000 </r>
       <r>   23.5097    0.0000 </r>
       <r>   25.8126    0.0000 </r>
       <r>   28.2366    0.0000 </r>
      </set>
      <set comment="kpoint 44">
       <r>    2.8335    1.0000 </r>
       <r>    5.5142    1.0000 </r>
       <r>   12.1485    0.0000 </r>
       <r>   14.6978    0.0000 </r>
       <r>   20.5840    0.0000 </r>
       <r>   22.4997    0.0000 </r>
       <r>   23.3430    0.0000 </r>
       <r>   26.6727    0.0000 </r>
      </set>
      <set comment="kpoint 45">
       <r>    2.3526    1.0000 </r>
       <r>    7.6231    1.0000 </r>
       <r>   10.1096    0.0000 </r>
       <r>   15.6990    0.0000 </r>
       <r>   18.2327    0.0000 </r>
       <r>   22.5093    0.0000 </r>
       <r>   23.7671    0.0000 </r>
       <r>   28.8051    0.0000 </r>
      </set>
      <set comment="kpoint 46">
       <r>    4.5925    1.0000 </r>
       <r>    4.9619    1.0000 </r>
       <r>    9.8758    0.0444 </r>
       <r>   15.5086    0.0000 </r>
       <r>   19.6862    0.0000 </r>
       <r>   21.0383    0.0000 </r>
       <r>   23.2009    0.0000 </r>
       <r>   28.7792    0.0000 </r>
      </set>
      <set comment="kpoint 47">
       <r>    4.5184    1.0000 </r>
       <r>    7.0202    1.0000 </r>
       <r>    7.3036    1.0000 </r>
       <r>   17.0023    0.0000 </r>
       <r>   18.2773    0.0000 </r>
       <r>   20.3049    0.0000 </r>
       <r>   23.1489    0.0000 </r>
       <r>   31.6316    0.0000 </r>
      </set>
      <set comment="kpoint 48">
       <r>    0.1491    1.0000 </r>
       <r>   12.1526    0.0000 </r>
       <r>   12.1526    0.0000 </r>
       <r>   14.1407    0.0000 </r>
       <r>   15.3990    0.0000 </r>
       <r>   25.4484    0.0000 </r>
       <r>   26.7337    0.0000 </r>
       <r>   28.0308    0.0000 </r>
      </set>
      <set comment="kpoint 49">
       <r>    1.8661    1.0000 </r>
       <r>    9.6301    1.0000 </r>
       <r>   11.2551    0.0000 </r>
       <r>   13.6764    0.0000 </r>
       <r>   15.5367    0.0000 </r>
       <r>   22.5529    0.0000 </r>
       <r>   26.4768    0.0000 </r>
       <r>   28.8241    0.0000 </r>
      </set>
      <set comment="kpoint 50">
       <r>    4.0415    1.0000 </r>
       <r>    6.6808    1.0000 </r>
       <r>   10.8044    0.0000 </r>
       <r>   13.2796    0.0000 </r>
       <r>   17.2902    0.0000 </r>
       <r>   19.8636    0.0000 </r>
       <r>   26.0810    0.0000 </r>
       <r>   28.9368    0.0000 </r>
      </set>
      <set comment="kpoint 51">
       <r>    3.8042    1.0000 </r>
       <r>    8.8277    1.0000 </r>
       <r>    9.0494    1.0000 </r>
       <r>   14.2412    0.0000 </r>
       <r>   15.1361    0.0000 </r>
       <r>   19.6036    0.0000 </r>
       <r>   26.8093    0.0000 </r>
       <r>   31.0431    0.0000 </r>
      </set>
      <set comment="kpoint 52">
       <r>    6.0257    1.0000 </r>
       <r>    6.3528    1.0000 </r>
       <r>    8.7155    1.0000 </r>
       <r>   14.3325    0.0000 </r>
       <r>   16.6005    0.0000 </r>
       <r>   17.3246    0.0000 </r>
       <r>   26.6911    0.0000 </r>
       <r>   31.6527    0.0000 </r>
      </set>
      <set comment="kpoint 53">
       <r>    3.5639    1.0000 </r>
       <r>   10.3528    0.0000 </r>
       <r>   10.3528    0.0000 </r>
       <r>   12.3464    0.0000 </r>
       <r>   13.3628    0.0000 </r>
       <r>   19.3736    0.0000 </r>
       <r>   29.9922    0.0000 </r>
       <r>   30.8404    0.0000 </r>
      </set>
      <set comment="kpoint 54">
       <r>    5.7045    1.0000 </r>
       <r>    8.2346    1.0000 </r>
       <r>    9.9007    0.0080 </r>
       <r>   12.2553    0.0000 </r>
       <r>   14.0845    0.0000 </r>
       <r>   16.5198    0.0000 </r>
       <r>   29.9818    0.0000 </r>
       <r>   31.7575    0.0000 </r>
      </set>
      <set comment="kpoint 55">
       <r>    7.7629    1.0000 </r>
       <r>    8.1125    1.0000 </r>
       <r>    8.1125    1.0000 </r>
       <r>   13.0680    0.0000 </r>
       <r>   14.1521    0.0000 </r>
       <r>   14.1521    0.0000 </r>
       <r>   30.5108    0.0000 </r>
       <r>   33.9305    0.0000 </r>
      </set>
      <set comment="kpoint 56">
       <r>    7.7490    1.0000 </r>
       <r>    9.4480    1.0000 </r>
       <r>    9.4480    1.0000 </r>
       <r>   11.3417    0.0000 </r>
       <r>   12.3428    0.0000 </r>
       <r>   13.6826    0.0000 </r>
       <r>   33.5325    0.0000 </r>
       <r>   33.7423    0.0000 </r>
      </set>
     </set>
    </set>
   </array>
  </eigenvalues>
  <separator name="orbital magnetization" >
   <v name="MAGDIPOLOUT">      0.00000000      0.00000000      0.00000000</v>
  </separator>
  <dos>
   <i name="efermi">      9.81558497 </i>
   <total>
    <array>
     <dimension dim="1">gridpoints</dimension>
     <dimension dim="2">spin</dimension>
     <field>energy</field>
     <field>total</field>
     <field>integrated</field>
     <set>
      <set comment="spin 1">
       <r>    -6.2534     0.0000     0.0000 </r>
       <r>    -6.1131     0.0000     0.0000 </r>
       <r>    -5.9728     0.0000     0.0000 </r>
       <r>    -5.8325     0.0000     0.0000 </r>
       <r>    -5.6921     0.0000     0.0000 </r>
       <r>    -5.5518     0.0000     0.0000 </r>
       <r>    -5.4115     0.0000     0.0000 </r>
       <r>    -5.2712     0.0000     0.0000 </r>
       <r>    -5.1308     0.0000     0.0000 </r>
       <r>    -4.9905     0.0000     0.0000 </r>
       <r>    -4.8502     0.0000     0.0000 </r>
       <r>    -4.7099     0.0000     0.0000 </r>
       <r>    -4.5695     0.0000     0.0000 </r>
       <r>    -4.4292     0.0001     0.0000 </r>
       <r>    -4.2889     0.0098     0.0014 </r>
       <r>    -4.1486     0.0064     0.0023 </r>
       <r>    -4.0082     0.1214     0.0193 </r>
       <r>    -3.8679     0.0135     0.0212 </r>
       <r>    -3.7276     0.0523     0.0285 </r>
       <r>    -3.5873     0.1218     0.0456 </r>
       <r>    -3.4469     0.1354     0.0646 </r>
       <r>    -3.3066     0.1001     0.0787 </r>
       <r>    -3.1663     0.0307     0.0830 </r>
       <r>    -3.0260     0.2409     0.1168 </r>
       <r>    -2.8856     0.0194     0.1195 </r>
       <r>    -2.7453     0.0793     0.1306 </r>
       <r>    -2.6050     0.1357     0.1497 </r>
       <r>    -2.4647     0.3786     0.2028 </r>
       <r>    -2.3243     0.0382     0.2082 </r>
       <r>    -2.1840     0.0271     0.2120 </r>
       <r>    -2.0437     0.3337     0.2588 </r>
       <r>    -1.9034     0.0574     0.2669 </r>
       <r>    -1.7630     0.2449     0.3012 </r>
       <r>    -1.6227     0.0428     0.3072 </r>
       <r>    -1.4824     0.2195     0.3380 </r>
       <r>    -1.3421     0.1129     0.3539 </r>
       <r>    -1.2017     0.1450     0.3742 </r>
       <r>    -1.0614     0.5977     0.4581 </r>
       <r>    -0.9211     0.1728     0.4823 </r>
       <r>    -0.7808     0.0000     0.4823 </r>
       <r>    -0.6404     0.0450     0.4887 </r>
       <r>    -0.5001     0.4667     0.5541 </r>
       <r>    -0.3598     0.0470     0.5607 </r>
       <r>    -0.2195     0.0839     0.5725 </r>
       <r>    -0.0791     0.3635     0.6235 </r>
       <r>     0.0612     0.1526     0.6449 </r>
       <r>     0.2015     0.2977     0.6867 </r>
       <r>     0.3418     0.0730     0.6970 </r>
       <r>     0.4822     0.7142     0.7972 </r>
       <r>     0.6225     0.0825     0.8087 </r>
       <r>     0.7628     0.1798     0.8340 </r>
       <r>     0.9031     0.3585     0.8843 </r>
       <r>     1.0435     0.1571     0.9063 </r>
       <r>     1.1838     0.2372     0.9396 </r>
       <r>     1.3241     0.0553     0.9474 </r>
       <r>     1.4644     0.4738     1.0138 </r>
       <r>     1.6048     0.0296     1.0180 </r>
       <r>     1.7451     0.0595     1.0263 </r>
       <r>     1.8854     0.6472     1.1172 </r>
       <r>     2.0257     0.2558     1.1531 </r>
       <r>     2.1661     0.2439     1.1873 </r>
       <r>     2.3064     0.1147     1.2034 </r>
       <r>     2.4467     0.9189     1.3323 </r>
       <r>     2.5870     0.2385     1.3658 </r>
       <r>     2.7274     0.2795     1.4050 </r>
       <r>     2.8677     0.2138     1.4350 </r>
       <r>     3.0080     0.0430     1.4410 </r>
       <r>     3.1483     0.1876     1.4674 </r>
       <r>     3.2887     0.1718     1.4915 </r>
       <r>     3.4290     0.4110     1.5492 </r>
       <r>     3.5693     0.2442     1.5834 </r>
       <r>     3.7096     0.3350     1.6304 </r>
       <r>     3.8500     0.4627     1.6954 </r>
       <r>     3.9903     0.1383     1.7148 </r>
       <r>     4.1306     0.8809     1.8384 </r>
       <r>     4.2709     0.0595     1.8467 </r>
       <r>     4.4113     0.0012     1.8469 </r>
       <r>     4.5516     0.5680     1.9266 </r>
       <r>     4.6919     0.5866     2.0089 </r>
       <r>     4.8322     0.2048     2.0377 </r>
       <r>     4.9726     0.3270     2.0835 </r>
       <r>     5.1129     0.4895     2.1522 </r>
       <r>     5.2532     0.1107     2.1678 </r>
       <r>     5.3935     0.4473     2.2305 </r>
       <r>     5.5339     0.2318     2.2631 </r>
       <r>     5.6742     0.1246     2.2805 </r>
       <r>     5.8145     0.2181     2.3111 </r>
       <r>     5.9548     0.3130     2.3551 </r>
       <r>     6.0952     0.6966     2.4528 </r>
       <r>     6.2355     0.2641     2.4899 </r>
       <r>     6.3758     0.4647     2.5551 </r>
       <r>     6.5161     0.4782     2.6222 </r>
       <r>     6.6565     0.3659     2.6735 </r>
       <r>     6.7968     0.6600     2.7661 </r>
       <r>     6.9371     0.2344     2.7990 </r>
       <r>     7.0774     0.2682     2.8367 </r>
       <r>     7.2178     0.4480     2.8995 </r>
       <r>     7.3581     0.3226     2.9448 </r>
       <r>     7.4984     0.3917     2.9998 </r>
       <r>     7.6387     0.5165     3.0722 </r>
       <r>     7.7791     0.3947     3.1276 </r>
       <r>     7.9194     0.4790     3.1948 </r>
       <r>     8.0597     0.0694     3.2046 </r>
       <r>     8.2000     0.4457     3.2671 </r>
       <r>     8.3404     0.3895     3.3218 </r>
       <r>     8.4807     0.3488     3.3707 </r>
       <r>     8.6210     0.6671     3.4643 </r>
       <r>     8.7613     0.3414     3.5122 </r>
       <r>     8.9017     0.5210     3.5853 </r>
       <r>     9.0420     0.4595     3.6498 </r>
       <r>     9.1823     0.2671     3.6873 </r>
       <r>     9.3226     0.4430     3.7495 </r>
       <r>     9.4630     0.1408     3.7692 </r>
       <r>     9.6033     0.8304     3.8858 </r>
       <r>     9.7436     0.3527     3.9353 </r>
       <r>     9.8839     0.7942     4.0467 </r>
       <r>    10.0242     0.7662     4.1542 </r>
       <r>    10.1646     0.5092     4.2257 </r>
       <r>    10.3049     0.2688     4.2634 </r>
       <r>    10.4452     0.3632     4.3144 </r>
       <r>    10.5855     0.3010     4.3566 </r>
       <r>    10.7259     0.4782     4.4237 </r>
       <r>    10.8662     0.3329     4.4704 </r>
       <r>    11.0065     0.7224     4.5718 </r>
       <r>    11.1468     0.0639     4.5808 </r>
       <r>    11.2872     0.2894     4.6214 </r>
       <r>    11.4275     0.3633     4.6723 </r>
       <r>    11.5678     0.3299     4.7186 </r>
       <r>    11.7081     0.6424     4.8088 </r>
       <r>    11.8485     0.3213     4.8539 </r>
       <r>    11.9888     0.5213     4.9270 </r>
       <r>    12.1291     0.4378     4.9885 </r>
       <r>    12.2694     0.6127     5.0744 </r>
       <r>    12.4098     0.9488     5.2076 </r>
       <r>    12.5501     0.5693     5.2875 </r>
       <r>    12.6904     0.2367     5.3207 </r>
       <r>    12.8307     0.0016     5.3209 </r>
       <r>    12.9711     0.2254     5.3525 </r>
       <r>    13.1114     0.5982     5.4365 </r>
       <r>    13.2517     0.5989     5.5205 </r>
       <r>    13.3920     0.4677     5.5861 </r>
       <r>    13.5324     0.6551     5.6780 </r>
       <r>    13.6727     0.5243     5.7516 </r>
       <r>    13.8130     0.7812     5.8612 </r>
       <r>    13.9533     0.4681     5.9269 </r>
       <r>    14.0937     0.1759     5.9516 </r>
       <r>    14.2340     0.4314     6.0121 </r>
       <r>    14.3743     0.8947     6.1377 </r>
       <r>    14.5146     0.5367     6.2130 </r>
       <r>    14.6550     0.0315     6.2174 </r>
       <r>    14.7953     0.2922     6.2584 </r>
       <r>    14.9356     0.2296     6.2907 </r>
       <r>    15.0759     0.4801     6.3580 </r>
       <r>    15.2163     0.8035     6.4708 </r>
       <r>    15.3566     0.4250     6.5304 </r>
       <r>    15.4969     0.9855     6.6687 </r>
       <r>    15.6372     0.6530     6.7603 </r>
       <r>    15.7776     0.7540     6.8662 </r>
       <r>    15.9179     0.7106     6.9659 </r>
       <r>    16.0582     0.5166     7.0384 </r>
       <r>    16.1985     0.1143     7.0544 </r>
       <r>    16.3389     0.4879     7.1229 </r>
       <r>    16.4792     0.2471     7.1575 </r>
       <r>    16.6195     0.8545     7.2775 </r>
       <r>    16.7598     0.6148     7.3637 </r>
       <r>    16.9002     0.6065     7.4488 </r>
       <r>    17.0405     0.7817     7.5585 </r>
       <r>    17.1808     0.7040     7.6573 </r>
       <r>    17.3211     0.5705     7.7374 </r>
       <r>    17.4615     0.2021     7.7657 </r>
       <r>    17.6018     0.2762     7.8045 </r>
       <r>    17.7421     0.8815     7.9282 </r>
       <r>    17.8824     0.6888     8.0248 </r>
       <r>    18.0228     1.0400     8.1708 </r>
       <r>    18.1631     0.2098     8.2002 </r>
       <r>    18.3034     0.9307     8.3308 </r>
       <r>    18.4437     0.1998     8.3589 </r>
       <r>    18.5841     0.0307     8.3632 </r>
       <r>    18.7244     0.3651     8.4144 </r>
       <r>    18.8647     0.0502     8.4214 </r>
       <r>    19.0050     0.1500     8.4425 </r>
       <r>    19.1454     0.3301     8.4888 </r>
       <r>    19.2857     0.2455     8.5233 </r>
       <r>    19.4260     0.2960     8.5648 </r>
       <r>    19.5663     0.7330     8.6677 </r>
       <r>    19.7067     1.0696     8.8178 </r>
       <r>    19.8470     0.8158     8.9322 </r>
       <r>    19.9873     0.8330     9.0491 </r>
       <r>    20.1276     1.0153     9.1916 </r>
       <r>    20.2680     0.4335     9.2524 </r>
       <r>    20.4083     0.7083     9.3518 </r>
       <r>    20.5486     0.0726     9.3620 </r>
       <r>    20.6889     0.5063     9.4330 </r>
       <r>    20.8293     0.3132     9.4770 </r>
       <r>    20.9696     0.0695     9.4868 </r>
       <r>    21.1099     1.0640     9.6361 </r>
       <r>    21.2502     1.6186     9.8632 </r>
       <r>    21.3906     0.2596     9.8996 </r>
       <r>    21.5309     0.5882     9.9822 </r>
       <r>    21.6712     0.5627    10.0611 </r>
       <r>    21.8115     0.3949    10.1165 </r>
       <r>    21.9519     1.4667    10.3224 </r>
       <r>    22.0922     0.6290    10.4106 </r>
       <r>    22.2325     0.3988    10.4666 </r>
       <r>    22.3728     0.3714    10.5187 </r>
       <r>    22.5132     0.5313    10.5932 </r>
       <r>    22.6535     0.5533    10.6709 </r>
       <r>    22.7938     0.9565    10.8051 </r>
       <r>    22.9341     0.8017    10.9176 </r>
       <r>    23.0745     0.3613    10.9683 </r>
       <r>    23.2148     0.7661    11.0758 </r>
       <r>    23.3551     0.7956    11.1875 </r>
       <r>    23.4954     0.2768    11.2263 </r>
       <r>    23.6358     1.0092    11.3679 </r>
       <r>    23.7761     0.9090    11.4955 </r>
       <r>    23.9164     0.3933    11.5506 </r>
       <r>    24.0567     0.0396    11.5562 </r>
       <r>    24.1971     0.7263    11.6581 </r>
       <r>    24.3374     0.4647    11.7233 </r>
       <r>    24.4777     1.0446    11.8699 </r>
       <r>    24.6180     0.1084    11.8851 </r>
       <r>    24.7584     0.6174    11.9717 </r>
       <r>    24.8987     1.1288    12.1301 </r>
       <r>    25.0390     0.4373    12.1915 </r>
       <r>    25.1793     0.4938    12.2608 </r>
       <r>    25.3197     0.3849    12.3148 </r>
       <r>    25.4600     0.1850    12.3408 </r>
       <r>    25.6003     0.1955    12.3682 </r>
       <r>    25.7406     0.5120    12.4400 </r>
       <r>    25.8809     1.2682    12.6180 </r>
       <r>    26.0213     1.1221    12.7755 </r>
       <r>    26.1616     0.8750    12.8982 </r>
       <r>    26.3019     0.2779    12.9372 </r>
       <r>    26.4422     0.6071    13.0224 </r>
       <r>    26.5826     0.4525    13.0859 </r>
       <r>    26.7229     0.8966    13.2117 </r>
       <r>    26.8632     0.7720    13.3201 </r>
       <r>    27.0035     0.5106    13.3917 </r>
       <r>    27.1439     0.6635    13.4848 </r>
       <r>    27.2842     0.7939    13.5962 </r>
       <r>    27.4245     0.6390    13.6859 </r>
       <r>    27.5648     1.0240    13.8296 </r>
       <r>    27.7052     0.3438    13.8778 </r>
       <r>    27.8455     0.4055    13.9347 </r>
       <r>    27.9858     0.2771    13.9736 </r>
       <r>    28.1261     0.6636    14.0667 </r>
       <r>    28.2665     0.4387    14.1283 </r>
       <r>    28.4068     0.2092    14.1577 </r>
       <r>    28.5471     0.5087    14.2290 </r>
       <r>    28.6874     0.4172    14.2876 </r>
       <r>    28.8278     1.3993    14.4839 </r>
       <r>    28.9681     1.5660    14.7037 </r>
       <r>    29.1084     0.9328    14.8346 </r>
       <r>    29.2487     0.1793    14.8598 </r>
       <r>    29.3891     0.6923    14.9569 </r>
       <r>    29.5294     0.4240    15.0164 </r>
       <r>    29.6697     1.0241    15.1601 </r>
       <r>    29.8100     0.4806    15.2275 </r>
       <r>    29.9504     0.4308    15.2880 </r>
       <r>    30.0907     0.4871    15.3564 </r>
       <r>    30.2310     0.3455    15.4048 </r>
       <r>    30.3713     0.6922    15.5020 </r>
       <r>    30.5117     0.7713    15.6102 </r>
       <r>    30.6520     0.5903    15.6930 </r>
       <r>    30.7923     0.2075    15.7222 </r>
       <r>    30.9326     0.3036    15.7648 </r>
       <r>    31.0730     0.3783    15.8178 </r>
       <r>    31.2133     0.1416    15.8377 </r>
       <r>    31.3536     0.0000    15.8377 </r>
       <r>    31.4939     0.0000    15.8377 </r>
       <r>    31.6343     0.2137    15.8677 </r>
       <r>    31.7746     0.4782    15.9348 </r>
       <r>    31.9149     0.1624    15.9576 </r>
       <r>    32.0552     0.0023    15.9579 </r>
       <r>    32.1956     0.0000    15.9579 </r>
       <r>    32.3359     0.0000    15.9579 </r>
       <r>    32.4762     0.0003    15.9580 </r>
       <r>    32.6165     0.0771    15.9688 </r>
       <r>    32.7569     0.0082    15.9699 </r>
       <r>    32.8972     0.0000    15.9699 </r>
       <r>    33.0375     0.0000    15.9699 </r>
       <r>    33.1778     0.0000    15.9699 </r>
       <r>    33.3182     0.0000    15.9699 </r>
       <r>    33.4585     0.0012    15.9701 </r>
       <r>    33.5988     0.0611    15.9787 </r>
       <r>    33.7391     0.0318    15.9831 </r>
       <r>    33.8795     0.0408    15.9889 </r>
       <r>    34.0198     0.0788    15.9999 </r>
       <r>    34.1601     0.0005    16.0000 </r>
       <r>    34.3004     0.0000    16.0000 </r>
       <r>    34.4408     0.0000    16.0000 </r>
       <r>    34.5811     0.0000    16.0000 </r>
       <r>    34.7214     0.0000    16.0000 </r>
       <r>    34.8617     0.0000    16.0000 </r>
       <r>    35.0021     0.0000    16.0000 </r>
       <r>    35.1424     0.0000    16.0000 </r>
       <r>    35.2827     0.0000    16.0000 </r>
       <r>    35.4230     0.0000    16.0000 </r>
       <r>    35.5634     0.0000    16.0000 </r>
       <r>    35.7037     0.0000    16.0000 </r>
       <r>    35.8440     0.0000    16.0000 </r>
      </set>
     </set>
    </array>
   </total>
  </dos>
 </calculation>
 <structure name="finalpos" >
  <crystal>
   <varray name="basis" >
    <v>       1.54359214       1.54359214       1.54359214 </v>
    <v>       1.54359214      -1.54359214      -1.54359214 </v>
    <v>      -1.54359214       1.54359214      -1.54359214 </v>
   </varray>
   <i name="volume">     14.71152415 </i>
   <varray name="rec_basis" >
    <v>       0.32391976       0.32391976       0.00000000 </v>
    <v>       0.32391976       0.00000000      -0.32391976 </v>
    <v>       0.00000000       0.32391976      -0.32391976 </v>
   </varray>
  </crystal>
  <varray name="positions" >
   <v>       0.00000000       0.00000000       0.00000000 </v>
  </varray>
 </structure>
</modeling>
