unknown system                          
           1
     1.543592    1.543592    1.543592
     1.543592   -1.543592   -1.543592
    -1.543592    1.543592   -1.543592
   Si
     1
Direct configuration=     1
   0.00000000  0.00000000  0.00000000
