   2   2   0   0
  0.2016476E+02  0.3849278E-09  0.3849279E-09  0.3849278E-09  0.5000000E-15
  1.000000000000000E-004
  CAR 
 unknown system                          
     16.53224759     -7.26852856  301      5.82437757      1.00000000
     -7.269  0.0000E+00  0.0000E+00
     -7.189  0.0000E+00  0.0000E+00
     -7.110  0.0000E+00  0.0000E+00
     -7.031  0.0000E+00  0.0000E+00
     -6.951  0.0000E+00  0.0000E+00
     -6.872  0.0000E+00  0.0000E+00
     -6.793  0.0000E+00  0.0000E+00
     -6.713  0.0000E+00  0.0000E+00
     -6.634  0.0000E+00  0.0000E+00
     -6.555  0.0000E+00  0.0000E+00
     -6.475  0.1440E-19  0.1142E-20
     -6.396  0.1461E-12  0.1159E-13
     -6.316  0.1170E-07  0.9282E-09
     -6.237  0.1091E-04  0.8662E-06
     -6.158  0.2923E-03  0.2406E-04
     -6.078  0.9447E-03  0.9901E-04
     -5.999  0.1404E-02  0.2104E-03
     -5.920  0.1710E-02  0.3461E-03
     -5.840  0.2034E-02  0.5075E-03
     -5.761  0.2246E-02  0.6857E-03
     -5.682  0.2479E-02  0.8823E-03
     -5.602  0.2737E-02  0.1099E-02
     -5.523  0.2917E-02  0.1331E-02
     -5.444  0.3005E-02  0.1569E-02
     -5.364  0.3504E-02  0.1847E-02
     -5.285  0.3251E-02  0.2105E-02
     -5.206  0.3766E-02  0.2404E-02
     -5.126  0.3904E-02  0.2714E-02
     -5.047  0.3908E-02  0.3024E-02
     -4.968  0.4156E-02  0.3354E-02
     -4.888  0.4597E-02  0.3718E-02
     -4.809  0.4367E-02  0.4065E-02
     -4.730  0.4670E-02  0.4435E-02
     -4.650  0.5217E-02  0.4849E-02
     -4.571  0.4962E-02  0.5243E-02
     -4.492  0.5271E-02  0.5661E-02
     -4.412  0.5480E-02  0.6096E-02
     -4.333  0.6213E-02  0.6589E-02
     -4.254  0.5863E-02  0.7054E-02
     -4.174  0.5825E-02  0.7516E-02
     -4.095  0.7418E-02  0.8104E-02
     -4.016  0.6954E-02  0.8656E-02
     -3.936  0.8006E-02  0.9291E-02
     -3.857  0.8523E-02  0.9967E-02
     -3.778  0.8704E-02  0.1066E-01
     -3.698  0.9566E-02  0.1142E-01
     -3.619  0.7673E-02  0.1203E-01
     -3.540  0.7992E-02  0.1266E-01
     -3.460  0.7636E-02  0.1327E-01
     -3.381  0.7961E-02  0.1390E-01
     -3.302  0.7162E-02  0.1447E-01
     -3.222  0.6984E-02  0.1502E-01
     -3.143  0.6339E-02  0.1552E-01
     -3.064  0.5810E-02  0.1598E-01
     -2.984  0.6920E-02  0.1653E-01
     -2.905  0.6595E-02  0.1706E-01
     -2.826  0.4416E-02  0.1741E-01
     -2.746  0.3867E-02  0.1771E-01
     -2.667  0.6069E-02  0.1819E-01
     -2.588  0.5758E-02  0.1865E-01
     -2.508  0.3473E-02  0.1893E-01
     -2.429  0.2538E-02  0.1913E-01
     -2.350  0.2780E-02  0.1935E-01
     -2.270  0.4775E-02  0.1973E-01
     -2.191  0.2138E-02  0.1990E-01
     -2.112  0.1188E-02  0.1999E-01
     -2.032  0.1140E-03  0.2000E-01
     -1.953  0.1210E-03  0.2001E-01
     -1.874  0.2010E-02  0.2017E-01
     -1.794  0.3750E-02  0.2047E-01
     -1.715  0.2352E-02  0.2065E-01
     -1.636  0.1714E-02  0.2079E-01
     -1.556  0.1913E-02  0.2094E-01
     -1.477  0.5363E-02  0.2137E-01
     -1.398  0.7636E-02  0.2197E-01
     -1.318  0.3601E-02  0.2226E-01
     -1.239  0.4301E-02  0.2260E-01
     -1.160  0.9780E-02  0.2338E-01
     -1.080  0.1714E-01  0.2473E-01
     -1.001  0.1619E-01  0.2602E-01
     -0.922  0.1068E-01  0.2687E-01
     -0.842  0.8146E-02  0.2751E-01
     -0.763  0.8578E-02  0.2819E-01
     -0.684  0.7306E-02  0.2877E-01
     -0.604  0.8602E-02  0.2946E-01
     -0.525  0.5845E-02  0.2992E-01
     -0.446  0.6359E-02  0.3042E-01
     -0.366  0.5325E-02  0.3085E-01
     -0.287  0.4298E-02  0.3119E-01
     -0.208  0.7002E-02  0.3174E-01
     -0.128  0.4649E-02  0.3211E-01
     -0.049  0.3622E-02  0.3240E-01
      0.030  0.6044E-02  0.3288E-01
      0.110  0.3200E-02  0.3313E-01
      0.189  0.2830E-02  0.3336E-01
      0.268  0.5531E-02  0.3380E-01
      0.348  0.4064E-02  0.3412E-01
      0.427  0.2315E-02  0.3430E-01
      0.506  0.3283E-02  0.3456E-01
      0.586  0.4645E-02  0.3493E-01
      0.665  0.1806E-02  0.3507E-01
      0.744  0.2340E-02  0.3526E-01
      0.824  0.4497E-02  0.3562E-01
      0.903  0.2775E-02  0.3584E-01
      0.982  0.1498E-02  0.3595E-01
      1.062  0.2080E-02  0.3612E-01
      1.141  0.3832E-02  0.3642E-01
      1.220  0.1758E-02  0.3656E-01
      1.300  0.2076E-02  0.3673E-01
      1.379  0.4417E-02  0.3708E-01
      1.458  0.7994E-02  0.3771E-01
      1.538  0.8469E-02  0.3838E-01
      1.617  0.1078E-01  0.3924E-01
      1.696  0.1326E-01  0.4029E-01
      1.776  0.1205E-01  0.4125E-01
      1.855  0.1067E-01  0.4209E-01
      1.934  0.1065E-01  0.4294E-01
      2.014  0.1027E-01  0.4375E-01
      2.093  0.1050E-01  0.4459E-01
      2.172  0.1011E-01  0.4539E-01
      2.252  0.1143E-01  0.4630E-01
      2.331  0.9862E-02  0.4708E-01
      2.410  0.1104E-01  0.4795E-01
      2.490  0.1188E-01  0.4890E-01
      2.569  0.1127E-01  0.4979E-01
      2.648  0.1196E-01  0.5074E-01
      2.728  0.1231E-01  0.5172E-01
      2.807  0.1477E-01  0.5289E-01
      2.886  0.1537E-01  0.5411E-01
      2.966  0.1401E-01  0.5522E-01
      3.045  0.1622E-01  0.5650E-01
      3.124  0.1518E-01  0.5771E-01
      3.204  0.1415E-01  0.5883E-01
      3.283  0.1455E-01  0.5999E-01
      3.362  0.1494E-01  0.6117E-01
      3.442  0.1329E-01  0.6223E-01
      3.521  0.1388E-01  0.6333E-01
      3.600  0.1453E-01  0.6448E-01
      3.680  0.1191E-01  0.6543E-01
      3.759  0.1383E-01  0.6652E-01
      3.839  0.1418E-01  0.6765E-01
      3.918  0.1079E-01  0.6850E-01
      3.997  0.1280E-01  0.6952E-01
      4.077  0.1395E-01  0.7063E-01
      4.156  0.1108E-01  0.7151E-01
      4.235  0.1096E-01  0.7237E-01
      4.315  0.1332E-01  0.7343E-01
      4.394  0.1151E-01  0.7435E-01
      4.473  0.9026E-02  0.7506E-01
      4.553  0.1088E-01  0.7592E-01
      4.632  0.6955E-02  0.7648E-01
      4.711  0.6204E-02  0.7697E-01
      4.791  0.7046E-02  0.7753E-01
      4.870  0.4947E-02  0.7792E-01
      4.949  0.4232E-02  0.7826E-01
      5.029  0.4811E-02  0.7864E-01
      5.108  0.3738E-02  0.7893E-01
      5.187  0.3165E-02  0.7918E-01
      5.267  0.2722E-02  0.7940E-01
      5.346  0.2755E-02  0.7962E-01
      5.425  0.1791E-02  0.7976E-01
      5.505  0.1645E-02  0.7989E-01
      5.584  0.1033E-02  0.7997E-01
      5.663  0.3174E-03  0.8000E-01
      5.743  0.1264E-04  0.8000E-01
      5.822  0.1107E-07  0.8000E-01
      5.901  0.9715E-13  0.8000E-01
      5.981  0.1440E-19  0.8000E-01
      6.060  0.2994E-12  0.8000E-01
      6.139  0.3167E-07  0.8000E-01
      6.219  0.3146E-04  0.8000E-01
      6.298  0.5717E-03  0.8005E-01
      6.377  0.9647E-03  0.8012E-01
      6.457  0.2560E-02  0.8033E-01
      6.536  0.2568E-02  0.8053E-01
      6.615  0.2819E-02  0.8075E-01
      6.695  0.4446E-02  0.8111E-01
      6.774  0.4545E-02  0.8147E-01
      6.853  0.4224E-02  0.8180E-01
      6.933  0.5034E-02  0.8220E-01
      7.012  0.5528E-02  0.8264E-01
      7.091  0.6824E-02  0.8318E-01
      7.171  0.6826E-02  0.8372E-01
      7.250  0.6823E-02  0.8427E-01
      7.329  0.7893E-02  0.8489E-01
      7.409  0.1037E-01  0.8571E-01
      7.488  0.9216E-02  0.8645E-01
      7.567  0.1060E-01  0.8729E-01
      7.647  0.1260E-01  0.8829E-01
      7.726  0.1127E-01  0.8918E-01
      7.805  0.1576E-01  0.9043E-01
      7.885  0.1611E-01  0.9171E-01
      7.964  0.1704E-01  0.9306E-01
      8.043  0.1597E-01  0.9433E-01
      8.123  0.1359E-01  0.9541E-01
      8.202  0.1555E-01  0.9664E-01
      8.281  0.1303E-01  0.9767E-01
      8.361  0.1235E-01  0.9865E-01
      8.440  0.1150E-01  0.9957E-01
      8.519  0.1133E-01  0.1005E+00
      8.599  0.1088E-01  0.1013E+00
      8.678  0.1055E-01  0.1022E+00
      8.757  0.9626E-02  0.1029E+00
      8.837  0.1442E-01  0.1041E+00
      8.916  0.2092E-01  0.1057E+00
      8.995  0.2299E-01  0.1076E+00
      9.075  0.2173E-01  0.1093E+00
      9.154  0.1696E-01  0.1106E+00
      9.233  0.1534E-01  0.1118E+00
      9.313  0.1802E-01  0.1133E+00
      9.392  0.1827E-01  0.1147E+00
      9.471  0.1530E-01  0.1159E+00
      9.551  0.1451E-01  0.1171E+00
      9.630  0.1423E-01  0.1182E+00
      9.709  0.1280E-01  0.1192E+00
      9.789  0.1197E-01  0.1202E+00
      9.868  0.1113E-01  0.1211E+00
      9.947  0.1345E-01  0.1221E+00
     10.027  0.1199E-01  0.1231E+00
     10.106  0.1306E-01  0.1241E+00
     10.185  0.1416E-01  0.1252E+00
     10.265  0.1055E-01  0.1261E+00
     10.344  0.1485E-01  0.1273E+00
     10.423  0.1424E-01  0.1284E+00
     10.503  0.1307E-01  0.1294E+00
     10.582  0.1259E-01  0.1304E+00
     10.661  0.1041E-01  0.1312E+00
     10.741  0.1197E-01  0.1322E+00
     10.820  0.1191E-01  0.1331E+00
     10.899  0.1320E-01  0.1342E+00
     10.979  0.1220E-01  0.1352E+00
     11.058  0.1070E-01  0.1360E+00
     11.137  0.1202E-01  0.1370E+00
     11.217  0.1212E-01  0.1379E+00
     11.296  0.1109E-01  0.1388E+00
     11.375  0.1048E-01  0.1396E+00
     11.455  0.9372E-02  0.1404E+00
     11.534  0.1207E-01  0.1413E+00
     11.613  0.1160E-01  0.1423E+00
     11.693  0.9093E-02  0.1430E+00
     11.772  0.9895E-02  0.1438E+00
     11.851  0.9309E-02  0.1445E+00
     11.931  0.8794E-02  0.1452E+00
     12.010  0.1182E-01  0.1461E+00
     12.089  0.1029E-01  0.1470E+00
     12.169  0.7760E-02  0.1476E+00
     12.248  0.8528E-02  0.1482E+00
     12.327  0.8417E-02  0.1489E+00
     12.407  0.8021E-02  0.1495E+00
     12.486  0.9756E-02  0.1503E+00
     12.565  0.9482E-02  0.1511E+00
     12.645  0.8327E-02  0.1517E+00
     12.724  0.6604E-02  0.1523E+00
     12.803  0.4943E-02  0.1526E+00
     12.883  0.4727E-02  0.1530E+00
     12.962  0.6593E-02  0.1535E+00
     13.041  0.6464E-02  0.1541E+00
     13.121  0.8912E-02  0.1548E+00
     13.200  0.5965E-02  0.1552E+00
     13.279  0.3052E-02  0.1555E+00
     13.359  0.3870E-02  0.1558E+00
     13.438  0.6120E-02  0.1563E+00
     13.517  0.6275E-02  0.1568E+00
     13.597  0.6646E-02  0.1573E+00
     13.676  0.5551E-02  0.1577E+00
     13.755  0.2558E-02  0.1579E+00
     13.835  0.1739E-02  0.1581E+00
     13.914  0.1187E-02  0.1582E+00
     13.993  0.2292E-02  0.1584E+00
     14.073  0.3723E-02  0.1587E+00
     14.152  0.2971E-02  0.1589E+00
     14.232  0.1029E-02  0.1590E+00
     14.311  0.5386E-03  0.1590E+00
     14.390  0.1265E-02  0.1591E+00
     14.470  0.8544E-03  0.1592E+00
     14.549  0.2489E-02  0.1594E+00
     14.628  0.1800E-02  0.1595E+00
     14.708  0.9902E-03  0.1596E+00
     14.787  0.3563E-03  0.1596E+00
     14.866  0.1829E-03  0.1596E+00
     14.946  0.7972E-03  0.1597E+00
     15.025  0.1326E-02  0.1598E+00
     15.104  0.9485E-03  0.1599E+00
     15.184  0.3666E-03  0.1599E+00
     15.263  0.4084E-04  0.1599E+00
     15.342  0.3334E-03  0.1599E+00
     15.422  0.3416E-03  0.1600E+00
     15.501  0.3200E-03  0.1600E+00
     15.580  0.2363E-04  0.1600E+00
     15.660  0.3247E-07  0.1600E+00
     15.739  0.4314E-12  0.1600E+00
     15.818  0.5759E-19  0.1600E+00
     15.898  0.0000E+00  0.1600E+00
     15.977  0.0000E+00  0.1600E+00
     16.056  0.0000E+00  0.1600E+00
     16.136  0.0000E+00  0.1600E+00
     16.215  0.0000E+00  0.1600E+00
     16.294  0.0000E+00  0.1600E+00
     16.374  0.0000E+00  0.1600E+00
     16.453  0.0000E+00  0.1600E+00
     16.532  0.0000E+00  0.1600E+00
