    2    2  100    1
  0.2016476E+02  0.3849278E-09  0.3849279E-09  0.3849278E-09  0.5000000E-15
  1.000000000000000E-004
  CAR 
 unknown system                          
      8    570      8
 
  0.2777778E-01  0.2777778E-01  0.2777778E-01  0.3429355E-03
    1       -6.186675   1.000000
    2        5.503731   1.000000
    3        5.606445   1.000000
    4        5.606447   1.000000
    5        8.206345   0.000000
    6        8.206351   0.000000
    7        8.207878   0.000000
    8        8.839901   0.000000
 
  0.8333333E-01  0.2777778E-01  0.2777778E-01  0.1028807E-02
    1       -6.133633   1.000000
    2        5.024627   1.000000
    3        5.407432   1.000000
    4        5.583159   1.000000
    5        8.259700   0.000000
    6        8.263987   0.000000
    7        8.372483   0.000000
    8        9.258313   0.000000
 
  0.1388889E+00  0.2777778E-01  0.2777778E-01  0.1028807E-02
    1       -6.001723   1.000000
    2        4.104278   1.000000
    3        5.187559   1.000000
    4        5.445310   1.000000
    5        8.147314   0.000000
    6        8.474927   0.000000
    7        8.665179   0.000000
    8       10.114520   0.000000
 
  0.1944444E+00  0.2777778E-01  0.2777778E-01  0.1028807E-02
    1       -5.792978   1.000000
    2        3.082698   1.000000
    3        4.961656   1.000000
    4        5.248357   1.000000
    5        7.942933   0.000000
    6        8.750910   0.000000
    7        8.975162   0.000000
    8       11.066040   0.000000
 
  0.2500000E+00  0.2777778E-01  0.2777778E-01  0.1028807E-02
    1       -5.511422   1.000000
    2        2.065817   1.000000
    3        4.756550   1.000000
    4        5.039510   1.000000
    5        7.726451   0.000000
    6        8.973355   0.000000
    7        9.185818   0.000000
    8       11.959634   0.000000
 
  0.3055556E+00  0.2777778E-01  0.2777778E-01  0.1028807E-02
    1       -5.164756   1.000000
    2        1.098792   1.000000
    3        4.587685   1.000000
    4        4.845978   1.000000
    5        7.530145   0.000000
    6        9.073186   0.000000
    7        9.243946   0.000000
    8       12.704947   0.000000
 
  0.3611111E+00  0.2777778E-01  0.2777778E-01  0.1028807E-02
    1       -4.768727   1.000000
    2        0.214761   1.000000
    3        4.462344   1.000000
    4        4.681969   1.000000
    5        7.370437   0.000000
    6        9.069392   0.000000
    7        9.186848   0.000000
    8       13.274569   0.000000
 
  0.4166667E+00  0.2777778E-01  0.2777778E-01  0.1028807E-02
    1       -4.358692   1.000000
    2       -0.541498   1.000000
    3        4.383353   1.000000
    4        4.554535   1.000000
    5        7.255348   0.000000
    6        9.027723   0.000000
    7        9.087918   0.000000
    8       13.431462   0.000000
 
  0.4722222E+00  0.2777778E-01  0.2777778E-01  0.1028807E-02
    1       -4.019688   1.000000
    2       -1.079949   1.000000
    3        4.351173   1.000000
    4        4.467554   1.000000
    5        7.188995   0.000000
    6        9.000876   0.000000
    7        9.001774   0.000000
    8       13.387552   0.000000
 
 -0.4722222E+00  0.2777778E-01  0.2777778E-01  0.1028807E-02
    1       -3.912050   1.000000
    2       -1.237632   1.000000
    3        4.364986   1.000000
    4        4.423415   1.000000
    5        7.172574   0.000000
    6        8.956211   0.000000
    7        9.015071   0.000000
    8       13.366823   0.000000
 
 -0.4166667E+00  0.2777778E-01  0.2777778E-01  0.1028807E-02
    1       -4.116065   1.000000
    2       -0.933648   1.000000
    3        4.423406   1.000000
    4        4.423880   1.000000
    5        7.206679   0.000000
    6        8.958508   0.000000
    7        9.075534   0.000000
    8       13.394918   0.000000
 
 -0.3611111E+00  0.2777778E-01  0.2777778E-01  0.1028807E-02
    1       -4.493151   1.000000
    2       -0.307822   1.000000
    3        4.470206   1.000000
    4        4.524527   1.000000
    5        7.290348   0.000000
    6        8.996730   0.000000
    7        9.168806   0.000000
    8       13.350531   0.000000
 
 -0.3055556E+00  0.2777778E-01  0.2777778E-01  0.1028807E-02
    1       -4.904615   1.000000
    2        0.497841   1.000000
    3        4.562817   1.000000
    4        4.665717   1.000000
    5        7.421415   0.000000
    6        9.035681   0.000000
    7        9.259166   0.000000
    8       12.868257   0.000000
 
 -0.2500000E+00  0.2777778E-01  0.2777778E-01  0.1028807E-02
    1       -5.286784   1.000000
    2        1.413489   1.000000
    3        4.700518   1.000000
    4        4.842450   1.000000
    5        7.594619   0.000000
    6        9.013758   0.000000
    7        9.284884   0.000000
    8       12.288170   0.000000
 
 -0.1944444E+00  0.2777778E-01  0.2777778E-01  0.1028807E-02
    1       -5.612958   1.000000
    2        2.401132   1.000000
    3        4.879119   1.000000
    4        5.045940   1.000000
    5        7.799288   0.000000
    6        8.870269   0.000000
    7        9.179442   0.000000
    8       11.632224   0.000000
 
 -0.1388889E+00  0.2777778E-01  0.2777778E-01  0.1028807E-02
    1       -5.870885   1.000000
    2        3.426839   1.000000
    3        5.088530   1.000000
    4        5.258383   1.000000
    5        8.012902   0.000000
    6        8.617973   0.000000
    7        8.933576   0.000000
    8       10.738243   0.000000
 
 -0.8333333E-01  0.2777778E-01  0.2777778E-01  0.1028807E-02
    1       -6.054339   1.000000
    2        4.435828   1.000000
    3        5.308296   1.000000
    4        5.445624   1.000000
    5        8.175928   0.000000
    6        8.373655   0.000000
    7        8.620484   0.000000
    8        9.793606   0.000000
 
 -0.2777778E-01  0.2777778E-01  0.2777778E-01  0.1028807E-02
    1       -6.160132   1.000000
    2        5.286367   1.000000
    3        5.499931   1.000000
    4        5.551806   1.000000
    5        8.143661   0.000000
    6        8.314526   0.000000
    7        8.345470   0.000000
    8        9.032090   0.000000
 
  0.8333333E-01  0.8333333E-01  0.2777778E-01  0.1028807E-02
    1       -6.107076   1.000000
    2        4.974442   1.000000
    3        5.315448   1.000000
    4        5.382018   1.000000
    5        8.025066   0.000000
    6        8.532149   0.000000
    7        8.594864   0.000000
    8        9.340579   0.000000
 
  0.1388889E+00  0.8333333E-01  0.2777778E-01  0.2057613E-02
    1       -6.001385   1.000000
    2        4.326719   1.000000
    3        4.992561   1.000000
    4        5.308499   1.000000
    5        8.003705   0.000000
    6        8.661834   0.000000
    7        8.881584   0.000000
    8        9.945642   0.000000
 
  0.1944444E+00  0.8333333E-01  0.2777778E-01  0.2057613E-02
    1       -5.818087   1.000000
    2        3.384049   1.000000
    3        4.729014   1.000000
    4        5.162896   1.000000
    5        8.104809   0.000000
    6        8.621000   0.000000
    7        9.229348   0.000000
    8       10.681564   0.000000
 
  0.2500000E+00  0.8333333E-01  0.2777778E-01  0.2057613E-02
    1       -5.560395   1.000000
    2        2.389288   1.000000
    3        4.505303   1.000000
    4        4.958262   1.000000
    5        8.069348   0.000000
    6        8.728973   0.000000
    7        9.488874   0.000000
    8       11.148736   0.000000
 
  0.3055556E+00  0.8333333E-01  0.2777778E-01  0.2057613E-02
    1       -5.234466   1.000000
    2        1.418926   1.000000
    3        4.323382   1.000000
    4        4.744730   1.000000
    5        7.920890   0.000000
    6        8.872962   0.000000
    7        9.585975   0.000000
    8       11.507639   0.000000
 
  0.3611111E+00  0.8333333E-01  0.2777778E-01  0.2057613E-02
    1       -4.852491   1.000000
    2        0.513615   1.000000
    3        4.184086   1.000000
    4        4.554482   1.000000
    5        7.768242   0.000000
    6        8.919039   0.000000
    7        9.539710   0.000000
    8       12.041788   0.000000
 
  0.4166667E+00  0.8333333E-01  0.2777778E-01  0.2057613E-02
    1       -4.440988   1.000000
    2       -0.286001   1.000000
    3        4.081636   1.000000
    4        4.410258   1.000000
    5        7.646064   0.000000
    6        8.901488   0.000000
    7        9.425868   0.000000
    8       12.732097   0.000000
 
  0.4722222E+00  0.8333333E-01  0.2777778E-01  0.2057613E-02
    1       -4.063430   1.000000
    2       -0.908865   1.000000
    3        4.005247   1.000000
    4        4.331000   1.000000
    5        7.566491   0.000000
    6        8.880933   0.000000
    7        9.310680   0.000000
    8       13.340686   0.000000
 
 -0.4722222E+00  0.8333333E-01  0.2777778E-01  0.2057613E-02
    1       -3.858898   1.000000
    2       -1.211946   1.000000
    3        3.950211   1.000000
    4        4.325193   1.000000
    5        7.534217   0.000000
    6        8.888424   0.000000
    7        9.235285   0.000000
    8       13.546959   0.000000
 
 -0.4166667E+00  0.8333333E-01  0.2777778E-01  0.2057613E-02
    1       -3.967123   1.000000
    2       -1.054155   1.000000
    3        3.924686   1.000000
    4        4.385887   1.000000
    5        7.550621   0.000000
    6        8.926160   0.000000
    7        9.222855   0.000000
    8       13.533987   0.000000
 
 -0.3611111E+00  0.8333333E-01  0.2777778E-01  0.2057613E-02
    1       -4.306866   1.000000
    2       -0.517397   1.000000
    3        3.939642   1.000000
    4        4.501248   1.000000
    5        7.615425   0.000000
    6        8.976498   0.000000
    7        9.278569   0.000000
    8       13.216103   0.000000
 
 -0.3055556E+00  0.8333333E-01  0.2777778E-01  0.2057613E-02
    1       -4.717065   1.000000
    2        0.234041   1.000000
    3        4.002664   1.000000
    4        4.660818   1.000000
    5        7.726253   0.000000
    6        9.012705   0.000000
    7        9.374184   0.000000
    8       12.556653   0.000000
 
 -0.2500000E+00  0.8333333E-01  0.2777778E-01  0.2057613E-02
    1       -5.112896   1.000000
    2        1.108943   1.000000
    3        4.117929   1.000000
    4        4.854004   1.000000
    5        7.877566   0.000000
    6        8.989671   0.000000
    7        9.441080   0.000000
    8       11.946411   0.000000
 
 -0.1944444E+00  0.8333333E-01  0.2777778E-01  0.2057613E-02
    1       -5.459250   1.000000
    2        2.059624   1.000000
    3        4.287393   1.000000
    4        5.066476   1.000000
    5        8.057127   0.000000
    6        8.853684   0.000000
    7        9.383750   0.000000
    8       11.486620   0.000000
 
 -0.1388889E+00  0.8333333E-01  0.2777778E-01  0.2057613E-02
    1       -5.740480   1.000000
    2        3.044571   1.000000
    3        4.512735   1.000000
    4        5.274138   1.000000
    5        8.230428   0.000000
    6        8.627594   0.000000
    7        9.145825   0.000000
    8       10.996535   0.000000
 
 -0.8333333E-01  0.8333333E-01  0.2777778E-01  0.2057613E-02
    1       -5.948968   1.000000
    2        3.989262   1.000000
    3        4.806099   1.000000
    4        5.436128   1.000000
    5        8.245834   0.000000
    6        8.522913   0.000000
    7        8.794312   0.000000
    8       10.298105   0.000000
 
 -0.2777778E-01  0.8333333E-01  0.2777778E-01  0.2057613E-02
    1       -6.080677   1.000000
    2        4.694216   1.000000
    3        5.223138   1.000000
    4        5.500150   1.000000
    5        8.156872   0.000000
    6        8.424098   0.000000
    7        8.565445   0.000000
    8        9.594286   0.000000
 
  0.1388889E+00  0.1388889E+00  0.2777778E-01  0.1028807E-02
    1       -5.921899   1.000000
    2        4.183274   1.000000
    3        4.837699   1.000000
    4        4.879206   1.000000
    5        7.678383   0.000000
    6        9.198737   0.000000
    7        9.295774   0.000000
    8        9.948866   0.000000
 
  0.1944444E+00  0.1388889E+00  0.2777778E-01  0.2057613E-02
    1       -5.764344   1.000000
    2        3.523608   1.000000
    3        4.484902   1.000000
    4        4.770971   1.000000
    5        7.626560   0.000000
    6        9.321703   0.000000
    7        9.665234   0.000000
    8       10.255506   0.000000
 
  0.2500000E+00  0.1388889E+00  0.2777778E-01  0.2057613E-02
    1       -5.531273   1.000000
    2        2.639803   1.000000
    3        4.212526   1.000000
    4        4.602407   1.000000
    5        7.769075   0.000000
    6        9.245255   0.000000
    7        9.988974   0.000000
    8       10.367706   0.000000
 
  0.3055556E+00  0.1388889E+00  0.2777778E-01  0.2057613E-02
    1       -5.227554   1.000000
    2        1.713728   1.000000
    3        3.988027   1.000000
    4        4.395124   1.000000
    5        7.902976   0.000000
    6        9.227162   0.000000
    7       10.146635   0.000000
    8       10.441054   0.000000
 
  0.3611111E+00  0.1388889E+00  0.2777778E-01  0.2057613E-02
    1       -4.862663   1.000000
    2        0.817469   1.000000
    3        3.790801   1.000000
    4        4.213534   1.000000
    5        7.921527   0.000000
    6        9.214818   0.000000
    7       10.136237   0.000000
    8       10.782624   0.000000
 
  0.4166667E+00  0.1388889E+00  0.2777778E-01  0.2057613E-02
    1       -4.456541   1.000000
    2       -0.001661   1.000000
    3        3.608311   1.000000
    4        4.098549   1.000000
    5        7.879435   0.000000
    6        9.149642   0.000000
    7       10.024687   0.000000
    8       11.431355   0.000000
 
  0.4722222E+00  0.1388889E+00  0.2777778E-01  0.2057613E-02
    1       -4.055983   1.000000
    2       -0.682876   1.000000
    3        3.444179   1.000000
    4        4.061417   1.000000
    5        7.844364   0.000000
    6        9.078014   0.000000
    7        9.883395   0.000000
    8       12.267037   0.000000
 
 -0.4722222E+00  0.1388889E+00  0.2777778E-01  0.2057613E-02
    1       -3.772583   1.000000
    2       -1.107362   1.000000
    3        3.312124   1.000000
    4        4.095803   1.000000
    5        7.847081   0.000000
    6        9.037115   0.000000
    7        9.760867   0.000000
    8       13.165654   0.000000
 
 -0.4166667E+00  0.1388889E+00  0.2777778E-01  0.2057613E-02
    1       -3.774474   1.000000
    2       -1.103951   1.000000
    3        3.224809   1.000000
    4        4.192257   1.000000
    5        7.896040   0.000000
    6        9.039852   0.000000
    7        9.681021   0.000000
    8       13.761707   0.000000
 
 -0.3611111E+00  0.1388889E+00  0.2777778E-01  0.2057613E-02
    1       -4.060022   1.000000
    2       -0.674617   1.000000
    3        3.191463   1.000000
    4        4.341627   1.000000
    5        7.989467   0.000000
    6        9.081611   0.000000
    7        9.650707   0.000000
    8       13.144527   0.000000
 
 -0.3055556E+00  0.1388889E+00  0.2777778E-01  0.2057613E-02
    1       -4.460868   1.000000
    2        0.008109   1.000000
    3        3.219614   1.000000
    4        4.533909   1.000000
    5        8.120333   0.000000
    6        9.133296   0.000000
    7        9.660024   0.000000
    8       12.339274   0.000000
 
 -0.2500000E+00  0.1388889E+00  0.2777778E-01  0.2057613E-02
    1       -4.866523   1.000000
    2        0.823550   1.000000
    3        3.317522   1.000000
    4        4.755945   1.000000
    5        8.279055   0.000000
    6        9.126866   0.000000
    7        9.672751   0.000000
    8       11.664071   0.000000
 
 -0.1944444E+00  0.1388889E+00  0.2777778E-01  0.2057613E-02
    1       -5.230723   1.000000
    2        1.701720   1.000000
    3        3.500082   1.000000
    4        4.988039   1.000000
    5        8.449075   0.000000
    6        8.981390   0.000000
    7        9.594169   0.000000
    8       11.225623   0.000000
 
 -0.1388889E+00  0.1388889E+00  0.2777778E-01  0.2057613E-02
    1       -5.533715   1.000000
    2        2.562767   1.000000
    3        3.806476   1.000000
    4        5.198282   1.000000
    5        8.578985   0.000000
    6        8.723831   0.000000
    7        9.328206   0.000000
    8       11.037355   0.000000
 
 -0.8333333E-01  0.1388889E+00  0.2777778E-01  0.2057613E-02
    1       -5.766066   1.000000
    2        3.266762   1.000000
    3        4.319361   1.000000
    4        5.337847   1.000000
    5        8.398957   0.000000
    6        8.618293   0.000000
    7        9.045566   0.000000
    8       10.847847   0.000000
 
 -0.2777778E-01  0.1388889E+00  0.2777778E-01  0.2057613E-02
    1       -5.922923   1.000000
    2        3.749075   1.000000
    3        4.973255   1.000000
    4        5.359156   1.000000
    5        8.166013   0.000000
    6        8.484933   0.000000
    7        8.900432   0.000000
    8       10.455723   0.000000
 
  0.1944444E+00  0.1944444E+00  0.2777778E-01  0.1028807E-02
    1       -5.632438   1.000000
    2        3.276340   1.000000
    3        4.337757   1.000000
    4        4.346910   1.000000
    5        7.278070   0.000000
    6        9.689534   0.000000
    7       10.140995   0.000000
    8       10.147254   0.000000
 
  0.2500000E+00  0.1944444E+00  0.2777778E-01  0.2057613E-02
    1       -5.424316   1.000000
    2        2.657642   1.000000
    3        3.991713   1.000000
    4        4.213698   1.000000
    5        7.235440   0.000000
    6        9.429816   0.000000
    7       10.382328   0.000000
    8       10.555008   0.000000
 
  0.3055556E+00  0.1944444E+00  0.2777778E-01  0.2057613E-02
    1       -5.143788   1.000000
    2        1.874354   1.000000
    3        3.691885   1.000000
    4        4.033057   1.000000
    5        7.399715   0.000000
    6        9.326827   0.000000
    7       10.345252   0.000000
    8       10.823564   0.000000
 
  0.3611111E+00  0.1944444E+00  0.2777778E-01  0.2057613E-02
    1       -4.798260   1.000000
    2        1.050159   1.000000
    3        3.403832   1.000000
    4        3.872316   1.000000
    5        7.551085   0.000000
    6        9.554033   0.000000
    7       10.202721   0.000000
    8       10.889293   0.000000
 
  0.4166667E+00  0.1944444E+00  0.2777778E-01  0.2057613E-02
    1       -4.402725   1.000000
    2        0.255380   1.000000
    3        3.125628   1.000000
    4        3.779289   1.000000
    5        7.601545   0.000000
    6       10.001006   0.000000
    7       10.171015   0.000000
    8       10.806551   0.000000
 
  0.4722222E+00  0.1944444E+00  0.2777778E-01  0.2057613E-02
    1       -3.991496   1.000000
    2       -0.447167   1.000000
    3        2.876397   1.000000
    4        3.759842   1.000000
    5        7.619011   0.000000
    6        9.878683   0.000000
    7       10.657644   0.000000
    8       10.967764   0.000000
 
 -0.4722222E+00  0.1944444E+00  0.2777778E-01  0.2057613E-02
    1       -3.649687   1.000000
    2       -0.957328   1.000000
    3        2.673261   1.000000
    4        3.809038   1.000000
    5        7.665866   0.000000
    6        9.761736   0.000000
    7       10.514322   0.000000
    8       11.926649   0.000000
 
 -0.4166667E+00  0.1944444E+00  0.2777778E-01  0.2057613E-02
    1       -3.545399   1.000000
    2       -1.100237   1.000000
    3        2.528174   1.000000
    4        3.920678   1.000000
    5        7.765758   0.000000
    6        9.680084   0.000000
    7       10.398245   0.000000
    8       12.970800   0.000000
 
 -0.3611111E+00  0.1944444E+00  0.2777778E-01  0.2057613E-02
    1       -3.760082   1.000000
    2       -0.794031   1.000000
    3        2.451308   1.000000
    4        4.087629   1.000000
    5        7.921774   0.000000
    6        9.633107   0.000000
    7       10.319181   0.000000
    8       13.092560   0.000000
 
 -0.3055556E+00  0.1944444E+00  0.2777778E-01  0.2057613E-02
    1       -4.142338   1.000000
    2       -0.197693   1.000000
    3        2.454514   1.000000
    4        4.300021   1.000000
    5        8.123579   0.000000
    6        9.600686   0.000000
    7       10.264779   0.000000
    8       12.206530   0.000000
 
 -0.2500000E+00  0.1944444E+00  0.2777778E-01  0.2057613E-02
    1       -4.553083   1.000000
    2        0.527637   1.000000
    3        2.559037   1.000000
    4        4.543289   1.000000
    5        8.349810   0.000000
    6        9.517204   0.000000
    7       10.196697   0.000000
    8       11.483369   0.000000
 
 -0.1944444E+00  0.1944444E+00  0.2777778E-01  0.2057613E-02
    1       -4.932046   1.000000
    2        1.266583   1.000000
    3        2.812465   1.000000
    4        4.794351   1.000000
    5        8.559760   0.000000
    6        9.280115   0.000000
    7       10.014353   0.000000
    8       11.058808   0.000000
 
 -0.1388889E+00  0.1944444E+00  0.2777778E-01  0.2057613E-02
    1       -5.254457   1.000000
    2        1.893250   1.000000
    3        3.297129   1.000000
    4        5.015649   1.000000
    5        8.637712   0.000000
    6        8.950908   0.000000
    7        9.649626   0.000000
    8       11.033201   0.000000
 
 -0.8333333E-01  0.1944444E+00  0.2777778E-01  0.2057613E-02
    1       -5.508858   1.000000
    2        2.356443   1.000000
    3        4.008824   1.000000
    4        5.152927   1.000000
    5        8.341745   0.000000
    6        8.794961   0.000000
    7        9.368337   0.000000
    8       11.197886   0.000000
 
 -0.2777778E-01  0.1944444E+00  0.2777778E-01  0.2057613E-02
    1       -5.689386   1.000000
    2        2.734656   1.000000
    3        4.744995   1.000000
    4        5.159585   1.000000
    5        7.989646   0.000000
    6        8.728081   0.000000
    7        9.194839   0.000000
    8       11.273735   0.000000
 
  0.2500000E+00  0.2500000E+00  0.2777778E-01  0.1028807E-02
    1       -5.240905   1.000000
    2        2.320926   1.000000
    3        3.867252   1.000000
    4        3.881139   1.000000
    5        6.901163   0.000000
    6        8.985638   0.000000
    7       11.020634   0.000000
    8       11.059421   0.000000
 
  0.3055556E+00  0.2500000E+00  0.2777778E-01  0.2057613E-02
    1       -4.984020   1.000000
    2        1.748543   1.000000
    3        3.554747   1.000000
    4        3.729014   1.000000
    5        6.890226   0.000000
    6        8.676452   0.000000
    7       11.236175   0.000000
    8       11.503900   0.000000
 
  0.3611111E+00  0.2500000E+00  0.2777778E-01  0.2057613E-02
    1       -4.659384   1.000000
    2        1.074347   1.000000
    3        3.193935   1.000000
    4        3.578605   1.000000
    5        7.073501   0.000000
    6        8.643433   0.000000
    7       11.192145   0.000000
    8       11.711273   0.000000
 
  0.4166667E+00  0.2500000E+00  0.2777778E-01  0.2057613E-02
    1       -4.278263   1.000000
    2        0.373669   1.000000
    3        2.810892   1.000000
    4        3.489219   1.000000
    5        7.210773   0.000000
    6        9.007773   0.000000
    7       11.053398   0.000000
    8       11.702441   0.000000
 
  0.4722222E+00  0.2500000E+00  0.2777778E-01  0.2057613E-02
    1       -3.865760   1.000000
    2       -0.291332   1.000000
    3        2.458998   1.000000
    4        3.470328   1.000000
    5        7.268006   0.000000
    6        9.710839   0.000000
    7       10.896541   0.000000
    8       11.583089   0.000000
 
 -0.4722222E+00  0.2500000E+00  0.2777778E-01  0.2057613E-02
    1       -3.484730   1.000000
    2       -0.834247   1.000000
    3        2.168536   1.000000
    4        3.519494   1.000000
    5        7.331789   0.000000
    6       10.533077   0.000000
    7       10.832313   0.000000
    8       11.438890   0.000000
 
 -0.4166667E+00  0.2500000E+00  0.2777778E-01  0.2057613E-02
    1       -3.285162   1.000000
    2       -1.092710   1.000000
    3        1.955632   1.000000
    4        3.632611   1.000000
    5        7.447075   0.000000
    6       10.569185   0.000000
    7       11.279539   0.000000
    8       11.728712   0.000000
 
 -0.3611111E+00  0.2500000E+00  0.2777778E-01  0.2057613E-02
    1       -3.417369   1.000000
    2       -0.915455   1.000000
    3        1.834442   1.000000
    4        3.803742   1.000000
    5        7.624619   0.000000
    6       10.466872   0.000000
    7       11.174947   0.000000
    8       12.785643   0.000000
 
 -0.3055556E+00  0.2500000E+00  0.2777778E-01  0.2057613E-02
    1       -3.772393   1.000000
    2       -0.427130   1.000000
    3        1.827555   1.000000
    4        4.023891   1.000000
    5        7.858384   0.000000
    6       10.350017   0.000000
    7       11.062859   0.000000
    8       12.158255   0.000000
 
 -0.2500000E+00  0.2500000E+00  0.2777778E-01  0.2057613E-02
    1       -4.182723   1.000000
    2        0.159406   1.000000
    3        1.980983   1.000000
    4        4.278678   1.000000
    5        8.126659   0.000000
    6       10.116469   0.000000
    7       10.881164   0.000000
    8       11.449858   0.000000
 
 -0.1944444E+00  0.2500000E+00  0.2777778E-01  0.2057613E-02
    1       -4.572045   1.000000
    2        0.687569   1.000000
    3        2.368813   1.000000
    4        4.544327   1.000000
    5        8.378615   0.000000
    6        9.670990   0.000000
    7       10.424884   0.000000
    8       11.195733   0.000000
 
 -0.1388889E+00  0.2500000E+00  0.2777778E-01  0.2057613E-02
    1       -4.910113   1.000000
    2        1.089978   1.000000
    3        3.010908   1.000000
    4        4.781742   1.000000
    5        8.468132   0.000000
    6        9.210765   0.000000
    7        9.861642   0.000000
    8       11.298488   0.000000
 
 -0.8333333E-01  0.2500000E+00  0.2777778E-01  0.2057613E-02
    1       -5.183420   1.000000
    2        1.419032   1.000000
    3        3.799654   1.000000
    4        4.933587   1.000000
    5        8.175155   0.000000
    6        8.990735   0.000000
    7        9.519428   0.000000
    8       11.547923   0.000000
 
 -0.2777778E-01  0.2500000E+00  0.2777778E-01  0.2057613E-02
    1       -5.385111   1.000000
    2        1.737179   1.000000
    3        4.551252   1.000000
    4        4.948475   1.000000
    5        7.788272   0.000000
    6        8.925336   0.000000
    7        9.352515   0.000000
    8       11.860562   0.000000
 
  0.3055556E+00  0.3055556E+00  0.2777778E-01  0.1028807E-02
    1       -4.750452   1.000000
    2        1.349402   1.000000
    3        3.465590   1.000000
    4        3.494909   1.000000
    5        6.592565   0.000000
    6        8.197346   0.000000
    7       11.990667   0.000000
    8       12.021429   0.000000
 
  0.3611111E+00  0.3055556E+00  0.2777778E-01  0.2057613E-02
    1       -4.447397   1.000000
    2        0.816687   1.000000
    3        3.193862   1.000000
    4        3.343469   1.000000
    5        6.625126   0.000000
    6        7.949115   0.000000
    7       12.175606   0.000000
    8       12.491882   0.000000
 
  0.4166667E+00  0.3055556E+00  0.2777778E-01  0.2057613E-02
    1       -4.083331   1.000000
    2        0.237435   1.000000
    3        2.778084   1.000000
    4        3.246207   1.000000
    5        6.818994   0.000000
    6        8.042568   0.000000
    7       12.118028   0.000000
    8       12.653378   0.000000
 
  0.4722222E+00  0.3055556E+00  0.2777778E-01  0.2057613E-02
    1       -3.676433   1.000000
    2       -0.339109   1.000000
    3        2.327020   1.000000
    4        3.218857   1.000000
    5        6.933554   0.000000
    6        8.574262   0.000000
    7       11.969028   0.000000
    8       12.603847   0.000000
 
 -0.4722222E+00  0.3055556E+00  0.2777778E-01  0.2057613E-02
    1       -3.272148   1.000000
    2       -0.853173   1.000000
    3        1.927181   1.000000
    4        3.259775   1.000000
    5        7.010068   0.000000
    6        9.404677   0.000000
    7       11.798791   0.000000
    8       12.474001   0.000000
 
 -0.4166667E+00  0.3055556E+00  0.2777778E-01  0.2057613E-02
    1       -2.995890   1.000000
    2       -1.173347   1.000000
    3        1.623528   1.000000
    4        3.366024   1.000000
    5        7.127239   0.000000
    6       10.388558   0.000000
    7       11.642083   0.000000
    8       12.331843   0.000000
 
 -0.3611111E+00  0.3055556E+00  0.2777778E-01  0.2057613E-02
    1       -3.047293   1.000000
    2       -1.106073   1.000000
    3        1.447245   1.000000
    4        3.532776   1.000000
    5        7.308735   0.000000
    6       11.266034   0.000000
    7       11.659808   0.000000
    8       12.214188   0.000000
 
 -0.3055556E+00  0.3055556E+00  0.2777778E-01  0.2057613E-02
    1       -3.372587   1.000000
    2       -0.735047   1.000000
    3        1.439984   1.000000
    4        3.752073   1.000000
    5        7.552738   0.000000
    6       11.147707   0.000000
    7       11.887558   0.000000
    8       12.219389   0.000000
 
 -0.2500000E+00  0.3055556E+00  0.2777778E-01  0.2057613E-02
    1       -3.776693   1.000000
    2       -0.315509   1.000000
    3        1.664944   1.000000
    4        4.010637   1.000000
    5        7.841486   0.000000
    6       10.612206   0.000000
    7       11.378730   0.000000
    8       11.802656   0.000000
 
 -0.1944444E+00  0.3055556E+00  0.2777778E-01  0.2057613E-02
    1       -4.168938   1.000000
    2        0.020059   1.000000
    3        2.159435   1.000000
    4        4.286024   1.000000
    5        8.128634   0.000000
    6        9.900932   0.000000
    7       10.600091   0.000000
    8       11.777152   0.000000
 
 -0.1388889E+00  0.3055556E+00  0.2777778E-01  0.2057613E-02
    1       -4.515666   1.000000
    2        0.281712   1.000000
    3        2.863628   1.000000
    4        4.540384   1.000000
    5        8.273456   0.000000
    6        9.307858   0.000000
    7        9.919306   0.000000
    8       11.885788   0.000000
 