 vasp.6.2.0 18Jan21 (build Aug 12 2022 13:00:08) complex                        
  
 executed on             LinuxIFC date 2024.11.03  22:01:59
 running on    4 total cores
 distrk:  each k-point on    4 cores,    1 groups
 distr:  one band on NCORE=   1 cores,    4 groups


--------------------------------------------------------------------------------------------------------


 INCAR:
   ISTART = 0            (Read existing wavefunction, if there)
   ISPIN = 1            (Non-Spin polarised DFT)
   LREAL = .FALSE.       (Projection operators: automatic)
   LWAVE = .FALSE.        (Write WAVECAR or not)
   LCHARG = .FALSE.        (Write CHGCAR or not)
   ADDGRID = .TRUE.        (Increase grid, helps GGA convergence)
   LASPH = .TRUE.        (Give more accurate total energies and band structure calculations)
   PREC = Accurate      (Accurate strictly avoids any aliasing or wrap around errors)
   ENCUT = 350          (Cut-off energy for plane wave basis set, in eV)
   ISMEAR = 0            (Gaussian smearing, metals:1)
   SIGMA = 0.05         (Smearing value in eV, metals:0.2)
   NELM = 90           (Max electronic SCF steps)
   NELMIN = 6            (Min electronic SCF steps)
   EDIFF = 1E-06        (SCF energy convergence, in eV)
   NSW = 100          (Max ionic steps)
   IBRION = 2            (Algorithm: 0-MD, 1-Quasi-New, 2-CG)
   ISIF = 3            (Stress/relaxation: 2-Ions, 3-Shape/Ions/V, 4-Shape/Ions)
   EDIFFG = -2E-03        (Ionic convergence, eV/AA)
   ISYM = 2              (Symmetry: 0\=none, 2\=GGA, 3\=hybrids)

 POTCAR:    PAW_PBE Si 05Jan2001                  
 POTCAR:    PAW_PBE Si 05Jan2001                  
   VRHFIN =Si: s2p2                                                                                 
   LEXCH  = PE                                                                                      
   EATOM  =   103.0669 eV,    7.5752 Ry                                                             
                                                                                                    
   TITEL  = PAW_PBE Si 05Jan2001                                                                    
   LULTRA =        F    use ultrasoft PP ?                                                          
   IUNSCR =        1    unscreen: 0-lin 1-nonlin 2-no                                               
   RPACOR =    1.500    partial core radius                                                         
   POMASS =   28.085; ZVAL   =    4.000    mass and valenz                                          
   RCORE  =    1.900    outmost cutoff radius                                                       
   RWIGS  =    2.480; RWIGS  =    1.312    wigner-seitz radius (au A)                               
   ENMAX  =  245.345; ENMIN  =  184.009 eV                                                          
   ICORE  =        2    local potential                                                             
   LCOR   =        T    correct aug charges                                                         
   LPAW   =        T    paw PP                                                                      
   EAUG   =  322.069                                                                                
   DEXC   =    0.000                                                                                
   RMAX   =    1.950    core radius for proj-oper                                                   
   RAUG   =    1.300    factor for augmentation sphere                                              
   RDEP   =    1.993    radius for radial grids                                                     
   RDEPT  =    1.837    core radius for aug-charge                                                  
                                                                                                    
   Atomic configuration                                                                             
    6 entries                                                                                       
     n  l   j            E        occ.                                                              
     1  0  0.50     -1785.8828   2.0000                                                             
     2  0  0.50      -139.4969   2.0000                                                             
     2  1  1.50       -95.5546   6.0000                                                             
     3  0  0.50       -10.8127   2.0000                                                             
     3  1  0.50        -4.0811   2.0000                                                             
     3  2  1.50        -4.0817   0.0000                                                             
   Description                                                                                      
     l       E           TYP  RCUT    TYP  RCUT                                                     
     0    -10.8127223     23  1.900                                                                 
     0     -7.6451159     23  1.900                                                                 
     1     -4.0811372     23  1.900                                                                 
     1      2.4879257     23  1.900                                                                 
     2     -4.0817478      7  1.900                                                                 
  local pseudopotential read in
  partial core-charges read in
  partial kinetic energy density read in
  atomic valenz-charges read in
  non local Contribution for L=           0  read in
    real space projection operators read in
  non local Contribution for L=           0  read in
    real space projection operators read in
  non local Contribution for L=           1  read in
    real space projection operators read in
  non local Contribution for L=           1  read in
    real space projection operators read in
    PAW grid and wavefunctions read in
 
   number of l-projection  operators is LMAX  =           4
   number of lm-projection operators is LMMAX =           8
 
  PAW_PBE Si 05Jan2001                  :
 energy of atom  1       EATOM= -103.0669
 kinetic energy error for atom=    0.0013 (will be added to EATOM!!)
 
 
 POSCAR: Si2
  positions in direct lattice
  No initial velocities read in
 exchange correlation table for  LEXCH =        8
   RHO(1)=    0.500       N(1)  =     2000
   RHO(2)=  100.500       N(2)  =     4000
 


--------------------------------------------------------------------------------------------------------


 ion  position               nearest neighbor table
   1  0.875  0.875  0.875-   2 2.36   2 2.36   2 2.36   2 2.36
   2  0.125  0.125  0.125-   1 2.36   1 2.36   1 2.36   1 2.36
 
  LATTYP: Found a face centered cubic cell.
 ALAT       =     5.4437031493
  
  Lattice vectors:
  
 A1 = (   3.3335730000,   0.0000000000,   1.9246390000)
 A2 = (   1.1111910000,   3.1429240000,   1.9246390000)
 A3 = (   0.0000000000,   0.0000000000,   3.8492780000)


Analysis of symmetry for initial positions (statically):
=====================================================================
 Subroutine PRICEL returns:
 Original cell was already a primitive cell.
 

 Routine SETGRP: Setting up the symmetry group for a 
 face centered cubic supercell.


 Subroutine GETGRP returns: Found 48 space group operations
 (whereof 12 operations were pure point group operations)
 out of a pool of 48 trial point group operations.


The static configuration has the point symmetry D_3d.
 The point group associated with its full space group is O_h .


Analysis of symmetry for dynamics (positions and initial velocities):
=====================================================================
 Subroutine PRICEL returns:
 Original cell was already a primitive cell.
 

 Routine SETGRP: Setting up the symmetry group for a 
 face centered cubic supercell.


 Subroutine GETGRP returns: Found 48 space group operations
 (whereof 12 operations were pure point group operations)
 out of a pool of 48 trial point group operations.


The dynamic configuration has the point symmetry D_3d.
 The point group associated with its full space group is O_h .


 Subroutine INISYM returns: Found 48 space group operations
 (whereof 12 operations are pure point group operations),
 and found     1 'primitive' translations


----------------------------------------------------------------------------------------

                                     Primitive cell                                     

  volume of cell :      40.3295

  direct lattice vectors                    reciprocal lattice vectors
     3.333573000  0.000000000  1.924639000     0.299978432 -0.106058350  0.000000000
     1.111191000  3.142924000  1.924639000     0.000000000  0.318175050  0.000000000
     0.000000000  0.000000000  3.849278000    -0.149989216 -0.106058350  0.259788979

  length of vectors
     3.849278403  3.849279412  3.849278000     0.318175161  0.318175050  0.318175190

  position of ions in fractional coordinates (direct lattice)
     0.875000000  0.875000000  0.875000000
     0.125000000  0.125000000  0.125000000

  ion indices of the primitive-cell ions
   primitive index   ion index
                 1           1
                 2           2

----------------------------------------------------------------------------------------

 
 
 KPOINTS: Automatic                               

Automatic generation of k-mesh.
 Grid dimensions read from file:
 generate k-points for:   18   18   18

 Generating k-lattice:

  Cartesian coordinates                     Fractional coordinates (reciprocal lattice)
     0.016665468 -0.005892131  0.000000000     0.055555556  0.000000000  0.000000000
     0.000000000  0.017676392  0.000000000     0.000000000  0.055555556  0.000000000
    -0.008332734 -0.005892131  0.014432721    -0.000000000  0.000000000  0.055555556

  Length of vectors
     0.017676398  0.017676392  0.017676399

  Shift w.r.t. Gamma in fractional coordinates (k-lattice)
     0.500000000  0.500000000  0.500000000

 
 Subroutine IBZKPT returns following result:
 ===========================================
 
 Found    570 irreducible k-points:
 
 Following reciprocal coordinates:
            Coordinates               Weight
  0.027778  0.027778  0.027778      8.000000
  0.083333  0.027778  0.027778     24.000000
  0.138889  0.027778  0.027778     24.000000
  0.194444  0.027778  0.027778     24.000000
  0.250000  0.027778  0.027778     24.000000
  0.305556  0.027778  0.027778     24.000000
  0.361111  0.027778  0.027778     24.000000
  0.416667  0.027778  0.027778     24.000000
  0.472222  0.027778  0.027778     24.000000
 -0.472222  0.027778  0.027778     24.000000
 -0.416667  0.027778  0.027778     24.000000
 -0.361111  0.027778  0.027778     24.000000
 -0.305556  0.027778  0.027778     24.000000
 -0.250000  0.027778  0.027778     24.000000
 -0.194444  0.027778  0.027778     24.000000
 -0.138889  0.027778  0.027778     24.000000
 -0.083333  0.027778  0.027778     24.000000
 -0.027778  0.027778  0.027778     24.000000
  0.083333  0.083333  0.027778     24.000000
  0.138889  0.083333  0.027778     48.000000
  0.194444  0.083333  0.027778     48.000000
  0.250000  0.083333  0.027778     48.000000
  0.305556  0.083333  0.027778     48.000000
  0.361111  0.083333  0.027778     48.000000
  0.416667  0.083333  0.027778     48.000000
  0.472222  0.083333  0.027778     48.000000
 -0.472222  0.083333  0.027778     48.000000
 -0.416667  0.083333  0.027778     48.000000
 -0.361111  0.083333  0.027778     48.000000
 -0.305556  0.083333  0.027778     48.000000
 -0.250000  0.083333  0.027778     48.000000
 -0.194444  0.083333  0.027778     48.000000
 -0.138889  0.083333  0.027778     48.000000
 -0.083333  0.083333  0.027778     48.000000
 -0.027778  0.083333  0.027778     48.000000
  0.138889  0.138889  0.027778     24.000000
  0.194444  0.138889  0.027778     48.000000
  0.250000  0.138889  0.027778     48.000000
  0.305556  0.138889  0.027778     48.000000
  0.361111  0.138889  0.027778     48.000000
  0.416667  0.138889  0.027778     48.000000
  0.472222  0.138889  0.027778     48.000000
 -0.472222  0.138889  0.027778     48.000000
 -0.416667  0.138889  0.027778     48.000000
 -0.361111  0.138889  0.027778     48.000000
 -0.305556  0.138889  0.027778     48.000000
 -0.250000  0.138889  0.027778     48.000000
 -0.194444  0.138889  0.027778     48.000000
 -0.138889  0.138889  0.027778     48.000000
 -0.083333  0.138889  0.027778     48.000000
 -0.027778  0.138889  0.027778     48.000000
  0.194444  0.194444  0.027778     24.000000
  0.250000  0.194444  0.027778     48.000000
  0.305556  0.194444  0.027778     48.000000
  0.361111  0.194444  0.027778     48.000000
  0.416667  0.194444  0.027778     48.000000
  0.472222  0.194444  0.027778     48.000000
 -0.472222  0.194444  0.027778     48.000000
 -0.416667  0.194444  0.027778     48.000000
 -0.361111  0.194444  0.027778     48.000000
 -0.305556  0.194444  0.027778     48.000000
 -0.250000  0.194444  0.027778     48.000000
 -0.194444  0.194444  0.027778     48.000000
 -0.138889  0.194444  0.027778     48.000000
 -0.083333  0.194444  0.027778     48.000000
 -0.027778  0.194444  0.027778     48.000000
  0.250000  0.250000  0.027778     24.000000
  0.305556  0.250000  0.027778     48.000000
  0.361111  0.250000  0.027778     48.000000
  0.416667  0.250000  0.027778     48.000000
  0.472222  0.250000  0.027778     48.000000
 -0.472222  0.250000  0.027778     48.000000
 -0.416667  0.250000  0.027778     48.000000
 -0.361111  0.250000  0.027778     48.000000
 -0.305556  0.250000  0.027778     48.000000
 -0.250000  0.250000  0.027778     48.000000
 -0.194444  0.250000  0.027778     48.000000
 -0.138889  0.250000  0.027778     48.000000
 -0.083333  0.250000  0.027778     48.000000
 -0.027778  0.250000  0.027778     48.000000
  0.305556  0.305556  0.027778     24.000000
  0.361111  0.305556  0.027778     48.000000
  0.416667  0.305556  0.027778     48.000000
  0.472222  0.305556  0.027778     48.000000
 -0.472222  0.305556  0.027778     48.000000
 -0.416667  0.305556  0.027778     48.000000
 -0.361111  0.305556  0.027778     48.000000
 -0.305556  0.305556  0.027778     48.000000
 -0.250000  0.305556  0.027778     48.000000
 -0.194444  0.305556  0.027778     48.000000
 -0.138889  0.305556  0.027778     48.000000
 -0.083333  0.305556  0.027778     48.000000
 -0.027778  0.305556  0.027778     48.000000
  0.361111  0.361111  0.027778     24.000000
  0.416667  0.361111  0.027778     48.000000
  0.472222  0.361111  0.027778     48.000000
 -0.472222  0.361111  0.027778     48.000000
 -0.416667  0.361111  0.027778     48.000000
 -0.361111  0.361111  0.027778     48.000000
 -0.305556  0.361111  0.027778     48.000000
 -0.250000  0.361111  0.027778     48.000000
 -0.194444  0.361111  0.027778     48.000000
 -0.138889  0.361111  0.027778     48.000000
 -0.083333  0.361111  0.027778     48.000000
 -0.027778  0.361111  0.027778     48.000000
  0.416667  0.416667  0.027778     24.000000
  0.472222  0.416667  0.027778     48.000000
 -0.472222  0.416667  0.027778     48.000000
 -0.416667  0.416667  0.027778     48.000000
 -0.361111  0.416667  0.027778     48.000000
 -0.305556  0.416667  0.027778     48.000000
 -0.250000  0.416667  0.027778     48.000000
 -0.194444  0.416667  0.027778     48.000000
 -0.138889  0.416667  0.027778     48.000000
 -0.083333  0.416667  0.027778     48.000000
 -0.027778  0.416667  0.027778     48.000000
  0.472222  0.472222  0.027778     24.000000
 -0.472222  0.472222  0.027778     48.000000
 -0.416667  0.472222  0.027778     48.000000
 -0.361111  0.472222  0.027778     48.000000
 -0.305556  0.472222  0.027778     48.000000
 -0.250000  0.472222  0.027778     48.000000
 -0.194444  0.472222  0.027778     48.000000
 -0.138889  0.472222  0.027778     48.000000
 -0.083333  0.472222  0.027778     48.000000
 -0.027778  0.472222  0.027778     48.000000
 -0.472222 -0.472222  0.027778     24.000000
 -0.416667 -0.472222  0.027778     48.000000
 -0.361111 -0.472222  0.027778     48.000000
 -0.305556 -0.472222  0.027778     48.000000
 -0.250000 -0.472222  0.027778     48.000000
 -0.194444 -0.472222  0.027778     48.000000
 -0.138889 -0.472222  0.027778     48.000000
 -0.083333 -0.472222  0.027778     48.000000
 -0.416667 -0.416667  0.027778     24.000000
 -0.361111 -0.416667  0.027778     48.000000
 -0.305556 -0.416667  0.027778     48.000000
 -0.250000 -0.416667  0.027778     48.000000
 -0.194444 -0.416667  0.027778     48.000000
 -0.138889 -0.416667  0.027778     48.000000
 -0.083333 -0.416667  0.027778     48.000000
 -0.361111 -0.361111  0.027778     24.000000
 -0.305556 -0.361111  0.027778     48.000000
 -0.250000 -0.361111  0.027778     48.000000
 -0.194444 -0.361111  0.027778     48.000000
 -0.138889 -0.361111  0.027778     48.000000
 -0.083333 -0.361111  0.027778     48.000000
 -0.305556 -0.305556  0.027778     24.000000
 -0.250000 -0.305556  0.027778     48.000000
 -0.194444 -0.305556  0.027778     48.000000
 -0.138889 -0.305556  0.027778     48.000000
 -0.083333 -0.305556  0.027778     48.000000
 -0.250000 -0.250000  0.027778     24.000000
 -0.194444 -0.250000  0.027778     48.000000
 -0.138889 -0.250000  0.027778     48.000000
 -0.083333 -0.250000  0.027778     48.000000
 -0.194444 -0.194444  0.027778     24.000000
 -0.138889 -0.194444  0.027778     48.000000
 -0.083333 -0.194444  0.027778     48.000000
 -0.138889 -0.138889  0.027778     24.000000
 -0.083333 -0.138889  0.027778     48.000000
 -0.083333 -0.083333  0.027778     24.000000
  0.083333  0.083333  0.083333      8.000000
  0.138889  0.083333  0.083333     24.000000
  0.194444  0.083333  0.083333     24.000000
  0.250000  0.083333  0.083333     24.000000
  0.305556  0.083333  0.083333     24.000000
  0.361111  0.083333  0.083333     24.000000
  0.416667  0.083333  0.083333     24.000000
  0.472222  0.083333  0.083333     24.000000
 -0.472222  0.083333  0.083333     24.000000
 -0.416667  0.083333  0.083333     24.000000
 -0.361111  0.083333  0.083333     24.000000
 -0.305556  0.083333  0.083333     24.000000
 -0.250000  0.083333  0.083333     24.000000
 -0.194444  0.083333  0.083333     24.000000
 -0.138889  0.083333  0.083333     24.000000
 -0.083333  0.083333  0.083333     24.000000
  0.138889  0.138889  0.083333     24.000000
  0.194444  0.138889  0.083333     48.000000
  0.250000  0.138889  0.083333     48.000000
  0.305556  0.138889  0.083333     48.000000
  0.361111  0.138889  0.083333     48.000000
  0.416667  0.138889  0.083333     48.000000
  0.472222  0.138889  0.083333     48.000000
 -0.472222  0.138889  0.083333     48.000000
 -0.416667  0.138889  0.083333     48.000000
 -0.361111  0.138889  0.083333     48.000000
 -0.305556  0.138889  0.083333     48.000000
 -0.250000  0.138889  0.083333     48.000000
 -0.194444  0.138889  0.083333     48.000000
 -0.138889  0.138889  0.083333     48.000000
 -0.083333  0.138889  0.083333     48.000000
  0.194444  0.194444  0.083333     24.000000
  0.250000  0.194444  0.083333     48.000000
  0.305556  0.194444  0.083333     48.000000
  0.361111  0.194444  0.083333     48.000000
  0.416667  0.194444  0.083333     48.000000
  0.472222  0.194444  0.083333     48.000000
 -0.472222  0.194444  0.083333     48.000000
 -0.416667  0.194444  0.083333     48.000000
 -0.361111  0.194444  0.083333     48.000000
 -0.305556  0.194444  0.083333     48.000000
 -0.250000  0.194444  0.083333     48.000000
 -0.194444  0.194444  0.083333     48.000000
 -0.138889  0.194444  0.083333     48.000000
 -0.083333  0.194444  0.083333     48.000000
  0.250000  0.250000  0.083333     24.000000
  0.305556  0.250000  0.083333     48.000000
  0.361111  0.250000  0.083333     48.000000
  0.416667  0.250000  0.083333     48.000000
  0.472222  0.250000  0.083333     48.000000
 -0.472222  0.250000  0.083333     48.000000
 -0.416667  0.250000  0.083333     48.000000
 -0.361111  0.250000  0.083333     48.000000
 -0.305556  0.250000  0.083333     48.000000
 -0.250000  0.250000  0.083333     48.000000
 -0.194444  0.250000  0.083333     48.000000
 -0.138889  0.250000  0.083333     48.000000
 -0.083333  0.250000  0.083333     48.000000
  0.305556  0.305556  0.083333     24.000000
  0.361111  0.305556  0.083333     48.000000
  0.416667  0.305556  0.083333     48.000000
  0.472222  0.305556  0.083333     48.000000
 -0.472222  0.305556  0.083333     48.000000
 -0.416667  0.305556  0.083333     48.000000
 -0.361111  0.305556  0.083333     48.000000
 -0.305556  0.305556  0.083333     48.000000
 -0.250000  0.305556  0.083333     48.000000
 -0.194444  0.305556  0.083333     48.000000
 -0.138889  0.305556  0.083333     48.000000
 -0.083333  0.305556  0.083333     48.000000
  0.361111  0.361111  0.083333     24.000000
  0.416667  0.361111  0.083333     48.000000
  0.472222  0.361111  0.083333     48.000000
 -0.472222  0.361111  0.083333     48.000000
 -0.416667  0.361111  0.083333     48.000000
 -0.361111  0.361111  0.083333     48.000000
 -0.305556  0.361111  0.083333     48.000000
 -0.250000  0.361111  0.083333     48.000000
 -0.194444  0.361111  0.083333     48.000000
 -0.138889  0.361111  0.083333     48.000000
 -0.083333  0.361111  0.083333     48.000000
  0.416667  0.416667  0.083333     24.000000
  0.472222  0.416667  0.083333     48.000000
 -0.472222  0.416667  0.083333     48.000000
 -0.416667  0.416667  0.083333     48.000000
 -0.361111  0.416667  0.083333     48.000000
 -0.305556  0.416667  0.083333     48.000000
 -0.250000  0.416667  0.083333     48.000000
 -0.194444  0.416667  0.083333     48.000000
 -0.138889  0.416667  0.083333     48.000000
 -0.083333  0.416667  0.083333     48.000000
  0.472222  0.472222  0.083333     24.000000
 -0.472222  0.472222  0.083333     48.000000
 -0.416667  0.472222  0.083333     48.000000
 -0.361111  0.472222  0.083333     48.000000
 -0.305556  0.472222  0.083333     48.000000
 -0.250000  0.472222  0.083333     48.000000
 -0.194444  0.472222  0.083333     48.000000
 -0.138889  0.472222  0.083333     48.000000
 -0.083333  0.472222  0.083333     48.000000
 -0.472222 -0.472222  0.083333     24.000000
 -0.416667 -0.472222  0.083333     48.000000
 -0.361111 -0.472222  0.083333     48.000000
 -0.305556 -0.472222  0.083333     48.000000
 -0.250000 -0.472222  0.083333     48.000000
 -0.194444 -0.472222  0.083333     48.000000
 -0.138889 -0.472222  0.083333     48.000000
 -0.416667 -0.416667  0.083333     24.000000
 -0.361111 -0.416667  0.083333     48.000000
 -0.305556 -0.416667  0.083333     48.000000
 -0.250000 -0.416667  0.083333     48.000000
 -0.194444 -0.416667  0.083333     48.000000
 -0.138889 -0.416667  0.083333     48.000000
 -0.361111 -0.361111  0.083333     24.000000
 -0.305556 -0.361111  0.083333     48.000000
 -0.250000 -0.361111  0.083333     48.000000
 -0.194444 -0.361111  0.083333     48.000000
 -0.138889 -0.361111  0.083333     48.000000
 -0.305556 -0.305556  0.083333     24.000000
 -0.250000 -0.305556  0.083333     48.000000
 -0.194444 -0.305556  0.083333     48.000000
 -0.138889 -0.305556  0.083333     48.000000
 -0.250000 -0.250000  0.083333     24.000000
 -0.194444 -0.250000  0.083333     48.000000
 -0.138889 -0.250000  0.083333     48.000000
 -0.194444 -0.194444  0.083333     24.000000
 -0.138889 -0.194444  0.083333     48.000000
 -0.138889 -0.138889  0.083333     24.000000
  0.138889  0.138889  0.138889      8.000000
  0.194444  0.138889  0.138889     24.000000
  0.250000  0.138889  0.138889     24.000000
  0.305556  0.138889  0.138889     24.000000
  0.361111  0.138889  0.138889     24.000000
  0.416667  0.138889  0.138889     24.000000
  0.472222  0.138889  0.138889     24.000000
 -0.472222  0.138889  0.138889     24.000000
 -0.416667  0.138889  0.138889     24.000000
 -0.361111  0.138889  0.138889     24.000000
 -0.305556  0.138889  0.138889     24.000000
 -0.250000  0.138889  0.138889     24.000000
 -0.194444  0.138889  0.138889     24.000000
 -0.138889  0.138889  0.138889     24.000000
  0.194444  0.194444  0.138889     24.000000
  0.250000  0.194444  0.138889     48.000000
  0.305556  0.194444  0.138889     48.000000
  0.361111  0.194444  0.138889     48.000000
  0.416667  0.194444  0.138889     48.000000
  0.472222  0.194444  0.138889     48.000000
 -0.472222  0.194444  0.138889     48.000000
 -0.416667  0.194444  0.138889     48.000000
 -0.361111  0.194444  0.138889     48.000000
 -0.305556  0.194444  0.138889     48.000000
 -0.250000  0.194444  0.138889     48.000000
 -0.194444  0.194444  0.138889     48.000000
 -0.138889  0.194444  0.138889     48.000000
  0.250000  0.250000  0.138889     24.000000
  0.305556  0.250000  0.138889     48.000000
  0.361111  0.250000  0.138889     48.000000
  0.416667  0.250000  0.138889     48.000000
  0.472222  0.250000  0.138889     48.000000
 -0.472222  0.250000  0.138889     48.000000
 -0.416667  0.250000  0.138889     48.000000
 -0.361111  0.250000  0.138889     48.000000
 -0.305556  0.250000  0.138889     48.000000
 -0.250000  0.250000  0.138889     48.000000
 -0.194444  0.250000  0.138889     48.000000
 -0.138889  0.250000  0.138889     48.000000
  0.305556  0.305556  0.138889     24.000000
  0.361111  0.305556  0.138889     48.000000
  0.416667  0.305556  0.138889     48.000000
  0.472222  0.305556  0.138889     48.000000
 -0.472222  0.305556  0.138889     48.000000
 -0.416667  0.305556  0.138889     48.000000
 -0.361111  0.305556  0.138889     48.000000
 -0.305556  0.305556  0.138889     48.000000
 -0.250000  0.305556  0.138889     48.000000
 -0.194444  0.305556  0.138889     48.000000
 -0.138889  0.305556  0.138889     48.000000
  0.361111  0.361111  0.138889     24.000000
  0.416667  0.361111  0.138889     48.000000
  0.472222  0.361111  0.138889     48.000000
 -0.472222  0.361111  0.138889     48.000000
 -0.416667  0.361111  0.138889     48.000000
 -0.361111  0.361111  0.138889     48.000000
 -0.305556  0.361111  0.138889     48.000000
 -0.250000  0.361111  0.138889     48.000000
 -0.194444  0.361111  0.138889     48.000000
 -0.138889  0.361111  0.138889     48.000000
  0.416667  0.416667  0.138889     24.000000
  0.472222  0.416667  0.138889     48.000000
 -0.472222  0.416667  0.138889     48.000000
 -0.416667  0.416667  0.138889     48.000000
 -0.361111  0.416667  0.138889     48.000000
 -0.305556  0.416667  0.138889     48.000000
 -0.250000  0.416667  0.138889     48.000000
 -0.194444  0.416667  0.138889     48.000000
 -0.138889  0.416667  0.138889     48.000000
  0.472222  0.472222  0.138889     24.000000
 -0.472222  0.472222  0.138889     48.000000
 -0.416667  0.472222  0.138889     48.000000
 -0.361111  0.472222  0.138889     48.000000
 -0.305556  0.472222  0.138889     48.000000
 -0.250000  0.472222  0.138889     48.000000
 -0.194444  0.472222  0.138889     48.000000
 -0.138889  0.472222  0.138889     48.000000
 -0.472222 -0.472222  0.138889     24.000000
 -0.416667 -0.472222  0.138889     48.000000
 -0.361111 -0.472222  0.138889     48.000000
 -0.305556 -0.472222  0.138889     48.000000
 -0.250000 -0.472222  0.138889     48.000000
 -0.194444 -0.472222  0.138889     48.000000
 -0.416667 -0.416667  0.138889     24.000000
 -0.361111 -0.416667  0.138889     48.000000
 -0.305556 -0.416667  0.138889     48.000000
 -0.250000 -0.416667  0.138889     48.000000
 -0.194444 -0.416667  0.138889     48.000000
 -0.361111 -0.361111  0.138889     24.000000
 -0.305556 -0.361111  0.138889     48.000000
 -0.250000 -0.361111  0.138889     48.000000
 -0.194444 -0.361111  0.138889     48.000000
 -0.305556 -0.305556  0.138889     24.000000
 -0.250000 -0.305556  0.138889     48.000000
 -0.194444 -0.305556  0.138889     48.000000
 -0.250000 -0.250000  0.138889     24.000000
 -0.194444 -0.250000  0.138889     48.000000
 -0.194444 -0.194444  0.138889     24.000000
  0.194444  0.194444  0.194444      8.000000
  0.250000  0.194444  0.194444     24.000000
  0.305556  0.194444  0.194444     24.000000
  0.361111  0.194444  0.194444     24.000000
  0.416667  0.194444  0.194444     24.000000
  0.472222  0.194444  0.194444     24.000000
 -0.472222  0.194444  0.194444     24.000000
 -0.416667  0.194444  0.194444     24.000000
 -0.361111  0.194444  0.194444     24.000000
 -0.305556  0.194444  0.194444     24.000000
 -0.250000  0.194444  0.194444     24.000000
 -0.194444  0.194444  0.194444     24.000000
  0.250000  0.250000  0.194444     24.000000
  0.305556  0.250000  0.194444     48.000000
  0.361111  0.250000  0.194444     48.000000
  0.416667  0.250000  0.194444     48.000000
  0.472222  0.250000  0.194444     48.000000
 -0.472222  0.250000  0.194444     48.000000
 -0.416667  0.250000  0.194444     48.000000
 -0.361111  0.250000  0.194444     48.000000
 -0.305556  0.250000  0.194444     48.000000
 -0.250000  0.250000  0.194444     48.000000
 -0.194444  0.250000  0.194444     48.000000
  0.305556  0.305556  0.194444     24.000000
  0.361111  0.305556  0.194444     48.000000
  0.416667  0.305556  0.194444     48.000000
  0.472222  0.305556  0.194444     48.000000
 -0.472222  0.305556  0.194444     48.000000
 -0.416667  0.305556  0.194444     48.000000
 -0.361111  0.305556  0.194444     48.000000
 -0.305556  0.305556  0.194444     48.000000
 -0.250000  0.305556  0.194444     48.000000
 -0.194444  0.305556  0.194444     48.000000
  0.361111  0.361111  0.194444     24.000000
  0.416667  0.361111  0.194444     48.000000
  0.472222  0.361111  0.194444     48.000000
 -0.472222  0.361111  0.194444     48.000000
 -0.416667  0.361111  0.194444     48.000000
 -0.361111  0.361111  0.194444     48.000000
 -0.305556  0.361111  0.194444     48.000000
 -0.250000  0.361111  0.194444     48.000000
 -0.194444  0.361111  0.194444     48.000000
  0.416667  0.416667  0.194444     24.000000
  0.472222  0.416667  0.194444     48.000000
 -0.472222  0.416667  0.194444     48.000000
 -0.416667  0.416667  0.194444     48.000000
 -0.361111  0.416667  0.194444     48.000000
 -0.305556  0.416667  0.194444     48.000000
 -0.250000  0.416667  0.194444     48.000000
 -0.194444  0.416667  0.194444     48.000000
  0.472222  0.472222  0.194444     24.000000
 -0.472222  0.472222  0.194444     48.000000
 -0.416667  0.472222  0.194444     48.000000
 -0.361111  0.472222  0.194444     48.000000
 -0.305556  0.472222  0.194444     48.000000
 -0.250000  0.472222  0.194444     48.000000
 -0.194444  0.472222  0.194444     48.000000
 -0.472222 -0.472222  0.194444     24.000000
 -0.416667 -0.472222  0.194444     48.000000
 -0.361111 -0.472222  0.194444     48.000000
 -0.305556 -0.472222  0.194444     48.000000
 -0.250000 -0.472222  0.194444     48.000000
 -0.416667 -0.416667  0.194444     24.000000
 -0.361111 -0.416667  0.194444     48.000000
 -0.305556 -0.416667  0.194444     48.000000
 -0.250000 -0.416667  0.194444     48.000000
 -0.361111 -0.361111  0.194444     24.000000
 -0.305556 -0.361111  0.194444     48.000000
 -0.250000 -0.361111  0.194444     48.000000
 -0.305556 -0.305556  0.194444     24.000000
 -0.250000 -0.305556  0.194444     48.000000
 -0.250000 -0.250000  0.194444     24.000000
  0.250000  0.250000  0.250000      8.000000
  0.305556  0.250000  0.250000     24.000000
  0.361111  0.250000  0.250000     24.000000
  0.416667  0.250000  0.250000     24.000000
  0.472222  0.250000  0.250000     24.000000
 -0.472222  0.250000  0.250000     24.000000
 -0.416667  0.250000  0.250000     24.000000
 -0.361111  0.250000  0.250000     24.000000
 -0.305556  0.250000  0.250000     24.000000
 -0.250000  0.250000  0.250000     24.000000
  0.305556  0.305556  0.250000     24.000000
  0.361111  0.305556  0.250000     48.000000
  0.416667  0.305556  0.250000     48.000000
  0.472222  0.305556  0.250000     48.000000
 -0.472222  0.305556  0.250000     48.000000
 -0.416667  0.305556  0.250000     48.000000
 -0.361111  0.305556  0.250000     48.000000
 -0.305556  0.305556  0.250000     48.000000
 -0.250000  0.305556  0.250000     48.000000
  0.361111  0.361111  0.250000     24.000000
  0.416667  0.361111  0.250000     48.000000
  0.472222  0.361111  0.250000     48.000000
 -0.472222  0.361111  0.250000     48.000000
 -0.416667  0.361111  0.250000     48.000000
 -0.361111  0.361111  0.250000     48.000000
 -0.305556  0.361111  0.250000     48.000000
 -0.250000  0.361111  0.250000     48.000000
  0.416667  0.416667  0.250000     24.000000
  0.472222  0.416667  0.250000     48.000000
 -0.472222  0.416667  0.250000     48.000000
 -0.416667  0.416667  0.250000     48.000000
 -0.361111  0.416667  0.250000     48.000000
 -0.305556  0.416667  0.250000     48.000000
 -0.250000  0.416667  0.250000     48.000000
  0.472222  0.472222  0.250000     24.000000
 -0.472222  0.472222  0.250000     48.000000
 -0.416667  0.472222  0.250000     48.000000
 -0.361111  0.472222  0.250000     48.000000
 -0.305556  0.472222  0.250000     48.000000
 -0.250000  0.472222  0.250000     48.000000
 -0.472222 -0.472222  0.250000     24.000000
 -0.416667 -0.472222  0.250000     48.000000
 -0.361111 -0.472222  0.250000     48.000000
 -0.305556 -0.472222  0.250000     48.000000
 -0.416667 -0.416667  0.250000     24.000000
 -0.361111 -0.416667  0.250000     48.000000
 -0.305556 -0.416667  0.250000     48.000000
 -0.361111 -0.361111  0.250000     24.000000
 -0.305556 -0.361111  0.250000     48.000000
 -0.305556 -0.305556  0.250000     24.000000
  0.305556  0.305556  0.305556      8.000000
  0.361111  0.305556  0.305556     24.000000
  0.416667  0.305556  0.305556     24.000000
  0.472222  0.305556  0.305556     24.000000
 -0.472222  0.305556  0.305556     24.000000
 -0.416667  0.305556  0.305556     24.000000
 -0.361111  0.305556  0.305556     24.000000
 -0.305556  0.305556  0.305556     24.000000
  0.361111  0.361111  0.305556     24.000000
  0.416667  0.361111  0.305556     48.000000
  0.472222  0.361111  0.305556     48.000000
 -0.472222  0.361111  0.305556     48.000000
 -0.416667  0.361111  0.305556     48.000000
 -0.361111  0.361111  0.305556     48.000000
 -0.305556  0.361111  0.305556     48.000000
  0.416667  0.416667  0.305556     24.000000
  0.472222  0.416667  0.305556     48.000000
 -0.472222  0.416667  0.305556     48.000000
 -0.416667  0.416667  0.305556     48.000000
 -0.361111  0.416667  0.305556     48.000000
 -0.305556  0.416667  0.305556     48.000000
  0.472222  0.472222  0.305556     24.000000
 -0.472222  0.472222  0.305556     48.000000
 -0.416667  0.472222  0.305556     48.000000
 -0.361111  0.472222  0.305556     48.000000
 -0.305556  0.472222  0.305556     48.000000
 -0.472222 -0.472222  0.305556     24.000000
 -0.416667 -0.472222  0.305556     48.000000
 -0.361111 -0.472222  0.305556     48.000000
 -0.416667 -0.416667  0.305556     24.000000
 -0.361111 -0.416667  0.305556     48.000000
 -0.361111 -0.361111  0.305556     24.000000
  0.361111  0.361111  0.361111      8.000000
  0.416667  0.361111  0.361111     24.000000
  0.472222  0.361111  0.361111     24.000000
 -0.472222  0.361111  0.361111     24.000000
 -0.416667  0.361111  0.361111     24.000000
 -0.361111  0.361111  0.361111     24.000000
  0.416667  0.416667  0.361111     24.000000
  0.472222  0.416667  0.361111     48.000000
 -0.472222  0.416667  0.361111     48.000000
 -0.416667  0.416667  0.361111     48.000000
 -0.361111  0.416667  0.361111     48.000000
  0.472222  0.472222  0.361111     24.000000
 -0.472222  0.472222  0.361111     48.000000
 -0.416667  0.472222  0.361111     48.000000
 -0.361111  0.472222  0.361111     48.000000
 -0.472222 -0.472222  0.361111     24.000000
 -0.416667 -0.472222  0.361111     48.000000
 -0.416667 -0.416667  0.361111     24.000000
  0.416667  0.416667  0.416667      8.000000
  0.472222  0.416667  0.416667     24.000000
 -0.472222  0.416667  0.416667     24.000000
 -0.416667  0.416667  0.416667     24.000000
  0.472222  0.472222  0.416667     24.000000
 -0.472222  0.472222  0.416667     48.000000
 -0.416667  0.472222  0.416667     48.000000
 -0.472222 -0.472222  0.416667     24.000000
  0.472222  0.472222  0.472222      8.000000
 -0.472222  0.472222  0.472222     24.000000
 
 Following cartesian coordinates:
            Coordinates               Weight
  0.004166  0.002946  0.007216      8.000000
  0.020832 -0.002946  0.007216     24.000000
  0.037497 -0.008838  0.007216     24.000000
  0.054163 -0.014730  0.007216     24.000000
  0.070828 -0.020622  0.007216     24.000000
  0.087494 -0.026515  0.007216     24.000000
  0.104159 -0.032407  0.007216     24.000000
  0.120825 -0.038299  0.007216     24.000000
  0.137490 -0.044191  0.007216     24.000000
 -0.145823  0.055975  0.007216     24.000000
 -0.129157  0.050083  0.007216     24.000000
 -0.112492  0.044191  0.007216     24.000000
 -0.095826  0.038299  0.007216     24.000000
 -0.079161  0.032407  0.007216     24.000000
 -0.062496  0.026515  0.007216     24.000000
 -0.045830  0.020622  0.007216     24.000000
 -0.029165  0.014730  0.007216     24.000000
 -0.012499  0.008838  0.007216     24.000000
  0.020832  0.014730  0.007216     24.000000
  0.037497  0.008838  0.007216     48.000000
  0.054163  0.002946  0.007216     48.000000
  0.070828 -0.002946  0.007216     48.000000
  0.087494 -0.008838  0.007216     48.000000
  0.104159 -0.014730  0.007216     48.000000
  0.120825 -0.020622  0.007216     48.000000
  0.137490 -0.026515  0.007216     48.000000
 -0.145823  0.073652  0.007216     48.000000
 -0.129157  0.067760  0.007216     48.000000
 -0.112492  0.061867  0.007216     48.000000
 -0.095826  0.055975  0.007216     48.000000
 -0.079161  0.050083  0.007216     48.000000
 -0.062496  0.044191  0.007216     48.000000
 -0.045830  0.038299  0.007216     48.000000
 -0.029165  0.032407  0.007216     48.000000
 -0.012499  0.026515  0.007216     48.000000
  0.037497  0.026515  0.007216     24.000000
  0.054163  0.020622  0.007216     48.000000
  0.070828  0.014730  0.007216     48.000000
  0.087494  0.008838  0.007216     48.000000
  0.104159  0.002946  0.007216     48.000000
  0.120825 -0.002946  0.007216     48.000000
  0.137490 -0.008838  0.007216     48.000000
 -0.145823  0.091328  0.007216     48.000000
 -0.129157  0.085436  0.007216     48.000000
 -0.112492  0.079544  0.007216     48.000000
 -0.095826  0.073652  0.007216     48.000000
 -0.079161  0.067760  0.007216     48.000000
 -0.062496  0.061867  0.007216     48.000000
 -0.045830  0.055975  0.007216     48.000000
 -0.029165  0.050083  0.007216     48.000000
 -0.012499  0.044191  0.007216     48.000000
  0.054163  0.038299  0.007216     24.000000
  0.070828  0.032407  0.007216     48.000000
  0.087494  0.026515  0.007216     48.000000
  0.104159  0.020622  0.007216     48.000000
  0.120825  0.014730  0.007216     48.000000
  0.137490  0.008838  0.007216     48.000000
 -0.145823  0.109004  0.007216     48.000000
 -0.129157  0.103112  0.007216     48.000000
 -0.112492  0.097220  0.007216     48.000000
 -0.095826  0.091328  0.007216     48.000000
 -0.079161  0.085436  0.007216     48.000000
 -0.062496  0.079544  0.007216     48.000000
 -0.045830  0.073652  0.007216     48.000000
 -0.029165  0.067760  0.007216     48.000000
 -0.012499  0.061867  0.007216     48.000000
  0.070828  0.050083  0.007216     24.000000
  0.087494  0.044191  0.007216     48.000000
  0.104159  0.038299  0.007216     48.000000
  0.120825  0.032407  0.007216     48.000000
  0.137490  0.026515  0.007216     48.000000
 -0.145823  0.126681  0.007216     48.000000
 -0.129157  0.120789  0.007216     48.000000
 -0.112492  0.114897  0.007216     48.000000
 -0.095826  0.109004  0.007216     48.000000
 -0.079161  0.103112  0.007216     48.000000
 -0.062496  0.097220  0.007216     48.000000
 -0.045830  0.091328  0.007216     48.000000
 -0.029165  0.085436  0.007216     48.000000
 -0.012499  0.079544  0.007216     48.000000
  0.087494  0.061867  0.007216     24.000000
  0.104159  0.055975  0.007216     48.000000
  0.120825  0.050083  0.007216     48.000000
  0.137490  0.044191  0.007216     48.000000
 -0.145823  0.144357  0.007216     48.000000
 -0.129157  0.138465  0.007216     48.000000
 -0.112492  0.132573  0.007216     48.000000
 -0.095826  0.126681  0.007216     48.000000
 -0.079161  0.120789  0.007216     48.000000
 -0.062496  0.114897  0.007216     48.000000
 -0.045830  0.109004  0.007216     48.000000
 -0.029165  0.103112  0.007216     48.000000
 -0.012499  0.097220  0.007216     48.000000
  0.104159  0.073652  0.007216     24.000000
  0.120825  0.067760  0.007216     48.000000
  0.137490  0.061867  0.007216     48.000000
 -0.145823  0.162034  0.007216     48.000000
 -0.129157  0.156141  0.007216     48.000000
 -0.112492  0.150249  0.007216     48.000000
 -0.095826  0.144357  0.007216     48.000000
 -0.079161  0.138465  0.007216     48.000000
 -0.062496  0.132573  0.007216     48.000000
 -0.045830  0.126681  0.007216     48.000000
 -0.029165  0.120789  0.007216     48.000000
 -0.012499  0.114897  0.007216     48.000000
  0.120825  0.085436  0.007216     24.000000
  0.137490  0.079544  0.007216     48.000000
 -0.145823  0.179710  0.007216     48.000000
 -0.129157  0.173818  0.007216     48.000000
 -0.112492  0.167926  0.007216     48.000000
 -0.095826  0.162034  0.007216     48.000000
 -0.079161  0.156141  0.007216     48.000000
 -0.062496  0.150249  0.007216     48.000000
 -0.045830  0.144357  0.007216     48.000000
 -0.029165  0.138465  0.007216     48.000000
 -0.012499  0.132573  0.007216     48.000000
  0.137490  0.097220  0.007216     24.000000
 -0.145823  0.197386  0.007216     48.000000
 -0.129157  0.191494  0.007216     48.000000
 -0.112492  0.185602  0.007216     48.000000
 -0.095826  0.179710  0.007216     48.000000
 -0.079161  0.173818  0.007216     48.000000
 -0.062496  0.167926  0.007216     48.000000
 -0.045830  0.162034  0.007216     48.000000
 -0.029165  0.156141  0.007216     48.000000
 -0.012499  0.150249  0.007216     48.000000
 -0.145823 -0.103112  0.007216     24.000000
 -0.129157 -0.109004  0.007216     48.000000
 -0.112492 -0.114897  0.007216     48.000000
 -0.095826 -0.120789  0.007216     48.000000
 -0.079161 -0.126681  0.007216     48.000000
 -0.062496 -0.132573  0.007216     48.000000
 -0.045830 -0.138465  0.007216     48.000000
 -0.029165 -0.144357  0.007216     48.000000
 -0.129157 -0.091328  0.007216     24.000000
 -0.112492 -0.097220  0.007216     48.000000
 -0.095826 -0.103112  0.007216     48.000000
 -0.079161 -0.109004  0.007216     48.000000
 -0.062496 -0.114897  0.007216     48.000000
 -0.045830 -0.120789  0.007216     48.000000
 -0.029165 -0.126681  0.007216     48.000000
 -0.112492 -0.079544  0.007216     24.000000
 -0.095826 -0.085436  0.007216     48.000000
 -0.079161 -0.091328  0.007216     48.000000
 -0.062496 -0.097220  0.007216     48.000000
 -0.045830 -0.103112  0.007216     48.000000
 -0.029165 -0.109004  0.007216     48.000000
 -0.095826 -0.067760  0.007216     24.000000
 -0.079161 -0.073652  0.007216     48.000000
 -0.062496 -0.079544  0.007216     48.000000
 -0.045830 -0.085436  0.007216     48.000000
 -0.029165 -0.091328  0.007216     48.000000
 -0.079161 -0.055975  0.007216     24.000000
 -0.062496 -0.061867  0.007216     48.000000
 -0.045830 -0.067760  0.007216     48.000000
 -0.029165 -0.073652  0.007216     48.000000
 -0.062496 -0.044191  0.007216     24.000000
 -0.045830 -0.050083  0.007216     48.000000
 -0.029165 -0.055975  0.007216     48.000000
 -0.045830 -0.032407  0.007216     24.000000
 -0.029165 -0.038299  0.007216     48.000000
 -0.029165 -0.020622  0.007216     24.000000
  0.012499  0.008838  0.021649      8.000000
  0.029165  0.002946  0.021649     24.000000
  0.045830 -0.002946  0.021649     24.000000
  0.062496 -0.008838  0.021649     24.000000
  0.079161 -0.014730  0.021649     24.000000
  0.095826 -0.020622  0.021649     24.000000
  0.112492 -0.026515  0.021649     24.000000
  0.129157 -0.032407  0.021649     24.000000
 -0.154156  0.067760  0.021649     24.000000
 -0.137490  0.061867  0.021649     24.000000
 -0.120825  0.055975  0.021649     24.000000
 -0.104159  0.050083  0.021649     24.000000
 -0.087494  0.044191  0.021649     24.000000
 -0.070828  0.038299  0.021649     24.000000
 -0.054163  0.032407  0.021649     24.000000
 -0.037497  0.026515  0.021649     24.000000
  0.029165  0.020622  0.021649     24.000000
  0.045830  0.014730  0.021649     48.000000
  0.062496  0.008838  0.021649     48.000000
  0.079161  0.002946  0.021649     48.000000
  0.095826 -0.002946  0.021649     48.000000
  0.112492 -0.008838  0.021649     48.000000
  0.129157 -0.014730  0.021649     48.000000
 -0.154156  0.085436  0.021649     48.000000
 -0.137490  0.079544  0.021649     48.000000
 -0.120825  0.073652  0.021649     48.000000
 -0.104159  0.067760  0.021649     48.000000
 -0.087494  0.061867  0.021649     48.000000
 -0.070828  0.055975  0.021649     48.000000
 -0.054163  0.050083  0.021649     48.000000
 -0.037497  0.044191  0.021649     48.000000
  0.045830  0.032407  0.021649     24.000000
  0.062496  0.026515  0.021649     48.000000
  0.079161  0.020622  0.021649     48.000000
  0.095826  0.014730  0.021649     48.000000
  0.112492  0.008838  0.021649     48.000000
  0.129157  0.002946  0.021649     48.000000
 -0.154156  0.103112  0.021649     48.000000
 -0.137490  0.097220  0.021649     48.000000
 -0.120825  0.091328  0.021649     48.000000
 -0.104159  0.085436  0.021649     48.000000
 -0.087494  0.079544  0.021649     48.000000
 -0.070828  0.073652  0.021649     48.000000
 -0.054163  0.067760  0.021649     48.000000
 -0.037497  0.061867  0.021649     48.000000
  0.062496  0.044191  0.021649     24.000000
  0.079161  0.038299  0.021649     48.000000
  0.095826  0.032407  0.021649     48.000000
  0.112492  0.026515  0.021649     48.000000
  0.129157  0.020622  0.021649     48.000000
 -0.154156  0.120789  0.021649     48.000000
 -0.137490  0.114897  0.021649     48.000000
 -0.120825  0.109004  0.021649     48.000000
 -0.104159  0.103112  0.021649     48.000000
 -0.087494  0.097220  0.021649     48.000000
 -0.070828  0.091328  0.021649     48.000000
 -0.054163  0.085436  0.021649     48.000000
 -0.037497  0.079544  0.021649     48.000000
  0.079161  0.055975  0.021649     24.000000
  0.095826  0.050083  0.021649     48.000000
  0.112492  0.044191  0.021649     48.000000
  0.129157  0.038299  0.021649     48.000000
 -0.154156  0.138465  0.021649     48.000000
 -0.137490  0.132573  0.021649     48.000000
 -0.120825  0.126681  0.021649     48.000000
 -0.104159  0.120789  0.021649     48.000000
 -0.087494  0.114897  0.021649     48.000000
 -0.070828  0.109004  0.021649     48.000000
 -0.054163  0.103112  0.021649     48.000000
 -0.037497  0.097220  0.021649     48.000000
  0.095826  0.067760  0.021649     24.000000
  0.112492  0.061867  0.021649     48.000000
  0.129157  0.055975  0.021649     48.000000
 -0.154156  0.156141  0.021649     48.000000
 -0.137490  0.150249  0.021649     48.000000
 -0.120825  0.144357  0.021649     48.000000
 -0.104159  0.138465  0.021649     48.000000
 -0.087494  0.132573  0.021649     48.000000
 -0.070828  0.126681  0.021649     48.000000
 -0.054163  0.120789  0.021649     48.000000
 -0.037497  0.114897  0.021649     48.000000
  0.112492  0.079544  0.021649     24.000000
  0.129157  0.073652  0.021649     48.000000
 -0.154156  0.173818  0.021649     48.000000
 -0.137490  0.167926  0.021649     48.000000
 -0.120825  0.162034  0.021649     48.000000
 -0.104159  0.156141  0.021649     48.000000
 -0.087494  0.150249  0.021649     48.000000
 -0.070828  0.144357  0.021649     48.000000
 -0.054163  0.138465  0.021649     48.000000
 -0.037497  0.132573  0.021649     48.000000
  0.129157  0.091328  0.021649     24.000000
 -0.154156  0.191494  0.021649     48.000000
 -0.137490  0.185602  0.021649     48.000000
 -0.120825  0.179710  0.021649     48.000000
 -0.104159  0.173818  0.021649     48.000000
 -0.087494  0.167926  0.021649     48.000000
 -0.070828  0.162034  0.021649     48.000000
 -0.054163  0.156141  0.021649     48.000000
 -0.037497  0.150249  0.021649     48.000000
 -0.154156 -0.109004  0.021649     24.000000
 -0.137490 -0.114897  0.021649     48.000000
 -0.120825 -0.120789  0.021649     48.000000
 -0.104159 -0.126681  0.021649     48.000000
 -0.087494 -0.132573  0.021649     48.000000
 -0.070828 -0.138465  0.021649     48.000000
 -0.054163 -0.144357  0.021649     48.000000
 -0.137490 -0.097220  0.021649     24.000000
 -0.120825 -0.103112  0.021649     48.000000
 -0.104159 -0.109004  0.021649     48.000000
 -0.087494 -0.114897  0.021649     48.000000
 -0.070828 -0.120789  0.021649     48.000000
 -0.054163 -0.126681  0.021649     48.000000
 -0.120825 -0.085436  0.021649     24.000000
 -0.104159 -0.091328  0.021649     48.000000
 -0.087494 -0.097220  0.021649     48.000000
 -0.070828 -0.103112  0.021649     48.000000
 -0.054163 -0.109004  0.021649     48.000000
 -0.104159 -0.073652  0.021649     24.000000
 -0.087494 -0.079544  0.021649     48.000000
 -0.070828 -0.085436  0.021649     48.000000
 -0.054163 -0.091328  0.021649     48.000000
 -0.087494 -0.061867  0.021649     24.000000
 -0.070828 -0.067760  0.021649     48.000000
 -0.054163 -0.073652  0.021649     48.000000
 -0.070828 -0.050083  0.021649     24.000000
 -0.054163 -0.055975  0.021649     48.000000
 -0.054163 -0.038299  0.021649     24.000000
  0.020832  0.014730  0.036082      8.000000
  0.037497  0.008838  0.036082     24.000000
  0.054163  0.002946  0.036082     24.000000
  0.070828 -0.002946  0.036082     24.000000
  0.087494 -0.008838  0.036082     24.000000
  0.104159 -0.014730  0.036082     24.000000
  0.120825 -0.020622  0.036082     24.000000
 -0.162488  0.079544  0.036082     24.000000
 -0.145823  0.073652  0.036082     24.000000
 -0.129157  0.067760  0.036082     24.000000
 -0.112492  0.061867  0.036082     24.000000
 -0.095826  0.055975  0.036082     24.000000
 -0.079161  0.050083  0.036082     24.000000
 -0.062496  0.044191  0.036082     24.000000
  0.037497  0.026515  0.036082     24.000000
  0.054163  0.020622  0.036082     48.000000
  0.070828  0.014730  0.036082     48.000000
  0.087494  0.008838  0.036082     48.000000
  0.104159  0.002946  0.036082     48.000000
  0.120825 -0.002946  0.036082     48.000000
 -0.162488  0.097220  0.036082     48.000000
 -0.145823  0.091328  0.036082     48.000000
 -0.129157  0.085436  0.036082     48.000000
 -0.112492  0.079544  0.036082     48.000000
 -0.095826  0.073652  0.036082     48.000000
 -0.079161  0.067760  0.036082     48.000000
 -0.062496  0.061867  0.036082     48.000000
  0.054163  0.038299  0.036082     24.000000
  0.070828  0.032407  0.036082     48.000000
  0.087494  0.026515  0.036082     48.000000
  0.104159  0.020622  0.036082     48.000000
  0.120825  0.014730  0.036082     48.000000
 -0.162488  0.114897  0.036082     48.000000
 -0.145823  0.109004  0.036082     48.000000
 -0.129157  0.103112  0.036082     48.000000
 -0.112492  0.097220  0.036082     48.000000
 -0.095826  0.091328  0.036082     48.000000
 -0.079161  0.085436  0.036082     48.000000
 -0.062496  0.079544  0.036082     48.000000
  0.070828  0.050083  0.036082     24.000000
  0.087494  0.044191  0.036082     48.000000
  0.104159  0.038299  0.036082     48.000000
  0.120825  0.032407  0.036082     48.000000
 -0.162488  0.132573  0.036082     48.000000
 -0.145823  0.126681  0.036082     48.000000
 -0.129157  0.120789  0.036082     48.000000
 -0.112492  0.114897  0.036082     48.000000
 -0.095826  0.109004  0.036082     48.000000
 -0.079161  0.103112  0.036082     48.000000
 -0.062496  0.097220  0.036082     48.000000
  0.087494  0.061867  0.036082     24.000000
  0.104159  0.055975  0.036082     48.000000
  0.120825  0.050083  0.036082     48.000000
 -0.162488  0.150249  0.036082     48.000000
 -0.145823  0.144357  0.036082     48.000000
 -0.129157  0.138465  0.036082     48.000000
 -0.112492  0.132573  0.036082     48.000000
 -0.095826  0.126681  0.036082     48.000000
 -0.079161  0.120789  0.036082     48.000000
 -0.062496  0.114897  0.036082     48.000000
  0.104159  0.073652  0.036082     24.000000
  0.120825  0.067760  0.036082     48.000000
 -0.162488  0.167926  0.036082     48.000000
 -0.145823  0.162034  0.036082     48.000000
 -0.129157  0.156141  0.036082     48.000000
 -0.112492  0.150249  0.036082     48.000000
 -0.095826  0.144357  0.036082     48.000000
 -0.079161  0.138465  0.036082     48.000000
 -0.062496  0.132573  0.036082     48.000000
  0.120825  0.085436  0.036082     24.000000
 -0.162488  0.185602  0.036082     48.000000
 -0.145823  0.179710  0.036082     48.000000
 -0.129157  0.173818  0.036082     48.000000
 -0.112492  0.167926  0.036082     48.000000
 -0.095826  0.162034  0.036082     48.000000
 -0.079161  0.156141  0.036082     48.000000
 -0.062496  0.150249  0.036082     48.000000
 -0.162488 -0.114897  0.036082     24.000000
 -0.145823 -0.120789  0.036082     48.000000
 -0.129157 -0.126681  0.036082     48.000000
 -0.112492 -0.132573  0.036082     48.000000
 -0.095826 -0.138465  0.036082     48.000000
 -0.079161 -0.144357  0.036082     48.000000
 -0.145823 -0.103112  0.036082     24.000000
 -0.129157 -0.109004  0.036082     48.000000
 -0.112492 -0.114897  0.036082     48.000000
 -0.095826 -0.120789  0.036082     48.000000
 -0.079161 -0.126681  0.036082     48.000000
 -0.129157 -0.091328  0.036082     24.000000
 -0.112492 -0.097220  0.036082     48.000000
 -0.095826 -0.103112  0.036082     48.000000
 -0.079161 -0.109004  0.036082     48.000000
 -0.112492 -0.079544  0.036082     24.000000
 -0.095826 -0.085436  0.036082     48.000000
 -0.079161 -0.091328  0.036082     48.000000
 -0.095826 -0.067760  0.036082     24.000000
 -0.079161 -0.073652  0.036082     48.000000
 -0.079161 -0.055975  0.036082     24.000000
  0.029165  0.020622  0.050515      8.000000
  0.045830  0.014730  0.050515     24.000000
  0.062496  0.008838  0.050515     24.000000
  0.079161  0.002946  0.050515     24.000000
  0.095826 -0.002946  0.050515     24.000000
  0.112492 -0.008838  0.050515     24.000000
 -0.170821  0.091328  0.050515     24.000000
 -0.154156  0.085436  0.050515     24.000000
 -0.137490  0.079544  0.050515     24.000000
 -0.120825  0.073652  0.050515     24.000000
 -0.104159  0.067760  0.050515     24.000000
 -0.087494  0.061867  0.050515     24.000000
  0.045830  0.032407  0.050515     24.000000
  0.062496  0.026515  0.050515     48.000000
  0.079161  0.020622  0.050515     48.000000
  0.095826  0.014730  0.050515     48.000000
  0.112492  0.008838  0.050515     48.000000
 -0.170821  0.109004  0.050515     48.000000
 -0.154156  0.103112  0.050515     48.000000
 -0.137490  0.097220  0.050515     48.000000
 -0.120825  0.091328  0.050515     48.000000
 -0.104159  0.085436  0.050515     48.000000
 -0.087494  0.079544  0.050515     48.000000
  0.062496  0.044191  0.050515     24.000000
  0.079161  0.038299  0.050515     48.000000
  0.095826  0.032407  0.050515     48.000000
  0.112492  0.026515  0.050515     48.000000
 -0.170821  0.126681  0.050515     48.000000
 -0.154156  0.120789  0.050515     48.000000
 -0.137490  0.114897  0.050515     48.000000
 -0.120825  0.109004  0.050515     48.000000
 -0.104159  0.103112  0.050515     48.000000
 -0.087494  0.097220  0.050515     48.000000
  0.079161  0.055975  0.050515     24.000000
  0.095826  0.050083  0.050515     48.000000
  0.112492  0.044191  0.050515     48.000000
 -0.170821  0.144357  0.050515     48.000000
 -0.154156  0.138465  0.050515     48.000000
 -0.137490  0.132573  0.050515     48.000000
 -0.120825  0.126681  0.050515     48.000000
 -0.104159  0.120789  0.050515     48.000000
 -0.087494  0.114897  0.050515     48.000000
  0.095826  0.067760  0.050515     24.000000
  0.112492  0.061867  0.050515     48.000000
 -0.170821  0.162034  0.050515     48.000000
 -0.154156  0.156141  0.050515     48.000000
 -0.137490  0.150249  0.050515     48.000000
 -0.120825  0.144357  0.050515     48.000000
 -0.104159  0.138465  0.050515     48.000000
 -0.087494  0.132573  0.050515     48.000000
  0.112492  0.079544  0.050515     24.000000
 -0.170821  0.179710  0.050515     48.000000
 -0.154156  0.173818  0.050515     48.000000
 -0.137490  0.167926  0.050515     48.000000
 -0.120825  0.162034  0.050515     48.000000
 -0.104159  0.156141  0.050515     48.000000
 -0.087494  0.150249  0.050515     48.000000
 -0.170821 -0.120789  0.050515     24.000000
 -0.154156 -0.126681  0.050515     48.000000
 -0.137490 -0.132573  0.050515     48.000000
 -0.120825 -0.138465  0.050515     48.000000
 -0.104159 -0.144357  0.050515     48.000000
 -0.154156 -0.109004  0.050515     24.000000
 -0.137490 -0.114897  0.050515     48.000000
 -0.120825 -0.120789  0.050515     48.000000
 -0.104159 -0.126681  0.050515     48.000000
 -0.137490 -0.097220  0.050515     24.000000
 -0.120825 -0.103112  0.050515     48.000000
 -0.104159 -0.109004  0.050515     48.000000
 -0.120825 -0.085436  0.050515     24.000000
 -0.104159 -0.091328  0.050515     48.000000
 -0.104159 -0.073652  0.050515     24.000000
  0.037497  0.026515  0.064947      8.000000
  0.054163  0.020622  0.064947     24.000000
  0.070828  0.014730  0.064947     24.000000
  0.087494  0.008838  0.064947     24.000000
  0.104159  0.002946  0.064947     24.000000
 -0.179154  0.103112  0.064947     24.000000
 -0.162488  0.097220  0.064947     24.000000
 -0.145823  0.091328  0.064947     24.000000
 -0.129157  0.085436  0.064947     24.000000
 -0.112492  0.079544  0.064947     24.000000
  0.054163  0.038299  0.064947     24.000000
  0.070828  0.032407  0.064947     48.000000
  0.087494  0.026515  0.064947     48.000000
  0.104159  0.020622  0.064947     48.000000
 -0.179154  0.120789  0.064947     48.000000
 -0.162488  0.114897  0.064947     48.000000
 -0.145823  0.109004  0.064947     48.000000
 -0.129157  0.103112  0.064947     48.000000
 -0.112492  0.097220  0.064947     48.000000
  0.070828  0.050083  0.064947     24.000000
  0.087494  0.044191  0.064947     48.000000
  0.104159  0.038299  0.064947     48.000000
 -0.179154  0.138465  0.064947     48.000000
 -0.162488  0.132573  0.064947     48.000000
 -0.145823  0.126681  0.064947     48.000000
 -0.129157  0.120789  0.064947     48.000000
 -0.112492  0.114897  0.064947     48.000000
  0.087494  0.061867  0.064947     24.000000
  0.104159  0.055975  0.064947     48.000000
 -0.179154  0.156141  0.064947     48.000000
 -0.162488  0.150249  0.064947     48.000000
 -0.145823  0.144357  0.064947     48.000000
 -0.129157  0.138465  0.064947     48.000000
 -0.112492  0.132573  0.064947     48.000000
  0.104159  0.073652  0.064947     24.000000
 -0.179154  0.173818  0.064947     48.000000
 -0.162488  0.167926  0.064947     48.000000
 -0.145823  0.162034  0.064947     48.000000
 -0.129157  0.156141  0.064947     48.000000
 -0.112492  0.150249  0.064947     48.000000
 -0.179154 -0.126681  0.064947     24.000000
 -0.162488 -0.132573  0.064947     48.000000
 -0.145823 -0.138465  0.064947     48.000000
 -0.129157 -0.144357  0.064947     48.000000
 -0.162488 -0.114897  0.064947     24.000000
 -0.145823 -0.120789  0.064947     48.000000
 -0.129157 -0.126681  0.064947     48.000000
 -0.145823 -0.103112  0.064947     24.000000
 -0.129157 -0.109004  0.064947     48.000000
 -0.129157 -0.091328  0.064947     24.000000
  0.045830  0.032407  0.079380      8.000000
  0.062496  0.026515  0.079380     24.000000
  0.079161  0.020622  0.079380     24.000000
  0.095826  0.014730  0.079380     24.000000
 -0.187487  0.114897  0.079380     24.000000
 -0.170821  0.109004  0.079380     24.000000
 -0.154156  0.103112  0.079380     24.000000
 -0.137490  0.097220  0.079380     24.000000
  0.062496  0.044191  0.079380     24.000000
  0.079161  0.038299  0.079380     48.000000
  0.095826  0.032407  0.079380     48.000000
 -0.187487  0.132573  0.079380     48.000000
 -0.170821  0.126681  0.079380     48.000000
 -0.154156  0.120789  0.079380     48.000000
 -0.137490  0.114897  0.079380     48.000000
  0.079161  0.055975  0.079380     24.000000
  0.095826  0.050083  0.079380     48.000000
 -0.187487  0.150249  0.079380     48.000000
 -0.170821  0.144357  0.079380     48.000000
 -0.154156  0.138465  0.079380     48.000000
 -0.137490  0.132573  0.079380     48.000000
  0.095826  0.067760  0.079380     24.000000
 -0.187487  0.167926  0.079380     48.000000
 -0.170821  0.162034  0.079380     48.000000
 -0.154156  0.156141  0.079380     48.000000
 -0.137490  0.150249  0.079380     48.000000
 -0.187487 -0.132573  0.079380     24.000000
 -0.170821 -0.138465  0.079380     48.000000
 -0.154156 -0.144357  0.079380     48.000000
 -0.170821 -0.120789  0.079380     24.000000
 -0.154156 -0.126681  0.079380     48.000000
 -0.154156 -0.109004  0.079380     24.000000
  0.054163  0.038299  0.093813      8.000000
  0.070828  0.032407  0.093813     24.000000
  0.087494  0.026515  0.093813     24.000000
 -0.195819  0.126681  0.093813     24.000000
 -0.179154  0.120789  0.093813     24.000000
 -0.162488  0.114897  0.093813     24.000000
  0.070828  0.050083  0.093813     24.000000
  0.087494  0.044191  0.093813     48.000000
 -0.195819  0.144357  0.093813     48.000000
 -0.179154  0.138465  0.093813     48.000000
 -0.162488  0.132573  0.093813     48.000000
  0.087494  0.061867  0.093813     24.000000
 -0.195819  0.162034  0.093813     48.000000
 -0.179154  0.156141  0.093813     48.000000
 -0.162488  0.150249  0.093813     48.000000
 -0.195819 -0.138465  0.093813     24.000000
 -0.179154 -0.144357  0.093813     48.000000
 -0.179154 -0.126681  0.093813     24.000000
  0.062496  0.044191  0.108245      8.000000
  0.079161  0.038299  0.108245     24.000000
 -0.204152  0.138465  0.108245     24.000000
 -0.187487  0.132573  0.108245     24.000000
  0.079161  0.055975  0.108245     24.000000
 -0.204152  0.156141  0.108245     48.000000
 -0.187487  0.150249  0.108245     48.000000
 -0.204152 -0.144357  0.108245     24.000000
  0.070828  0.050083  0.122678      8.000000
 -0.212485  0.150249  0.122678     24.000000
 


--------------------------------------------------------------------------------------------------------




 Dimension of arrays:
   k-points           NKPTS =    570   k-points in BZ     NKDIM =    570   number of bands    NBANDS=      8
   number of dos      NEDOS =    301   number of ions     NIONS =      2
   non local maximal  LDIM  =      4   non local SUM 2l+1 LMDIM =      8
   total plane-waves  NPLWV =  13824
   max r-space proj   IRMAX =      1   max aug-charges    IRDMAX=  91874
   dimension x,y,z NGX =    24 NGY =   24 NGZ =   24
   dimension x,y,z NGXF=    48 NGYF=   48 NGZF=   48
   support grid    NGXF=    96 NGYF=   96 NGZF=   96
   ions per type =               2
   NGX,Y,Z   is equivalent  to a cutoff of  10.37, 10.37, 10.37 a.u.
   NGXF,Y,Z  is equivalent  to a cutoff of  20.73, 20.73, 20.73 a.u.

 SYSTEM =  unknown system                          
 POSCAR =  Si2                                     

 Startparameter for this run:
   NWRITE =      2    write-flag & timer
   PREC   = accura    normal or accurate (medium, high low for compatibility)
   ISTART =      0    job   : 0-new  1-cont  2-samecut
   ICHARG =      2    charge: 1-file 2-atom 10-const
   ISPIN  =      1    spin polarized calculation?
   LNONCOLLINEAR =      F non collinear calculations
   LSORBIT =      F    spin-orbit coupling
   INIWAV =      1    electr: 0-lowe 1-rand  2-diag
   LASPH  =      T    aspherical Exc in radial PAW
   METAGGA=      F    non-selfconsistent MetaGGA calc.

 Electronic Relaxation 1
   ENCUT  =  350.0 eV  25.72 Ry    5.07 a.u.   5.87  5.87  5.87*2*pi/ulx,y,z
   ENINI  =  350.0     initial cutoff
   ENAUG  =  322.1 eV  augmentation charge cutoff
   NELM   =     90;   NELMIN=  6; NELMDL= -5     # of ELM steps 
   EDIFF  = 0.1E-05   stopping-criterion for ELM
   LREAL  =      F    real-space projection
   NLSPLINE    = F    spline interpolate recip. space projectors
   LCOMPAT=      F    compatible to vasp.4.4
   GGA_COMPAT  = T    GGA compatible to vasp.4.4-vasp.4.6
   LMAXPAW     = -100 max onsite density
   LMAXMIX     =    2 max onsite mixed and CHGCAR
   VOSKOWN=      0    Vosko Wilk Nusair interpolation
   ROPT   =    0.00000
 Ionic relaxation
   EDIFFG = -.2E-02   stopping-criterion for IOM
   NSW    =    100    number of steps for IOM
   NBLOCK =      1;   KBLOCK =    100    inner block; outer block 
   IBRION =      2    ionic relax: 0-MD 1-quasi-New 2-CG
   NFREE  =      1    steps in history (QN), initial steepest desc. (CG)
   ISIF   =      3    stress and relaxation
   IWAVPR =     11    prediction:  0-non 1-charg 2-wave 3-comb
   ISYM   =      2    0-nonsym 1-usesym 2-fastsym
   LCORR  =      T    Harris-Foulkes like correction to forces

   POTIM  = 0.5000    time-step for ionic-motion
   TEIN   =    0.0    initial temperature
   TEBEG  =    0.0;   TEEND  =   0.0 temperature during run
   SMASS  =  -3.00    Nose mass-parameter (am)
   estimated Nose-frequenzy (Omega)   =  0.10E-29 period in steps = 0.13E+47 mass=  -0.339E-27a.u.
   SCALEE = 1.0000    scale energy and forces
   NPACO  =    256;   APACO  = 16.0  distance and # of slots for P.C.
   PSTRESS=    0.0 pullay stress

  Mass of Ions in am
   POMASS =  28.09
  Ionic Valenz
   ZVAL   =   4.00
  Atomic Wigner-Seitz radii
   RWIGS  =  -1.00
  virtual crystal weights 
   VCA    =   1.00
   NELECT =       8.0000    total number of electrons
   NUPDOWN=      -1.0000    fix difference up-down

 DOS related values:
   EMIN   =  10.00;   EMAX   =-10.00  energy-range for DOS
   EFERMI =   0.00
   ISMEAR =     0;   SIGMA  =   0.05  broadening in eV -4-tet -1-fermi 0-gaus

 Electronic relaxation 2 (details)
   IALGO  =     38    algorithm
   LDIAG  =      T    sub-space diagonalisation (order eigenvalues)
   LSUBROT=      F    optimize rotation matrix (better conditioning)
   TURBO    =      0    0=normal 1=particle mesh
   IRESTART =      0    0=no restart 2=restart with 2 vectors
   NREBOOT  =      0    no. of reboots
   NMIN     =      0    reboot dimension
   EREF     =   0.00    reference energy to select bands
   IMIX   =      4    mixing-type and parameters
     AMIX     =   0.40;   BMIX     =  1.00
     AMIX_MAG =   1.60;   BMIX_MAG =  1.00
     AMIN     =   0.10
     WC   =   100.;   INIMIX=   1;  MIXPRE=   1;  MAXMIX= -45

 Intra band minimization:
   WEIMIN = 0.0010     energy-eigenvalue tresh-hold
   EBREAK =  0.31E-07  absolut break condition
   DEPER  =   0.30     relativ break condition  

   TIME   =   0.40     timestep for ELM

  volume/ion in A,a.u.               =      20.16       136.08
  Fermi-wavevector in a.u.,A,eV,Ry     =   0.954766  1.804247 12.402783  0.911579
  Thomas-Fermi vector in A             =   2.083543
 
 Write flags
   LWAVE        =      F    write WAVECAR
   LDOWNSAMPLE  =      F    k-point downsampling of WAVECAR
   LCHARG       =      F    write CHGCAR
   LVTOT        =      F    write LOCPOT, total local potential
   LVHAR        =      F    write LOCPOT, Hartree potential only
   LELF         =      F    write electronic localiz. function (ELF)
   LORBIT       =      0    0 simple, 1 ext, 2 COOP (PROOUT), +10 PAW based schemes


 Dipole corrections
   LMONO  =      F    monopole corrections only (constant potential shift)
   LDIPOL =      F    correct potential (dipole corrections)
   IDIPOL =      0    1-x, 2-y, 3-z, 4-all directions 
   EPSILON=  1.0000000 bulk dielectric constant

 Exchange correlation treatment:
   GGA     =    --    GGA type
   LEXCH   =     8    internal setting for exchange type
   VOSKOWN=      0    Vosko Wilk Nusair interpolation
   LHFCALC =     F    Hartree Fock is set to
   LHFONE  =     F    Hartree Fock one center treatment
   AEXX    =    0.0000 exact exchange contribution

 Linear response parameters
   LEPSILON=     F    determine dielectric tensor
   LRPA    =     F    only Hartree local field effects (RPA)
   LNABLA  =     F    use nabla operator in PAW spheres
   LVEL    =     F    velocity operator in full k-point grid
   LINTERFAST=   F  fast interpolation
   KINTER  =     0    interpolate to denser k-point grid
   CSHIFT  =0.1000    complex shift for real part using Kramers Kronig
   OMEGAMAX=  -1.0    maximum frequency
   DEG_THRESHOLD= 0.2000000E-02 threshold for treating states as degnerate
   RTIME   =   -0.100 relaxation time in fs
  (WPLASMAI=    0.000 imaginary part of plasma frequency in eV, 0.658/RTIME)
   DFIELD  = 0.0000000 0.0000000 0.0000000 field for delta impulse in time
 
 Orbital magnetization related:
   ORBITALMAG=     F  switch on orbital magnetization
   LCHIMAG   =     F  perturbation theory with respect to B field
   DQ        =  0.001000  dq finite difference perturbation B field
   LLRAUG    =     F  two centre corrections for induced B field



--------------------------------------------------------------------------------------------------------


 conjugate gradient relaxation of ions
 charge density and potential will be updated during run
 non-spin polarized calculation
 Variant of blocked Davidson
 Davidson routine will perform the subspace rotation
 perform sub-space diagonalisation
    after iterative eigenvector-optimisation
 modified Broyden-mixing scheme, WC =      100.0
 initial mixing is a Kerker type mixing with AMIX =  0.4000 and BMIX =      1.0000
 Hartree-type preconditioning will be used
 using additional bands            4
 reciprocal scheme for non local part
 use partial core corrections
 calculate Harris-corrections to forces 
   (improved forces if not selfconsistent)
 use gradient corrections 
 use of overlap-Matrix (Vanderbilt PP)
 Gauss-broadening in eV      SIGMA  =   0.05


--------------------------------------------------------------------------------------------------------


  energy-cutoff  :      350.00
  volume of cell :       40.33
      direct lattice vectors                 reciprocal lattice vectors
     3.333573000  0.000000000  1.924639000     0.299978432 -0.106058350  0.000000000
     1.111191000  3.142924000  1.924639000     0.000000000  0.318175050  0.000000000
     0.000000000  0.000000000  3.849278000    -0.149989216 -0.106058350  0.259788979

  length of vectors
     3.849278403  3.849279412  3.849278000     0.318175161  0.318175050  0.318175190


 
 k-points in units of 2pi/SCALE and weight: Automatic                               
   0.00416637  0.00294607  0.00721636       0.000
   0.02083184 -0.00294607  0.00721636       0.001
   0.03749730 -0.00883820  0.00721636       0.001
   0.05416277 -0.01473033  0.00721636       0.001
   0.07082824 -0.02062246  0.00721636       0.001
   0.08749371 -0.02651459  0.00721636       0.001
   0.10415918 -0.03240672  0.00721636       0.001
   0.12082465 -0.03829885  0.00721636       0.001
   0.13749011 -0.04419098  0.00721636       0.001
  -0.14582285  0.05597524  0.00721636       0.001
  -0.12915738  0.05008311  0.00721636       0.001
  -0.11249191  0.04419098  0.00721636       0.001
  -0.09582644  0.03829885  0.00721636       0.001
  -0.07916097  0.03240672  0.00721636       0.001
  -0.06249551  0.02651459  0.00721636       0.001
  -0.04583004  0.02062246  0.00721636       0.001
  -0.02916457  0.01473033  0.00721636       0.001
  -0.01249910  0.00883820  0.00721636       0.001
   0.02083184  0.01473033  0.00721636       0.001
   0.03749730  0.00883820  0.00721636       0.002
   0.05416277  0.00294607  0.00721636       0.002
   0.07082824 -0.00294607  0.00721636       0.002
   0.08749371 -0.00883820  0.00721636       0.002
   0.10415918 -0.01473033  0.00721636       0.002
   0.12082465 -0.02062246  0.00721636       0.002
   0.13749011 -0.02651459  0.00721636       0.002
  -0.14582285  0.07365163  0.00721636       0.002
  -0.12915738  0.06775950  0.00721636       0.002
  -0.11249191  0.06186737  0.00721636       0.002
  -0.09582644  0.05597524  0.00721636       0.002
  -0.07916097  0.05008311  0.00721636       0.002
  -0.06249551  0.04419098  0.00721636       0.002
  -0.04583004  0.03829885  0.00721636       0.002
  -0.02916457  0.03240672  0.00721636       0.002
  -0.01249910  0.02651459  0.00721636       0.002
   0.03749730  0.02651459  0.00721636       0.001
   0.05416277  0.02062246  0.00721636       0.002
   0.07082824  0.01473033  0.00721636       0.002
   0.08749371  0.00883820  0.00721636       0.002
   0.10415918  0.00294607  0.00721636       0.002
   0.12082465 -0.00294607  0.00721636       0.002
   0.13749011 -0.00883820  0.00721636       0.002
  -0.14582285  0.09132802  0.00721636       0.002
  -0.12915738  0.08543589  0.00721636       0.002
  -0.11249191  0.07954376  0.00721636       0.002
  -0.09582644  0.07365163  0.00721636       0.002
  -0.07916097  0.06775950  0.00721636       0.002
  -0.06249551  0.06186737  0.00721636       0.002
  -0.04583004  0.05597524  0.00721636       0.002
  -0.02916457  0.05008311  0.00721636       0.002
  -0.01249910  0.04419098  0.00721636       0.002
   0.05416277  0.03829885  0.00721636       0.001
   0.07082824  0.03240672  0.00721636       0.002
   0.08749371  0.02651459  0.00721636       0.002
   0.10415918  0.02062246  0.00721636       0.002
   0.12082465  0.01473033  0.00721636       0.002
   0.13749011  0.00883820  0.00721636       0.002
  -0.14582285  0.10900442  0.00721636       0.002
  -0.12915738  0.10311228  0.00721636       0.002
  -0.11249191  0.09722015  0.00721636       0.002
  -0.09582644  0.09132802  0.00721636       0.002
  -0.07916097  0.08543589  0.00721636       0.002
  -0.06249551  0.07954376  0.00721636       0.002
  -0.04583004  0.07365163  0.00721636       0.002
  -0.02916457  0.06775950  0.00721636       0.002
  -0.01249910  0.06186737  0.00721636       0.002
   0.07082824  0.05008311  0.00721636       0.001
   0.08749371  0.04419098  0.00721636       0.002
   0.10415918  0.03829885  0.00721636       0.002
   0.12082465  0.03240672  0.00721636       0.002
   0.13749011  0.02651459  0.00721636       0.002
  -0.14582285  0.12668081  0.00721636       0.002
  -0.12915738  0.12078868  0.00721636       0.002
  -0.11249191  0.11489655  0.00721636       0.002
  -0.09582644  0.10900442  0.00721636       0.002
  -0.07916097  0.10311228  0.00721636       0.002
  -0.06249551  0.09722015  0.00721636       0.002
  -0.04583004  0.09132802  0.00721636       0.002
  -0.02916457  0.08543589  0.00721636       0.002
  -0.01249910  0.07954376  0.00721636       0.002
   0.08749371  0.06186737  0.00721636       0.001
   0.10415918  0.05597524  0.00721636       0.002
   0.12082465  0.05008311  0.00721636       0.002
   0.13749011  0.04419098  0.00721636       0.002
  -0.14582285  0.14435720  0.00721636       0.002
  -0.12915738  0.13846507  0.00721636       0.002
  -0.11249191  0.13257294  0.00721636       0.002
  -0.09582644  0.12668081  0.00721636       0.002
  -0.07916097  0.12078868  0.00721636       0.002
  -0.06249551  0.11489655  0.00721636       0.002
  -0.04583004  0.10900442  0.00721636       0.002
  -0.02916457  0.10311228  0.00721636       0.002
  -0.01249910  0.09722015  0.00721636       0.002
   0.10415918  0.07365163  0.00721636       0.001
   0.12082465  0.06775950  0.00721636       0.002
   0.13749011  0.06186737  0.00721636       0.002
  -0.14582285  0.16203359  0.00721636       0.002
  -0.12915738  0.15614146  0.00721636       0.002
  -0.11249191  0.15024933  0.00721636       0.002
  -0.09582644  0.14435720  0.00721636       0.002
  -0.07916097  0.13846507  0.00721636       0.002
  -0.06249551  0.13257294  0.00721636       0.002
  -0.04583004  0.12668081  0.00721636       0.002
  -0.02916457  0.12078868  0.00721636       0.002
  -0.01249910  0.11489655  0.00721636       0.002
   0.12082465  0.08543589  0.00721636       0.001
   0.13749011  0.07954376  0.00721636       0.002
  -0.14582285  0.17970998  0.00721636       0.002
  -0.12915738  0.17381785  0.00721636       0.002
  -0.11249191  0.16792572  0.00721636       0.002
  -0.09582644  0.16203359  0.00721636       0.002
  -0.07916097  0.15614146  0.00721636       0.002
  -0.06249551  0.15024933  0.00721636       0.002
  -0.04583004  0.14435720  0.00721636       0.002
  -0.02916457  0.13846507  0.00721636       0.002
  -0.01249910  0.13257294  0.00721636       0.002
   0.13749011  0.09722015  0.00721636       0.001
  -0.14582285  0.19738637  0.00721636       0.002
  -0.12915738  0.19149424  0.00721636       0.002
  -0.11249191  0.18560211  0.00721636       0.002
  -0.09582644  0.17970998  0.00721636       0.002
  -0.07916097  0.17381785  0.00721636       0.002
  -0.06249551  0.16792572  0.00721636       0.002
  -0.04583004  0.16203359  0.00721636       0.002
  -0.02916457  0.15614146  0.00721636       0.002
  -0.01249910  0.15024933  0.00721636       0.002
  -0.14582285 -0.10311228  0.00721636       0.001
  -0.12915738 -0.10900442  0.00721636       0.002
  -0.11249191 -0.11489655  0.00721636       0.002
  -0.09582644 -0.12078868  0.00721636       0.002
  -0.07916097 -0.12668081  0.00721636       0.002
  -0.06249551 -0.13257294  0.00721636       0.002
  -0.04583004 -0.13846507  0.00721636       0.002
  -0.02916457 -0.14435720  0.00721636       0.002
  -0.12915738 -0.09132802  0.00721636       0.001
  -0.11249191 -0.09722015  0.00721636       0.002
  -0.09582644 -0.10311228  0.00721636       0.002
  -0.07916097 -0.10900442  0.00721636       0.002
  -0.06249551 -0.11489655  0.00721636       0.002
  -0.04583004 -0.12078868  0.00721636       0.002
  -0.02916457 -0.12668081  0.00721636       0.002
  -0.11249191 -0.07954376  0.00721636       0.001
  -0.09582644 -0.08543589  0.00721636       0.002
  -0.07916097 -0.09132802  0.00721636       0.002
  -0.06249551 -0.09722015  0.00721636       0.002
  -0.04583004 -0.10311228  0.00721636       0.002
  -0.02916457 -0.10900442  0.00721636       0.002
  -0.09582644 -0.06775950  0.00721636       0.001
  -0.07916097 -0.07365163  0.00721636       0.002
  -0.06249551 -0.07954376  0.00721636       0.002
  -0.04583004 -0.08543589  0.00721636       0.002
  -0.02916457 -0.09132802  0.00721636       0.002
  -0.07916097 -0.05597524  0.00721636       0.001
  -0.06249551 -0.06186737  0.00721636       0.002
  -0.04583004 -0.06775950  0.00721636       0.002
  -0.02916457 -0.07365163  0.00721636       0.002
  -0.06249551 -0.04419098  0.00721636       0.001
  -0.04583004 -0.05008311  0.00721636       0.002
  -0.02916457 -0.05597524  0.00721636       0.002
  -0.04583004 -0.03240672  0.00721636       0.001
  -0.02916457 -0.03829885  0.00721636       0.002
  -0.02916457 -0.02062246  0.00721636       0.001
   0.01249910  0.00883820  0.02164908       0.000
   0.02916457  0.00294607  0.02164908       0.001
   0.04583004 -0.00294607  0.02164908       0.001
   0.06249551 -0.00883820  0.02164908       0.001
   0.07916097 -0.01473033  0.02164908       0.001
   0.09582644 -0.02062246  0.02164908       0.001
   0.11249191 -0.02651459  0.02164908       0.001
   0.12915738 -0.03240672  0.02164908       0.001
  -0.15415558  0.06775950  0.02164908       0.001
  -0.13749011  0.06186737  0.02164908       0.001
  -0.12082465  0.05597524  0.02164908       0.001
  -0.10415918  0.05008311  0.02164908       0.001
  -0.08749371  0.04419098  0.02164908       0.001
  -0.07082824  0.03829885  0.02164908       0.001
  -0.05416277  0.03240672  0.02164908       0.001
  -0.03749730  0.02651459  0.02164908       0.001
   0.02916457  0.02062246  0.02164908       0.001
   0.04583004  0.01473033  0.02164908       0.002
   0.06249551  0.00883820  0.02164908       0.002
   0.07916097  0.00294607  0.02164908       0.002
   0.09582644 -0.00294607  0.02164908       0.002
   0.11249191 -0.00883820  0.02164908       0.002
   0.12915738 -0.01473033  0.02164908       0.002
  -0.15415558  0.08543589  0.02164908       0.002
  -0.13749011  0.07954376  0.02164908       0.002
  -0.12082465  0.07365163  0.02164908       0.002
  -0.10415918  0.06775950  0.02164908       0.002
  -0.08749371  0.06186737  0.02164908       0.002
  -0.07082824  0.05597524  0.02164908       0.002
  -0.05416277  0.05008311  0.02164908       0.002
  -0.03749730  0.04419098  0.02164908       0.002
   0.04583004  0.03240672  0.02164908       0.001
   0.06249551  0.02651459  0.02164908       0.002
   0.07916097  0.02062246  0.02164908       0.002
   0.09582644  0.01473033  0.02164908       0.002
   0.11249191  0.00883820  0.02164908       0.002
[...]
      8      12.4750      0.00000

 k-point   536 :      -0.3056    0.4722    0.3056
  band No.  band energies     occupation 
      1      -2.6793      2.00000
      2      -1.3380      2.00000
      3       1.5475      2.00000
      4       2.5850      2.00000
      5       8.8561      0.00000
      6       9.9077      0.00000
      7      11.0984      0.00000
      8      11.5322      0.00000

 k-point   537 :      -0.4722   -0.4722    0.3056
  band No.  band energies     occupation 
      1      -3.4655      2.00000
      2      -0.9532      2.00000
      3       2.2280      2.00000
      4       3.6424      2.00000
      5       7.3788      0.00000
      6      10.6177      0.00000
      7      10.9545      0.00000
      8      11.2396      0.00000

 k-point   538 :      -0.4167   -0.4722    0.3056
  band No.  band energies     occupation 
      1      -3.2249      2.00000
      2      -1.0673      2.00000
      3       1.8857      2.00000
      4       3.4327      2.00000
      5       7.5081      0.00000
      6      10.4809      0.00000
      7      11.1568      0.00000
      8      11.9116      0.00000

 k-point   539 :      -0.3611   -0.4722    0.3056
  band No.  band energies     occupation 
      1      -2.9592      2.00000
      2      -1.1814      2.00000
      3       1.6348      2.00000
      4       3.0327      2.00000
      5       8.0557      0.00000
      6      10.1836      0.00000
      7      11.1421      0.00000
      8      12.6629      0.00000

 k-point   540 :      -0.4167   -0.4167    0.3056
  band No.  band energies     occupation 
      1      -3.0601      2.00000
      2      -1.1564      2.00000
      3       1.6243      2.00000
      4       3.5052      2.00000
      5       7.1793      0.00000
      6      10.9245      0.00000
      7      11.6758      0.00000
      8      11.7414      0.00000

 k-point   541 :      -0.3611   -0.4167    0.3056
  band No.  band energies     occupation 
      1      -2.8893      2.00000
      2      -1.2286      2.00000
      3       1.4421      2.00000
      4       3.3085      2.00000
      5       7.3671      0.00000
      6      10.8558      0.00000
      7      11.4758      0.00000
      8      12.7391      0.00000

 k-point   542 :      -0.3611   -0.3611    0.3056
  band No.  band energies     occupation 
      1      -2.8370      2.00000
      2      -1.2523      2.00000
      3       1.3210      2.00000
      4       3.4453      2.00000
      5       7.0893      0.00000
      6      10.8638      0.00000
      7      12.3067      0.00000
      8      12.7273      0.00000

 k-point   543 :       0.3611    0.3611    0.3611
  band No.  band energies     occupation 
      1      -4.6395      2.00000
      2      -0.0584      2.00000
      3       4.5806      2.00000
      4       4.5806      2.00000
      5       7.2508      0.00000
      6       9.0969      0.00000
      7       9.0969      0.00000
      8      13.4693      0.00000

 k-point   544 :       0.4167    0.3611    0.3611
  band No.  band energies     occupation 
      1      -4.4674      2.00000
      2      -0.2958      2.00000
      3       4.1332      2.00000
      4       4.6057      2.00000
      5       7.4836      0.00000
      6       9.0789      0.00000
      7       9.1451      0.00000
      8      13.3476      0.00000

 k-point   545 :       0.4722    0.3611    0.3611
  band No.  band energies     occupation 
      1      -4.2306      2.00000
      2      -0.4833      2.00000
      3       3.3960      2.00000
      4       4.4772      2.00000
      5       7.9091      0.00000
      6       9.1933      0.00000
      7       9.3611      0.00000
      8      13.2935      0.00000

 k-point   546 :      -0.4722    0.3611    0.3611
  band No.  band energies     occupation 
      1      -3.9356      2.00000
      2      -0.6311      2.00000
      3       2.6279      2.00000
      4       4.2429      2.00000
      5       7.9573      0.00000
      6       9.6795      0.00000
      7       9.8951      0.00000
      8      13.2563      0.00000

 k-point   547 :      -0.4167    0.3611    0.3611
  band No.  band energies     occupation 
      1      -3.5921      2.00000
      2      -0.7715      2.00000
      3       1.9588      2.00000
      4       3.9650      2.00000
      5       7.6946      0.00000
      6      10.5408      0.00000
      7      10.6125      0.00000
      8      13.1650      0.00000

 k-point   548 :      -0.3611    0.3611    0.3611
  band No.  band energies     occupation 
      1      -3.2152      2.00000
      2      -0.9648      2.00000
      3       1.4954      2.00000
      4       3.6897      2.00000
      5       7.3768      0.00000
      6      11.4489      0.00000
      7      11.4695      0.00000
      8      12.2455      0.00000

 k-point   549 :       0.4167    0.4167    0.3611
  band No.  band energies     occupation 
      1      -4.3324      2.00000
      2      -0.5299      2.00000
      3       4.3096      2.00000
      4       4.3551      2.00000
      5       7.4570      0.00000
      6       8.9081      0.00000
      7       9.2849      0.00000
      8      13.1562      0.00000

 k-point   550 :       0.4722    0.4167    0.3611
  band No.  band energies     occupation 
      1      -4.1357      2.00000
      2      -0.7086      2.00000
      3       3.7043      2.00000
      4       4.3295      2.00000
      5       7.8023      0.00000
      6       8.8720      0.00000
      7       9.5064      0.00000
      8      13.0169      0.00000

 k-point   551 :      -0.4722    0.4167    0.3611
  band No.  band energies     occupation 
      1      -3.8835      2.00000
      2      -0.8337      2.00000
      3       2.9743      2.00000
      4       4.1441      2.00000
      5       8.1336      0.00000
      6       8.9304      0.00000
      7      10.0524      0.00000
      8      12.9435      0.00000

 k-point   552 :      -0.4167    0.4167    0.3611
  band No.  band energies     occupation 
      1      -3.5842      2.00000
      2      -0.9253      2.00000
      3       2.2826      2.00000
      4       3.8702      2.00000
      5       7.9883      0.00000
      6       9.5148      0.00000
      7      10.8511      0.00000
      8      12.8980      0.00000

 k-point   553 :      -0.3611    0.4167    0.3611
  band No.  band energies     occupation 
      1      -3.2483      2.00000
      2      -1.0324      2.00000
      3       1.7366      2.00000
      4       3.5777      2.00000
      5       7.6735      0.00000
      6      10.3659      0.00000
      7      11.7708      0.00000
      8      12.2418      0.00000

 k-point   554 :       0.4722    0.4722    0.3611
  band No.  band energies     occupation 
      1      -3.9840      2.00000
      2      -0.8773      2.00000
      3       3.6129      2.00000
      4       4.1275      2.00000
      5       7.7758      0.00000
      6       8.9962      0.00000
      7       9.6426      0.00000
      8      12.7891      0.00000

 k-point   555 :      -0.4722    0.4722    0.3611
  band No.  band energies     occupation 
      1      -3.7825      2.00000
      2      -0.9841      2.00000
      3       3.0873      2.00000
      4       3.9821      2.00000
      5       7.9865      0.00000
      6       9.0035      0.00000
      7      10.1284      0.00000
      8      12.6670      0.00000

 k-point   556 :      -0.4167    0.4722    0.3611
  band No.  band energies     occupation 
      1      -3.5394      2.00000
      2      -1.0399      2.00000
      3       2.4929      2.00000
      4       3.7026      2.00000
      5       8.4825      0.00000
      6       8.7664      0.00000
      7      10.9796      0.00000
      8      12.6079      0.00000

 k-point   557 :      -0.3611    0.4722    0.3611
  band No.  band energies     occupation 
      1      -3.2628      2.00000
      2      -1.0817      2.00000
      3       1.9716      2.00000
      4       3.3614      2.00000
      5       8.3712      0.00000
      6       9.3039      0.00000
      7      11.9685      0.00000
      8      12.3187      0.00000

 k-point   558 :      -0.4722   -0.4722    0.3611
  band No.  band energies     occupation 
      1      -3.6403      2.00000
      2      -1.0684      2.00000
      3       2.8052      2.00000
      4       3.9276      2.00000
      5       7.6962      0.00000
      6       9.6630      0.00000
      7      10.1497      0.00000
      8      12.4948      0.00000

 k-point   559 :      -0.4167   -0.4722    0.3611
  band No.  band energies     occupation 
      1      -3.4651      2.00000
      2      -1.0911      2.00000
      3       2.3727      2.00000
      4       3.7324      2.00000
      5       7.8359      0.00000
      6       9.6099      0.00000
      7      10.9186      0.00000
      8      12.4048      0.00000

 k-point   560 :      -0.4167   -0.4167    0.3611
  band No.  band energies     occupation 
      1      -3.3674      2.00000
      2      -1.0793      2.00000
      3       2.0485      2.00000
      4       3.7772      2.00000
      5       7.5061      0.00000
      6      10.5674      0.00000
      7      10.7774      0.00000
      8      12.2937      0.00000

 k-point   561 :       0.4167    0.4167    0.4167
  band No.  band energies     occupation 
      1      -4.2400      2.00000
      2      -0.7562      2.00000
      3       4.4933      2.00000
      4       4.4933      2.00000
      5       7.1503      0.00000
      6       9.0262      0.00000
      7       9.0262      0.00000
      8      13.4043      0.00000

 k-point   562 :       0.4722    0.4167    0.4167
  band No.  band energies     occupation 
      1      -4.0900      2.00000
      2      -0.9205      2.00000
      3       4.1047      2.00000
      4       4.4774      2.00000
      5       7.4033      0.00000
      6       9.0246      0.00000
      7       9.0733      0.00000
      8      13.4827      0.00000

 k-point   563 :      -0.4722    0.4167    0.4167
  band No.  band energies     occupation 
      1      -3.8893      2.00000
      2      -1.0178      2.00000
      3       3.4118      2.00000
      4       4.3144      2.00000
      5       7.8190      0.00000
      6       9.0777      0.00000
      7       9.4200      0.00000
      8      13.7425      0.00000

 k-point   564 :      -0.4167    0.4167    0.4167
  band No.  band energies     occupation 
      1      -3.6459      2.00000
      2      -1.0586      2.00000
      3       2.6819      2.00000
      4       4.0608      2.00000
      5       7.8005      0.00000
      6       9.6479      0.00000
      7      10.0091      0.00000
      8      13.5256      0.00000

 k-point   565 :       0.4722    0.4722    0.4167
  band No.  band energies     occupation 
      1      -3.9932      2.00000
      2      -1.0672      2.00000
      3       4.1956      2.00000
      4       4.3489      2.00000
      5       7.3900      0.00000
      6       8.9014      0.00000
      7       9.1747      0.00000
      8      13.4323      0.00000

 k-point   566 :      -0.4722    0.4722    0.4167
  band No.  band energies     occupation 
      1      -3.8524      2.00000
      2      -1.1380      2.00000
      3       3.6766      2.00000
      4       4.2570      2.00000
      5       7.7562      0.00000
      6       8.8405      0.00000
      7       9.4482      0.00000
      8      13.5807      0.00000

 k-point   567 :      -0.4167    0.4722    0.4167
  band No.  band energies     occupation 
      1      -3.6747      2.00000
      2      -1.1368      2.00000
      3       3.0091      2.00000
      4       4.0286      2.00000
      5       8.0394      0.00000
      6       8.9416      0.00000
      7      10.0697      0.00000
      8      13.5939      0.00000

 k-point   568 :      -0.4722   -0.4722    0.4167
  band No.  band energies     occupation 
      1      -3.7793      2.00000
      2      -1.1773      2.00000
      3       3.4856      2.00000
      4       4.1960      2.00000
      5       7.7739      0.00000
      6       9.0101      0.00000
      7       9.5122      0.00000
      8      13.5452      0.00000

 k-point   569 :       0.4722    0.4722    0.4722
  band No.  band energies     occupation 
      1      -3.9582      2.00000
      2      -1.1881      2.00000
      3       4.4495      2.00000
      4       4.4495      2.00000
      5       7.0996      0.00000
      6       8.9811      0.00000
      7       8.9811      0.00000
      8      13.3371      0.00000

 k-point   570 :      -0.4722    0.4722    0.4722
  band No.  band energies     occupation 
      1      -3.8855      2.00000
      2      -1.2245      2.00000
      3       4.1263      2.00000
      4       4.3906      2.00000
      5       7.3718      0.00000
      6       8.9387      0.00000
      7       9.1016      0.00000
      8      13.4740      0.00000


--------------------------------------------------------------------------------------------------------


 soft charge-density along one line, spin component           1
         0         1         2         3         4         5         6         7         8         9
 total charge-density along one line
 
 pseudopotential strength for first ion, spin component:           1
 18.437  25.722   0.000  -0.000   0.000   0.000  -0.000   0.000
 25.722  35.892   0.000  -0.000   0.000   0.000  -0.000   0.000
  0.000   0.000   4.181  -0.000  -0.000   7.791  -0.000  -0.000
 -0.000  -0.000  -0.000   4.181  -0.000  -0.000   7.791  -0.000
  0.000   0.000  -0.000  -0.000   4.181  -0.000  -0.000   7.791
  0.000   0.000   7.791  -0.000  -0.000  14.528  -0.000  -0.000
 -0.000  -0.000  -0.000   7.791  -0.000  -0.000  14.528  -0.000
  0.000   0.000  -0.000  -0.000   7.791  -0.000  -0.000  14.528
 total augmentation occupancy for first ion, spin component:           1
  5.531  -2.065  -0.000   0.000  -0.000   0.000   0.000  -0.000
 -2.065   0.887   0.000   0.000  -0.000   0.000   0.000   0.000
 -0.000   0.000   2.942   0.000  -0.000  -0.663   0.000   0.000
  0.000   0.000   0.000   2.942  -0.000  -0.000  -0.663   0.000
 -0.000  -0.000  -0.000  -0.000   2.942   0.000   0.000  -0.663
  0.000   0.000  -0.663   0.000   0.000   0.158   0.000  -0.000
  0.000  -0.000   0.000  -0.663   0.000  -0.000   0.158  -0.000
 -0.000  -0.000  -0.000   0.000  -0.663  -0.000   0.000   0.158


------------------------ aborting loop because EDIFF is reached ----------------------------------------


    CHARGE:  cpu time    0.2970: real time    0.2968
    FORLOC:  cpu time    0.0010: real time    0.0017
    FORNL :  cpu time    0.2660: real time    0.2664
    STRESS:  cpu time    3.5595: real time    3.5608
    FORCOR:  cpu time    0.0300: real time    0.0312
    FORHAR:  cpu time    0.0060: real time    0.0060
    MIXING:  cpu time    0.0010: real time    0.0012
    OFIELD:  cpu time    0.0000: real time    0.0002

  FORCE on cell =-STRESS in cart. coord.  units (eV):
  Direction    XX          YY          ZZ          XY          YZ          ZX
  --------------------------------------------------------------------------------------
  Alpha Z     3.29544     3.29544     3.29544
  Ewald     -75.66559   -75.66566   -75.66557     0.00001    -0.00000     0.00000
  Hartree     5.05398     5.05398     5.05398     0.00000     0.00000     0.00000
  E(xc)     -25.25216   -25.25216   -25.25216    -0.00000    -0.00000    -0.00000
  Local     -29.52422   -29.52420   -29.52420    -0.00000     0.00001     0.00001
  n-local    75.15209    77.49689    79.81640    -1.09925    -1.40159     0.09698
  augment   -11.64880   -11.64880   -11.64881    -0.00000    -0.00001    -0.00001
  Kinetic    54.78986    56.26351    57.71066    -0.14246     0.52733    -1.15410
  Fock        0.00000     0.00000     0.00000     0.00000     0.00000     0.00000
  -------------------------------------------------------------------------------------
  Total       0.00179     0.00179     0.00179     0.00000     0.00000    -0.00000
  in kB       0.07000     0.07000     0.07000     0.00000     0.00000    -0.00000
  external pressure =        0.07 kB  Pullay stress =        0.00 kB


 VOLUME and BASIS-vectors are now :
 -----------------------------------------------------------------------------
  energy-cutoff  :      350.00
  volume of cell :       40.86
      direct lattice vectors                 reciprocal lattice vectors
     3.348133560  0.000000000  1.933045539     0.298673868 -0.105597117 -0.000000000
     1.116044520  3.156651843  1.933045539    -0.000000000  0.316791350  0.000000000
     0.000000000 -0.000000000  3.866091079    -0.149336934 -0.105597117  0.258659193

  length of vectors
     3.866091488  3.866092509  3.866091079     0.316791462  0.316791350  0.316791492


 FORCES acting on ions
    electron-ion (+dipol)            ewald-force                    non-local-force                 convergence-correction
 -----------------------------------------------------------------------------------------------
   0.525E-05 0.245E-04 0.591E-07   -.892E-05 -.418E-04 0.384E-14   -.108E-16 0.153E-16 -.173E-16   -.457E-07 -.320E-07 -.792E-07
   -.525E-05 -.245E-04 -.591E-07   0.892E-05 0.418E-04 -.369E-14   -.258E-17 -.832E-17 0.139E-16   0.457E-07 0.320E-07 0.792E-07
 -----------------------------------------------------------------------------------------------
   0.369E-13 -.577E-13 0.140E-12   -.387E-15 0.513E-16 0.157E-15   -.134E-16 0.694E-17 -.347E-17   -.134E-14 0.455E-15 -.261E-15
 
 
 POSITION                                       TOTAL-FORCE (eV/Angst)
 -----------------------------------------------------------------------------------
      3.90616      2.76207      6.76566         0.000000      0.000000     -0.000000
      0.55802      0.39458      0.96652        -0.000000     -0.000000      0.000000
 -----------------------------------------------------------------------------------
    total drift:                                0.000000     -0.000000      0.000000


--------------------------------------------------------------------------------------------------------



  FREE ENERGIE OF THE ION-ELECTRON SYSTEM (eV)
  ---------------------------------------------------
  free  energy   TOTEN  =       -10.84766838 eV

  energy  without entropy=      -10.84766838  energy(sigma->0) =      -10.84766838
 
 d Force = 0.0000000E+00[ 0.000E+00, 0.000E+00]  d Energy = 0.8994612E-03-0.899E-03
 d Force = 0.0000000E+00[ 0.000E+00, 0.000E+00]  d Ewald  = 0.6763635E+00-0.676E+00


--------------------------------------------------------------------------------------------------------


    POTLOK:  cpu time    0.2050: real time    0.2116


--------------------------------------------------------------------------------------------------------




--------------------------------------------------------------------------------------------------------


  
 reached required accuracy - stopping structural energy minimisation
     LOOP+:  cpu time   38.4342: real time   39.0403
    4ORBIT:  cpu time    0.0000: real time    0.0000

 total amount of memory used by VASP MPI-rank0    69908. kBytes
=======================================================================

   base      :      30000. kBytes
   nonl-proj :      22345. kBytes
   fftplans  :       4177. kBytes
   grid      :       1926. kBytes
   one-center:          6. kBytes
   wavefun   :      11454. kBytes
 
  
  
 General timing and accounting informations for this job:
 ========================================================
  
                  Total CPU time used (sec):      171.197
                            User time (sec):      169.414
                          System time (sec):        1.783
                         Elapsed time (sec):      174.540
  
                   Maximum memory used (kb):      110140.
                   Average memory used (kb):          N/A
  
                          Minor page faults:        18488
                          Major page faults:            1
                 Voluntary context switches:        77535
