<?xml version="1.0" encoding="ISO-8859-1"?>
<modeling>
 <generator>
  <i name="program" type="string">vasp </i>
  <i name="version" type="string">6.2.0  </i>
  <i name="subversion" type="string">18Jan21 (build Aug 12 2022 13:00:08) complex                          parallel </i>
  <i name="platform" type="string">LinuxIFC </i>
  <i name="date" type="string">2024 11 03 </i>
  <i name="time" type="string">22:01:59 </i>
 </generator>
 <incar>
  <i type="int" name="ISTART">     0</i>
  <i type="string" name="PREC">Accurate      (Accurate strictly avoids</i>
  <i type="logical" name="ADDGRID"> T  </i>
  <i type="int" name="ISPIN">     1</i>
  <i type="int" name="NELM">    90</i>
  <i type="int" name="NELMIN">     6</i>
  <i type="int" name="IBRION">     2</i>
  <i name="EDIFF">      0.00000100</i>
  <i name="EDIFFG">     -0.00200000</i>
  <i type="int" name="NSW">   100</i>
  <i type="int" name="ISIF">     3</i>
  <i type="int" name="ISYM">     2</i>
  <i name="ENCUT">    350.00000000</i>
  <i type="logical" name="LREAL"> F  </i>
  <i type="int" name="ISMEAR">     0</i>
  <i name="SIGMA">      0.05000000</i>
  <i type="logical" name="LWAVE"> F  </i>
  <i type="logical" name="LCHARG"> F  </i>
  <i type="logical" name="LASPH"> T  </i>
 </incar>
 <primitive_cell>
  <structure name="primitive_cell" >
   <crystal>
    <varray name="basis" >
     <v>       3.33357300       0.00000000       1.92463900 </v>
     <v>       1.11119100       3.14292400       1.92463900 </v>
     <v>       0.00000000       0.00000000       3.84927800 </v>
    </varray>
    <i name="volume">     40.32952685 </i>
    <varray name="rec_basis" >
     <v>       0.29997843      -0.10605835       0.00000000 </v>
     <v>       0.00000000       0.31817505       0.00000000 </v>
     <v>      -0.14998922      -0.10605835       0.25978898 </v>
    </varray>
   </crystal>
   <varray name="positions" >
    <v>       0.87500000       0.87500000       0.87500000 </v>
    <v>       0.12500000       0.12500000       0.12500000 </v>
   </varray>
  </structure>
  <varray name="primitive_index" >
   <v type="int" >        1 </v>
   <v type="int" >        2 </v>
  </varray>
 </primitive_cell>
 <kpoints>
  <generation param="Monkhorst-Pack">
   <v type="int" name="divisions">      18       18       18 </v>
   <v name="usershift">      0.00000000       0.00000000       0.00000000 </v>
   <v name="genvec1">      0.05555556       0.00000000       0.00000000 </v>
   <v name="genvec2">      0.00000000       0.05555556       0.00000000 </v>
   <v name="genvec3">     -0.00000000       0.00000000       0.05555556 </v>
   <v name="shift">      0.50000000       0.50000000       0.50000000 </v>
  </generation>
  <varray name="kpointlist" >
   <v>       0.02777778       0.02777778       0.02777778 </v>
   <v>       0.08333333       0.02777778       0.02777778 </v>
   <v>       0.13888889       0.02777778       0.02777778 </v>
   <v>       0.19444444       0.02777778       0.02777778 </v>
   <v>       0.25000000       0.02777778       0.02777778 </v>
   <v>       0.30555556       0.02777778       0.02777778 </v>
   <v>       0.36111111       0.02777778       0.02777778 </v>
   <v>       0.41666667       0.02777778       0.02777778 </v>
   <v>       0.47222222       0.02777778       0.02777778 </v>
   <v>      -0.47222222       0.02777778       0.02777778 </v>
   <v>      -0.41666667       0.02777778       0.02777778 </v>
   <v>      -0.36111111       0.02777778       0.02777778 </v>
   <v>      -0.30555556       0.02777778       0.02777778 </v>
   <v>      -0.25000000       0.02777778       0.02777778 </v>
   <v>      -0.19444444       0.02777778       0.02777778 </v>
   <v>      -0.13888889       0.02777778       0.02777778 </v>
   <v>      -0.08333333       0.02777778       0.02777778 </v>
   <v>      -0.02777778       0.02777778       0.02777778 </v>
   <v>       0.08333333       0.08333333       0.02777778 </v>
   <v>       0.13888889       0.08333333       0.02777778 </v>
   <v>       0.19444444       0.08333333       0.02777778 </v>
   <v>       0.25000000       0.08333333       0.02777778 </v>
   <v>       0.30555556       0.08333333       0.02777778 </v>
   <v>       0.36111111       0.08333333       0.02777778 </v>
   <v>       0.41666667       0.08333333       0.02777778 </v>
   <v>       0.47222222       0.08333333       0.02777778 </v>
   <v>      -0.47222222       0.08333333       0.02777778 </v>
   <v>      -0.41666667       0.08333333       0.02777778 </v>
   <v>      -0.36111111       0.08333333       0.02777778 </v>
   <v>      -0.30555556       0.08333333       0.02777778 </v>
   <v>      -0.25000000       0.08333333       0.02777778 </v>
   <v>      -0.19444444       0.08333333       0.02777778 </v>
   <v>      -0.13888889       0.08333333       0.02777778 </v>
   <v>      -0.08333333       0.08333333       0.02777778 </v>
   <v>      -0.02777778       0.08333333       0.02777778 </v>
   <v>       0.13888889       0.13888889       0.02777778 </v>
   <v>       0.19444444       0.13888889       0.02777778 </v>
   <v>       0.25000000       0.13888889       0.02777778 </v>
   <v>       0.30555556       0.13888889       0.02777778 </v>
   <v>       0.36111111       0.13888889       0.02777778 </v>
   <v>       0.41666667       0.13888889       0.02777778 </v>
   <v>       0.47222222       0.13888889       0.02777778 </v>
   <v>      -0.47222222       0.13888889       0.02777778 </v>
   <v>      -0.41666667       0.13888889       0.02777778 </v>
   <v>      -0.36111111       0.13888889       0.02777778 </v>
   <v>      -0.30555556       0.13888889       0.02777778 </v>
   <v>      -0.25000000       0.13888889       0.02777778 </v>
   <v>      -0.19444444       0.13888889       0.02777778 </v>
   <v>      -0.13888889       0.13888889       0.02777778 </v>
   <v>      -0.08333333       0.13888889       0.02777778 </v>
   <v>      -0.02777778       0.13888889       0.02777778 </v>
   <v>       0.19444444       0.19444444       0.02777778 </v>
   <v>       0.25000000       0.19444444       0.02777778 </v>
   <v>       0.30555556       0.19444444       0.02777778 </v>
   <v>       0.36111111       0.19444444       0.02777778 </v>
   <v>       0.41666667       0.19444444       0.02777778 </v>
   <v>       0.47222222       0.19444444       0.02777778 </v>
   <v>      -0.47222222       0.19444444       0.02777778 </v>
   <v>      -0.41666667       0.19444444       0.02777778 </v>
   <v>      -0.36111111       0.19444444       0.02777778 </v>
   <v>      -0.30555556       0.19444444       0.02777778 </v>
   <v>      -0.25000000       0.19444444       0.02777778 </v>
   <v>      -0.19444444       0.19444444       0.02777778 </v>
   <v>      -0.13888889       0.19444444       0.02777778 </v>
   <v>      -0.08333333       0.19444444       0.02777778 </v>
   <v>      -0.02777778       0.19444444       0.02777778 </v>
   <v>       0.25000000       0.25000000       0.02777778 </v>
   <v>       0.30555556       0.25000000       0.02777778 </v>
   <v>       0.36111111       0.25000000       0.02777778 </v>
   <v>       0.41666667       0.25000000       0.02777778 </v>
   <v>       0.47222222       0.25000000       0.02777778 </v>
   <v>      -0.47222222       0.25000000       0.02777778 </v>
   <v>      -0.41666667       0.25000000       0.02777778 </v>
   <v>      -0.36111111       0.25000000       0.02777778 </v>
   <v>      -0.30555556       0.25000000       0.02777778 </v>
   <v>      -0.25000000       0.25000000       0.02777778 </v>
   <v>      -0.19444444       0.25000000       0.02777778 </v>
   <v>      -0.13888889       0.25000000       0.02777778 </v>
   <v>      -0.08333333       0.25000000       0.02777778 </v>
   <v>      -0.02777778       0.25000000       0.02777778 </v>
   <v>       0.30555556       0.30555556       0.02777778 </v>
   <v>       0.36111111       0.30555556       0.02777778 </v>
   <v>       0.41666667       0.30555556       0.02777778 </v>
   <v>       0.47222222       0.30555556       0.02777778 </v>
   <v>      -0.47222222       0.30555556       0.02777778 </v>
   <v>      -0.41666667       0.30555556       0.02777778 </v>
   <v>      -0.36111111       0.30555556       0.02777778 </v>
   <v>      -0.30555556       0.30555556       0.02777778 </v>
   <v>      -0.25000000       0.30555556       0.02777778 </v>
   <v>      -0.19444444       0.30555556       0.02777778 </v>
   <v>      -0.13888889       0.30555556       0.02777778 </v>
   <v>      -0.08333333       0.30555556       0.02777778 </v>
   <v>      -0.02777778       0.30555556       0.02777778 </v>
   <v>       0.36111111       0.36111111       0.02777778 </v>
   <v>       0.41666667       0.36111111       0.02777778 </v>
   <v>       0.47222222       0.36111111       0.02777778 </v>
   <v>      -0.47222222       0.36111111       0.02777778 </v>
   <v>      -0.41666667       0.36111111       0.02777778 </v>
   <v>      -0.36111111       0.36111111       0.02777778 </v>
   <v>      -0.30555556       0.36111111       0.02777778 </v>
   <v>      -0.25000000       0.36111111       0.02777778 </v>
   <v>      -0.19444444       0.36111111       0.02777778 </v>
   <v>      -0.13888889       0.36111111       0.02777778 </v>
   <v>      -0.08333333       0.36111111       0.02777778 </v>
   <v>      -0.02777778       0.36111111       0.02777778 </v>
   <v>       0.41666667       0.41666667       0.02777778 </v>
   <v>       0.47222222       0.41666667       0.02777778 </v>
   <v>      -0.47222222       0.41666667       0.02777778 </v>
   <v>      -0.41666667       0.41666667       0.02777778 </v>
   <v>      -0.36111111       0.41666667       0.02777778 </v>
   <v>      -0.30555556       0.41666667       0.02777778 </v>
   <v>      -0.25000000       0.41666667       0.02777778 </v>
   <v>      -0.19444444       0.41666667       0.02777778 </v>
   <v>      -0.13888889       0.41666667       0.02777778 </v>
   <v>      -0.08333333       0.41666667       0.02777778 </v>
   <v>      -0.02777778       0.41666667       0.02777778 </v>
   <v>       0.47222222       0.47222222       0.02777778 </v>
   <v>      -0.47222222       0.47222222       0.02777778 </v>
   <v>      -0.41666667       0.47222222       0.02777778 </v>
   <v>      -0.36111111       0.47222222       0.02777778 </v>
   <v>      -0.30555556       0.47222222       0.02777778 </v>
   <v>      -0.25000000       0.47222222       0.02777778 </v>
   <v>      -0.19444444       0.47222222       0.02777778 </v>
   <v>      -0.13888889       0.47222222       0.02777778 </v>
   <v>      -0.08333333       0.47222222       0.02777778 </v>
   <v>      -0.02777778       0.47222222       0.02777778 </v>
   <v>      -0.47222222      -0.47222222       0.02777778 </v>
   <v>      -0.41666667      -0.47222222       0.02777778 </v>
   <v>      -0.36111111      -0.47222222       0.02777778 </v>
   <v>      -0.30555556      -0.47222222       0.02777778 </v>
   <v>      -0.25000000      -0.47222222       0.02777778 </v>
   <v>      -0.19444444      -0.47222222       0.02777778 </v>
   <v>      -0.13888889      -0.47222222       0.02777778 </v>
   <v>      -0.08333333      -0.47222222       0.02777778 </v>
   <v>      -0.41666667      -0.41666667       0.02777778 </v>
   <v>      -0.36111111      -0.41666667       0.02777778 </v>
   <v>      -0.30555556      -0.41666667       0.02777778 </v>
   <v>      -0.25000000      -0.41666667       0.02777778 </v>
   <v>      -0.19444444      -0.41666667       0.02777778 </v>
   <v>      -0.13888889      -0.41666667       0.02777778 </v>
   <v>      -0.08333333      -0.41666667       0.02777778 </v>
   <v>      -0.36111111      -0.36111111       0.02777778 </v>
   <v>      -0.30555556      -0.36111111       0.02777778 </v>
   <v>      -0.25000000      -0.36111111       0.02777778 </v>
   <v>      -0.19444444      -0.36111111       0.02777778 </v>
   <v>      -0.13888889      -0.36111111       0.02777778 </v>
   <v>      -0.08333333      -0.36111111       0.02777778 </v>
   <v>      -0.30555556      -0.30555556       0.02777778 </v>
   <v>      -0.25000000      -0.30555556       0.02777778 </v>
   <v>      -0.19444444      -0.30555556       0.02777778 </v>
   <v>      -0.13888889      -0.30555556       0.02777778 </v>
   <v>      -0.08333333      -0.30555556       0.02777778 </v>
   <v>      -0.25000000      -0.25000000       0.02777778 </v>
   <v>      -0.19444444      -0.25000000       0.02777778 </v>
   <v>      -0.13888889      -0.25000000       0.02777778 </v>
   <v>      -0.08333333      -0.25000000       0.02777778 </v>
   <v>      -0.19444444      -0.19444444       0.02777778 </v>
   <v>      -0.13888889      -0.19444444       0.02777778 </v>
   <v>      -0.08333333      -0.19444444       0.02777778 </v>
   <v>      -0.13888889      -0.13888889       0.02777778 </v>
   <v>      -0.08333333      -0.13888889       0.02777778 </v>
   <v>      -0.08333333      -0.08333333       0.02777778 </v>
   <v>       0.08333333       0.08333333       0.08333333 </v>
   <v>       0.13888889       0.08333333       0.08333333 </v>
   <v>       0.19444444       0.08333333       0.08333333 </v>
   <v>       0.25000000       0.08333333       0.08333333 </v>
   <v>       0.30555556       0.08333333       0.08333333 </v>
   <v>       0.36111111       0.08333333       0.08333333 </v>
   <v>       0.41666667       0.08333333       0.08333333 </v>
   <v>       0.47222222       0.08333333       0.08333333 </v>
   <v>      -0.47222222       0.08333333       0.08333333 </v>
   <v>      -0.41666667       0.08333333       0.08333333 </v>
   <v>      -0.36111111       0.08333333       0.08333333 </v>
   <v>      -0.30555556       0.08333333       0.08333333 </v>
   <v>      -0.25000000       0.08333333       0.08333333 </v>
   <v>      -0.19444444       0.08333333       0.08333333 </v>
   <v>      -0.13888889       0.08333333       0.08333333 </v>
   <v>      -0.08333333       0.08333333       0.08333333 </v>
   <v>       0.13888889       0.13888889       0.08333333 </v>
   <v>       0.19444444       0.13888889       0.08333333 </v>
   <v>       0.25000000       0.13888889       0.08333333 </v>
   <v>       0.30555556       0.13888889       0.08333333 </v>
   <v>       0.36111111       0.13888889       0.08333333 </v>
   <v>       0.41666667       0.13888889       0.08333333 </v>
   <v>       0.47222222       0.13888889       0.08333333 </v>
   <v>      -0.47222222       0.13888889       0.08333333 </v>
   <v>      -0.41666667       0.13888889       0.08333333 </v>
   <v>      -0.36111111       0.13888889       0.08333333 </v>
   <v>      -0.30555556       0.13888889       0.08333333 </v>
   <v>      -0.25000000       0.13888889       0.08333333 </v>
   <v>      -0.19444444       0.13888889       0.08333333 </v>
   <v>      -0.13888889       0.13888889       0.08333333 </v>
   <v>      -0.08333333       0.13888889       0.08333333 </v>
   <v>       0.19444444       0.19444444       0.08333333 </v>
   <v>       0.25000000       0.19444444       0.08333333 </v>
   <v>       0.30555556       0.19444444       0.08333333 </v>
   <v>       0.36111111       0.19444444       0.08333333 </v>
   <v>       0.41666667       0.19444444       0.08333333 </v>
   <v>       0.47222222       0.19444444       0.08333333 </v>
   <v>      -0.47222222       0.19444444       0.08333333 </v>
   <v>      -0.41666667       0.19444444       0.08333333 </v>
   <v>      -0.36111111       0.19444444       0.08333333 </v>
   <v>      -0.30555556       0.19444444       0.08333333 </v>
   <v>      -0.25000000       0.19444444       0.08333333 </v>
   <v>      -0.19444444       0.19444444       0.08333333 </v>
   <v>      -0.13888889       0.19444444       0.08333333 </v>
   <v>      -0.08333333       0.19444444       0.08333333 </v>
   <v>       0.25000000       0.25000000       0.08333333 </v>
   <v>       0.30555556       0.25000000       0.08333333 </v>
   <v>       0.36111111       0.25000000       0.08333333 </v>
   <v>       0.41666667       0.25000000       0.08333333 </v>
   <v>       0.47222222       0.25000000       0.08333333 </v>
   <v>      -0.47222222       0.25000000       0.08333333 </v>
   <v>      -0.41666667       0.25000000       0.08333333 </v>
   <v>      -0.36111111       0.25000000       0.08333333 </v>
   <v>      -0.30555556       0.25000000       0.08333333 </v>
   <v>      -0.25000000       0.25000000       0.08333333 </v>
   <v>      -0.19444444       0.25000000       0.08333333 </v>
   <v>      -0.13888889       0.25000000       0.08333333 </v>
   <v>      -0.08333333       0.25000000       0.08333333 </v>
   <v>       0.30555556       0.30555556       0.08333333 </v>
   <v>       0.36111111       0.30555556       0.08333333 </v>
   <v>       0.41666667       0.30555556       0.08333333 </v>
   <v>       0.47222222       0.30555556       0.08333333 </v>
   <v>      -0.47222222       0.30555556       0.08333333 </v>
   <v>      -0.41666667       0.30555556       0.08333333 </v>
   <v>      -0.36111111       0.30555556       0.08333333 </v>
   <v>      -0.30555556       0.30555556       0.08333333 </v>
   <v>      -0.25000000       0.30555556       0.08333333 </v>
   <v>      -0.19444444       0.30555556       0.08333333 </v>
   <v>      -0.13888889       0.30555556       0.08333333 </v>
   <v>      -0.08333333       0.30555556       0.08333333 </v>
   <v>       0.36111111       0.36111111       0.08333333 </v>
   <v>       0.41666667       0.36111111       0.08333333 </v>
   <v>       0.47222222       0.36111111       0.08333333 </v>
   <v>      -0.47222222       0.36111111       0.08333333 </v>
   <v>      -0.41666667       0.36111111       0.08333333 </v>
   <v>      -0.36111111       0.36111111       0.08333333 </v>
   <v>      -0.30555556       0.36111111       0.08333333 </v>
   <v>      -0.25000000       0.36111111       0.08333333 </v>
   <v>      -0.19444444       0.36111111       0.08333333 </v>
   <v>      -0.13888889       0.36111111       0.08333333 </v>
   <v>      -0.08333333       0.36111111       0.08333333 </v>
   <v>       0.41666667       0.41666667       0.08333333 </v>
   <v>       0.47222222       0.41666667       0.08333333 </v>
   <v>      -0.47222222       0.41666667       0.08333333 </v>
   <v>      -0.41666667       0.41666667       0.08333333 </v>
   <v>      -0.36111111       0.41666667       0.08333333 </v>
   <v>      -0.30555556       0.41666667       0.08333333 </v>
   <v>      -0.25000000       0.41666667       0.08333333 </v>
   <v>      -0.19444444       0.41666667       0.08333333 </v>
   <v>      -0.13888889       0.41666667       0.08333333 </v>
   <v>      -0.08333333       0.41666667       0.08333333 </v>
   <v>       0.47222222       0.47222222       0.08333333 </v>
   <v>      -0.47222222       0.47222222       0.08333333 </v>
   <v>      -0.41666667       0.47222222       0.08333333 </v>
   <v>      -0.36111111       0.47222222       0.08333333 </v>
   <v>      -0.30555556       0.47222222       0.08333333 </v>
   <v>      -0.25000000       0.47222222       0.08333333 </v>
   <v>      -0.19444444       0.47222222       0.08333333 </v>
   <v>      -0.13888889       0.47222222       0.08333333 </v>
   <v>      -0.08333333       0.47222222       0.08333333 </v>
   <v>      -0.47222222      -0.47222222       0.08333333 </v>
   <v>      -0.41666667      -0.47222222       0.08333333 </v>
   <v>      -0.36111111      -0.47222222       0.08333333 </v>
   <v>      -0.30555556      -0.47222222       0.08333333 </v>
   <v>      -0.25000000      -0.47222222       0.08333333 </v>
   <v>      -0.19444444      -0.47222222       0.08333333 </v>
   <v>      -0.13888889      -0.47222222       0.08333333 </v>
   <v>      -0.41666667      -0.41666667       0.08333333 </v>
   <v>      -0.36111111      -0.41666667       0.08333333 </v>
   <v>      -0.30555556      -0.41666667       0.08333333 </v>
   <v>      -0.25000000      -0.41666667       0.08333333 </v>
   <v>      -0.19444444      -0.41666667       0.08333333 </v>
   <v>      -0.13888889      -0.41666667       0.08333333 </v>
   <v>      -0.36111111      -0.36111111       0.08333333 </v>
   <v>      -0.30555556      -0.36111111       0.08333333 </v>
   <v>      -0.25000000      -0.36111111       0.08333333 </v>
   <v>      -0.19444444      -0.36111111       0.08333333 </v>
   <v>      -0.13888889      -0.36111111       0.08333333 </v>
   <v>      -0.30555556      -0.30555556       0.08333333 </v>
   <v>      -0.25000000      -0.30555556       0.08333333 </v>
   <v>      -0.19444444      -0.30555556       0.08333333 </v>
   <v>      -0.13888889      -0.30555556       0.08333333 </v>
   <v>      -0.25000000      -0.25000000       0.08333333 </v>
   <v>      -0.19444444      -0.25000000       0.08333333 </v>
   <v>      -0.13888889      -0.25000000       0.08333333 </v>
   <v>      -0.19444444      -0.19444444       0.08333333 </v>
   <v>      -0.13888889      -0.19444444       0.08333333 </v>
   <v>      -0.13888889      -0.13888889       0.08333333 </v>
   <v>       0.13888889       0.13888889       0.13888889 </v>
   <v>       0.19444444       0.13888889       0.13888889 </v>
   <v>       0.25000000       0.13888889       0.13888889 </v>
   <v>       0.30555556       0.13888889       0.13888889 </v>
   <v>       0.36111111       0.13888889       0.13888889 </v>
   <v>       0.41666667       0.13888889       0.13888889 </v>
   <v>       0.47222222       0.13888889       0.13888889 </v>
   <v>      -0.47222222       0.13888889       0.13888889 </v>
   <v>      -0.41666667       0.13888889       0.13888889 </v>
   <v>      -0.36111111       0.13888889       0.13888889 </v>
   <v>      -0.30555556       0.13888889       0.13888889 </v>
   <v>      -0.25000000       0.13888889       0.13888889 </v>
   <v>      -0.19444444       0.13888889       0.13888889 </v>
   <v>      -0.13888889       0.13888889       0.13888889 </v>
   <v>       0.19444444       0.19444444       0.13888889 </v>
   <v>       0.25000000       0.19444444       0.13888889 </v>
   <v>       0.30555556       0.19444444       0.13888889 </v>
   <v>       0.36111111       0.19444444       0.13888889 </v>
   <v>       0.41666667       0.19444444       0.13888889 </v>
   <v>       0.47222222       0.19444444       0.13888889 </v>
   <v>      -0.47222222       0.19444444       0.13888889 </v>
   <v>      -0.41666667       0.19444444       0.13888889 </v>
   <v>      -0.36111111       0.19444444       0.13888889 </v>
   <v>      -0.30555556       0.19444444       0.13888889 </v>
   <v>      -0.25000000       0.19444444       0.13888889 </v>
   <v>      -0.19444444       0.19444444       0.13888889 </v>
   <v>      -0.13888889       0.19444444       0.13888889 </v>
   <v>       0.25000000       0.25000000       0.13888889 </v>
   <v>       0.30555556       0.25000000       0.13888889 </v>
   <v>       0.36111111       0.25000000       0.13888889 </v>
   <v>       0.41666667       0.25000000       0.13888889 </v>
   <v>       0.47222222       0.25000000       0.13888889 </v>
   <v>      -0.47222222       0.25000000       0.13888889 </v>
   <v>      -0.41666667       0.25000000       0.13888889 </v>
   <v>      -0.36111111       0.25000000       0.13888889 </v>
   <v>      -0.30555556       0.25000000       0.13888889 </v>
   <v>      -0.25000000       0.25000000       0.13888889 </v>
   <v>      -0.19444444       0.25000000       0.13888889 </v>
   <v>      -0.13888889       0.25000000       0.13888889 </v>
   <v>       0.30555556       0.30555556       0.13888889 </v>
   <v>       0.36111111       0.30555556       0.13888889 </v>
   <v>       0.41666667       0.30555556       0.13888889 </v>
   <v>       0.47222222       0.30555556       0.13888889 </v>
   <v>      -0.47222222       0.30555556       0.13888889 </v>
   <v>      -0.41666667       0.30555556       0.13888889 </v>
   <v>      -0.36111111       0.30555556       0.13888889 </v>
   <v>      -0.30555556       0.30555556       0.13888889 </v>
   <v>      -0.25000000       0.30555556       0.13888889 </v>
   <v>      -0.19444444       0.30555556       0.13888889 </v>
   <v>      -0.13888889       0.30555556       0.13888889 </v>
   <v>       0.36111111       0.36111111       0.13888889 </v>
   <v>       0.41666667       0.36111111       0.13888889 </v>
   <v>       0.47222222       0.36111111       0.13888889 </v>
   <v>      -0.47222222       0.36111111       0.13888889 </v>
   <v>      -0.41666667       0.36111111       0.13888889 </v>
   <v>      -0.36111111       0.36111111       0.13888889 </v>
   <v>      -0.30555556       0.36111111       0.13888889 </v>
   <v>      -0.25000000       0.36111111       0.13888889 </v>
   <v>      -0.19444444       0.36111111       0.13888889 </v>
   <v>      -0.13888889       0.36111111       0.13888889 </v>
   <v>       0.41666667       0.41666667       0.13888889 </v>
   <v>       0.47222222       0.41666667       0.13888889 </v>
   <v>      -0.47222222       0.41666667       0.13888889 </v>
   <v>      -0.41666667       0.41666667       0.13888889 </v>
   <v>      -0.36111111       0.41666667       0.13888889 </v>
   <v>      -0.30555556       0.41666667       0.13888889 </v>
   <v>      -0.25000000       0.41666667       0.13888889 </v>
   <v>      -0.19444444       0.41666667       0.13888889 </v>
   <v>      -0.13888889       0.41666667       0.13888889 </v>
   <v>       0.47222222       0.47222222       0.13888889 </v>
   <v>      -0.47222222       0.47222222       0.13888889 </v>
   <v>      -0.41666667       0.47222222       0.13888889 </v>
   <v>      -0.36111111       0.47222222       0.13888889 </v>
   <v>      -0.30555556       0.47222222       0.13888889 </v>
   <v>      -0.25000000       0.47222222       0.13888889 </v>
   <v>      -0.19444444       0.47222222       0.13888889 </v>
   <v>      -0.13888889       0.47222222       0.13888889 </v>
   <v>      -0.47222222      -0.47222222       0.13888889 </v>
   <v>      -0.41666667      -0.47222222       0.13888889 </v>
   <v>      -0.36111111      -0.47222222       0.13888889 </v>
   <v>      -0.30555556      -0.47222222       0.13888889 </v>
   <v>      -0.25000000      -0.47222222       0.13888889 </v>
   <v>      -0.19444444      -0.47222222       0.13888889 </v>
   <v>      -0.41666667      -0.41666667       0.13888889 </v>
   <v>      -0.36111111      -0.41666667       0.13888889 </v>
   <v>      -0.30555556      -0.41666667       0.13888889 </v>
   <v>      -0.25000000      -0.41666667       0.13888889 </v>
   <v>      -0.19444444      -0.41666667       0.13888889 </v>
   <v>      -0.36111111      -0.36111111       0.13888889 </v>
   <v>      -0.30555556      -0.36111111       0.13888889 </v>
   <v>      -0.25000000      -0.36111111       0.13888889 </v>
   <v>      -0.19444444      -0.36111111       0.13888889 </v>
   <v>      -0.30555556      -0.30555556       0.13888889 </v>
   <v>      -0.25000000      -0.30555556       0.13888889 </v>
   <v>      -0.19444444      -0.30555556       0.13888889 </v>
   <v>      -0.25000000      -0.25000000       0.13888889 </v>
   <v>      -0.19444444      -0.25000000       0.13888889 </v>
   <v>      -0.19444444      -0.19444444       0.13888889 </v>
   <v>       0.19444444       0.19444444       0.19444444 </v>
   <v>       0.25000000       0.19444444       0.19444444 </v>
   <v>       0.30555556       0.19444444       0.19444444 </v>
   <v>       0.36111111       0.19444444       0.19444444 </v>
   <v>       0.41666667       0.19444444       0.19444444 </v>
   <v>       0.47222222       0.19444444       0.19444444 </v>
   <v>      -0.47222222       0.19444444       0.19444444 </v>
   <v>      -0.41666667       0.19444444       0.19444444 </v>
   <v>      -0.36111111       0.19444444       0.19444444 </v>
   <v>      -0.30555556       0.19444444       0.19444444 </v>
   <v>      -0.25000000       0.19444444       0.19444444 </v>
   <v>      -0.19444444       0.19444444       0.19444444 </v>
   <v>       0.25000000       0.25000000       0.19444444 </v>
   <v>       0.30555556       0.25000000       0.19444444 </v>
   <v>       0.36111111       0.25000000       0.19444444 </v>
   <v>       0.41666667       0.25000000       0.19444444 </v>
   <v>       0.47222222       0.25000000       0.19444444 </v>
   <v>      -0.47222222       0.25000000       0.19444444 </v>
   <v>      -0.41666667       0.25000000       0.19444444 </v>
   <v>      -0.36111111       0.25000000       0.19444444 </v>
   <v>      -0.30555556       0.25000000       0.19444444 </v>
   <v>      -0.25000000       0.25000000       0.19444444 </v>
   <v>      -0.19444444       0.25000000       0.19444444 </v>
   <v>       0.30555556       0.30555556       0.19444444 </v>
   <v>       0.36111111       0.30555556       0.19444444 </v>
   <v>       0.41666667       0.30555556       0.19444444 </v>
   <v>       0.47222222       0.30555556       0.19444444 </v>
   <v>      -0.47222222       0.30555556       0.19444444 </v>
   <v>      -0.41666667       0.30555556       0.19444444 </v>
   <v>      -0.36111111       0.30555556       0.19444444 </v>
   <v>      -0.30555556       0.30555556       0.19444444 </v>
   <v>      -0.25000000       0.30555556       0.19444444 </v>
   <v>      -0.19444444       0.30555556       0.19444444 </v>
   <v>       0.36111111       0.36111111       0.19444444 </v>
   <v>       0.41666667       0.36111111       0.19444444 </v>
   <v>       0.47222222       0.36111111       0.19444444 </v>
   <v>      -0.47222222       0.36111111       0.19444444 </v>
   <v>      -0.41666667       0.36111111       0.19444444 </v>
   <v>      -0.36111111       0.36111111       0.19444444 </v>
   <v>      -0.30555556       0.36111111       0.19444444 </v>
   <v>      -0.25000000       0.36111111       0.19444444 </v>
   <v>      -0.19444444       0.36111111       0.19444444 </v>
   <v>       0.41666667       0.41666667       0.19444444 </v>
   <v>       0.47222222       0.41666667       0.19444444 </v>
   <v>      -0.47222222       0.41666667       0.19444444 </v>
   <v>      -0.41666667       0.41666667       0.19444444 </v>
   <v>      -0.36111111       0.41666667       0.19444444 </v>
   <v>      -0.30555556       0.41666667       0.19444444 </v>
   <v>      -0.25000000       0.41666667       0.19444444 </v>
   <v>      -0.19444444       0.41666667       0.19444444 </v>
   <v>       0.47222222       0.47222222       0.19444444 </v>
   <v>      -0.47222222       0.47222222       0.19444444 </v>
   <v>      -0.41666667       0.47222222       0.19444444 </v>
   <v>      -0.36111111       0.47222222       0.19444444 </v>
   <v>      -0.30555556       0.47222222       0.19444444 </v>
   <v>      -0.25000000       0.47222222       0.19444444 </v>
   <v>      -0.19444444       0.47222222       0.19444444 </v>
   <v>      -0.47222222      -0.47222222       0.19444444 </v>
   <v>      -0.41666667      -0.47222222       0.19444444 </v>
   <v>      -0.36111111      -0.47222222       0.19444444 </v>
   <v>      -0.30555556      -0.47222222       0.19444444 </v>
   <v>      -0.25000000      -0.47222222       0.19444444 </v>
   <v>      -0.41666667      -0.41666667       0.19444444 </v>
   <v>      -0.36111111      -0.41666667       0.19444444 </v>
   <v>      -0.30555556      -0.41666667       0.19444444 </v>
   <v>      -0.25000000      -0.41666667       0.19444444 </v>
   <v>      -0.36111111      -0.36111111       0.19444444 </v>
   <v>      -0.30555556      -0.36111111       0.19444444 </v>
   <v>      -0.25000000      -0.36111111       0.19444444 </v>
   <v>      -0.30555556      -0.30555556       0.19444444 </v>
   <v>      -0.25000000      -0.30555556       0.19444444 </v>
   <v>      -0.25000000      -0.25000000       0.19444444 </v>
   <v>       0.25000000       0.25000000       0.25000000 </v>
   <v>       0.30555556       0.25000000       0.25000000 </v>
   <v>       0.36111111       0.25000000       0.25000000 </v>
   <v>       0.41666667       0.25000000       0.25000000 </v>
   <v>       0.47222222       0.25000000       0.25000000 </v>
   <v>      -0.47222222       0.25000000       0.25000000 </v>
   <v>      -0.41666667       0.25000000       0.25000000 </v>
   <v>      -0.36111111       0.25000000       0.25000000 </v>
   <v>      -0.30555556       0.25000000       0.25000000 </v>
   <v>      -0.25000000       0.25000000       0.25000000 </v>
   <v>       0.30555556       0.30555556       0.25000000 </v>
   <v>       0.36111111       0.30555556       0.25000000 </v>
   <v>       0.41666667       0.30555556       0.25000000 </v>
   <v>       0.47222222       0.30555556       0.25000000 </v>
   <v>      -0.47222222       0.30555556       0.25000000 </v>
   <v>      -0.41666667       0.30555556       0.25000000 </v>
   <v>      -0.36111111       0.30555556       0.25000000 </v>
   <v>      -0.30555556       0.30555556       0.25000000 </v>
   <v>      -0.25000000       0.30555556       0.25000000 </v>
   <v>       0.36111111       0.36111111       0.25000000 </v>
   <v>       0.41666667       0.36111111       0.25000000 </v>
   <v>       0.47222222       0.36111111       0.25000000 </v>
   <v>      -0.47222222       0.36111111       0.25000000 </v>
   <v>      -0.41666667       0.36111111       0.25000000 </v>
   <v>      -0.36111111       0.36111111       0.25000000 </v>
   <v>      -0.30555556       0.36111111       0.25000000 </v>
   <v>      -0.25000000       0.36111111       0.25000000 </v>
   <v>       0.41666667       0.41666667       0.25000000 </v>
   <v>       0.47222222       0.41666667       0.25000000 </v>
   <v>      -0.47222222       0.41666667       0.25000000 </v>
   <v>      -0.41666667       0.41666667       0.25000000 </v>
   <v>      -0.36111111       0.41666667       0.25000000 </v>
   <v>      -0.30555556       0.41666667       0.25000000 </v>
   <v>      -0.25000000       0.41666667       0.25000000 </v>
   <v>       0.47222222       0.47222222       0.25000000 </v>
   <v>      -0.47222222       0.47222222       0.25000000 </v>
   <v>      -0.41666667       0.47222222       0.25000000 </v>
   <v>      -0.36111111       0.47222222       0.25000000 </v>
   <v>      -0.30555556       0.47222222       0.25000000 </v>
   <v>      -0.25000000       0.47222222       0.25000000 </v>
   <v>      -0.47222222      -0.47222222       0.25000000 </v>
   <v>      -0.41666667      -0.47222222       0.25000000 </v>
   <v>      -0.36111111      -0.47222222       0.25000000 </v>
   <v>      -0.30555556      -0.47222222       0.25000000 </v>
   <v>      -0.41666667      -0.41666667       0.25000000 </v>
   <v>      -0.36111111      -0.41666667       0.25000000 </v>
   <v>      -0.30555556      -0.41666667       0.25000000 </v>
   <v>      -0.36111111      -0.36111111       0.25000000 </v>
   <v>      -0.30555556      -0.36111111       0.25000000 </v>
   <v>      -0.30555556      -0.30555556       0.25000000 </v>
   <v>       0.30555556       0.30555556       0.30555556 </v>
   <v>       0.36111111       0.30555556       0.30555556 </v>
   <v>       0.41666667       0.30555556       0.30555556 </v>
   <v>       0.47222222       0.30555556       0.30555556 </v>
   <v>      -0.47222222       0.30555556       0.30555556 </v>
   <v>      -0.41666667       0.30555556       0.30555556 </v>
   <v>      -0.36111111       0.30555556       0.30555556 </v>
   <v>      -0.30555556       0.30555556       0.30555556 </v>
   <v>       0.36111111       0.36111111       0.30555556 </v>
   <v>       0.41666667       0.36111111       0.30555556 </v>
   <v>       0.47222222       0.36111111       0.30555556 </v>
   <v>      -0.47222222       0.36111111       0.30555556 </v>
   <v>      -0.41666667       0.36111111       0.30555556 </v>
   <v>      -0.36111111       0.36111111       0.30555556 </v>
   <v>      -0.30555556       0.36111111       0.30555556 </v>
   <v>       0.41666667       0.41666667       0.30555556 </v>
   <v>       0.47222222       0.41666667       0.30555556 </v>
   <v>      -0.47222222       0.41666667       0.30555556 </v>
   <v>      -0.41666667       0.41666667       0.30555556 </v>
   <v>      -0.36111111       0.41666667       0.30555556 </v>
   <v>      -0.30555556       0.41666667       0.30555556 </v>
   <v>       0.47222222       0.47222222       0.30555556 </v>
   <v>      -0.47222222       0.47222222       0.30555556 </v>
   <v>      -0.41666667       0.47222222       0.30555556 </v>
   <v>      -0.36111111       0.47222222       0.30555556 </v>
   <v>      -0.30555556       0.47222222       0.30555556 </v>
   <v>      -0.47222222      -0.47222222       0.30555556 </v>
   <v>      -0.41666667      -0.47222222       0.30555556 </v>
   <v>      -0.36111111      -0.47222222       0.30555556 </v>
   <v>      -0.41666667      -0.41666667       0.30555556 </v>
   <v>      -0.36111111      -0.41666667       0.30555556 </v>
   <v>      -0.36111111      -0.36111111       0.30555556 </v>
   <v>       0.36111111       0.36111111       0.36111111 </v>
   <v>       0.41666667       0.36111111       0.36111111 </v>
   <v>       0.47222222       0.36111111       0.36111111 </v>
   <v>      -0.47222222       0.36111111       0.36111111 </v>
   <v>      -0.41666667       0.36111111       0.36111111 </v>
   <v>      -0.36111111       0.36111111       0.36111111 </v>
   <v>       0.41666667       0.41666667       0.36111111 </v>
   <v>       0.47222222       0.41666667       0.36111111 </v>
   <v>      -0.47222222       0.41666667       0.36111111 </v>
   <v>      -0.41666667       0.41666667       0.36111111 </v>
   <v>      -0.36111111       0.41666667       0.36111111 </v>
   <v>       0.47222222       0.47222222       0.36111111 </v>
   <v>      -0.47222222       0.47222222       0.36111111 </v>
   <v>      -0.41666667       0.47222222       0.36111111 </v>
   <v>      -0.36111111       0.47222222       0.36111111 </v>
   <v>      -0.47222222      -0.47222222       0.36111111 </v>
   <v>      -0.41666667      -0.47222222       0.36111111 </v>
   <v>      -0.41666667      -0.41666667       0.36111111 </v>
   <v>       0.41666667       0.41666667       0.41666667 </v>
   <v>       0.47222222       0.41666667       0.41666667 </v>
   <v>      -0.47222222       0.41666667       0.41666667 </v>
   <v>      -0.41666667       0.41666667       0.41666667 </v>
   <v>       0.47222222       0.47222222       0.41666667 </v>
   <v>      -0.47222222       0.47222222       0.41666667 </v>
   <v>      -0.41666667       0.47222222       0.41666667 </v>
   <v>      -0.47222222      -0.47222222       0.41666667 </v>
   <v>       0.47222222       0.47222222       0.47222222 </v>
   <v>      -0.47222222       0.47222222       0.47222222 </v>
  </varray>
  <varray name="weights" >
   <v>       0.00034294 </v>
   <v>       0.00102881 </v>
   <v>       0.00102881 </v>
   <v>       0.00102881 </v>
   <v>       0.00102881 </v>
   <v>       0.00102881 </v>
   <v>       0.00102881 </v>
   <v>       0.00102881 </v>
   <v>       0.00102881 </v>
   <v>       0.00102881 </v>
   <v>       0.00102881 </v>
   <v>       0.00102881 </v>
   <v>       0.00102881 </v>
   <v>       0.00102881 </v>
   <v>       0.00102881 </v>
   <v>       0.00102881 </v>
   <v>       0.00102881 </v>
   <v>       0.00102881 </v>
   <v>       0.00102881 </v>
   <v>       0.00205761 </v>
   <v>       0.00205761 </v>
   <v>       0.00205761 </v>
   <v>       0.00205761 </v>
   <v>       0.00205761 </v>
   <v>       0.00205761 </v>
   <v>       0.00205761 </v>
   <v>       0.00205761 </v>
   <v>       0.00205761 </v>
   <v>       0.00205761 </v>
   <v>       0.00205761 </v>
   <v>       0.00205761 </v>
   <v>       0.00205761 </v>
   <v>       0.00205761 </v>
   <v>       0.00205761 </v>
   <v>       0.00205761 </v>
   <v>       0.00102881 </v>
   <v>       0.00205761 </v>
   <v>       0.00205761 </v>
   <v>       0.00205761 </v>
   <v>       0.00205761 </v>
   <v>       0.00205761 </v>
   <v>       0.00205761 </v>
   <v>       0.00205761 </v>
   <v>       0.00205761 </v>
   <v>       0.00205761 </v>
   <v>       0.00205761 </v>
   <v>       0.00205761 </v>
   <v>       0.00205761 </v>
   <v>       0.00205761 </v>
   <v>       0.00205761 </v>
   <v>       0.00205761 </v>
   <v>       0.00102881 </v>
   <v>       0.00205761 </v>
   <v>       0.00205761 </v>
   <v>       0.00205761 </v>
   <v>       0.00205761 </v>
   <v>       0.00205761 </v>
   <v>       0.00205761 </v>
   <v>       0.00205761 </v>
   <v>       0.00205761 </v>
   <v>       0.00205761 </v>
   <v>       0.00205761 </v>
   <v>       0.00205761 </v>
   <v>       0.00205761 </v>
   <v>       0.00205761 </v>
   <v>       0.00205761 </v>
   <v>       0.00102881 </v>
   <v>       0.00205761 </v>
   <v>       0.00205761 </v>
   <v>       0.00205761 </v>
   <v>       0.00205761 </v>
   <v>       0.00205761 </v>
   <v>       0.00205761 </v>
   <v>       0.00205761 </v>
   <v>       0.00205761 </v>
   <v>       0.00205761 </v>
   <v>       0.00205761 </v>
   <v>       0.00205761 </v>
   <v>       0.00205761 </v>
   <v>       0.00205761 </v>
   <v>       0.00102881 </v>
   <v>       0.00205761 </v>
   <v>       0.00205761 </v>
   <v>       0.00205761 </v>
   <v>       0.00205761 </v>
   <v>       0.00205761 </v>
   <v>       0.00205761 </v>
   <v>       0.00205761 </v>
   <v>       0.00205761 </v>
   <v>       0.00205761 </v>
   <v>       0.00205761 </v>
   <v>       0.00205761 </v>
   <v>       0.00205761 </v>
   <v>       0.00102881 </v>
   <v>       0.00205761 </v>
   <v>       0.00205761 </v>
   <v>       0.00205761 </v>
   <v>       0.00205761 </v>
   <v>       0.00205761 </v>
   <v>       0.00205761 </v>
   <v>       0.00205761 </v>
   <v>       0.00205761 </v>
   <v>       0.00205761 </v>
   <v>       0.00205761 </v>
   <v>       0.00205761 </v>
   <v>       0.00102881 </v>
   <v>       0.00205761 </v>
   <v>       0.00205761 </v>
   <v>       0.00205761 </v>
   <v>       0.00205761 </v>
   <v>       0.00205761 </v>
   <v>       0.00205761 </v>
   <v>       0.00205761 </v>
   <v>       0.00205761 </v>
   <v>       0.00205761 </v>
   <v>       0.00205761 </v>
   <v>       0.00102881 </v>
   <v>       0.00205761 </v>
   <v>       0.00205761 </v>
   <v>       0.00205761 </v>
   <v>       0.00205761 </v>
   <v>       0.00205761 </v>
   <v>       0.00205761 </v>
   <v>       0.00205761 </v>
   <v>       0.00205761 </v>
   <v>       0.00205761 </v>
   <v>       0.00102881 </v>
   <v>       0.00205761 </v>
   <v>       0.00205761 </v>
   <v>       0.00205761 </v>
   <v>       0.00205761 </v>
   <v>       0.00205761 </v>
   <v>       0.00205761 </v>
   <v>       0.00205761 </v>
   <v>       0.00102881 </v>
   <v>       0.00205761 </v>
   <v>       0.00205761 </v>
   <v>       0.00205761 </v>
   <v>       0.00205761 </v>
   <v>       0.00205761 </v>
   <v>       0.00205761 </v>
   <v>       0.00102881 </v>
   <v>       0.00205761 </v>
   <v>       0.00205761 </v>
   <v>       0.00205761 </v>
   <v>       0.00205761 </v>
   <v>       0.00205761 </v>
   <v>       0.00102881 </v>
   <v>       0.00205761 </v>
   <v>       0.00205761 </v>
   <v>       0.00205761 </v>
   <v>       0.00205761 </v>
   <v>       0.00102881 </v>
   <v>       0.00205761 </v>
   <v>       0.00205761 </v>
   <v>       0.00205761 </v>
   <v>       0.00102881 </v>
   <v>       0.00205761 </v>
   <v>       0.00205761 </v>
   <v>       0.00102881 </v>
   <v>       0.00205761 </v>
   <v>       0.00102881 </v>
   <v>       0.00034294 </v>
   <v>       0.00102881 </v>
   <v>       0.00102881 </v>
   <v>       0.00102881 </v>
   <v>       0.00102881 </v>
   <v>       0.00102881 </v>
   <v>       0.00102881 </v>
   <v>       0.00102881 </v>
   <v>       0.00102881 </v>
   <v>       0.00102881 </v>
   <v>       0.00102881 </v>
   <v>       0.00102881 </v>
   <v>       0.00102881 </v>
   <v>       0.00102881 </v>
   <v>       0.00102881 </v>
   <v>       0.00102881 </v>
   <v>       0.00102881 </v>
   <v>       0.00205761 </v>
   <v>       0.00205761 </v>
   <v>       0.00205761 </v>
   <v>       0.00205761 </v>
   <v>       0.00205761 </v>
   <v>       0.00205761 </v>
   <v>       0.00205761 </v>
   <v>       0.00205761 </v>
   <v>       0.00205761 </v>
   <v>       0.00205761 </v>
   <v>       0.00205761 </v>
   <v>       0.00205761 </v>
   <v>       0.00205761 </v>
   <v>       0.00205761 </v>
   <v>       0.00102881 </v>
   <v>       0.00205761 </v>
   <v>       0.00205761 </v>
   <v>       0.00205761 </v>
   <v>       0.00205761 </v>
   <v>       0.00205761 </v>
   <v>       0.00205761 </v>
   <v>       0.00205761 </v>
   <v>       0.00205761 </v>
   <v>       0.00205761 </v>
   <v>       0.00205761 </v>
   <v>       0.00205761 </v>
   <v>       0.00205761 </v>
   <v>       0.00205761 </v>
   <v>       0.00102881 </v>
   <v>       0.00205761 </v>
   <v>       0.00205761 </v>
   <v>       0.00205761 </v>
   <v>       0.00205761 </v>
   <v>       0.00205761 </v>
   <v>       0.00205761 </v>
   <v>       0.00205761 </v>
   <v>       0.00205761 </v>
   <v>       0.00205761 </v>
   <v>       0.00205761 </v>
   <v>       0.00205761 </v>
   <v>       0.00205761 </v>
   <v>       0.00102881 </v>
   <v>       0.00205761 </v>
   <v>       0.00205761 </v>
   <v>       0.00205761 </v>
   <v>       0.00205761 </v>
   <v>       0.00205761 </v>
   <v>       0.00205761 </v>
   <v>       0.00205761 </v>
   <v>       0.00205761 </v>
   <v>       0.00205761 </v>
   <v>       0.00205761 </v>
   <v>       0.00205761 </v>
   <v>       0.00102881 </v>
   <v>       0.00205761 </v>
   <v>       0.00205761 </v>
   <v>       0.00205761 </v>
   <v>       0.00205761 </v>
   <v>       0.00205761 </v>
   <v>       0.00205761 </v>
   <v>       0.00205761 </v>
   <v>       0.00205761 </v>
   <v>       0.00205761 </v>
   <v>       0.00205761 </v>
   <v>       0.00102881 </v>
   <v>       0.00205761 </v>
   <v>       0.00205761 </v>
   <v>       0.00205761 </v>
   <v>       0.00205761 </v>
   <v>       0.00205761 </v>
   <v>       0.00205761 </v>
   <v>       0.00205761 </v>
   <v>       0.00205761 </v>
   <v>       0.00205761 </v>
   <v>       0.00102881 </v>
   <v>       0.00205761 </v>
   <v>       0.00205761 </v>
   <v>       0.00205761 </v>
   <v>       0.00205761 </v>
   <v>       0.00205761 </v>
   <v>       0.00205761 </v>
   <v>       0.00205761 </v>
   <v>       0.00205761 </v>
   <v>       0.00102881 </v>
   <v>       0.00205761 </v>
   <v>       0.00205761 </v>
   <v>       0.00205761 </v>
   <v>       0.00205761 </v>
   <v>       0.00205761 </v>
   <v>       0.00205761 </v>
   <v>       0.00102881 </v>
   <v>       0.00205761 </v>
   <v>       0.00205761 </v>
   <v>       0.00205761 </v>
   <v>       0.00205761 </v>
   <v>       0.00205761 </v>
   <v>       0.00102881 </v>
   <v>       0.00205761 </v>
   <v>       0.00205761 </v>
   <v>       0.00205761 </v>
   <v>       0.00205761 </v>
   <v>       0.00102881 </v>
   <v>       0.00205761 </v>
   <v>       0.00205761 </v>
   <v>       0.00205761 </v>
   <v>       0.00102881 </v>
   <v>       0.00205761 </v>
   <v>       0.00205761 </v>
   <v>       0.00102881 </v>
   <v>       0.00205761 </v>
   <v>       0.00102881 </v>
   <v>       0.00034294 </v>
   <v>       0.00102881 </v>
   <v>       0.00102881 </v>
   <v>       0.00102881 </v>
   <v>       0.00102881 </v>
   <v>       0.00102881 </v>
   <v>       0.00102881 </v>
   <v>       0.00102881 </v>
   <v>       0.00102881 </v>
   <v>       0.00102881 </v>
   <v>       0.00102881 </v>
   <v>       0.00102881 </v>
   <v>       0.00102881 </v>
   <v>       0.00102881 </v>
   <v>       0.00102881 </v>
   <v>       0.00205761 </v>
   <v>       0.00205761 </v>
   <v>       0.00205761 </v>
   <v>       0.00205761 </v>
   <v>       0.00205761 </v>
   <v>       0.00205761 </v>
   <v>       0.00205761 </v>
   <v>       0.00205761 </v>
   <v>       0.00205761 </v>
   <v>       0.00205761 </v>
   <v>       0.00205761 </v>
   <v>       0.00205761 </v>
   <v>       0.00102881 </v>
   <v>       0.00205761 </v>
   <v>       0.00205761 </v>
   <v>       0.00205761 </v>
   <v>       0.00205761 </v>
   <v>       0.00205761 </v>
   <v>       0.00205761 </v>
   <v>       0.00205761 </v>
   <v>       0.00205761 </v>
   <v>       0.00205761 </v>
   <v>       0.00205761 </v>
   <v>       0.00205761 </v>
   <v>       0.00102881 </v>
   <v>       0.00205761 </v>
   <v>       0.00205761 </v>
   <v>       0.00205761 </v>
   <v>       0.00205761 </v>
   <v>       0.00205761 </v>
   <v>       0.00205761 </v>
   <v>       0.00205761 </v>
   <v>       0.00205761 </v>
   <v>       0.00205761 </v>
   <v>       0.00205761 </v>
   <v>       0.00102881 </v>
   <v>       0.00205761 </v>
   <v>       0.00205761 </v>
   <v>       0.00205761 </v>
   <v>       0.00205761 </v>
   <v>       0.00205761 </v>
   <v>       0.00205761 </v>
   <v>       0.00205761 </v>
   <v>       0.00205761 </v>
   <v>       0.00205761 </v>
   <v>       0.00102881 </v>
   <v>       0.00205761 </v>
   <v>       0.00205761 </v>
   <v>       0.00205761 </v>
   <v>       0.00205761 </v>
   <v>       0.00205761 </v>
   <v>       0.00205761 </v>
   <v>       0.00205761 </v>
   <v>       0.00205761 </v>
   <v>       0.00102881 </v>
   <v>       0.00205761 </v>
   <v>       0.00205761 </v>
   <v>       0.00205761 </v>
   <v>       0.00205761 </v>
   <v>       0.00205761 </v>
   <v>       0.00205761 </v>
   <v>       0.00205761 </v>
   <v>       0.00102881 </v>
   <v>       0.00205761 </v>
   <v>       0.00205761 </v>
   <v>       0.00205761 </v>
   <v>       0.00205761 </v>
   <v>       0.00205761 </v>
   <v>       0.00102881 </v>
   <v>       0.00205761 </v>
   <v>       0.00205761 </v>
   <v>       0.00205761 </v>
   <v>       0.00205761 </v>
   <v>       0.00102881 </v>
   <v>       0.00205761 </v>
   <v>       0.00205761 </v>
   <v>       0.00205761 </v>
   <v>       0.00102881 </v>
   <v>       0.00205761 </v>
   <v>       0.00205761 </v>
   <v>       0.00102881 </v>
   <v>       0.00205761 </v>
   <v>       0.00102881 </v>
   <v>       0.00034294 </v>
   <v>       0.00102881 </v>
   <v>       0.00102881 </v>
   <v>       0.00102881 </v>
   <v>       0.00102881 </v>
   <v>       0.00102881 </v>
   <v>       0.00102881 </v>
   <v>       0.00102881 </v>
   <v>       0.00102881 </v>
   <v>       0.00102881 </v>
   <v>       0.00102881 </v>
   <v>       0.00102881 </v>
   <v>       0.00102881 </v>
   <v>       0.00205761 </v>
   <v>       0.00205761 </v>
   <v>       0.00205761 </v>
   <v>       0.00205761 </v>
   <v>       0.00205761 </v>
   <v>       0.00205761 </v>
   <v>       0.00205761 </v>
   <v>       0.00205761 </v>
   <v>       0.00205761 </v>
   <v>       0.00205761 </v>
   <v>       0.00102881 </v>
   <v>       0.00205761 </v>
   <v>       0.00205761 </v>
   <v>       0.00205761 </v>
   <v>       0.00205761 </v>
   <v>       0.00205761 </v>
   <v>       0.00205761 </v>
   <v>       0.00205761 </v>
   <v>       0.00205761 </v>
   <v>       0.00205761 </v>
   <v>       0.00102881 </v>
   <v>       0.00205761 </v>
   <v>       0.00205761 </v>
   <v>       0.00205761 </v>
   <v>       0.00205761 </v>
   <v>       0.00205761 </v>
   <v>       0.00205761 </v>
   <v>       0.00205761 </v>
   <v>       0.00205761 </v>
   <v>       0.00102881 </v>
   <v>       0.00205761 </v>
   <v>       0.00205761 </v>
   <v>       0.00205761 </v>
   <v>       0.00205761 </v>
   <v>       0.00205761 </v>
   <v>       0.00205761 </v>
   <v>       0.00205761 </v>
   <v>       0.00102881 </v>
   <v>       0.00205761 </v>
   <v>       0.00205761 </v>
   <v>       0.00205761 </v>
   <v>       0.00205761 </v>
   <v>       0.00205761 </v>
   <v>       0.00205761 </v>
   <v>       0.00102881 </v>
   <v>       0.00205761 </v>
   <v>       0.00205761 </v>
   <v>       0.00205761 </v>
   <v>       0.00205761 </v>
   <v>       0.00102881 </v>
   <v>       0.00205761 </v>
   <v>       0.00205761 </v>
   <v>       0.00205761 </v>
   <v>       0.00102881 </v>
   <v>       0.00205761 </v>
   <v>       0.00205761 </v>
   <v>       0.00102881 </v>
   <v>       0.00205761 </v>
   <v>       0.00102881 </v>
   <v>       0.00034294 </v>
   <v>       0.00102881 </v>
   <v>       0.00102881 </v>
   <v>       0.00102881 </v>
   <v>       0.00102881 </v>
   <v>       0.00102881 </v>
   <v>       0.00102881 </v>
   <v>       0.00102881 </v>
   <v>       0.00102881 </v>
   <v>       0.00102881 </v>
   <v>       0.00102881 </v>
   <v>       0.00205761 </v>
   <v>       0.00205761 </v>
   <v>       0.00205761 </v>
   <v>       0.00205761 </v>
   <v>       0.00205761 </v>
   <v>       0.00205761 </v>
   <v>       0.00205761 </v>
   <v>       0.00205761 </v>
   <v>       0.00102881 </v>
   <v>       0.00205761 </v>
   <v>       0.00205761 </v>
   <v>       0.00205761 </v>
   <v>       0.00205761 </v>
   <v>       0.00205761 </v>
   <v>       0.00205761 </v>
   <v>       0.00205761 </v>
   <v>       0.00102881 </v>
   <v>       0.00205761 </v>
   <v>       0.00205761 </v>
   <v>       0.00205761 </v>
   <v>       0.00205761 </v>
   <v>       0.00205761 </v>
   <v>       0.00205761 </v>
   <v>       0.00102881 </v>
   <v>       0.00205761 </v>
   <v>       0.00205761 </v>
   <v>       0.00205761 </v>
   <v>       0.00205761 </v>
   <v>       0.00205761 </v>
   <v>       0.00102881 </v>
   <v>       0.00205761 </v>
   <v>       0.00205761 </v>
   <v>       0.00205761 </v>
   <v>       0.00102881 </v>
   <v>       0.00205761 </v>
   <v>       0.00205761 </v>
   <v>       0.00102881 </v>
   <v>       0.00205761 </v>
   <v>       0.00102881 </v>
   <v>       0.00034294 </v>
   <v>       0.00102881 </v>
   <v>       0.00102881 </v>
   <v>       0.00102881 </v>
   <v>       0.00102881 </v>
   <v>       0.00102881 </v>
   <v>       0.00102881 </v>
   <v>       0.00102881 </v>
   <v>       0.00102881 </v>
   <v>       0.00205761 </v>
   <v>       0.00205761 </v>
   <v>       0.00205761 </v>
   <v>       0.00205761 </v>
   <v>       0.00205761 </v>
   <v>       0.00205761 </v>
   <v>       0.00102881 </v>
   <v>       0.00205761 </v>
   <v>       0.00205761 </v>
   <v>       0.00205761 </v>
   <v>       0.00205761 </v>
   <v>       0.00205761 </v>
   <v>       0.00102881 </v>
   <v>       0.00205761 </v>
   <v>       0.00205761 </v>
   <v>       0.00205761 </v>
   <v>       0.00205761 </v>
   <v>       0.00102881 </v>
   <v>       0.00205761 </v>
   <v>       0.00205761 </v>
   <v>       0.00102881 </v>
   <v>       0.00205761 </v>
   <v>       0.00102881 </v>
   <v>       0.00034294 </v>
   <v>       0.00102881 </v>
   <v>       0.00102881 </v>
   <v>       0.00102881 </v>
   <v>       0.00102881 </v>
   <v>       0.00102881 </v>
   <v>       0.00102881 </v>
   <v>       0.00205761 </v>
   <v>       0.00205761 </v>
   <v>       0.00205761 </v>
   <v>       0.00205761 </v>
   <v>       0.00102881 </v>
   <v>       0.00205761 </v>
   <v>       0.00205761 </v>
   <v>       0.00205761 </v>
   <v>       0.00102881 </v>
   <v>       0.00205761 </v>
   <v>       0.00102881 </v>
   <v>       0.00034294 </v>
   <v>       0.00102881 </v>
   <v>       0.00102881 </v>
   <v>       0.00102881 </v>
   <v>       0.00102881 </v>
   <v>       0.00205761 </v>
   <v>       0.00205761 </v>
   <v>       0.00102881 </v>
   <v>       0.00034294 </v>
   <v>       0.00102881 </v>
  </varray>
 </kpoints>
 <parameters>
  <separator name="general" >
   <i type="string" name="SYSTEM">unknown system</i>
   <i type="logical" name="LCOMPAT"> F  </i>
  </separator>
  <separator name="electronic" >
   <i type="string" name="PREC">accura</i>
   <i name="ENMAX">    350.00000000</i>
   <i name="ENAUG">    322.06900000</i>
   <i name="EDIFF">      0.00000100</i>
   <i type="int" name="IALGO">    38</i>
   <i type="int" name="IWAVPR">    11</i>
   <i type="int" name="NBANDS">     8</i>
   <i type="int" name="NBANDSLOW">    -1</i>
   <i type="int" name="NBANDSHIGH">    -1</i>
   <i name="NELECT">      8.00000000</i>
   <i type="int" name="TURBO">     0</i>
   <i type="int" name="IRESTART">     0</i>
   <i type="int" name="NREBOOT">     0</i>
   <i type="int" name="NMIN">     0</i>
   <i name="EREF">      0.00000000</i>
   <separator name="electronic smearing" >
    <i type="int" name="ISMEAR">     0</i>
    <i name="SIGMA">      0.05000000</i>
    <i name="KSPACING">      0.50000000</i>
    <i type="logical" name="KGAMMA"> T  </i>
    <i type="logical" name="KBLOWUP"> T  </i>
   </separator>
   <separator name="electronic projectors" >
    <i type="logical" name="LREAL"> F  </i>
    <v name="ROPT">      0.00000000</v>
    <i type="int" name="LMAXPAW">  -100</i>
    <i type="int" name="LMAXMIX">     2</i>
    <i type="logical" name="NLSPLINE"> F  </i>
   </separator>
   <separator name="electronic startup" >
    <i type="int" name="ISTART">     0</i>
    <i type="int" name="ICHARG">     2</i>
    <i type="int" name="INIWAV">     1</i>
   </separator>
   <separator name="electronic spin" >
    <i type="int" name="ISPIN">     1</i>
    <i type="logical" name="LNONCOLLINEAR"> F  </i>
    <v name="MAGMOM">      1.00000000      1.00000000</v>
    <i name="NUPDOWN">     -1.00000000</i>
    <i type="logical" name="LSORBIT"> F  </i>
    <v name="SAXIS">      0.00000000      0.00000000      1.00000000</v>
    <i type="logical" name="LSPIRAL"> F  </i>
    <v name="QSPIRAL">      0.00000000      0.00000000      0.00000000</v>
    <i type="logical" name="LZEROZ"> F  </i>
   </separator>
   <separator name="electronic exchange-correlation" >
    <i type="logical" name="LASPH"> T  </i>
    <i type="logical" name="LMETAGGA"> F  </i>
   </separator>
   <separator name="electronic convergence" >
    <i type="int" name="NELM">    90</i>
    <i type="int" name="NELMDL">    -5</i>
    <i type="int" name="NELMIN">     6</i>
    <i name="ENINI">    350.00000000</i>
    <separator name="electronic convergence detail" >
     <i type="logical" name="LDIAG"> T  </i>
     <i type="logical" name="LSUBROT"> F  </i>
     <i name="WEIMIN">      0.00100000</i>
     <i name="EBREAK">      0.00000003</i>
     <i name="DEPER">      0.30000000</i>
     <i type="int" name="NRMM">     4</i>
     <i name="TIME">      0.40000000</i>
    </separator>
   </separator>
   <separator name="electronic mixer" >
    <i name="AMIX">      0.40000000</i>
    <i name="BMIX">      1.00000000</i>
    <i name="AMIN">      0.10000000</i>
    <i name="AMIX_MAG">      1.60000000</i>
    <i name="BMIX_MAG">      1.00000000</i>
    <separator name="electronic mixer details" >
     <i type="int" name="IMIX">     4</i>
     <i type="logical" name="MIXFIRST"> F  </i>
     <i type="int" name="MAXMIX">   -45</i>
     <i name="WC">    100.00000000</i>
     <i type="int" name="INIMIX">     1</i>
     <i type="int" name="MIXPRE">     1</i>
     <i type="int" name="MREMOVE">     5</i>
    </separator>
   </separator>
   <separator name="electronic dipolcorrection" >
    <i type="logical" name="LDIPOL"> F  </i>
    <i type="logical" name="LMONO"> F  </i>
    <i type="int" name="IDIPOL">     0</i>
    <i name="EPSILON">      1.00000000</i>
    <v name="DIPOL">   -100.00000000   -100.00000000   -100.00000000</v>
    <i name="EFIELD">      0.00000000</i>
   </separator>
  </separator>
  <separator name="grids" >
   <i type="int" name="NGX">    24</i>
   <i type="int" name="NGY">    24</i>
   <i type="int" name="NGZ">    24</i>
   <i type="int" name="NGXF">    48</i>
   <i type="int" name="NGYF">    48</i>
   <i type="int" name="NGZF">    48</i>
   <i type="logical" name="ADDGRID"> T  </i>
  </separator>
  <separator name="ionic" >
   <i type="int" name="NSW">   100</i>
   <i type="int" name="IBRION">     2</i>
   <i type="int" name="MDALGO">     0</i>
   <i type="int" name="ISIF">     3</i>
   <i name="PSTRESS">      0.00000000</i>
   <i name="EDIFFG">     -0.00200000</i>
   <i type="int" name="NFREE">     1</i>
   <i name="POTIM">      0.50000000</i>
   <i name="SMASS">     -3.00000000</i>
   <i name="SCALEE">      1.00000000</i>
  </separator>
  <separator name="ionic md" >
   <i name="TEBEG">      0.00010000</i>
   <i name="TEEND">      0.00010000</i>
   <i type="int" name="NBLOCK">     1</i>
   <i type="int" name="KBLOCK">   100</i>
   <i type="int" name="NPACO">   256</i>
   <i name="APACO">     16.00000000</i>
  </separator>
  <separator name="symmetry" >
   <i type="int" name="ISYM">     2</i>
   <i name="SYMPREC">      0.00001000</i>
  </separator>
  <separator name="dos" >
   <i type="int" name="LORBIT">     0</i>
   <v name="RWIGS">     -1.00000000</v>
   <i type="int" name="NEDOS">   301</i>
   <i name="EMIN">     10.00000000</i>
   <i name="EMAX">    -10.00000000</i>
   <i name="EFERMI">      0.00000000</i>
  </separator>
  <separator name="writing" >
   <i type="int" name="NWRITE">     2</i>
   <i type="logical" name="LWAVE"> F  </i>
   <i type="logical" name="LDOWNSAMPLE"> F  </i>
   <i type="logical" name="LCHARG"> F  </i>
   <i type="logical" name="LPARD"> F  </i>
   <i type="logical" name="LVTOT"> F  </i>
   <i type="logical" name="LVHAR"> F  </i>
   <i type="logical" name="LELF"> F  </i>
   <i type="logical" name="LOPTICS"> F  </i>
   <v name="STM">      0.00000000      0.00000000      0.00000000      0.00000000      0.00000000      0.00000000      0.00000000</v>
  </separator>
  <separator name="performance" >
   <i type="int" name="NPAR">     4</i>
   <i type="int" name="NSIM">     4</i>
   <i type="int" name="NBLK">    -1</i>
   <i type="logical" name="LPLANE"> T  </i>
   <i type="logical" name="LSCALAPACK"> T  </i>
   <i type="logical" name="LSCAAWARE"> F  </i>
   <i type="logical" name="LSCALU"> F  </i>
   <i type="logical" name="LASYNC"> F  </i>
   <i type="logical" name="LORBITALREAL"> F  </i>
  </separator>
  <separator name="miscellaneous" >
   <i type="int" name="IDIOT">     3</i>
   <i type="int" name="PHON_NSTRUCT">    -1</i>
   <i type="logical" name="LMUSIC"> F  </i>
   <v name="POMASS">     28.08500000</v>
   <v name="DARWINR">      0.00000000</v>
   <v name="DARWINV">      1.00000000</v>
   <i type="logical" name="LCORR"> T  </i>
  </separator>
  <i type="logical" name="GGA_COMPAT"> T  </i>
  <i type="logical" name="LBERRY"> F  </i>
  <i type="int" name="ICORELEVEL">     0</i>
  <i type="logical" name="LDAU"> F  </i>
  <i type="int" name="I_CONSTRAINED_M">     0</i>
  <separator name="electronic exchange-correlation" >
   <i type="string" name="GGA">--</i>
   <i type="int" name="VOSKOWN">     0</i>
   <i type="logical" name="LHFCALC"> F  </i>
   <i type="string" name="PRECFOCK"></i>
   <i type="logical" name="LSYMGRAD"> F  </i>
   <i type="logical" name="LHFONE"> F  </i>
   <i type="logical" name="LRHFCALC"> F  </i>
   <i type="logical" name="LTHOMAS"> F  </i>
   <i type="logical" name="LMODELHF"> F  </i>
   <i type="logical" name="LFOCKACE"> F  </i>
   <i name="ENCUT4O">     -1.00000000</i>
   <i type="int" name="EXXOEP">     0</i>
   <i type="int" name="FOURORBIT">     0</i>
   <i name="AEXX">      0.00000000</i>
   <i name="HFALPHA">      0.00000000</i>
   <i name="MCALPHA">      0.00000000</i>
   <i name="ALDAX">      1.00000000</i>
   <i name="AGGAX">      1.00000000</i>
   <i name="ALDAC">      1.00000000</i>
   <i name="AGGAC">      1.00000000</i>
   <i type="int" name="NKREDX">     1</i>
   <i type="int" name="NKREDY">     1</i>
   <i type="int" name="NKREDZ">     1</i>
   <i type="logical" name="SHIFTRED"> F  </i>
   <i type="logical" name="ODDONLY"> F  </i>
   <i type="logical" name="EVENONLY"> F  </i>
   <i type="int" name="LMAXFOCK">     0</i>
   <i type="int" name="NMAXFOCKAE">     0</i>
   <i type="logical" name="LFOCKAEDFT"> F  </i>
   <i name="HFSCREEN">      0.00000000</i>
   <i name="HFSCREENC">      0.00000000</i>
   <i type="int" name="NBANDSGWLOW">     0</i>
  </separator>
  <separator name="vdW DFT" >
   <i type="logical" name="LUSE_VDW"> F  </i>
   <i name="Zab_VDW">     -0.84910000</i>
   <i name="PARAM1">      0.12340000</i>
   <i name="PARAM2">      1.00000000</i>
   <i name="PARAM3">      0.00000000</i>
  </separator>
  <separator name="model GW" >
   <i type="int" name="MODEL_GW">     0</i>
   <i name="MODEL_EPS0">     12.09885805</i>
   <i name="MODEL_ALPHA">      1.00000000</i>
  </separator>
  <separator name="linear response parameters" >
   <i type="logical" name="LEPSILON"> F  </i>
   <i type="logical" name="LRPA"> F  </i>
   <i type="logical" name="LNABLA"> F  </i>
   <i type="logical" name="LVEL"> F  </i>
   <i type="int" name="KINTER">     0</i>
   <i name="CSHIFT">      0.10000000</i>
   <i name="OMEGAMAX">     -1.00000000</i>
   <i name="DEG_THRESHOLD">      0.00200000</i>
   <i name="RTIME">     -0.10000000</i>
   <i name="WPLASMAI">      0.00000000</i>
   <v name="DFIELD">      0.00000000      0.00000000      0.00000000</v>
   <v name="WPLASMA">      0.00000000      0.00000000      0.00000000      0.00000000      0.00000000      0.00000000      0.00000000      0.00000000      0.00000000</v>
  </separator>
  <separator name="orbital magnetization" >
   <i type="logical" name="NUCIND"> F  </i>
   <v name="MAGPOS">      0.00000000      0.00000000      0.00000000</v>
   <i type="logical" name="LNICSALL"> T  </i>
   <i type="logical" name="ORBITALMAG"> F  </i>
   <i type="logical" name="LMAGBLOCH"> F  </i>
   <i type="logical" name="LCHIMAG"> F  </i>
   <i type="logical" name="LGAUGE"> T  </i>
   <i type="int" name="MAGATOM">     0</i>
   <v name="MAGDIPOL">      0.00000000      0.00000000      0.00000000</v>
   <v name="AVECCONST">      0.00000000      0.00000000      0.00000000</v>
  </separator>
  <separator name="response functions" >
   <i type="logical" name="LFINITE_TEMPERATURE"> F  </i>
   <i type="logical" name="LADDER"> F  </i>
   <i type="logical" name="LRPAFORCE"> F  </i>
   <i type="logical" name="LFXC"> F  </i>
   <i type="logical" name="LHARTREE"> T  </i>
   <i type="int" name="IBSE">     0</i>
   <v type="int" name="KPOINT">    -1     0     0     0</v>
   <i type="logical" name="LTCTC"> F  </i>
   <i type="logical" name="LTCTE"> F  </i>
   <i type="logical" name="LTETE"> F  </i>
   <i type="logical" name="LTRIPLET"> F  </i>
   <i type="logical" name="LFXCEPS"> F  </i>
   <i type="logical" name="LFXHEG"> F  </i>
   <i type="int" name="NATURALO">     2</i>
   <i type="logical" name="LHOLEGF"> F  </i>
   <i type="logical" name="L2ORDER"> F  </i>
   <i type="logical" name="LDMP1"> F  </i>
   <i type="logical" name="LMP2LT"> F  </i>
   <i type="logical" name="LSMP2LT"> F  </i>
   <i type="logical" name="LGWLF"> F  </i>
   <i name="ENCUTGW">     -2.00000000</i>
   <i name="ENCUTGWSOFT">     -2.00000000</i>
   <i name="ENCUTLF">     -1.00000000</i>
   <i type="logical" name="LESF_SPLINES"> F  </i>
   <i type="int" name="LMAXMP2">    -1</i>
   <i name="SCISSOR">      0.00000000</i>
   <i type="int" name="NOMEGA">     0</i>
   <i type="int" name="NOMEGAR">     0</i>
   <i type="int" name="NBANDSGW">    -1</i>
   <i type="int" name="NBANDSO">    -1</i>
   <i type="int" name="NBANDSV">    -1</i>
   <i type="int" name="NELM">    90</i>
   <i type="int" name="NELMHF">     1</i>
   <i type="int" name="DIM">     3</i>
   <i type="int" name="IESPILON">     4</i>
   <i type="int" name="ANTIRES">     0</i>
   <i name="OMEGAMAX">    -30.00000000</i>
   <i name="OMEGAMIN">    -30.00000000</i>
   <i name="OMEGATL">   -200.00000000</i>
   <i type="int" name="OMEGAGRID">     0</i>
   <i name="CSHIFT">     -0.10000000</i>
   <i type="logical" name="LSELFENERGY"> F  </i>
   <i type="logical" name="LSPECTRAL"> F  </i>
   <i type="logical" name="LSPECTRALGW"> F  </i>
   <i type="logical" name="LSINGLES"> F  </i>
   <i type="logical" name="LFERMIGW"> F  </i>
   <i type="logical" name="ODDONLYGW"> F  </i>
   <i type="logical" name="EVENONLYGW"> F  </i>
   <i type="int" name="NKREDLFX">     1</i>
   <i type="int" name="NKREDLFY">     1</i>
   <i type="int" name="NKREDLFZ">     1</i>
   <i type="int" name="MAXMEM">  2800</i>
   <i type="int" name="TELESCOPE">     0</i>
   <i type="int" name="NTAUPAR">    -1</i>
   <i type="int" name="NOMEGAPAR">    -1</i>
   <i name="DAMP_NEWTON">      0.80000001</i>
   <i name="LAMBDA">      1.00000000</i>
  </separator>
  <separator name="External order field" >
   <i name="OFIELD_KAPPA">      0.00000000</i>
   <v name="OFIELD_K">      0.00000000      0.00000000      0.00000000</v>
   <i name="OFIELD_Q6_NEAR">      0.00000000</i>
   <i name="OFIELD_Q6_FAR">      0.00000000</i>
   <i name="OFIELD_A">      0.00000000</i>
  </separator>
 </parameters>
 <atominfo>
  <atoms>       2 </atoms>
  <types>       1 </types>
  <array name="atoms" >
   <dimension dim="1">ion</dimension>
   <field type="string">element</field>
   <field type="int">atomtype</field>
   <set>
    <rc><c>Si</c><c>   1</c></rc>
    <rc><c>Si</c><c>   1</c></rc>
   </set>
  </array>
  <array name="atomtypes" >
   <dimension dim="1">type</dimension>
   <field type="int">atomspertype</field>
   <field type="string">element</field>
   <field>mass</field>
   <field>valence</field>
   <field type="string">pseudopotential</field>
   <set>
    <rc><c>   2</c><c>Si</c><c>     28.08500000</c><c>      4.00000000</c><c>  PAW_PBE Si 05Jan2001                  </c></rc>
   </set>
  </array>
 </atominfo>
 <structure name="initialpos" >
  <crystal>
   <varray name="basis" >
    <v>       3.33357300       0.00000000       1.92463900 </v>
    <v>       1.11119100       3.14292400       1.92463900 </v>
    <v>       0.00000000       0.00000000       3.84927800 </v>
   </varray>
   <i name="volume">     40.32952685 </i>
   <varray name="rec_basis" >
    <v>       0.29997843      -0.10605835       0.00000000 </v>
    <v>       0.00000000       0.31817505       0.00000000 </v>
    <v>      -0.14998922      -0.10605835       0.25978898 </v>
   </varray>
  </crystal>
  <varray name="positions" >
   <v>       0.87500000       0.87500000       0.87500000 </v>
   <v>       0.12500000       0.12500000       0.12500000 </v>
  </varray>
 </structure>
 <calculation>
  <scstep>
   <time name="dav">    4.60    4.60</time>
   <time name="total">    4.81    4.82</time>
   <energy>
    <i name="alphaZ">      3.33880741 </i>
    <i name="ewald">   -227.98820643 </i>
    <i name="hartreedc">    -11.11484531 </i>
    <i name="XCdc">    -18.63153637 </i>
    <i name="pawpsdc">    176.24759923 </i>
    <i name="pawaedc">   -141.06103558 </i>
    <i name="eentropy">     -0.00052324 </i>
    <i name="bandstr">     14.53993923 </i>
    <i name="atom">    206.13125414 </i>
    <i name="e_fr_energy">      1.46145308 </i>
    <i name="e_wo_entrp">      1.46197632 </i>
    <i name="e_0_energy">      1.46171470 </i>
   </energy>
  </scstep>
  <scstep>
   <time name="dav">    6.66    6.69</time>
   <time name="total">    6.67    6.69</time>
   <energy>
    <i name="e_fr_energy">    -10.88005015 </i>
    <i name="e_wo_entrp">    -10.88005015 </i>
    <i name="e_0_energy">    -10.88005015 </i>
   </energy>
  </scstep>
  <scstep>
   <time name="dav">    5.70    5.72</time>
   <time name="total">    5.70    5.72</time>
   <energy>
    <i name="e_fr_energy">    -11.02089343 </i>
    <i name="e_wo_entrp">    -11.02089343 </i>
    <i name="e_0_energy">    -11.02089343 </i>
   </energy>
  </scstep>
  <scstep>
   <time name="dav">    6.81    6.86</time>
   <time name="total">    6.81    6.87</time>
   <energy>
    <i name="e_fr_energy">    -11.02146404 </i>
    <i name="e_wo_entrp">    -11.02146404 </i>
    <i name="e_0_energy">    -11.02146404 </i>
   </energy>
  </scstep>
  <scstep>
   <time name="dav">    5.75    5.76</time>
   <time name="total">    6.06    6.08</time>
   <energy>
    <i name="e_fr_energy">    -11.02146461 </i>
    <i name="e_wo_entrp">    -11.02146461 </i>
    <i name="e_0_energy">    -11.02146461 </i>
   </energy>
  </scstep>
  <scstep>
   <time name="dav">    5.31    5.32</time>
   <time name="total">    5.82    5.84</time>
   <energy>
    <i name="e_fr_energy">    -10.89995975 </i>
    <i name="e_wo_entrp">    -10.89995975 </i>
    <i name="e_0_energy">    -10.89995975 </i>
   </energy>
  </scstep>
  <scstep>
   <time name="dav">    5.62    5.63</time>
   <time name="total">    6.13    6.16</time>
   <energy>
    <i name="e_fr_energy">    -10.84441398 </i>
    <i name="e_wo_entrp">    -10.84441398 </i>
    <i name="e_0_energy">    -10.84441398 </i>
   </energy>
  </scstep>
  <scstep>
   <time name="dav">    5.20    5.21</time>
   <time name="total">    5.71    5.72</time>
   <energy>
    <i name="e_fr_energy">    -10.84547287 </i>
    <i name="e_wo_entrp">    -10.84547287 </i>
    <i name="e_0_energy">    -10.84547287 </i>
   </energy>
  </scstep>
  <scstep>
   <time name="dav">    6.43    6.44</time>
   <time name="total">    6.94    6.96</time>
   <energy>
    <i name="e_fr_energy">    -10.84566686 </i>
    <i name="e_wo_entrp">    -10.84566686 </i>
    <i name="e_0_energy">    -10.84566686 </i>
   </energy>
  </scstep>
  <scstep>
   <time name="dav">    5.40    5.41</time>
   <time name="total">    5.91    5.93</time>
   <energy>
    <i name="e_fr_energy">    -10.84569173 </i>
    <i name="e_wo_entrp">    -10.84569173 </i>
    <i name="e_0_energy">    -10.84569173 </i>
   </energy>
  </scstep>
  <scstep>
   <time name="dav">    6.07    6.07</time>
   <time name="total">    6.28    6.30</time>
   <energy>
    <i name="alphaZ">      3.33880741 </i>
    <i name="ewald">   -227.98820643 </i>
    <i name="hartreedc">    -15.00437828 </i>
    <i name="XCdc">    -17.99571338 </i>
    <i name="pawpsdc">    864.83470640 </i>
    <i name="pawaedc">   -829.86625241 </i>
    <i name="eentropy">     -0.00000000 </i>
    <i name="bandstr">      5.70409107 </i>
    <i name="atom">    206.13125414 </i>
    <i name="e_fr_energy">    -10.84569147 </i>
    <i name="e_wo_entrp">    -10.84569147 </i>
    <i name="e_0_energy">    -10.84569147 </i>
   </energy>
  </scstep>
  <structure>
   <crystal>
    <varray name="basis" >
     <v>       3.33357300       0.00000000       1.92463900 </v>
     <v>       1.11119100       3.14292400       1.92463900 </v>
     <v>       0.00000000       0.00000000       3.84927800 </v>
    </varray>
    <i name="volume">     40.32952685 </i>
    <varray name="rec_basis" >
     <v>       0.29997843      -0.10605835       0.00000000 </v>
     <v>       0.00000000       0.31817505       0.00000000 </v>
     <v>      -0.14998922      -0.10605835       0.25978898 </v>
    </varray>
   </crystal>
   <varray name="positions" >
    <v>       0.87500000       0.87500000       0.87500000 </v>
    <v>       0.12500000       0.12500000       0.12500000 </v>
   </varray>
  </structure>
  <varray name="forces" >
   <v>      -0.00000000       0.00000000      -0.00000000 </v>
   <v>       0.00000000      -0.00000000       0.00000000 </v>
  </varray>
  <varray name="stress" >
   <v>      12.13724498       0.00000000       0.00000000 </v>
   <v>      -0.00000000      12.13725452       0.00000000 </v>
   <v>       0.00000000      -0.00000000      12.13724159 </v>
  </varray>
  <energy>
   <i name="e_fr_energy">    -10.84569147 </i>
   <i name="e_wo_entrp">    -10.84569147 </i>
   <i name="e_0_energy">    -10.84569147 </i>
  </energy>
  <time name="totalsc">   72.16   72.89</time>
 </calculation>
 <calculation>
  <scstep>
   <time name="dav">    5.60    5.61</time>
   <time name="total">    6.11    6.12</time>
   <energy>
    <i name="alphaZ">      3.26606682 </i>
    <i name="ewald">   -226.32035429 </i>
    <i name="hartreedc">    -14.89620879 </i>
    <i name="XCdc">    -18.10334740 </i>
    <i name="pawpsdc">    864.77346273 </i>
    <i name="pawaedc">   -829.80502470 </i>
    <i name="eentropy">     -0.00000000 </i>
    <i name="bandstr">      4.10467941 </i>
    <i name="atom">    206.13125414 </i>
    <i name="e_fr_energy">    -10.84947208 </i>
    <i name="e_wo_entrp">    -10.84947208 </i>
    <i name="e_0_energy">    -10.84947208 </i>
   </energy>
  </scstep>
  <scstep>
   <time name="dav">    5.97    5.98</time>
   <time name="total">    6.48    6.50</time>
   <energy>
    <i name="e_fr_energy">    -10.84770541 </i>
    <i name="e_wo_entrp">    -10.84770541 </i>
    <i name="e_0_energy">    -10.84770541 </i>
   </energy>
  </scstep>
  <scstep>
   <time name="dav">    5.32    5.32</time>
   <time name="total">    5.82    5.84</time>
   <energy>
    <i name="e_fr_energy">    -10.84677516 </i>
    <i name="e_wo_entrp">    -10.84677516 </i>
    <i name="e_0_energy">    -10.84677516 </i>
   </energy>
  </scstep>
  <scstep>
   <time name="dav">    6.30    6.30</time>
   <time name="total">    6.80    6.83</time>
   <energy>
    <i name="e_fr_energy">    -10.84677512 </i>
    <i name="e_wo_entrp">    -10.84677512 </i>
    <i name="e_0_energy">    -10.84677512 </i>
   </energy>
  </scstep>
  <scstep>
   <time name="dav">    5.28    5.29</time>
   <time name="total">    5.78    5.81</time>
   <energy>
    <i name="e_fr_energy">    -10.84676874 </i>
    <i name="e_wo_entrp">    -10.84676874 </i>
    <i name="e_0_energy">    -10.84676874 </i>
   </energy>
  </scstep>
  <scstep>
   <time name="dav">    3.61    3.61</time>
   <time name="total">    3.82    3.84</time>
   <energy>
    <i name="alphaZ">      3.26606682 </i>
    <i name="ewald">   -226.32035429 </i>
    <i name="hartreedc">    -15.26872676 </i>
    <i name="XCdc">    -18.09609816 </i>
    <i name="pawpsdc">    826.74783872 </i>
    <i name="pawaedc">   -791.76043311 </i>
    <i name="eentropy">     -0.00000000 </i>
    <i name="bandstr">      4.45368371 </i>
    <i name="atom">    206.13125414 </i>
    <i name="e_fr_energy">    -10.84676892 </i>
    <i name="e_wo_entrp">    -10.84676892 </i>
    <i name="e_0_energy">    -10.84676892 </i>
   </energy>
  </scstep>
  <structure>
   <crystal>
    <varray name="basis" >
     <v>       3.35813953       0.00000000       1.93882249 </v>
     <v>       1.11937984       3.16608557       1.93882249 </v>
     <v>       0.00000000      -0.00000000       3.87764497 </v>
    </varray>
    <i name="volume">     41.22773064 </i>
    <varray name="rec_basis" >
     <v>       0.29778393      -0.10528248      -0.00000000 </v>
     <v>      -0.00000000       0.31584743       0.00000000 </v>
     <v>      -0.14889197      -0.10528248       0.25788849 </v>
    </varray>
   </crystal>
   <varray name="positions" >
    <v>       0.87500000       0.87500000       0.87500000 </v>
    <v>       0.12500000       0.12500000       0.12500000 </v>
   </varray>
  </structure>
  <varray name="forces" >
   <v>       0.00000000      -0.00000000      -0.00000000 </v>
   <v>      -0.00000000       0.00000000       0.00000000 </v>
  </varray>
  <varray name="stress" >
   <v>      -7.75147773       0.00000000       0.00000000 </v>
   <v>      -0.00000000      -7.75148391       0.00000000 </v>
   <v>      -0.00000000      -0.00000000      -7.75147553 </v>
  </varray>
  <energy>
   <i name="e_fr_energy">    -10.84676892 </i>
   <i name="e_wo_entrp">    -10.84676892 </i>
   <i name="e_0_energy">    -10.84676892 </i>
  </energy>
  <time name="totalsc">   40.09   40.64</time>
 </calculation>
 <calculation>
  <scstep>
   <time name="dav">    5.53    5.53</time>
   <time name="total">    6.03    6.04</time>
   <energy>
    <i name="alphaZ">      3.29543656 </i>
    <i name="ewald">   -226.99671778 </i>
    <i name="hartreedc">    -15.31509151 </i>
    <i name="XCdc">    -18.05261166 </i>
    <i name="pawpsdc">    824.98782868 </i>
    <i name="pawaedc">   -790.00053556 </i>
    <i name="eentropy">     -0.00000000 </i>
    <i name="bandstr">      5.10233232 </i>
    <i name="atom">    206.13125414 </i>
    <i name="e_fr_energy">    -10.84810481 </i>
    <i name="e_wo_entrp">    -10.84810481 </i>
    <i name="e_0_energy">    -10.84810481 </i>
   </energy>
  </scstep>
  <scstep>
   <time name="dav">    6.04    6.05</time>
   <time name="total">    6.55    6.58</time>
   <energy>
    <i name="e_fr_energy">    -10.84781333 </i>
    <i name="e_wo_entrp">    -10.84781333 </i>
    <i name="e_0_energy">    -10.84781333 </i>
   </energy>
  </scstep>
  <scstep>
   <time name="dav">    5.30    5.31</time>
   <time name="total">    5.82    5.84</time>
   <energy>
    <i name="e_fr_energy">    -10.84766607 </i>
[...]
       <r>   -1.0911    1.0000 </r>
       <r>    2.3727    1.0000 </r>
       <r>    3.7324    1.0000 </r>
       <r>    7.8359    0.0000 </r>
       <r>    9.6099    0.0000 </r>
       <r>   10.9186    0.0000 </r>
       <r>   12.4048    0.0000 </r>
      </set>
      <set comment="kpoint 560">
       <r>   -3.3674    1.0000 </r>
       <r>   -1.0793    1.0000 </r>
       <r>    2.0485    1.0000 </r>
       <r>    3.7772    1.0000 </r>
       <r>    7.5061    0.0000 </r>
       <r>   10.5674    0.0000 </r>
       <r>   10.7774    0.0000 </r>
       <r>   12.2937    0.0000 </r>
      </set>
      <set comment="kpoint 561">
       <r>   -4.2400    1.0000 </r>
       <r>   -0.7562    1.0000 </r>
       <r>    4.4933    1.0000 </r>
       <r>    4.4933    1.0000 </r>
       <r>    7.1503    0.0000 </r>
       <r>    9.0262    0.0000 </r>
       <r>    9.0262    0.0000 </r>
       <r>   13.4043    0.0000 </r>
      </set>
      <set comment="kpoint 562">
       <r>   -4.0900    1.0000 </r>
       <r>   -0.9205    1.0000 </r>
       <r>    4.1047    1.0000 </r>
       <r>    4.4774    1.0000 </r>
       <r>    7.4033    0.0000 </r>
       <r>    9.0246    0.0000 </r>
       <r>    9.0733    0.0000 </r>
       <r>   13.4827    0.0000 </r>
      </set>
      <set comment="kpoint 563">
       <r>   -3.8893    1.0000 </r>
       <r>   -1.0178    1.0000 </r>
       <r>    3.4118    1.0000 </r>
       <r>    4.3144    1.0000 </r>
       <r>    7.8190    0.0000 </r>
       <r>    9.0777    0.0000 </r>
       <r>    9.4200    0.0000 </r>
       <r>   13.7425    0.0000 </r>
      </set>
      <set comment="kpoint 564">
       <r>   -3.6459    1.0000 </r>
       <r>   -1.0586    1.0000 </r>
       <r>    2.6819    1.0000 </r>
       <r>    4.0608    1.0000 </r>
       <r>    7.8005    0.0000 </r>
       <r>    9.6479    0.0000 </r>
       <r>   10.0091    0.0000 </r>
       <r>   13.5256    0.0000 </r>
      </set>
      <set comment="kpoint 565">
       <r>   -3.9932    1.0000 </r>
       <r>   -1.0672    1.0000 </r>
       <r>    4.1956    1.0000 </r>
       <r>    4.3489    1.0000 </r>
       <r>    7.3900    0.0000 </r>
       <r>    8.9014    0.0000 </r>
       <r>    9.1747    0.0000 </r>
       <r>   13.4323    0.0000 </r>
      </set>
      <set comment="kpoint 566">
       <r>   -3.8524    1.0000 </r>
       <r>   -1.1380    1.0000 </r>
       <r>    3.6766    1.0000 </r>
       <r>    4.2570    1.0000 </r>
       <r>    7.7562    0.0000 </r>
       <r>    8.8405    0.0000 </r>
       <r>    9.4482    0.0000 </r>
       <r>   13.5807    0.0000 </r>
      </set>
      <set comment="kpoint 567">
       <r>   -3.6747    1.0000 </r>
       <r>   -1.1368    1.0000 </r>
       <r>    3.0091    1.0000 </r>
       <r>    4.0286    1.0000 </r>
       <r>    8.0394    0.0000 </r>
       <r>    8.9416    0.0000 </r>
       <r>   10.0697    0.0000 </r>
       <r>   13.5939    0.0000 </r>
      </set>
      <set comment="kpoint 568">
       <r>   -3.7793    1.0000 </r>
       <r>   -1.1773    1.0000 </r>
       <r>    3.4856    1.0000 </r>
       <r>    4.1960    1.0000 </r>
       <r>    7.7739    0.0000 </r>
       <r>    9.0101    0.0000 </r>
       <r>    9.5122    0.0000 </r>
       <r>   13.5452    0.0000 </r>
      </set>
      <set comment="kpoint 569">
       <r>   -3.9582    1.0000 </r>
       <r>   -1.1881    1.0000 </r>
       <r>    4.4495    1.0000 </r>
       <r>    4.4495    1.0000 </r>
       <r>    7.0996    0.0000 </r>
       <r>    8.9811    0.0000 </r>
       <r>    8.9811    0.0000 </r>
       <r>   13.3371    0.0000 </r>
      </set>
      <set comment="kpoint 570">
       <r>   -3.8855    1.0000 </r>
       <r>   -1.2245    1.0000 </r>
       <r>    4.1263    1.0000 </r>
       <r>    4.3906    1.0000 </r>
       <r>    7.3718    0.0000 </r>
       <r>    8.9387    0.0000 </r>
       <r>    9.1016    0.0000 </r>
       <r>   13.4740    0.0000 </r>
      </set>
     </set>
    </set>
   </array>
  </eigenvalues>
  <separator name="orbital magnetization" >
   <v name="MAGDIPOLOUT">      0.00000000      0.00000000      0.00000000</v>
  </separator>
  <dos>
   <i name="efermi">      5.82437757 </i>
   <total>
    <array>
     <dimension dim="1">gridpoints</dimension>
     <dimension dim="2">spin</dimension>
     <field>energy</field>
     <field>total</field>
     <field>integrated</field>
     <set>
      <set comment="spin 1">
       <r>    -7.2685     0.0000     0.0000 </r>
       <r>    -7.1892     0.0000     0.0000 </r>
       <r>    -7.1099     0.0000     0.0000 </r>
       <r>    -7.0305     0.0000     0.0000 </r>
       <r>    -6.9512     0.0000     0.0000 </r>
       <r>    -6.8718     0.0000     0.0000 </r>
       <r>    -6.7925     0.0000     0.0000 </r>
       <r>    -6.7132     0.0000     0.0000 </r>
       <r>    -6.6338     0.0000     0.0000 </r>
       <r>    -6.5545     0.0000     0.0000 </r>
       <r>    -6.4752     0.0000     0.0000 </r>
       <r>    -6.3958     0.0000     0.0000 </r>
       <r>    -6.3165     0.0000     0.0000 </r>
       <r>    -6.2372     0.0011     0.0001 </r>
       <r>    -6.1578     0.0292     0.0024 </r>
       <r>    -6.0785     0.0945     0.0099 </r>
       <r>    -5.9992     0.1404     0.0210 </r>
       <r>    -5.9198     0.1710     0.0346 </r>
       <r>    -5.8405     0.2034     0.0507 </r>
       <r>    -5.7611     0.2246     0.0686 </r>
       <r>    -5.6818     0.2479     0.0882 </r>
       <r>    -5.6025     0.2737     0.1099 </r>
       <r>    -5.5231     0.2917     0.1331 </r>
       <r>    -5.4438     0.3005     0.1569 </r>
       <r>    -5.3645     0.3504     0.1847 </r>
       <r>    -5.2851     0.3251     0.2105 </r>
       <r>    -5.2058     0.3766     0.2404 </r>
       <r>    -5.1265     0.3904     0.2714 </r>
       <r>    -5.0471     0.3908     0.3024 </r>
       <r>    -4.9678     0.4156     0.3354 </r>
       <r>    -4.8885     0.4597     0.3718 </r>
       <r>    -4.8091     0.4367     0.4065 </r>
       <r>    -4.7298     0.4670     0.4435 </r>
       <r>    -4.6504     0.5217     0.4849 </r>
       <r>    -4.5711     0.4962     0.5243 </r>
       <r>    -4.4918     0.5271     0.5661 </r>
       <r>    -4.4124     0.5480     0.6096 </r>
       <r>    -4.3331     0.6213     0.6589 </r>
       <r>    -4.2538     0.5863     0.7054 </r>
       <r>    -4.1744     0.5825     0.7516 </r>
       <r>    -4.0951     0.7418     0.8104 </r>
       <r>    -4.0158     0.6954     0.8656 </r>
       <r>    -3.9364     0.8006     0.9291 </r>
       <r>    -3.8571     0.8523     0.9967 </r>
       <r>    -3.7777     0.8704     1.0658 </r>
       <r>    -3.6984     0.9566     1.1417 </r>
       <r>    -3.6191     0.7673     1.2026 </r>
       <r>    -3.5397     0.7992     1.2660 </r>
       <r>    -3.4604     0.7636     1.3265 </r>
       <r>    -3.3811     0.7961     1.3897 </r>
       <r>    -3.3017     0.7162     1.4465 </r>
       <r>    -3.2224     0.6984     1.5019 </r>
       <r>    -3.1431     0.6339     1.5522 </r>
       <r>    -3.0637     0.5810     1.5983 </r>
       <r>    -2.9844     0.6920     1.6532 </r>
       <r>    -2.9051     0.6595     1.7055 </r>
       <r>    -2.8257     0.4416     1.7406 </r>
       <r>    -2.7464     0.3867     1.7713 </r>
       <r>    -2.6670     0.6069     1.8194 </r>
       <r>    -2.5877     0.5758     1.8651 </r>
       <r>    -2.5084     0.3473     1.8926 </r>
       <r>    -2.4290     0.2538     1.9128 </r>
       <r>    -2.3497     0.2780     1.9348 </r>
       <r>    -2.2704     0.4775     1.9727 </r>
       <r>    -2.1910     0.2138     1.9897 </r>
       <r>    -2.1117     0.1188     1.9991 </r>
       <r>    -2.0324     0.0114     2.0000 </r>
       <r>    -1.9530     0.0121     2.0010 </r>
       <r>    -1.8737     0.2010     2.0169 </r>
       <r>    -1.7944     0.3750     2.0467 </r>
       <r>    -1.7150     0.2352     2.0653 </r>
       <r>    -1.6357     0.1714     2.0789 </r>
       <r>    -1.5563     0.1913     2.0941 </r>
       <r>    -1.4770     0.5363     2.1366 </r>
       <r>    -1.3977     0.7636     2.1972 </r>
       <r>    -1.3183     0.3601     2.2258 </r>
       <r>    -1.2390     0.4301     2.2599 </r>
       <r>    -1.1597     0.9780     2.3375 </r>
       <r>    -1.0803     1.7136     2.4735 </r>
       <r>    -1.0010     1.6189     2.6019 </r>
       <r>    -0.9217     1.0679     2.6866 </r>
       <r>    -0.8423     0.8146     2.7512 </r>
       <r>    -0.7630     0.8578     2.8193 </r>
       <r>    -0.6836     0.7306     2.8773 </r>
       <r>    -0.6043     0.8602     2.9455 </r>
       <r>    -0.5250     0.5845     2.9919 </r>
       <r>    -0.4456     0.6359     3.0423 </r>
       <r>    -0.3663     0.5325     3.0846 </r>
       <r>    -0.2870     0.4298     3.1187 </r>
       <r>    -0.2076     0.7002     3.1742 </r>
       <r>    -0.1283     0.4649     3.2111 </r>
       <r>    -0.0490     0.3622     3.2398 </r>
       <r>     0.0304     0.6044     3.2878 </r>
       <r>     0.1097     0.3200     3.3132 </r>
       <r>     0.1890     0.2830     3.3356 </r>
       <r>     0.2684     0.5531     3.3795 </r>
       <r>     0.3477     0.4064     3.4117 </r>
       <r>     0.4271     0.2315     3.4301 </r>
       <r>     0.5064     0.3283     3.4562 </r>
       <r>     0.5857     0.4645     3.4930 </r>
       <r>     0.6651     0.1806     3.5073 </r>
       <r>     0.7444     0.2340     3.5259 </r>
       <r>     0.8237     0.4497     3.5616 </r>
       <r>     0.9031     0.2775     3.5836 </r>
       <r>     0.9824     0.1498     3.5955 </r>
       <r>     1.0617     0.2080     3.6120 </r>
       <r>     1.1411     0.3832     3.6424 </r>
       <r>     1.2204     0.1758     3.6563 </r>
       <r>     1.2998     0.2076     3.6728 </r>
       <r>     1.3791     0.4417     3.7078 </r>
       <r>     1.4584     0.7994     3.7713 </r>
       <r>     1.5378     0.8469     3.8385 </r>
       <r>     1.6171     1.0775     3.9239 </r>
       <r>     1.6964     1.3263     4.0292 </r>
       <r>     1.7758     1.2053     4.1248 </r>
       <r>     1.8551     1.0672     4.2095 </r>
       <r>     1.9344     1.0646     4.2939 </r>
       <r>     2.0138     1.0271     4.3754 </r>
       <r>     2.0931     1.0499     4.4587 </r>
       <r>     2.1724     1.0109     4.5389 </r>
       <r>     2.2518     1.1431     4.6296 </r>
       <r>     2.3311     0.9862     4.7078 </r>
       <r>     2.4105     1.1039     4.7954 </r>
       <r>     2.4898     1.1882     4.8897 </r>
       <r>     2.5691     1.1271     4.9791 </r>
       <r>     2.6485     1.1960     5.0740 </r>
       <r>     2.7278     1.2312     5.1716 </r>
       <r>     2.8071     1.4766     5.2888 </r>
       <r>     2.8865     1.5365     5.4107 </r>
       <r>     2.9658     1.4010     5.5218 </r>
       <r>     3.0451     1.6215     5.6505 </r>
       <r>     3.1245     1.5183     5.7709 </r>
       <r>     3.2038     1.4146     5.8832 </r>
       <r>     3.2831     1.4553     5.9986 </r>
       <r>     3.3625     1.4940     6.1172 </r>
       <r>     3.4418     1.3292     6.2226 </r>
       <r>     3.5212     1.3883     6.3327 </r>
       <r>     3.6005     1.4528     6.4480 </r>
       <r>     3.6798     1.1914     6.5425 </r>
       <r>     3.7592     1.3835     6.6523 </r>
       <r>     3.8385     1.4182     6.7648 </r>
       <r>     3.9178     1.0785     6.8504 </r>
       <r>     3.9972     1.2796     6.9519 </r>
       <r>     4.0765     1.3954     7.0626 </r>
       <r>     4.1558     1.1083     7.1505 </r>
       <r>     4.2352     1.0961     7.2375 </r>
       <r>     4.3145     1.3324     7.3432 </r>
       <r>     4.3939     1.1512     7.4345 </r>
       <r>     4.4732     0.9026     7.5061 </r>
       <r>     4.5525     1.0878     7.5924 </r>
       <r>     4.6319     0.6955     7.6476 </r>
       <r>     4.7112     0.6204     7.6968 </r>
       <r>     4.7905     0.7046     7.7527 </r>
       <r>     4.8699     0.4947     7.7920 </r>
       <r>     4.9492     0.4232     7.8255 </r>
       <r>     5.0285     0.4811     7.8637 </r>
       <r>     5.1079     0.3738     7.8934 </r>
       <r>     5.1872     0.3165     7.9185 </r>
       <r>     5.2665     0.2722     7.9401 </r>
       <r>     5.3459     0.2755     7.9619 </r>
       <r>     5.4252     0.1791     7.9761 </r>
       <r>     5.5046     0.1645     7.9892 </r>
       <r>     5.5839     0.1033     7.9974 </r>
       <r>     5.6632     0.0317     7.9999 </r>
       <r>     5.7426     0.0013     8.0000 </r>
       <r>     5.8219     0.0000     8.0000 </r>
       <r>     5.9012     0.0000     8.0000 </r>
       <r>     5.9806     0.0000     8.0000 </r>
       <r>     6.0599     0.0000     8.0000 </r>
       <r>     6.1392     0.0000     8.0000 </r>
       <r>     6.2186     0.0031     8.0002 </r>
       <r>     6.2979     0.0572     8.0048 </r>
       <r>     6.3772     0.0965     8.0124 </r>
       <r>     6.4566     0.2560     8.0327 </r>
       <r>     6.5359     0.2568     8.0531 </r>
       <r>     6.6153     0.2819     8.0755 </r>
       <r>     6.6946     0.4446     8.1108 </r>
       <r>     6.7739     0.4545     8.1468 </r>
       <r>     6.8533     0.4224     8.1803 </r>
       <r>     6.9326     0.5034     8.2203 </r>
       <r>     7.0119     0.5528     8.2641 </r>
       <r>     7.0913     0.6824     8.3183 </r>
       <r>     7.1706     0.6826     8.3724 </r>
       <r>     7.2499     0.6823     8.4265 </r>
       <r>     7.3293     0.7893     8.4892 </r>
       <r>     7.4086     1.0371     8.5714 </r>
       <r>     7.4880     0.9216     8.6446 </r>
       <r>     7.5673     1.0600     8.7286 </r>
       <r>     7.6466     1.2600     8.8286 </r>
       <r>     7.7260     1.1268     8.9180 </r>
       <r>     7.8053     1.5764     9.0431 </r>
       <r>     7.8846     1.6106     9.1708 </r>
       <r>     7.9640     1.7042     9.3061 </r>
       <r>     8.0433     1.5971     9.4328 </r>
       <r>     8.1226     1.3593     9.5406 </r>
       <r>     8.2020     1.5553     9.6640 </r>
       <r>     8.2813     1.3028     9.7674 </r>
       <r>     8.3606     1.2350     9.8653 </r>
       <r>     8.4400     1.1497     9.9566 </r>
       <r>     8.5193     1.1328    10.0464 </r>
       <r>     8.5987     1.0876    10.1327 </r>
       <r>     8.6780     1.0554    10.2164 </r>
       <r>     8.7573     0.9626    10.2928 </r>
       <r>     8.8367     1.4425    10.4073 </r>
       <r>     8.9160     2.0925    10.5733 </r>
       <r>     8.9953     2.2991    10.7557 </r>
       <r>     9.0747     2.1729    10.9281 </r>
       <r>     9.1540     1.6962    11.0626 </r>
       <r>     9.2333     1.5340    11.1843 </r>
       <r>     9.3127     1.8017    11.3273 </r>
       <r>     9.3920     1.8270    11.4722 </r>
       <r>     9.4714     1.5299    11.5936 </r>
       <r>     9.5507     1.4514    11.7087 </r>
       <r>     9.6300     1.4226    11.8216 </r>
       <r>     9.7094     1.2798    11.9231 </r>
       <r>     9.7887     1.1969    12.0181 </r>
       <r>     9.8680     1.1126    12.1064 </r>
       <r>     9.9474     1.3451    12.2131 </r>
       <r>    10.0267     1.1988    12.3082 </r>
       <r>    10.1060     1.3056    12.4118 </r>
       <r>    10.1854     1.4158    12.5241 </r>
       <r>    10.2647     1.0546    12.6077 </r>
       <r>    10.3440     1.4845    12.7255 </r>
       <r>    10.4234     1.4241    12.8385 </r>
       <r>    10.5027     1.3069    12.9422 </r>
       <r>    10.5821     1.2590    13.0421 </r>
       <r>    10.6614     1.0415    13.1247 </r>
       <r>    10.7407     1.1968    13.2196 </r>
       <r>    10.8201     1.1906    13.3141 </r>
       <r>    10.8994     1.3200    13.4188 </r>
       <r>    10.9787     1.2198    13.5156 </r>
       <r>    11.0581     1.0696    13.6005 </r>
       <r>    11.1374     1.2020    13.6958 </r>
       <r>    11.2167     1.2115    13.7919 </r>
       <r>    11.2961     1.1092    13.8799 </r>
       <r>    11.3754     1.0485    13.9631 </r>
       <r>    11.4547     0.9372    14.0375 </r>
       <r>    11.5341     1.2074    14.1333 </r>
       <r>    11.6134     1.1602    14.2253 </r>
       <r>    11.6928     0.9093    14.2975 </r>
       <r>    11.7721     0.9895    14.3760 </r>
       <r>    11.8514     0.9309    14.4498 </r>
       <r>    11.9308     0.8794    14.5196 </r>
       <r>    12.0101     1.1824    14.6134 </r>
       <r>    12.0894     1.0293    14.6951 </r>
       <r>    12.1688     0.7760    14.7566 </r>
       <r>    12.2481     0.8528    14.8243 </r>
       <r>    12.3274     0.8417    14.8910 </r>
       <r>    12.4068     0.8021    14.9547 </r>
       <r>    12.4861     0.9756    15.0321 </r>
       <r>    12.5655     0.9482    15.1073 </r>
       <r>    12.6448     0.8327    15.1734 </r>
       <r>    12.7241     0.6604    15.2258 </r>
       <r>    12.8035     0.4943    15.2650 </r>
       <r>    12.8828     0.4727    15.3025 </r>
       <r>    12.9621     0.6593    15.3548 </r>
       <r>    13.0415     0.6464    15.4061 </r>
       <r>    13.1208     0.8912    15.4768 </r>
       <r>    13.2001     0.5965    15.5241 </r>
       <r>    13.2795     0.3052    15.5483 </r>
       <r>    13.3588     0.3870    15.5790 </r>
       <r>    13.4381     0.6120    15.6276 </r>
       <r>    13.5175     0.6275    15.6774 </r>
       <r>    13.5968     0.6646    15.7301 </r>
       <r>    13.6762     0.5551    15.7741 </r>
       <r>    13.7555     0.2558    15.7944 </r>
       <r>    13.8348     0.1739    15.8082 </r>
       <r>    13.9142     0.1187    15.8176 </r>
       <r>    13.9935     0.2292    15.8358 </r>
       <r>    14.0728     0.3723    15.8653 </r>
       <r>    14.1522     0.2971    15.8889 </r>
       <r>    14.2315     0.1029    15.8971 </r>
       <r>    14.3108     0.0539    15.9013 </r>
       <r>    14.3902     0.1265    15.9114 </r>
       <r>    14.4695     0.0854    15.9182 </r>
       <r>    14.5488     0.2489    15.9379 </r>
       <r>    14.6282     0.1800    15.9522 </r>
       <r>    14.7075     0.0990    15.9600 </r>
       <r>    14.7869     0.0356    15.9629 </r>
       <r>    14.8662     0.0183    15.9643 </r>
       <r>    14.9455     0.0797    15.9706 </r>
       <r>    15.0249     0.1326    15.9812 </r>
       <r>    15.1042     0.0948    15.9887 </r>
       <r>    15.1835     0.0367    15.9916 </r>
       <r>    15.2629     0.0041    15.9919 </r>
       <r>    15.3422     0.0333    15.9946 </r>
       <r>    15.4215     0.0342    15.9973 </r>
       <r>    15.5009     0.0320    15.9998 </r>
       <r>    15.5802     0.0024    16.0000 </r>
       <r>    15.6596     0.0000    16.0000 </r>
       <r>    15.7389     0.0000    16.0000 </r>
       <r>    15.8182     0.0000    16.0000 </r>
       <r>    15.8976     0.0000    16.0000 </r>
       <r>    15.9769     0.0000    16.0000 </r>
       <r>    16.0562     0.0000    16.0000 </r>
       <r>    16.1356     0.0000    16.0000 </r>
       <r>    16.2149     0.0000    16.0000 </r>
       <r>    16.2942     0.0000    16.0000 </r>
       <r>    16.3736     0.0000    16.0000 </r>
       <r>    16.4529     0.0000    16.0000 </r>
       <r>    16.5322     0.0000    16.0000 </r>
      </set>
     </set>
    </array>
   </total>
  </dos>
 </calculation>
 <structure name="finalpos" >
  <crystal>
   <varray name="basis" >
    <v>       3.34813356       0.00000000       1.93304554 </v>
    <v>       1.11604452       3.15665184       1.93304554 </v>
    <v>       0.00000000      -0.00000000       3.86609108 </v>
   </varray>
   <i name="volume">     40.86029897 </i>
   <varray name="rec_basis" >
    <v>       0.29867387      -0.10559712      -0.00000000 </v>
    <v>      -0.00000000       0.31679135       0.00000000 </v>
    <v>      -0.14933693      -0.10559712       0.25865919 </v>
   </varray>
  </crystal>
  <varray name="positions" >
   <v>       0.87500000       0.87500000       0.87500000 </v>
   <v>       0.12500000       0.12500000       0.12500000 </v>
  </varray>
 </structure>
</modeling>
