 running on    4 total cores
 distrk:  each k-point on    4 cores,    1 groups
 distr:  one band on    1 cores,    4 groups
 vasp.6.2.0 18Jan21 (build Aug 12 2022 13:00:08) complex                        
  
 POSCAR found type information on POSCAR Si
 POSCAR found :  1 types and       2 ions
 scaLAPACK will be used
 LDA part: xc-table for Pade appr. of Perdew
 POSCAR, INCAR and KPOINTS ok, starting setup
 FFT: planning ...
 WAVECAR not read
 entering main loop
       N       E                     dE             d eps       ncg     rms          rms(c)
DAV:   1     0.146145308125E+01    0.14615E+01   -0.25975E+03  9208   0.582E+02
DAV:   2    -0.108800501514E+02   -0.12342E+02   -0.11808E+02 14208   0.660E+01
DAV:   3    -0.110208934340E+02   -0.14084E+00   -0.14084E+00 11640   0.892E+00
DAV:   4    -0.110214640426E+02   -0.57061E-03   -0.57061E-03 14568   0.593E-01
DAV:   5    -0.110214646121E+02   -0.56948E-06   -0.56953E-06 12032   0.140E-02    0.486E+00
DAV:   6    -0.108999597458E+02    0.12150E+00   -0.80033E-02 10928   0.147E+00    0.297E+00
DAV:   7    -0.108444139801E+02    0.55546E-01   -0.15200E-01 11704   0.216E+00    0.185E-01
DAV:   8    -0.108454728692E+02   -0.10589E-02   -0.38195E-03 10640   0.460E-01    0.742E-02
DAV:   9    -0.108456668573E+02   -0.19399E-03   -0.19065E-04 13664   0.107E-01    0.568E-02
DAV:  10    -0.108456917320E+02   -0.24875E-04   -0.29001E-05 10936   0.402E-02    0.913E-03
DAV:  11    -0.108456914679E+02    0.26412E-06   -0.59598E-07 12624   0.530E-03
   1 F= -.10845691E+02 E0= -.10845691E+02  d E =-.108457E+02
 curvature:   0.00 expect dE= 0.000E+00 dE for cont linesearch  0.000E+00
 trial: gam= 0.00000 g(F)=  0.556E-43 g(S)=  0.675E-02 ort = 0.000E+00 (trialstep = 0.100E+01)
 search vector abs. value=  0.675E-02
 bond charge predicted
       N       E                     dE             d eps       ncg     rms          rms(c)
DAV:   1    -0.108494720783E+02   -0.37803E-02   -0.10421E-01 11616   0.181E+00    0.302E-01
DAV:   2    -0.108477054077E+02    0.17667E-02   -0.14738E-03 12480   0.255E-01    0.183E-01
DAV:   3    -0.108467751606E+02    0.93025E-03   -0.19221E-03 10840   0.221E-01    0.603E-02
DAV:   4    -0.108467751213E+02    0.39309E-07   -0.19354E-05 13256   0.393E-02    0.539E-02
DAV:   5    -0.108467687385E+02    0.63827E-05   -0.50521E-06 10808   0.164E-02    0.129E-02
DAV:   6    -0.108467689189E+02   -0.18040E-06   -0.52716E-08  6272   0.216E-03
   2 F= -.10846769E+02 E0= -.10846769E+02  d E =-.107745E-02
 trial-energy change:   -0.001077  1 .order   -0.001172   -0.006754    0.004410
 step:   0.5927(harm=  0.6050)  dis= 0.00000  next Energy=   -10.847673 (dE=-0.198E-02)
 bond charge predicted
       N       E                     dE             d eps       ncg     rms          rms(c)
DAV:   1    -0.108481048087E+02   -0.13361E-02   -0.17509E-02 11464   0.747E-01    0.126E-01
DAV:   2    -0.108478133257E+02    0.29148E-03   -0.24418E-04 12608   0.103E-01    0.758E-02
DAV:   3    -0.108476660716E+02    0.14725E-03   -0.32027E-04 10784   0.905E-02    0.250E-02
DAV:   4    -0.108476666818E+02   -0.61015E-06   -0.32317E-06 12824   0.161E-02    0.225E-02
DAV:   5    -0.108476684516E+02   -0.17698E-05   -0.82623E-07  9784   0.671E-03    0.594E-03
DAV:   6    -0.108476683802E+02    0.71441E-07   -0.10713E-08  5032   0.961E-04
   3 F= -.10847668E+02 E0= -.10847668E+02  d E =-.197691E-02
 curvature:  -0.30 expect dE=-0.697E-07 dE for cont linesearch -0.697E-07
 trial: gam=-0.00581 g(F)=  0.603E-43 g(S)=  0.231E-06 ort = 0.395E-04 (trialstep = 0.919E+00)
 search vector abs. value=  0.108E-09
 reached required accuracy - stopping structural energy minimisation
