   1   1   0   0
  0.1408159E+02  0.2710538E-09  0.2710538E-09  0.2710538E-09  0.5000000E-15
  1.000000000000000E-004
  CAR 
 unknown system                          
     38.26149337     -6.30150935  301     10.17144677      1.00000000
     -6.302  0.0000E+00  0.0000E+00
     -6.153  0.0000E+00  0.0000E+00
     -6.004  0.0000E+00  0.0000E+00
     -5.856  0.0000E+00  0.0000E+00
     -5.707  0.0000E+00  0.0000E+00
     -5.559  0.0000E+00  0.0000E+00
     -5.410  0.0000E+00  0.0000E+00
     -5.262  0.0000E+00  0.0000E+00
     -5.113  0.0000E+00  0.0000E+00
     -4.965  0.0000E+00  0.0000E+00
     -4.816  0.0000E+00  0.0000E+00
     -4.668  0.0000E+00  0.0000E+00
     -4.519  0.1236E-15  0.1836E-16
     -4.370  0.1497E-06  0.2223E-07
     -4.222  0.4249E-04  0.6334E-05
     -4.073  0.5016E-03  0.8084E-04
     -3.925  0.3239E-03  0.1290E-03
     -3.776  0.1031E-02  0.2821E-03
     -3.628  0.4824E-03  0.3537E-03
     -3.479  0.4893E-03  0.4264E-03
     -3.331  0.1633E-02  0.6690E-03
     -3.182  0.9468E-03  0.8097E-03
     -3.034  0.1275E-02  0.9990E-03
     -2.885  0.3231E-03  0.1047E-02
     -2.736  0.2199E-02  0.1374E-02
     -2.588  0.1247E-02  0.1559E-02
     -2.439  0.1186E-02  0.1735E-02
     -2.291  0.1524E-02  0.1961E-02
     -2.142  0.4049E-03  0.2022E-02
     -1.994  0.2688E-02  0.2421E-02
     -1.845  0.1557E-02  0.2652E-02
     -1.697  0.3039E-02  0.3104E-02
     -1.548  0.3562E-03  0.3157E-02
     -1.400  0.8971E-03  0.3290E-02
     -1.251  0.2197E-02  0.3616E-02
     -1.102  0.1647E-02  0.3861E-02
     -0.954  0.2896E-02  0.4291E-02
     -0.805  0.9030E-03  0.4425E-02
     -0.657  0.4246E-02  0.5056E-02
     -0.508  0.1133E-02  0.5224E-02
     -0.360  0.1828E-02  0.5496E-02
     -0.211  0.6630E-03  0.5594E-02
     -0.063  0.1734E-02  0.5852E-02
      0.086  0.3189E-02  0.6326E-02
      0.234  0.2893E-02  0.6755E-02
      0.383  0.3965E-02  0.7344E-02
      0.531  0.1498E-03  0.7367E-02
      0.680  0.3442E-02  0.7878E-02
      0.829  0.1981E-02  0.8172E-02
      0.977  0.2464E-02  0.8538E-02
      1.126  0.7572E-03  0.8651E-02
      1.274  0.1446E-02  0.8865E-02
      1.423  0.5695E-02  0.9711E-02
      1.571  0.1948E-02  0.1000E-01
      1.720  0.4482E-02  0.1067E-01
      1.868  0.1243E-02  0.1085E-01
      2.017  0.2690E-02  0.1125E-01
      2.165  0.1846E-02  0.1152E-01
      2.314  0.4558E-02  0.1220E-01
      2.463  0.1090E-02  0.1236E-01
      2.611  0.2017E-02  0.1266E-01
      2.760  0.3650E-02  0.1321E-01
      2.908  0.2732E-02  0.1361E-01
      3.057  0.4924E-02  0.1434E-01
      3.205  0.1096E-02  0.1451E-01
      3.354  0.6012E-02  0.1540E-01
      3.502  0.2270E-02  0.1574E-01
      3.651  0.1869E-02  0.1601E-01
      3.799  0.7948E-03  0.1613E-01
      3.948  0.2951E-02  0.1657E-01
      4.097  0.2457E-02  0.1694E-01
      4.245  0.4679E-02  0.1763E-01
      4.394  0.5735E-02  0.1848E-01
      4.542  0.1113E-02  0.1865E-01
      4.691  0.3138E-02  0.1911E-01
      4.839  0.4191E-02  0.1974E-01
      4.988  0.4532E-02  0.2041E-01
      5.136  0.1836E-02  0.2068E-01
      5.285  0.3677E-02  0.2123E-01
      5.433  0.4880E-02  0.2195E-01
      5.582  0.2811E-02  0.2237E-01
      5.731  0.1393E-02  0.2258E-01
      5.879  0.1443E-02  0.2279E-01
      6.028  0.4644E-02  0.2348E-01
      6.176  0.4625E-02  0.2417E-01
      6.325  0.5416E-02  0.2497E-01
      6.473  0.2640E-02  0.2536E-01
      6.622  0.1985E-02  0.2566E-01
      6.770  0.4936E-02  0.2639E-01
      6.919  0.4973E-02  0.2713E-01
      7.067  0.3129E-02  0.2760E-01
      7.216  0.2261E-02  0.2793E-01
      7.364  0.7241E-02  0.2901E-01
      7.513  0.1356E-02  0.2921E-01
      7.662  0.1437E-02  0.2942E-01
      7.810  0.1485E-02  0.2964E-01
      7.959  0.4208E-02  0.3027E-01
      8.107  0.5082E-02  0.3102E-01
      8.256  0.8831E-02  0.3234E-01
      8.404  0.4922E-02  0.3307E-01
      8.553  0.1798E-02  0.3333E-01
      8.701  0.2357E-02  0.3368E-01
      8.850  0.5898E-02  0.3456E-01
      8.998  0.2301E-02  0.3490E-01
      9.147  0.2114E-02  0.3522E-01
      9.296  0.5349E-02  0.3601E-01
      9.444  0.4840E-02  0.3673E-01
      9.593  0.5042E-02  0.3748E-01
      9.741  0.9768E-03  0.3762E-01
      9.890  0.5973E-02  0.3851E-01
     10.038  0.3899E-02  0.3909E-01
     10.187  0.6836E-02  0.4010E-01
     10.335  0.4415E-02  0.4076E-01
     10.484  0.2806E-02  0.4118E-01
     10.632  0.9979E-03  0.4133E-01
     10.781  0.7278E-02  0.4241E-01
     10.930  0.6342E-02  0.4335E-01
     11.078  0.3168E-02  0.4382E-01
     11.227  0.5236E-02  0.4460E-01
     11.375  0.5623E-02  0.4543E-01
     11.524  0.2945E-02  0.4587E-01
     11.672  0.1514E-02  0.4609E-01
     11.821  0.5562E-02  0.4692E-01
     11.969  0.2793E-02  0.4734E-01
     12.118  0.8295E-02  0.4857E-01
     12.266  0.5629E-02  0.4940E-01
     12.415  0.5814E-02  0.5027E-01
     12.563  0.4868E-02  0.5099E-01
     12.712  0.2987E-02  0.5143E-01
     12.861  0.4825E-02  0.5215E-01
     13.009  0.4500E-02  0.5282E-01
     13.158  0.7704E-02  0.5396E-01
     13.306  0.6214E-02  0.5489E-01
     13.455  0.3622E-02  0.5542E-01
     13.603  0.4634E-02  0.5611E-01
     13.752  0.5228E-02  0.5689E-01
     13.900  0.6279E-02  0.5782E-01
     14.049  0.6286E-02  0.5876E-01
     14.197  0.3714E-02  0.5931E-01
     14.346  0.5950E-02  0.6019E-01
     14.495  0.4607E-02  0.6088E-01
     14.643  0.8153E-02  0.6209E-01
     14.792  0.4301E-02  0.6273E-01
     14.940  0.3847E-02  0.6330E-01
     15.089  0.5838E-02  0.6416E-01
     15.237  0.1125E-02  0.6433E-01
     15.386  0.3337E-02  0.6483E-01
     15.534  0.6645E-02  0.6581E-01
     15.683  0.5125E-02  0.6658E-01
     15.831  0.8412E-02  0.6782E-01
     15.980  0.3835E-02  0.6839E-01
     16.129  0.5219E-02  0.6917E-01
     16.277  0.2396E-02  0.6953E-01
     16.426  0.5393E-02  0.7033E-01
     16.574  0.3474E-02  0.7084E-01
     16.723  0.3766E-02  0.7140E-01
     16.871  0.4973E-02  0.7214E-01
     17.020  0.6680E-02  0.7313E-01
     17.168  0.5104E-02  0.7389E-01
     17.317  0.3231E-02  0.7437E-01
     17.465  0.4015E-02  0.7497E-01
     17.614  0.7087E-02  0.7602E-01
     17.763  0.4496E-02  0.7669E-01
     17.911  0.3272E-02  0.7717E-01
     18.060  0.4572E-02  0.7785E-01
     18.208  0.9688E-02  0.7929E-01
     18.357  0.7194E-02  0.8036E-01
     18.505  0.3634E-02  0.8090E-01
     18.654  0.3275E-02  0.8139E-01
     18.802  0.6708E-02  0.8238E-01
     18.951  0.4211E-02  0.8301E-01
     19.099  0.4159E-02  0.8363E-01
     19.248  0.7284E-02  0.8471E-01
     19.396  0.8229E-02  0.8593E-01
     19.545  0.1580E-02  0.8617E-01
     19.694  0.3359E-02  0.8667E-01
     19.842  0.3044E-02  0.8712E-01
     19.991  0.7330E-02  0.8821E-01
     20.139  0.7428E-02  0.8931E-01
     20.288  0.7771E-02  0.9046E-01
     20.436  0.6333E-02  0.9140E-01
     20.585  0.5375E-02  0.9220E-01
     20.733  0.5021E-02  0.9295E-01
     20.882  0.2685E-02  0.9335E-01
     21.030  0.1072E-01  0.9494E-01
     21.179  0.6694E-02  0.9593E-01
     21.328  0.5603E-02  0.9677E-01
     21.476  0.6582E-02  0.9774E-01
     21.625  0.2836E-02  0.9817E-01
     21.773  0.8878E-02  0.9948E-01
     21.922  0.6251E-02  0.1004E+00
     22.070  0.2806E-02  0.1008E+00
     22.219  0.3409E-02  0.1013E+00
     22.367  0.5376E-02  0.1021E+00
     22.516  0.6546E-02  0.1031E+00
     22.664  0.5894E-02  0.1040E+00
     22.813  0.3917E-02  0.1046E+00
     22.962  0.4651E-02  0.1053E+00
     23.110  0.8840E-02  0.1066E+00
     23.259  0.7422E-02  0.1077E+00
     23.407  0.1065E-01  0.1093E+00
     23.556  0.7279E-02  0.1103E+00
     23.704  0.8841E-02  0.1116E+00
     23.853  0.2342E-02  0.1120E+00
     24.001  0.4776E-02  0.1127E+00
     24.150  0.6053E-02  0.1136E+00
     24.298  0.3279E-02  0.1141E+00
     24.447  0.9498E-02  0.1155E+00
     24.596  0.5924E-02  0.1164E+00
     24.744  0.4380E-02  0.1170E+00
     24.893  0.4970E-02  0.1178E+00
     25.041  0.3163E-02  0.1182E+00
     25.190  0.1150E-01  0.1199E+00
     25.338  0.1253E-01  0.1218E+00
     25.487  0.4961E-02  0.1225E+00
     25.635  0.4306E-02  0.1232E+00
     25.784  0.7248E-02  0.1243E+00
     25.932  0.7849E-02  0.1254E+00
     26.081  0.5110E-02  0.1262E+00
     26.229  0.6261E-02  0.1271E+00
     26.378  0.6870E-02  0.1281E+00
     26.527  0.8370E-02  0.1294E+00
     26.675  0.5557E-02  0.1302E+00
     26.824  0.1001E-02  0.1304E+00
     26.972  0.5588E-02  0.1312E+00
     27.121  0.5047E-02  0.1319E+00
     27.269  0.8994E-02  0.1333E+00
     27.418  0.7685E-02  0.1344E+00
     27.566  0.8264E-02  0.1356E+00
     27.715  0.6942E-02  0.1367E+00
     27.863  0.1960E-02  0.1370E+00
     28.012  0.5724E-02  0.1378E+00
     28.161  0.1004E-01  0.1393E+00
     28.309  0.5087E-02  0.1401E+00
     28.458  0.3340E-02  0.1406E+00
     28.606  0.8413E-03  0.1407E+00
     28.755  0.3186E-02  0.1412E+00
     28.903  0.9050E-02  0.1425E+00
     29.052  0.4450E-02  0.1432E+00
     29.200  0.4695E-02  0.1439E+00
     29.349  0.3681E-02  0.1444E+00
     29.497  0.4210E-02  0.1450E+00
     29.646  0.1073E-01  0.1466E+00
     29.795  0.7010E-02  0.1477E+00
     29.943  0.6252E-02  0.1486E+00
     30.092  0.4008E-02  0.1492E+00
     30.240  0.4332E-02  0.1498E+00
     30.389  0.1723E-02  0.1501E+00
     30.537  0.4138E-02  0.1507E+00
     30.686  0.5666E-02  0.1515E+00
     30.834  0.3816E-02  0.1521E+00
     30.983  0.2492E-02  0.1525E+00
     31.131  0.3741E-02  0.1530E+00
     31.280  0.5758E-02  0.1539E+00
     31.428  0.3582E-02  0.1544E+00
     31.577  0.1619E-02  0.1547E+00
     31.726  0.1798E-04  0.1547E+00
     31.874  0.4096E-02  0.1553E+00
     32.023  0.3037E-02  0.1557E+00
     32.171  0.9566E-03  0.1559E+00
     32.320  0.1400E-02  0.1561E+00
     32.468  0.1438E-02  0.1563E+00
     32.617  0.1757E-02  0.1566E+00
     32.765  0.3700E-02  0.1571E+00
     32.914  0.2306E-02  0.1574E+00
     33.062  0.6099E-03  0.1575E+00
     33.211  0.1254E-02  0.1577E+00
     33.360  0.2781E-02  0.1581E+00
     33.508  0.1171E-02  0.1583E+00
     33.657  0.1806E-02  0.1586E+00
     33.805  0.1606E-02  0.1588E+00
     33.954  0.5475E-03  0.1589E+00
     34.102  0.1933E-04  0.1589E+00
     34.251  0.1839E-02  0.1592E+00
     34.399  0.4857E-03  0.1592E+00
     34.548  0.5004E-04  0.1593E+00
     34.696  0.7649E-03  0.1594E+00
     34.845  0.4319E-03  0.1594E+00
     34.994  0.1112E-02  0.1596E+00
     35.142  0.1042E-02  0.1598E+00
     35.291  0.4221E-03  0.1598E+00
     35.439  0.5354E-03  0.1599E+00
     35.588  0.2427E-07  0.1599E+00
     35.736  0.5557E-12  0.1599E+00
     35.885  0.1828E-04  0.1599E+00
     36.033  0.4568E-03  0.1600E+00
     36.182  0.1877E-04  0.1600E+00
     36.330  0.2233E-03  0.1600E+00
     36.479  0.8980E-06  0.1600E+00
     36.628  0.7415E-15  0.1600E+00
     36.776  0.0000E+00  0.1600E+00
     36.925  0.0000E+00  0.1600E+00
     37.073  0.0000E+00  0.1600E+00
     37.222  0.0000E+00  0.1600E+00
     37.370  0.0000E+00  0.1600E+00
     37.519  0.0000E+00  0.1600E+00
     37.667  0.0000E+00  0.1600E+00
     37.816  0.0000E+00  0.1600E+00
     37.964  0.0000E+00  0.1600E+00
     38.113  0.0000E+00  0.1600E+00
     38.261  0.0000E+00  0.1600E+00
