    1    1  100    1
  0.1408159E+02  0.2710538E-09  0.2710538E-09  0.2710538E-09  0.5000000E-15
  1.000000000000000E-004
  CAR 
 unknown system                          
      4    120      8
 
  0.0000000E+00  0.0000000E+00  0.0000000E+00  0.2962963E-03
    1       -4.275918   1.000000
    2       21.358260   0.000000
    3       21.358267   0.000000
    4       21.358276   0.000000
    5       22.131829   0.000000
    6       22.131837   0.000000
    7       22.131846   0.000000
    8       27.473128   0.000000
 
  0.6666667E-01 -0.6938894E-17  0.0000000E+00  0.2370370E-02
    1       -4.146287   1.000000
    2       19.204000   0.000000
    3       20.685255   0.000000
    4       20.685268   0.000000
    5       22.963759   0.000000
    6       22.963773   0.000000
    7       23.183724   0.000000
    8       28.355846   0.000000
 
  0.1333333E+00  0.0000000E+00  0.0000000E+00  0.2370370E-02
    1       -3.757904   1.000000
    2       16.374707   0.000000
    3       19.922861   0.000000
    4       19.922872   0.000000
    5       23.470344   0.000000
    6       24.056706   0.000000
    7       24.056721   0.000000
    8       27.325376   0.000000
 
  0.2000000E+00  0.0000000E+00  0.0000000E+00  0.2370370E-02
    1       -3.112356   1.000000
    2       13.545029   0.000000
    3       19.345801   0.000000
    4       19.345811   0.000000
    5       23.400461   0.000000
    6       24.279043   0.000000
    7       24.279053   0.000000
    8       27.303754   0.000000
 
  0.2666667E+00  0.0000000E+00  0.0000000E+00  0.2370370E-02
    1       -2.212338   1.000000
    2       10.842308   0.000000
    3       18.966857   0.000000
    4       18.966865   0.000000
    5       23.303580   0.000000
    6       23.387338   0.000000
    7       23.387347   0.000000
    8       28.699842   0.000000
 
  0.3333333E+00  0.0000000E+00  0.0000000E+00  0.2370370E-02
    1       -1.061956   1.000000
    2        8.317876   1.000000
    3       18.774669   0.000000
    4       18.774676   0.000000
    5       22.380975   0.000000
    6       22.380985   0.000000
    7       23.290682   0.000000
    8       27.535716   0.000000
 
  0.4000000E+00 -0.2775558E-16  0.0000000E+00  0.2370370E-02
    1        0.331702   1.000000
    2        6.000069   1.000000
    3       18.733692   0.000000
    4       18.733697   0.000000
    5       21.575932   0.000000
    6       21.575943   0.000000
    7       23.376751   0.000000
    8       26.615274   0.000000
 
  0.4666667E+00  0.0000000E+00  0.0000000E+00  0.2370370E-02
    1        1.938996   1.000000
    2        3.928630   1.000000
    3       18.765125   0.000000
    4       18.765129   0.000000
    5       21.112825   0.000000
    6       21.112838   0.000000
    7       23.488232   0.000000
    8       26.073886   0.000000
 
  0.6666667E-01  0.6666667E-01  0.0000000E+00  0.1777778E-02
    1       -4.103089   1.000000
    2       19.681441   0.000000
    3       19.681442   0.000000
    4       20.955369   0.000000
    5       21.213924   0.000000
    6       24.025057   0.000000
    7       24.025058   0.000000
    8       27.236505   0.000000
 
  0.1333333E+00  0.6666667E-01  0.0000000E+00  0.7111111E-02
    1       -3.800993   1.000000
    2       17.382111   0.000000
    3       18.840234   0.000000
    4       20.394509   0.000000
    5       21.759653   0.000000
    6       24.743123   0.000000
    7       25.173939   0.000000
    8       25.767687   0.000000
 
  0.2000000E+00  0.6666667E-01  0.0000000E+00  0.7111111E-02
    1       -3.241222   1.000000
    2       14.567563   0.000000
    3       18.204128   0.000000
    4       19.762589   0.000000
    5       22.448317   0.000000
    6       24.541201   0.000000
    7       25.296295   0.000000
    8       25.786070   0.000000
 
  0.2666667E+00  0.6666667E-01  0.0000000E+00  0.7111111E-02
    1       -2.426077   1.000000
    2       11.825320   0.000000
    3       17.782677   0.000000
    4       19.251729   0.000000
    5       21.883585   0.000000
    6       24.379031   0.000000
    7       25.132211   0.000000
    8       26.328988   0.000000
 
  0.3333333E+00  0.6666667E-01  0.0000000E+00  0.7111111E-02
    1       -1.359128   1.000000
    2        9.242540   1.000000
    3       17.576958   0.000000
    4       18.817192   0.000000
    5       21.012087   0.000000
    6       24.096434   0.000000
    7       24.355008   0.000000
    8       27.923828   0.000000
 
  0.4000000E+00  0.6666667E-01  0.0000000E+00  0.7111111E-02
    1       -0.046043   1.000000
    2        6.855899   1.000000
    3       17.583253   0.000000
    4       18.344779   0.000000
    5       20.492582   0.000000
    6       23.138827   0.000000
    7       24.373351   0.000000
    8       27.833520   0.000000
 
  0.4666667E+00  0.6666667E-01  0.0000000E+00  0.7111111E-02
    1        1.498477   1.000000
    2        4.694139   1.000000
    3       17.791861   0.000000
    4       17.806038   0.000000
    5       20.453328   0.000000
    6       22.372632   0.000000
    7       24.396989   0.000000
    8       27.294758   0.000000
 
 -0.4666667E+00  0.6666667E-01  0.0000000E+00  0.7111111E-02
    1        2.568754   1.000000
    2        3.469132   1.000000
    3       17.317267   0.000000
    4       18.181804   0.000000
    5       20.803021   0.000000
    6       21.849994   0.000000
    7       24.334613   0.000000
    8       27.206423   0.000000
 
 -0.4000000E+00  0.6666667E-01  0.0000000E+00  0.7111111E-02
    1        0.960228   1.000000
    2        5.386799   1.000000
    3       16.975635   0.000000
    4       18.708751   0.000000
    5       21.448518   0.000000
    6       21.623420   0.000000
    7       24.185422   0.000000
    8       27.601549   0.000000
 
 -0.3333333E+00  0.6666667E-01  0.0000000E+00  0.7111111E-02
    1       -0.510584   1.000000
    2        7.627728   1.000000
    3       16.825345   0.000000
    4       19.290634   0.000000
    5       21.767975   0.000000
    6       22.335840   0.000000
    7       24.052516   0.000000
    8       28.332292   0.000000
 
 -0.2666667E+00  0.6666667E-01  0.0000000E+00  0.7111111E-02
    1       -1.742491   1.000000
    2       10.082288   0.994162
    3       16.884817   0.000000
    4       19.843735   0.000000
    5       22.331943   0.000000
    6       23.413504   0.000000
    7       24.001259   0.000000
    8       27.984223   0.000000
 
 -0.2000000E+00  0.6666667E-01  0.0000000E+00  0.7111111E-02
    1       -2.726001   1.000000
    2       12.722471   0.000000
    3       17.161331   0.000000
    4       20.383059   0.000000
    5       23.137860   0.000000
    6       24.013047   0.000000
    7       24.560632   0.000000
    8       26.308909   0.000000
 
 -0.1333333E+00  0.6666667E-01  0.0000000E+00  0.7111111E-02
    1       -3.456348   1.000000
    2       15.500923   0.000000
    3       17.656868   0.000000
    4       20.976564   0.000000
    5       23.245589   0.000000
    6       23.966876   0.000000
    7       25.180969   0.000000
    8       25.874497   0.000000
 
 -0.6666667E-01  0.6666667E-01  0.0000000E+00  0.3555556E-02
    1       -3.930427   1.000000
    2       18.203854   0.000000
    3       18.462848   0.000000
    4       21.438266   0.000000
    5       22.466090   0.000000
    6       23.604373   0.000000
    7       24.486757   0.000000
    8       26.992935   0.000000
 
  0.1333333E+00  0.1333333E+00  0.0000000E+00  0.1777778E-02
    1       -3.585424   1.000000
    2       17.926426   0.000000
    3       17.926427   0.000000
    4       19.564461   0.000000
    5       19.883954   0.000000
    6       23.962386   0.000000
    7       26.398617   0.000000
    8       26.398618   0.000000
 
  0.2000000E+00  0.1333333E+00  0.0000000E+00  0.7111111E-02
    1       -3.112073   1.000000
    2       15.732611   0.000000
    3       17.219328   0.000000
    4       19.029324   0.000000
    5       20.136878   0.000000
    6       22.653216   0.000000
    7       27.115253   0.000000
    8       27.356413   0.000000
 
  0.2666667E+00  0.1333333E+00  0.0000000E+00  0.7111111E-02
    1       -2.382876   1.000000
    2       13.013287   0.000000
    3       16.729742   0.000000
    4       18.316203   0.000000
    5       20.025807   0.000000
    6       23.008211   0.000000
    7       27.089381   0.000000
    8       27.291966   0.000000
 
  0.3333333E+00  0.1333333E+00  0.0000000E+00  0.7111111E-02
    1       -1.400919   1.000000
    2       10.392741   0.000000
    3       16.460919   0.000000
    4       17.494501   0.000000
    5       19.425817   0.000000
    6       24.487072   0.000000
    7       26.130902   0.000000
    8       27.452621   0.000000
 
  0.4000000E+00  0.1333333E+00  0.0000000E+00  0.7111111E-02
    1       -0.170948   1.000000
    2        7.948058   1.000000
    3       16.412891   0.000000
    4       16.585499   0.000000
    5       19.180243   0.000000
    6       25.145539   0.000000
    7       25.748452   0.000000
    8       28.146482   0.000000
 
  0.4666667E+00  0.1333333E+00  0.0000000E+00  0.7111111E-02
    1        1.297682   1.000000
    2        5.712910   1.000000
    3       15.743151   0.000000
    4       16.583439   0.000000
    5       19.285896   0.000000
    6       24.301814   0.000000
    7       26.127242   0.000000
    8       29.650844   0.000000
 
 -0.4666667E+00  0.1333333E+00  0.0000000E+00  0.7111111E-02
    1        2.907399   1.000000
    2        3.795013   1.000000
    3       15.064066   0.000000
    4       16.967594   0.000000
    5       19.679020   0.000000
    6       23.655924   0.000000
    7       26.037169   0.000000
    8       29.783589   0.000000
 
 -0.4000000E+00  0.1333333E+00  0.0000000E+00  0.7111111E-02
    1        1.835306   1.000000
    2        5.020443   1.000000
    3       14.588194   0.000000
    4       17.555706   0.000000
    5       20.327224   0.000000
    6       23.235476   0.000000
    7       25.805272   0.000000
    8       30.087122   0.000000
 
 -0.3333333E+00  0.1333333E+00  0.0000000E+00  0.7111111E-02
    1        0.292680   1.000000
    2        7.175713   1.000000
    3       14.332855   0.000000
    4       18.328928   0.000000
    5       21.208887   0.000000
    6       23.060978   0.000000
    7       25.574534   0.000000
    8       29.618773   0.000000
 
 -0.2666667E+00  0.1333333E+00  0.0000000E+00  0.7111111E-02
    1       -1.018413   1.000000
    2        9.549388   1.000000
    3       14.307420   0.000000
    4       19.249316   0.000000
    5       22.297783   0.000000
    6       23.152486   0.000000
    7       25.386239   0.000000
    8       27.462143   0.000000
 
 -0.2000000E+00  0.1333333E+00  0.0000000E+00  0.7111111E-02
    1       -2.083671   1.000000
    2       12.099729   0.000000
    3       14.524860   0.000000
    4       20.236273   0.000000
    5       23.497340   0.000000
    6       23.539892   0.000000
    7       25.173304   0.000000
    8       25.588496   0.000000
 
 -0.1333333E+00  0.1333333E+00  0.0000000E+00  0.3555556E-02
    1       -2.897495   1.000000
    2       14.559954   0.000000
    3       15.205743   0.000000
    4       21.076293   0.000000
    5       23.464535   0.000000
    6       24.731845   0.000000
    7       24.754822   0.000000
    8       24.865733   0.000000
 
  0.2000000E+00  0.2000000E+00  0.0000000E+00  0.1777778E-02
    1       -2.725459   1.000000
    2       16.438971   0.000000
    3       16.438972   0.000000
    4       17.986498   0.000000
    5       18.132921   0.000000
    6       20.960892   0.000000
    7       28.816063   0.000000
    8       28.816063   0.000000
 
  0.2666667E+00  0.2000000E+00  0.0000000E+00  0.7111111E-02
    1       -2.082928   1.000000
    2       14.343254   0.000000
    3       15.876340   0.000000
    4       16.983710   0.000000
    5       18.248260   0.000000
    6       20.529157   0.000000
    7       29.138489   0.000000
    8       29.554646   0.000000
 
  0.3333333E+00  0.2000000E+00  0.0000000E+00  0.7111111E-02
    1       -1.187204   1.000000
    2       11.746817   0.000000
    3       15.535823   0.000000
    4       15.757885   0.000000
    5       18.152100   0.000000
    6       21.794375   0.000000
    7       28.338054   0.000000
    8       29.716374   0.000000
 
  0.4000000E+00  0.2000000E+00  0.0000000E+00  0.7111111E-02
    1       -0.042349   1.000000
    2        9.265196   1.000000
    3       14.589299   0.000000
    4       15.418582   0.000000
    5       18.037063   0.000000
    6       23.691522   0.000000
    7       27.375640   0.000000
    8       29.639680   0.000000
 
  0.4666667E+00  0.2000000E+00  0.0000000E+00  0.7111111E-02
    1        1.344673   1.000000
    2        6.970455   1.000000
    3       13.582164   0.000000
    4       15.524119   0.000000
    5       18.148827   0.000000
    6       25.700458   0.000000
    7       26.499197   0.000000
    8       29.516971   0.000000
 
 -0.4666667E+00  0.2000000E+00  0.0000000E+00  0.7111111E-02
    1        2.946930   1.000000
    2        4.909853   1.000000
    3       12.780138   0.000000
    4       15.850436   0.000000
    5       18.507814   0.000000
    6       25.790228   0.000000
    7       27.228772   0.000000
    8       29.822353   0.000000
 
 -0.4000000E+00  0.2000000E+00  0.0000000E+00  0.7111111E-02
    1        2.947418   1.000000
    2        4.906832   1.000000
    3       12.202819   0.000000
    4       16.393440   0.000000
    5       19.110167   0.000000
    6       25.283788   0.000000
    7       27.541014   0.000000
    8       31.008686   0.000000
 
 -0.3333333E+00  0.2000000E+00  0.0000000E+00  0.7111111E-02
    1        1.344232   1.000000
    2        6.960220   1.000000
    3       11.862554   0.000000
    4       17.145048   0.000000
    5       19.946105   0.000000
    6       24.998317   0.000000
    7       27.301137   0.000000
    8       29.438199   0.000000
 
 -0.2666667E+00  0.2000000E+00  0.0000000E+00  0.7111111E-02
    1       -0.043143   1.000000
    2        9.227141   1.000000
    3       11.780958   0.000000
    4       18.088005   0.000000
    5       20.998102   0.000000
    6       24.946133   0.000000
    7       26.892269   0.000000
    8       27.175754   0.000000
 
 -0.2000000E+00  0.2000000E+00  0.0000000E+00  0.3555556E-02
    1       -1.188052   1.000000
    2       11.382587   0.000000
    3       12.241802   0.000000
    4       19.177569   0.000000
    5       22.229588   0.000000
    6       25.112116   0.000000
    7       25.157490   0.000000
    8       26.220467   0.000000
 
  0.2666667E+00  0.2666667E+00  0.0000000E+00  0.1777778E-02
    1       -1.527504   1.000000
    2       15.239606   0.000000
    3       15.239607   0.000000
    4       15.404602   0.000000
    5       16.666800   0.000000
    6       19.113179   0.000000
    7       31.129553   0.000000
    8       31.129555   0.000000
 
  0.3333333E+00  0.2666667E+00  0.0000000E+00  0.7111111E-02
    1       -0.718891   1.000000
    2       13.204753   0.000000
    3       14.027125   0.000000
    4       14.825166   0.000000
    5       16.983664   0.000000
    6       19.301950   0.000000
    7       30.621686   0.000000
    8       31.805858   0.000000
 
  0.4000000E+00  0.2666667E+00  0.0000000E+00  0.7111111E-02
    1        0.339203   1.000000
    2       10.772594   0.000000
    3       12.681566   0.000000
    4       14.634920   0.000000
    5       17.080105   0.000000
    6       20.912196   0.000000
    7       29.743223   0.000000
    8       31.823090   0.000000
 
  0.4666667E+00  0.2666667E+00  0.0000000E+00  0.7111111E-02
    1        1.640978   1.000000
    2        8.447632   1.000000
    3       11.546132   0.000000
    4       14.669092   0.000000
    5       17.186531   0.000000
    6       23.039767   0.000000
    7       28.872121   0.000000
    8       31.460768   0.000000
 
 -0.4666667E+00  0.2666667E+00  0.0000000E+00  0.7111111E-02
    1        3.172538   1.000000
    2        6.316892   1.000000
    3       10.638464   0.000000
    4       14.926801   0.000000
    5       17.495812   0.000000
    6       25.348864   0.000000
    7       28.125659   0.000000
    8       30.914516   0.000000
 
 -0.4000000E+00  0.2666667E+00  0.0000000E+00  0.7111111E-02
    1        4.252536   1.000000
    2        5.078893   1.000000
    3        9.971427   1.000000
    4       15.405883   0.000000
    5       18.037918   0.000000
    6       27.554456   0.000000
    7       27.598882   0.000000
    8       30.322470   0.000000
 
 -0.3333333E+00  0.2666667E+00  0.0000000E+00  0.7111111E-02
    1        2.638346   1.000000
    2        6.961416   1.000000
    3        9.570386   1.000000
    4       16.101814   0.000000
    5       18.813233   0.000000
    6       27.175934   0.000000
    7       28.916645   0.000000
    8       29.507115   0.000000
 
 -0.2666667E+00  0.2666667E+00  0.0000000E+00  0.3555556E-02
    1        1.178694   1.000000
    2        8.804020   1.000000
    3        9.746103   1.000000
    4       17.004638   0.000000
    5       19.809778   0.000000
    6       26.815672   0.000000
    7       27.374343   0.000000
    8       28.211095   0.000000
 
  0.3333333E+00  0.3333333E+00  0.0000000E+00  0.1777778E-02
    1        0.001919   1.000000
    2       12.304867   0.000000
    3       14.336276   0.000000
    4       14.336277   0.000000
    5       15.657807   0.000000
    6       18.042052   0.000000
    7       32.546701   0.000000
    8       33.228171   0.000000
 
  0.4000000E+00  0.3333333E+00  0.0000000E+00  0.7111111E-02
    1        0.971854   1.000000
    2       10.847025   0.000000
    3       12.519905   0.000000
    4       14.071779   0.000000
    5       16.140492   0.000000
    6       18.501321   0.000000
    7       32.106242   0.000000
    8       33.756755   0.000000
 
  0.4666667E+00  0.3333333E+00  0.0000000E+00  0.7111111E-02
    1        2.185179   1.000000
    2        9.540655   1.000000
    3       10.286285   0.000581
    4       14.032402   0.000000
    5       16.403647   0.000000
    6       20.320815   0.000000
    7       31.316527   0.000000
    8       33.539172   0.000000
 
 -0.4666667E+00  0.3333333E+00  0.0000000E+00  0.7111111E-02
    1        3.630221   1.000000
    2        7.880483   1.000000
    3        8.772739   1.000000
    4       14.217895   0.000000
    5       16.687278   0.000000
    6       22.631175   0.000000
    7       30.564583   0.000000
    8       32.870841   0.000000
 
 -0.4000000E+00  0.3333333E+00  0.0000000E+00  0.7111111E-02
    1        5.229450   1.000000
    2        6.006625   1.000000
    3        7.987127   1.000000
    4       14.627058   0.000000
    5       17.170166   0.000000
    6       25.133628   0.000000
    7       29.917411   0.000000
    8       31.911202   0.000000
 
 -0.3333333E+00  0.3333333E+00  0.0000000E+00  0.3555556E-02
    1        4.162593   1.000000
    2        6.859837   1.000000
    3        7.828887   1.000000
    4       15.257092   0.000000
    5       17.880043   0.000000
    6       27.641286   0.000000
    7       29.150526   0.000000
    8       30.171138   0.000000
 
  0.4000000E+00  0.4000000E+00  0.0000000E+00  0.1777778E-02
    1        1.851909   1.000000
    2        9.316688   1.000000
    3       13.732712   0.000000
    4       13.732713   0.000000
    5       14.978793   0.000000
    6       17.378490   0.000000
    7       33.786757   0.000000
    8       35.024865   0.000000
 
  0.4666667E+00  0.4000000E+00  0.0000000E+00  0.7111111E-02
    1        2.972021   1.000000
    2        7.992540   1.000000
    3       12.029861   0.000000
    4       13.618962   0.000000
    5       15.638432   0.000000
    6       18.028648   0.000000
    7       33.551838   0.000000
    8       35.295896   0.000000
 
 -0.4666667E+00  0.4000000E+00  0.0000000E+00  0.7111111E-02
    1        4.309025   1.000000
    2        6.916121   1.000000
    3        9.880267   1.000000
    4       13.730694   0.000000
    5       16.068103   0.000000
    6       20.022882   0.000000
    7       32.868359   0.000000
    8       34.685461   0.000000
 
 -0.4000000E+00  0.4000000E+00  0.0000000E+00  0.3555556E-02
    1        5.561160   1.000000
    2        6.352030   1.000000
    3        7.914880   1.000000
    4       14.067302   0.000000
    5       16.521230   0.000000
    6       22.492624   0.000000
    7       31.893247   0.000000
    8       33.284233   0.000000
 
  0.4666667E+00  0.4666667E+00  0.0000000E+00  0.1777778E-02
    1        3.981482   1.000000
    2        6.602377   1.000000
    3       13.430611   0.000000
    4       13.430612   0.000000
    5       14.637745   0.000000
    6       17.051703   0.000000
    7       34.677117   0.000000
    8       36.235902   0.000000
 
 -0.4666667E+00  0.4666667E+00  0.0000000E+00  0.3555556E-02
    1        4.911413   1.000000
    2        5.761044   1.000000
    3       11.869331   0.000000
    4       13.467920   0.000000
    5       15.471144   0.000000
    6       17.871337   0.000000
    7       34.354923   0.000000
    8       35.947453   0.000000
 
  0.2000000E+00  0.1333333E+00  0.6666667E-01  0.7111111E-02
    1       -3.413242   1.000000
    2       16.403474   0.000000
    3       16.823625   0.000000
    4       20.726313   0.000000
    5       21.335486   0.000000
    6       24.297468   0.000000
    7       25.657911   0.000000
    8       26.021165   0.000000
 
  0.2666667E+00  0.1333333E+00  0.6666667E-01  0.1422222E-01
    1       -2.768717   1.000000
    2       13.813612   0.000000
    3       16.089459   0.000000
    4       20.076818   0.000000
    5       21.767459   0.000000
    6       23.845676   0.000000
    7       25.871081   0.000000
    8       26.105842   0.000000
 
  0.3333333E+00  0.1333333E+00  0.6666667E-01  0.1422222E-01
    1       -1.870110   1.000000
    2       11.144240   0.000000
    3       15.732082   0.000000
    4       19.205343   0.000000
    5       21.329489   0.000000
    6       24.416643   0.000000
    7       25.338286   0.000000
    8       26.492251   0.000000
 
  0.4000000E+00  0.1333333E+00  0.6666667E-01  0.1422222E-01
    1       -0.721514   1.000000
    2        8.634182   1.000000
    3       15.601687   0.000000
    4       18.268149   0.000000
    5       21.003038   0.000000
    6       23.644143   0.000000
    7       25.604745   0.000000
    8       27.875330   0.000000
 
  0.4666667E+00  0.1333333E+00  0.6666667E-01  0.1422222E-01
    1        0.670071   1.000000
    2        6.324218   1.000000
    3       15.685413   0.000000
    4       17.404270   0.000000
    5       20.964600   0.000000
    6       22.768875   0.000000
    7       25.754423   0.000000
    8       29.297116   0.000000
 
 -0.4666667E+00  0.1333333E+00  0.6666667E-01  0.1422222E-01
    1        2.276036   1.000000
    2        4.256448   1.000000
    3       15.929087   0.000000
    4       16.753944   0.000000
    5       21.106903   0.000000
    6       22.161249   0.000000
    7       25.844886   0.000000
    8       29.039124   0.000000
 
  0.2666667E+00  0.2000000E+00  0.6666667E-01  0.7111111E-02
    1       -2.554077   1.000000
    2       14.851561   0.000000
    3       15.354425   0.000000
    4       18.730953   0.000000
    5       19.862883   0.000000
    6       21.739803   0.000000
    7       27.596630   0.000000
    8       28.248217   0.000000
 
  0.3333333E+00  0.2000000E+00  0.6666667E-01  0.1422222E-01
    1       -1.741516   1.000000
    2       12.400098   0.000000
    3       14.729575   0.000000
    4       17.560036   0.000000
    5       20.079491   0.000000
    6       22.429401   0.000000
    7       26.871151   0.000000
    8       28.706369   0.000000
 
  0.4000000E+00  0.2000000E+00  0.6666667E-01  0.1422222E-01
    1       -0.677951   1.000000
    2        9.863501   1.000000
    3       14.504282   0.000000
    4       16.371826   0.000000
    5       19.936416   0.000000
    6       24.064626   0.000000
    7       25.958191   0.000000
    8       28.845386   0.000000
 
  0.4666667E+00  0.2000000E+00  0.6666667E-01  0.1422222E-01
    1        0.630987   1.000000
    2        7.497722   1.000000
    3       14.461354   0.000000
    4       15.382911   0.000000
    5       19.959576   0.000000
    6       24.613497   0.000000
    7       26.324740   0.000000
    8       29.053770   0.000000
 
 -0.4666667E+00  0.2000000E+00  0.6666667E-01  0.1422222E-01
    1        2.171283   1.000000
    2        5.347039   1.000000
    3       14.211963   0.000000
    4       15.027527   0.000000
    5       20.207264   0.000000
    6       23.937972   0.000000
    7       27.477932   0.000000
    8       29.845759   0.000000
 
 -0.4000000E+00  0.2000000E+00  0.6666667E-01  0.1422222E-01
    1        3.245224   1.000000
    2        4.119366   1.000000
    3       13.660838   0.000000
    4       15.418612   0.000000
    5       20.673067   0.000000
    6       23.378490   0.000000
    7       27.678785   0.000000
    8       30.985586   0.000000
 
 -0.3333333E+00  0.2000000E+00  0.6666667E-01  0.1422222E-01
    1        1.634195   1.000000
    2        6.034927   1.000000
    3       13.262420   0.000000
    4       16.105910   0.000000
    5       21.323895   0.000000
    6       23.055172   0.000000
    7       27.423725   0.000000
    8       29.799891   0.000000
 
 -0.2666667E+00  0.2000000E+00  0.6666667E-01  0.1422222E-01
    1        0.167639   1.000000
    2        8.257940   1.000000
    3       13.086434   0.000000
    4       17.014407   0.000000
    5       22.040234   0.000000
    6       23.074242   0.000000
    7       26.627823   0.000000
    8       28.283974   0.000000
 
 -0.2000000E+00  0.2000000E+00  0.6666667E-01  0.1422222E-01
    1       -1.060398   1.000000
    2       10.669076   0.000000
    3       13.158049   0.000000
    4       18.106039   0.000000
    5       22.539794   0.000000
    6       23.544885   0.000000
    7       25.160597   0.000000
    8       27.641412   0.000000
 
 -0.1333333E+00  0.2000000E+00  0.6666667E-01  0.7111111E-02
    1       -2.040741   1.000000
    2       12.979069   0.000000
    3       13.731442   0.000000
    4       19.293368   0.000000
    5       22.576972   0.000000
    6       23.326730   0.000000
    7       25.116922   0.000000
    8       27.053689   0.000000
 
  0.3333333E+00  0.2666667E+00  0.6666667E-01  0.7111111E-02
    1       -1.357248   1.000000
    2       13.593457   0.000000
    3       14.105647   0.000000
    4       15.783490   0.000000
    5       18.615730   0.000000
    6       20.233047   0.000000
    7       28.971950   0.000000
    8       30.781769   0.000000
 
  0.4000000E+00  0.2666667E+00  0.6666667E-01  0.1422222E-01
    1       -0.380109   1.000000
    2       11.282128   0.000000
    3       13.562506   0.000000
    4       14.502778   0.000000
    5       18.935621   0.000000
    6       21.416568   0.000000
    7       28.112113   0.000000
    8       31.224109   0.000000
 
  0.4666667E+00  0.2666667E+00  0.6666667E-01  0.1422222E-01
    1        0.843677   1.000000
    2        8.891885   1.000000
    3       13.008532   0.000000
    4       13.813129   0.000000
    5       18.993931   0.000000
    6       23.386288   0.000000
    7       27.205115   0.000000
    8       31.149187   0.000000
 
 -0.4666667E+00  0.2666667E+00  0.6666667E-01  0.1422222E-01
    1        2.304881   1.000000
    2        6.681764   1.000000
    3       12.134497   0.000000
    4       13.898582   0.000000
    5       19.212356   0.000000
    6       25.344756   0.000000
    7       26.639388   0.000000
    8       30.804606   0.000000
 
 -0.4000000E+00  0.2666667E+00  0.6666667E-01  0.1422222E-01
    1        3.916290   1.000000
    2        4.766038   1.000000
    3       11.410978   0.000000
    4       14.296893   0.000000
    5       19.646098   0.000000
    6       25.474160   0.000000
    7       28.025947   0.000000
    8       30.196196   0.000000
 
 -0.3333333E+00  0.2666667E+00  0.6666667E-01  0.1422222E-01
    1        2.840503   1.000000
    2        5.986227   1.000000
    3       10.914412   0.000000
    4       14.937664   0.000000
    5       20.297693   0.000000
    6       25.078703   0.000000
    7       28.770932   0.000000
    8       29.652437   0.000000
 
 -0.2666667E+00  0.2666667E+00  0.6666667E-01  0.1422222E-01
    1        1.304320   1.000000
    2        8.095443   1.000000
    3       10.677031   0.000000
    4       15.803616   0.000000
    5       21.151436   0.000000
    6       24.832600   0.000000
    7       26.901691   0.000000
    8       29.604825   0.000000
 
 -0.2000000E+00  0.2666667E+00  0.6666667E-01  0.7111111E-02
    1       -0.000418   1.000000
    2       10.095899   0.983694
    3       10.998819   0.000000
    4       16.876037   0.000000
    5       22.155936   0.000000
    6       24.467006   0.000000
    7       25.207612   0.000000
    8       28.858132   0.000000
 
  0.4000000E+00  0.3333333E+00  0.6666667E-01  0.7111111E-02
    1        0.170700   1.000000
    2       12.359302   0.000000
    3       12.643220   0.000000
    4       13.447407   0.000000
    5       17.660180   0.000000
    6       19.272889   0.000000
    7       30.405669   0.000000
    8       33.068997   0.000000
 
  0.4666667E+00  0.3333333E+00  0.6666667E-01  0.1422222E-01
    1        1.307184   1.000000
    2       10.424699   0.000000
    3       11.249085   0.000000
    4       12.996363   0.000000
    5       18.137941   0.000000
    6       20.692324   0.000000
    7       29.593168   0.000000
    8       33.301511   0.000000
 
 -0.4666667E+00  0.3333333E+00  0.6666667E-01  0.1422222E-01
    1        2.682921   1.000000
    2        8.223680   1.000000
    3       10.167327   0.546380
    4       13.067972   0.000000
    5       18.367772   0.000000
    6       22.870051   0.000000
    7       28.781877   0.000000
    8       32.718323   0.000000
 