<?xml version="1.0" encoding="ISO-8859-1"?>
<modeling>
 <generator>
  <i name="program" type="string">vasp </i>
  <i name="version" type="string">6.2.0  </i>
  <i name="subversion" type="string">18Jan21 (build Aug 12 2022 13:00:08) complex                          parallel </i>
  <i name="platform" type="string">LinuxIFC </i>
  <i name="date" type="string">2024 11 03 </i>
  <i name="time" type="string">22:13:44 </i>
 </generator>
 <incar>
  <i type="int" name="ISTART">     0</i>
  <i type="string" name="PREC">Accurate      (Accurate strictly avoids</i>
  <i type="logical" name="ADDGRID"> T  </i>
  <i type="int" name="ISPIN">     1</i>
  <i type="int" name="NELM">    90</i>
  <i type="int" name="NELMIN">     6</i>
  <i type="int" name="IBRION">     2</i>
  <i name="EDIFF">      0.00000100</i>
  <i name="EDIFFG">     -0.00200000</i>
  <i type="int" name="NSW">   100</i>
  <i type="int" name="ISIF">     3</i>
  <i type="int" name="ISYM">     2</i>
  <i name="ENCUT">    650.00000000</i>
  <i type="logical" name="LREAL"> F  </i>
  <i type="int" name="ISMEAR">     0</i>
  <i name="SIGMA">      0.05000000</i>
  <i type="logical" name="LWAVE"> F  </i>
  <i type="logical" name="LCHARG"> F  </i>
  <i type="logical" name="LASPH"> T  </i>
 </incar>
 <primitive_cell>
  <structure name="primitive_cell" >
   <crystal>
    <varray name="basis" >
     <v>       2.34739500       0.00000000       1.35526800 </v>
     <v>       0.78246500       2.21314500       1.35526800 </v>
     <v>       0.00000000       0.00000000       2.71053800 </v>
    </varray>
    <i name="volume">     14.08158510 </i>
    <varray name="rec_basis" >
     <v>       0.42600415      -0.15061523       0.00000000 </v>
     <v>       0.00000000       0.45184568       0.00000000 </v>
     <v>      -0.21300192      -0.15061511       0.36893045 </v>
    </varray>
   </crystal>
   <varray name="positions" >
    <v>       0.00000000       0.00000000       0.00000000 </v>
   </varray>
  </structure>
  <varray name="primitive_index" >
   <v type="int" >        1 </v>
  </varray>
 </primitive_cell>
 <kpoints>
  <generation param="Monkhorst-Pack">
   <v type="int" name="divisions">      15       15       15 </v>
   <v name="usershift">      0.00000000       0.00000000       0.00000000 </v>
   <v name="genvec1">      0.06666667      -0.00000000       0.00000000 </v>
   <v name="genvec2">      0.00000000       0.06666667       0.00000000 </v>
   <v name="genvec3">      0.00000000       0.00000000       0.06666667 </v>
   <v name="shift">      0.00000000       0.00000000       0.00000000 </v>
  </generation>
  <varray name="kpointlist" >
   <v>       0.00000000       0.00000000       0.00000000 </v>
   <v>       0.06666667      -0.00000000       0.00000000 </v>
   <v>       0.13333333       0.00000000       0.00000000 </v>
   <v>       0.20000000       0.00000000       0.00000000 </v>
   <v>       0.26666667       0.00000000       0.00000000 </v>
   <v>       0.33333333       0.00000000       0.00000000 </v>
   <v>       0.40000000      -0.00000000       0.00000000 </v>
   <v>       0.46666667       0.00000000       0.00000000 </v>
   <v>       0.06666667       0.06666667       0.00000000 </v>
   <v>       0.13333333       0.06666667       0.00000000 </v>
   <v>       0.20000000       0.06666667       0.00000000 </v>
   <v>       0.26666667       0.06666667       0.00000000 </v>
   <v>       0.33333333       0.06666667       0.00000000 </v>
   <v>       0.40000000       0.06666667       0.00000000 </v>
   <v>       0.46666667       0.06666667       0.00000000 </v>
   <v>      -0.46666667       0.06666667       0.00000000 </v>
   <v>      -0.40000000       0.06666667       0.00000000 </v>
   <v>      -0.33333333       0.06666667       0.00000000 </v>
   <v>      -0.26666667       0.06666667       0.00000000 </v>
   <v>      -0.20000000       0.06666667       0.00000000 </v>
   <v>      -0.13333333       0.06666667       0.00000000 </v>
   <v>      -0.06666667       0.06666667       0.00000000 </v>
   <v>       0.13333333       0.13333333       0.00000000 </v>
   <v>       0.20000000       0.13333333       0.00000000 </v>
   <v>       0.26666667       0.13333333       0.00000000 </v>
   <v>       0.33333333       0.13333333       0.00000000 </v>
   <v>       0.40000000       0.13333333       0.00000000 </v>
   <v>       0.46666667       0.13333333       0.00000000 </v>
   <v>      -0.46666667       0.13333333       0.00000000 </v>
   <v>      -0.40000000       0.13333333       0.00000000 </v>
   <v>      -0.33333333       0.13333333       0.00000000 </v>
   <v>      -0.26666667       0.13333333       0.00000000 </v>
   <v>      -0.20000000       0.13333333       0.00000000 </v>
   <v>      -0.13333333       0.13333333       0.00000000 </v>
   <v>       0.20000000       0.20000000       0.00000000 </v>
   <v>       0.26666667       0.20000000       0.00000000 </v>
   <v>       0.33333333       0.20000000       0.00000000 </v>
   <v>       0.40000000       0.20000000       0.00000000 </v>
   <v>       0.46666667       0.20000000       0.00000000 </v>
   <v>      -0.46666667       0.20000000       0.00000000 </v>
   <v>      -0.40000000       0.20000000       0.00000000 </v>
   <v>      -0.33333333       0.20000000       0.00000000 </v>
   <v>      -0.26666667       0.20000000       0.00000000 </v>
   <v>      -0.20000000       0.20000000       0.00000000 </v>
   <v>       0.26666667       0.26666667       0.00000000 </v>
   <v>       0.33333333       0.26666667       0.00000000 </v>
   <v>       0.40000000       0.26666667       0.00000000 </v>
   <v>       0.46666667       0.26666667       0.00000000 </v>
   <v>      -0.46666667       0.26666667       0.00000000 </v>
   <v>      -0.40000000       0.26666667       0.00000000 </v>
   <v>      -0.33333333       0.26666667       0.00000000 </v>
   <v>      -0.26666667       0.26666667       0.00000000 </v>
   <v>       0.33333333       0.33333333       0.00000000 </v>
   <v>       0.40000000       0.33333333       0.00000000 </v>
   <v>       0.46666667       0.33333333       0.00000000 </v>
   <v>      -0.46666667       0.33333333       0.00000000 </v>
   <v>      -0.40000000       0.33333333       0.00000000 </v>
   <v>      -0.33333333       0.33333333       0.00000000 </v>
   <v>       0.40000000       0.40000000       0.00000000 </v>
   <v>       0.46666667       0.40000000       0.00000000 </v>
   <v>      -0.46666667       0.40000000       0.00000000 </v>
   <v>      -0.40000000       0.40000000       0.00000000 </v>
   <v>       0.46666667       0.46666667       0.00000000 </v>
   <v>      -0.46666667       0.46666667       0.00000000 </v>
   <v>       0.20000000       0.13333333       0.06666667 </v>
   <v>       0.26666667       0.13333333       0.06666667 </v>
   <v>       0.33333333       0.13333333       0.06666667 </v>
   <v>       0.40000000       0.13333333       0.06666667 </v>
   <v>       0.46666667       0.13333333       0.06666667 </v>
   <v>      -0.46666667       0.13333333       0.06666667 </v>
   <v>       0.26666667       0.20000000       0.06666667 </v>
   <v>       0.33333333       0.20000000       0.06666667 </v>
   <v>       0.40000000       0.20000000       0.06666667 </v>
   <v>       0.46666667       0.20000000       0.06666667 </v>
   <v>      -0.46666667       0.20000000       0.06666667 </v>
   <v>      -0.40000000       0.20000000       0.06666667 </v>
   <v>      -0.33333333       0.20000000       0.06666667 </v>
   <v>      -0.26666667       0.20000000       0.06666667 </v>
   <v>      -0.20000000       0.20000000       0.06666667 </v>
   <v>      -0.13333333       0.20000000       0.06666667 </v>
   <v>       0.33333333       0.26666667       0.06666667 </v>
   <v>       0.40000000       0.26666667       0.06666667 </v>
   <v>       0.46666667       0.26666667       0.06666667 </v>
   <v>      -0.46666667       0.26666667       0.06666667 </v>
   <v>      -0.40000000       0.26666667       0.06666667 </v>
   <v>      -0.33333333       0.26666667       0.06666667 </v>
   <v>      -0.26666667       0.26666667       0.06666667 </v>
   <v>      -0.20000000       0.26666667       0.06666667 </v>
   <v>       0.40000000       0.33333333       0.06666667 </v>
   <v>       0.46666667       0.33333333       0.06666667 </v>
   <v>      -0.46666667       0.33333333       0.06666667 </v>
   <v>      -0.40000000       0.33333333       0.06666667 </v>
   <v>      -0.33333333       0.33333333       0.06666667 </v>
   <v>      -0.26666667       0.33333333       0.06666667 </v>
   <v>       0.46666667       0.40000000       0.06666667 </v>
   <v>      -0.46666667       0.40000000       0.06666667 </v>
   <v>      -0.40000000       0.40000000       0.06666667 </v>
   <v>      -0.33333333       0.40000000       0.06666667 </v>
   <v>      -0.46666667       0.46666667       0.06666667 </v>
   <v>      -0.40000000       0.46666667       0.06666667 </v>
   <v>       0.40000000       0.26666667       0.13333333 </v>
   <v>       0.46666667       0.26666667       0.13333333 </v>
   <v>      -0.46666667       0.26666667       0.13333333 </v>
   <v>      -0.40000000       0.26666667       0.13333333 </v>
   <v>       0.46666667       0.33333333       0.13333333 </v>
   <v>      -0.46666667       0.33333333       0.13333333 </v>
   <v>      -0.40000000       0.33333333       0.13333333 </v>
   <v>      -0.33333333       0.33333333       0.13333333 </v>
   <v>      -0.26666667       0.33333333       0.13333333 </v>
   <v>      -0.20000000       0.33333333       0.13333333 </v>
   <v>      -0.46666667       0.40000000       0.13333333 </v>
   <v>      -0.40000000       0.40000000       0.13333333 </v>
   <v>      -0.33333333       0.40000000       0.13333333 </v>
   <v>      -0.26666667       0.40000000       0.13333333 </v>
   <v>      -0.40000000       0.46666667       0.13333333 </v>
   <v>      -0.33333333       0.46666667       0.13333333 </v>
   <v>      -0.40000000       0.40000000       0.20000000 </v>
   <v>      -0.33333333       0.40000000       0.20000000 </v>
   <v>      -0.33333333       0.46666667       0.20000000 </v>
   <v>      -0.26666667       0.46666667       0.20000000 </v>
  </varray>
  <varray name="weights" >
   <v>       0.00029630 </v>
   <v>       0.00237037 </v>
   <v>       0.00237037 </v>
   <v>       0.00237037 </v>
   <v>       0.00237037 </v>
   <v>       0.00237037 </v>
   <v>       0.00237037 </v>
   <v>       0.00237037 </v>
   <v>       0.00177778 </v>
   <v>       0.00711111 </v>
   <v>       0.00711111 </v>
   <v>       0.00711111 </v>
   <v>       0.00711111 </v>
   <v>       0.00711111 </v>
   <v>       0.00711111 </v>
   <v>       0.00711111 </v>
   <v>       0.00711111 </v>
   <v>       0.00711111 </v>
   <v>       0.00711111 </v>
   <v>       0.00711111 </v>
   <v>       0.00711111 </v>
   <v>       0.00355556 </v>
   <v>       0.00177778 </v>
   <v>       0.00711111 </v>
   <v>       0.00711111 </v>
   <v>       0.00711111 </v>
   <v>       0.00711111 </v>
   <v>       0.00711111 </v>
   <v>       0.00711111 </v>
   <v>       0.00711111 </v>
   <v>       0.00711111 </v>
   <v>       0.00711111 </v>
   <v>       0.00711111 </v>
   <v>       0.00355556 </v>
   <v>       0.00177778 </v>
   <v>       0.00711111 </v>
   <v>       0.00711111 </v>
   <v>       0.00711111 </v>
   <v>       0.00711111 </v>
   <v>       0.00711111 </v>
   <v>       0.00711111 </v>
   <v>       0.00711111 </v>
   <v>       0.00711111 </v>
   <v>       0.00355556 </v>
   <v>       0.00177778 </v>
   <v>       0.00711111 </v>
   <v>       0.00711111 </v>
   <v>       0.00711111 </v>
   <v>       0.00711111 </v>
   <v>       0.00711111 </v>
   <v>       0.00711111 </v>
   <v>       0.00355556 </v>
   <v>       0.00177778 </v>
   <v>       0.00711111 </v>
   <v>       0.00711111 </v>
   <v>       0.00711111 </v>
   <v>       0.00711111 </v>
   <v>       0.00355556 </v>
   <v>       0.00177778 </v>
   <v>       0.00711111 </v>
   <v>       0.00711111 </v>
   <v>       0.00355556 </v>
   <v>       0.00177778 </v>
   <v>       0.00355556 </v>
   <v>       0.00711111 </v>
   <v>       0.01422222 </v>
   <v>       0.01422222 </v>
   <v>       0.01422222 </v>
   <v>       0.01422222 </v>
   <v>       0.01422222 </v>
   <v>       0.00711111 </v>
   <v>       0.01422222 </v>
   <v>       0.01422222 </v>
   <v>       0.01422222 </v>
   <v>       0.01422222 </v>
   <v>       0.01422222 </v>
   <v>       0.01422222 </v>
   <v>       0.01422222 </v>
   <v>       0.01422222 </v>
   <v>       0.00711111 </v>
   <v>       0.00711111 </v>
   <v>       0.01422222 </v>
   <v>       0.01422222 </v>
   <v>       0.01422222 </v>
   <v>       0.01422222 </v>
   <v>       0.01422222 </v>
   <v>       0.01422222 </v>
   <v>       0.00711111 </v>
   <v>       0.00711111 </v>
   <v>       0.01422222 </v>
   <v>       0.01422222 </v>
   <v>       0.01422222 </v>
   <v>       0.01422222 </v>
   <v>       0.00711111 </v>
   <v>       0.00711111 </v>
   <v>       0.01422222 </v>
   <v>       0.01422222 </v>
   <v>       0.00711111 </v>
   <v>       0.00711111 </v>
   <v>       0.00711111 </v>
   <v>       0.00711111 </v>
   <v>       0.01422222 </v>
   <v>       0.01422222 </v>
   <v>       0.01422222 </v>
   <v>       0.00711111 </v>
   <v>       0.01422222 </v>
   <v>       0.01422222 </v>
   <v>       0.01422222 </v>
   <v>       0.01422222 </v>
   <v>       0.00711111 </v>
   <v>       0.00711111 </v>
   <v>       0.01422222 </v>
   <v>       0.01422222 </v>
   <v>       0.00711111 </v>
   <v>       0.00711111 </v>
   <v>       0.00711111 </v>
   <v>       0.00711111 </v>
   <v>       0.01422222 </v>
   <v>       0.00711111 </v>
   <v>       0.00711111 </v>
  </varray>
 </kpoints>
 <parameters>
  <separator name="general" >
   <i type="string" name="SYSTEM">unknown system</i>
   <i type="logical" name="LCOMPAT"> F  </i>
  </separator>
  <separator name="electronic" >
   <i type="string" name="PREC">accura</i>
   <i name="ENMAX">    650.00000000</i>
   <i name="ENAUG">    322.06900000</i>
   <i name="EDIFF">      0.00000100</i>
   <i type="int" name="IALGO">    38</i>
   <i type="int" name="IWAVPR">    11</i>
   <i type="int" name="NBANDS">     8</i>
   <i type="int" name="NBANDSLOW">    -1</i>
   <i type="int" name="NBANDSHIGH">    -1</i>
   <i name="NELECT">      4.00000000</i>
   <i type="int" name="TURBO">     0</i>
   <i type="int" name="IRESTART">     0</i>
   <i type="int" name="NREBOOT">     0</i>
   <i type="int" name="NMIN">     0</i>
   <i name="EREF">      0.00000000</i>
   <separator name="electronic smearing" >
    <i type="int" name="ISMEAR">     0</i>
    <i name="SIGMA">      0.05000000</i>
    <i name="KSPACING">      0.50000000</i>
    <i type="logical" name="KGAMMA"> T  </i>
    <i type="logical" name="KBLOWUP"> T  </i>
   </separator>
   <separator name="electronic projectors" >
    <i type="logical" name="LREAL"> F  </i>
    <v name="ROPT">      0.00000000</v>
    <i type="int" name="LMAXPAW">  -100</i>
    <i type="int" name="LMAXMIX">     2</i>
    <i type="logical" name="NLSPLINE"> F  </i>
   </separator>
   <separator name="electronic startup" >
    <i type="int" name="ISTART">     0</i>
    <i type="int" name="ICHARG">     2</i>
    <i type="int" name="INIWAV">     1</i>
   </separator>
   <separator name="electronic spin" >
    <i type="int" name="ISPIN">     1</i>
    <i type="logical" name="LNONCOLLINEAR"> F  </i>
    <v name="MAGMOM">      1.00000000</v>
    <i name="NUPDOWN">     -1.00000000</i>
    <i type="logical" name="LSORBIT"> F  </i>
    <v name="SAXIS">      0.00000000      0.00000000      1.00000000</v>
    <i type="logical" name="LSPIRAL"> F  </i>
    <v name="QSPIRAL">      0.00000000      0.00000000      0.00000000</v>
    <i type="logical" name="LZEROZ"> F  </i>
   </separator>
   <separator name="electronic exchange-correlation" >
    <i type="logical" name="LASPH"> T  </i>
    <i type="logical" name="LMETAGGA"> F  </i>
   </separator>
   <separator name="electronic convergence" >
    <i type="int" name="NELM">    90</i>
    <i type="int" name="NELMDL">    -5</i>
    <i type="int" name="NELMIN">     6</i>
    <i name="ENINI">    650.00000000</i>
    <separator name="electronic convergence detail" >
     <i type="logical" name="LDIAG"> T  </i>
     <i type="logical" name="LSUBROT"> F  </i>
     <i name="WEIMIN">      0.00100000</i>
     <i name="EBREAK">      0.00000003</i>
     <i name="DEPER">      0.30000000</i>
     <i type="int" name="NRMM">     4</i>
     <i name="TIME">      0.40000000</i>
    </separator>
   </separator>
   <separator name="electronic mixer" >
    <i name="AMIX">      0.40000000</i>
    <i name="BMIX">      1.00000000</i>
    <i name="AMIN">      0.10000000</i>
    <i name="AMIX_MAG">      1.60000000</i>
    <i name="BMIX_MAG">      1.00000000</i>
    <separator name="electronic mixer details" >
     <i type="int" name="IMIX">     4</i>
     <i type="logical" name="MIXFIRST"> F  </i>
     <i type="int" name="MAXMIX">   -45</i>
     <i name="WC">    100.00000000</i>
     <i type="int" name="INIMIX">     1</i>
     <i type="int" name="MIXPRE">     1</i>
     <i type="int" name="MREMOVE">     5</i>
    </separator>
   </separator>
   <separator name="electronic dipolcorrection" >
    <i type="logical" name="LDIPOL"> F  </i>
    <i type="logical" name="LMONO"> F  </i>
    <i type="int" name="IDIPOL">     0</i>
    <i name="EPSILON">      1.00000000</i>
    <v name="DIPOL">   -100.00000000   -100.00000000   -100.00000000</v>
    <i name="EFIELD">      0.00000000</i>
   </separator>
  </separator>
  <separator name="grids" >
   <i type="int" name="NGX">    24</i>
   <i type="int" name="NGY">    24</i>
   <i type="int" name="NGZ">    24</i>
   <i type="int" name="NGXF">    48</i>
   <i type="int" name="NGYF">    48</i>
   <i type="int" name="NGZF">    48</i>
   <i type="logical" name="ADDGRID"> T  </i>
  </separator>
  <separator name="ionic" >
   <i type="int" name="NSW">   100</i>
   <i type="int" name="IBRION">     2</i>
   <i type="int" name="MDALGO">     0</i>
   <i type="int" name="ISIF">     3</i>
   <i name="PSTRESS">      0.00000000</i>
   <i name="EDIFFG">     -0.00200000</i>
   <i type="int" name="NFREE">     1</i>
   <i name="POTIM">      0.50000000</i>
   <i name="SMASS">     -3.00000000</i>
   <i name="SCALEE">      1.00000000</i>
  </separator>
  <separator name="ionic md" >
   <i name="TEBEG">      0.00010000</i>
   <i name="TEEND">      0.00010000</i>
   <i type="int" name="NBLOCK">     1</i>
   <i type="int" name="KBLOCK">   100</i>
   <i type="int" name="NPACO">   256</i>
   <i name="APACO">     16.00000000</i>
  </separator>
  <separator name="symmetry" >
   <i type="int" name="ISYM">     2</i>
   <i name="SYMPREC">      0.00001000</i>
  </separator>
  <separator name="dos" >
   <i type="int" name="LORBIT">     0</i>
   <v name="RWIGS">     -1.00000000</v>
   <i type="int" name="NEDOS">   301</i>
   <i name="EMIN">     10.00000000</i>
   <i name="EMAX">    -10.00000000</i>
   <i name="EFERMI">      0.00000000</i>
  </separator>
  <separator name="writing" >
   <i type="int" name="NWRITE">     2</i>
   <i type="logical" name="LWAVE"> F  </i>
   <i type="logical" name="LDOWNSAMPLE"> F  </i>
   <i type="logical" name="LCHARG"> F  </i>
   <i type="logical" name="LPARD"> F  </i>
   <i type="logical" name="LVTOT"> F  </i>
   <i type="logical" name="LVHAR"> F  </i>
   <i type="logical" name="LELF"> F  </i>
   <i type="logical" name="LOPTICS"> F  </i>
   <v name="STM">      0.00000000      0.00000000      0.00000000      0.00000000      0.00000000      0.00000000      0.00000000</v>
  </separator>
  <separator name="performance" >
   <i type="int" name="NPAR">     4</i>
   <i type="int" name="NSIM">     4</i>
   <i type="int" name="NBLK">    -1</i>
   <i type="logical" name="LPLANE"> T  </i>
   <i type="logical" name="LSCALAPACK"> T  </i>
   <i type="logical" name="LSCAAWARE"> F  </i>
   <i type="logical" name="LSCALU"> F  </i>
   <i type="logical" name="LASYNC"> F  </i>
   <i type="logical" name="LORBITALREAL"> F  </i>
  </separator>
  <separator name="miscellaneous" >
   <i type="int" name="IDIOT">     3</i>
   <i type="int" name="PHON_NSTRUCT">    -1</i>
   <i type="logical" name="LMUSIC"> F  </i>
   <v name="POMASS">     28.08500000</v>
   <v name="DARWINR">      0.00000000</v>
   <v name="DARWINV">      1.00000000</v>
   <i type="logical" name="LCORR"> T  </i>
  </separator>
  <i type="logical" name="GGA_COMPAT"> T  </i>
  <i type="logical" name="LBERRY"> F  </i>
  <i type="int" name="ICORELEVEL">     0</i>
  <i type="logical" name="LDAU"> F  </i>
  <i type="int" name="I_CONSTRAINED_M">     0</i>
  <separator name="electronic exchange-correlation" >
   <i type="string" name="GGA">--</i>
   <i type="int" name="VOSKOWN">     0</i>
   <i type="logical" name="LHFCALC"> F  </i>
   <i type="string" name="PRECFOCK"></i>
   <i type="logical" name="LSYMGRAD"> F  </i>
   <i type="logical" name="LHFONE"> F  </i>
   <i type="logical" name="LRHFCALC"> F  </i>
   <i type="logical" name="LTHOMAS"> F  </i>
   <i type="logical" name="LMODELHF"> F  </i>
   <i type="logical" name="LFOCKACE"> F  </i>
   <i name="ENCUT4O">     -1.00000000</i>
   <i type="int" name="EXXOEP">     0</i>
   <i type="int" name="FOURORBIT">     0</i>
   <i name="AEXX">      0.00000000</i>
   <i name="HFALPHA">      0.00000000</i>
   <i name="MCALPHA">      0.00000000</i>
   <i name="ALDAX">      1.00000000</i>
   <i name="AGGAX">      1.00000000</i>
   <i name="ALDAC">      1.00000000</i>
   <i name="AGGAC">      1.00000000</i>
   <i type="int" name="NKREDX">     1</i>
   <i type="int" name="NKREDY">     1</i>
   <i type="int" name="NKREDZ">     1</i>
   <i type="logical" name="SHIFTRED"> F  </i>
   <i type="logical" name="ODDONLY"> F  </i>
   <i type="logical" name="EVENONLY"> F  </i>
   <i type="int" name="LMAXFOCK">     0</i>
   <i type="int" name="NMAXFOCKAE">     0</i>
   <i type="logical" name="LFOCKAEDFT"> F  </i>
   <i name="HFSCREEN">      0.00000000</i>
   <i name="HFSCREENC">      0.00000000</i>
   <i type="int" name="NBANDSGWLOW">     0</i>
  </separator>
  <separator name="vdW DFT" >
   <i type="logical" name="LUSE_VDW"> F  </i>
   <i name="Zab_VDW">     -0.84910000</i>
   <i name="PARAM1">      0.12340000</i>
   <i name="PARAM2">      1.00000000</i>
   <i name="PARAM3">      0.00000000</i>
  </separator>
  <separator name="model GW" >
   <i type="int" name="MODEL_GW">     0</i>
   <i name="MODEL_EPS0">      8.44895106</i>
   <i name="MODEL_ALPHA">      1.00000000</i>
  </separator>
  <separator name="linear response parameters" >
   <i type="logical" name="LEPSILON"> F  </i>
   <i type="logical" name="LRPA"> F  </i>
   <i type="logical" name="LNABLA"> F  </i>
   <i type="logical" name="LVEL"> F  </i>
   <i type="int" name="KINTER">     0</i>
   <i name="CSHIFT">      0.10000000</i>
   <i name="OMEGAMAX">     -1.00000000</i>
   <i name="DEG_THRESHOLD">      0.00200000</i>
   <i name="RTIME">     -0.10000000</i>
   <i name="WPLASMAI">      0.00000000</i>
   <v name="DFIELD">      0.00000000      0.00000000      0.00000000</v>
   <v name="WPLASMA">      0.00000000      0.00000000      0.00000000      0.00000000      0.00000000      0.00000000      0.00000000      0.00000000      0.00000000</v>
  </separator>
  <separator name="orbital magnetization" >
   <i type="logical" name="NUCIND"> F  </i>
   <v name="MAGPOS">      0.00000000      0.00000000      0.00000000</v>
   <i type="logical" name="LNICSALL"> T  </i>
   <i type="logical" name="ORBITALMAG"> F  </i>
   <i type="logical" name="LMAGBLOCH"> F  </i>
   <i type="logical" name="LCHIMAG"> F  </i>
   <i type="logical" name="LGAUGE"> T  </i>
   <i type="int" name="MAGATOM">     0</i>
   <v name="MAGDIPOL">      0.00000000      0.00000000      0.00000000</v>
   <v name="AVECCONST">      0.00000000      0.00000000      0.00000000</v>
  </separator>
  <separator name="response functions" >
   <i type="logical" name="LFINITE_TEMPERATURE"> F  </i>
   <i type="logical" name="LADDER"> F  </i>
   <i type="logical" name="LRPAFORCE"> F  </i>
   <i type="logical" name="LFXC"> F  </i>
   <i type="logical" name="LHARTREE"> T  </i>
   <i type="int" name="IBSE">     0</i>
   <v type="int" name="KPOINT">    -1     0     0     0</v>
   <i type="logical" name="LTCTC"> F  </i>
   <i type="logical" name="LTCTE"> F  </i>
   <i type="logical" name="LTETE"> F  </i>
   <i type="logical" name="LTRIPLET"> F  </i>
   <i type="logical" name="LFXCEPS"> F  </i>
   <i type="logical" name="LFXHEG"> F  </i>
   <i type="int" name="NATURALO">     2</i>
   <i type="logical" name="LHOLEGF"> F  </i>
   <i type="logical" name="L2ORDER"> F  </i>
   <i type="logical" name="LDMP1"> F  </i>
   <i type="logical" name="LMP2LT"> F  </i>
   <i type="logical" name="LSMP2LT"> F  </i>
   <i type="logical" name="LGWLF"> F  </i>
   <i name="ENCUTGW">     -2.00000000</i>
   <i name="ENCUTGWSOFT">     -2.00000000</i>
   <i name="ENCUTLF">     -1.00000000</i>
   <i type="logical" name="LESF_SPLINES"> F  </i>
   <i type="int" name="LMAXMP2">    -1</i>
   <i name="SCISSOR">      0.00000000</i>
   <i type="int" name="NOMEGA">     0</i>
   <i type="int" name="NOMEGAR">     0</i>
   <i type="int" name="NBANDSGW">    -1</i>
   <i type="int" name="NBANDSO">    -1</i>
   <i type="int" name="NBANDSV">    -1</i>
   <i type="int" name="NELM">    90</i>
   <i type="int" name="NELMHF">     1</i>
   <i type="int" name="DIM">     3</i>
   <i type="int" name="IESPILON">     4</i>
   <i type="int" name="ANTIRES">     0</i>
   <i name="OMEGAMAX">    -30.00000000</i>
   <i name="OMEGAMIN">    -30.00000000</i>
   <i name="OMEGATL">   -200.00000000</i>
   <i type="int" name="OMEGAGRID">     0</i>
   <i name="CSHIFT">     -0.10000000</i>
   <i type="logical" name="LSELFENERGY"> F  </i>
   <i type="logical" name="LSPECTRAL"> F  </i>
   <i type="logical" name="LSPECTRALGW"> F  </i>
   <i type="logical" name="LSINGLES"> F  </i>
   <i type="logical" name="LFERMIGW"> F  </i>
   <i type="logical" name="ODDONLYGW"> F  </i>
   <i type="logical" name="EVENONLYGW"> F  </i>
   <i type="int" name="NKREDLFX">     1</i>
   <i type="int" name="NKREDLFY">     1</i>
   <i type="int" name="NKREDLFZ">     1</i>
   <i type="int" name="MAXMEM">  2800</i>
   <i type="int" name="TELESCOPE">     0</i>
   <i type="int" name="NTAUPAR">    -1</i>
   <i type="int" name="NOMEGAPAR">    -1</i>
   <i name="DAMP_NEWTON">      0.80000001</i>
   <i name="LAMBDA">      1.00000000</i>
  </separator>
  <separator name="External order field" >
   <i name="OFIELD_KAPPA">      0.00000000</i>
   <v name="OFIELD_K">      0.00000000      0.00000000      0.00000000</v>
   <i name="OFIELD_Q6_NEAR">      0.00000000</i>
   <i name="OFIELD_Q6_FAR">      0.00000000</i>
   <i name="OFIELD_A">      0.00000000</i>
  </separator>
 </parameters>
 <atominfo>
  <atoms>       1 </atoms>
  <types>       1 </types>
  <array name="atoms" >
   <dimension dim="1">ion</dimension>
   <field type="string">element</field>
   <field type="int">atomtype</field>
   <set>
    <rc><c>Si</c><c>   1</c></rc>
   </set>
  </array>
  <array name="atomtypes" >
   <dimension dim="1">type</dimension>
   <field type="int">atomspertype</field>
   <field type="string">element</field>
   <field>mass</field>
   <field>valence</field>
   <field type="string">pseudopotential</field>
   <set>
    <rc><c>   1</c><c>Si</c><c>     28.08500000</c><c>      4.00000000</c><c>  PAW_PBE Si 05Jan2001                  </c></rc>
   </set>
  </array>
 </atominfo>
 <structure name="initialpos" >
  <crystal>
   <varray name="basis" >
    <v>       2.34739500       0.00000000       1.35526800 </v>
    <v>       0.78246500       2.21314500       1.35526800 </v>
    <v>       0.00000000       0.00000000       2.71053800 </v>
   </varray>
   <i name="volume">     14.08158510 </i>
   <varray name="rec_basis" >
    <v>       0.42600415      -0.15061523       0.00000000 </v>
    <v>       0.00000000       0.45184568       0.00000000 </v>
    <v>      -0.21300192      -0.15061511       0.36893045 </v>
   </varray>
  </crystal>
  <varray name="positions" >
   <v>       0.00000000       0.00000000       0.00000000 </v>
  </varray>
 </structure>
 <calculation>
  <scstep>
   <time name="dav">    0.97    0.97</time>
   <time name="total">    1.19    1.20</time>
   <energy>
    <i name="alphaZ">      2.39057823 </i>
    <i name="ewald">   -137.78496289 </i>
    <i name="hartreedc">     -0.54229904 </i>
    <i name="XCdc">     -8.73348016 </i>
    <i name="pawpsdc">     88.12379961 </i>
    <i name="pawaedc">    -70.53051779 </i>
    <i name="eentropy">     -0.00078943 </i>
    <i name="bandstr">     22.29243740 </i>
    <i name="atom">    103.06659554 </i>
    <i name="e_fr_energy">     -1.71863853 </i>
    <i name="e_wo_entrp">     -1.71784910 </i>
    <i name="e_0_energy">     -1.71824382 </i>
   </energy>
  </scstep>
  <scstep>
   <time name="dav">    1.34    1.36</time>
   <time name="total">    1.34    1.36</time>
   <energy>
    <i name="e_fr_energy">     -4.88621610 </i>
    <i name="e_wo_entrp">     -4.88543380 </i>
    <i name="e_0_energy">     -4.88582495 </i>
   </energy>
  </scstep>
  <scstep>
   <time name="dav">    1.01    1.03</time>
   <time name="total">    1.01    1.03</time>
   <energy>
    <i name="e_fr_energy">     -4.90314044 </i>
    <i name="e_wo_entrp">     -4.90239946 </i>
    <i name="e_0_energy">     -4.90276995 </i>
   </energy>
  </scstep>
  <scstep>
   <time name="dav">    1.49    1.51</time>
   <time name="total">    1.49    1.51</time>
   <energy>
    <i name="e_fr_energy">     -4.90315699 </i>
    <i name="e_wo_entrp">     -4.90241607 </i>
    <i name="e_0_energy">     -4.90278653 </i>
   </energy>
  </scstep>
  <scstep>
   <time name="dav">    1.02    1.04</time>
   <time name="total">    1.11    1.13</time>
   <energy>
    <i name="e_fr_energy">     -4.90315700 </i>
    <i name="e_wo_entrp">     -4.90241607 </i>
    <i name="e_0_energy">     -4.90278653 </i>
   </energy>
  </scstep>
  <scstep>
   <time name="dav">    1.10    1.11</time>
   <time name="total">    1.40    1.42</time>
   <energy>
    <i name="e_fr_energy">     -4.88956133 </i>
    <i name="e_wo_entrp">     -4.88879873 </i>
    <i name="e_0_energy">     -4.88918003 </i>
   </energy>
  </scstep>
  <scstep>
   <time name="dav">    1.07    1.07</time>
   <time name="total">    1.37    1.38</time>
   <energy>
    <i name="e_fr_energy">     -4.88175961 </i>
    <i name="e_wo_entrp">     -4.88097044 </i>
    <i name="e_0_energy">     -4.88136502 </i>
   </energy>
  </scstep>
  <scstep>
   <time name="dav">    1.39    1.39</time>
   <time name="total">    1.68    1.70</time>
   <energy>
    <i name="e_fr_energy">     -4.88172052 </i>
    <i name="e_wo_entrp">     -4.88093151 </i>
    <i name="e_0_energy">     -4.88132601 </i>
   </energy>
  </scstep>
  <scstep>
   <time name="dav">    1.11    1.11</time>
   <time name="total">    1.32    1.34</time>
   <energy>
    <i name="alphaZ">      2.39057823 </i>
    <i name="ewald">   -137.78496289 </i>
    <i name="hartreedc">     -0.40761145 </i>
    <i name="XCdc">     -8.67310517 </i>
    <i name="pawpsdc">    315.49040275 </i>
    <i name="pawaedc">   -297.90865860 </i>
    <i name="eentropy">     -0.00078907 </i>
    <i name="bandstr">     18.94582984 </i>
    <i name="atom">    103.06659554 </i>
    <i name="e_fr_energy">     -4.88172082 </i>
    <i name="e_wo_entrp">     -4.88093174 </i>
    <i name="e_0_energy">     -4.88132628 </i>
   </energy>
  </scstep>
  <structure>
   <crystal>
    <varray name="basis" >
     <v>       2.34739500       0.00000000       1.35526800 </v>
     <v>       0.78246500       2.21314500       1.35526800 </v>
     <v>       0.00000000       0.00000000       2.71053800 </v>
    </varray>
    <i name="volume">     14.08158510 </i>
    <varray name="rec_basis" >
     <v>       0.42600415      -0.15061523       0.00000000 </v>
     <v>       0.00000000       0.45184568       0.00000000 </v>
     <v>      -0.21300192      -0.15061511       0.36893045 </v>
    </varray>
   </crystal>
   <varray name="positions" >
    <v>       0.00000000       0.00000000       0.00000000 </v>
   </varray>
  </structure>
  <varray name="forces" >
   <v>       0.00000000       0.00000000       0.00000000 </v>
  </varray>
  <varray name="stress" >
   <v>      21.83010404      -0.00000000      -0.00000930 </v>
   <v>      -0.00000000      21.83009950      -0.00000658 </v>
   <v>      -0.00000930      -0.00000658      21.83009969 </v>
  </varray>
  <energy>
   <i name="e_fr_energy">     -4.88172082 </i>
   <i name="e_wo_entrp">     -4.88093174 </i>
   <i name="e_0_energy">     -4.88132628 </i>
  </energy>
  <time name="totalsc">   13.65   13.97</time>
 </calculation>
 <calculation>
  <scstep>
   <time name="dav">    0.98    0.98</time>
   <time name="total">    1.27    1.28</time>
   <energy>
    <i name="alphaZ">      2.32540614 </i>
    <i name="ewald">   -136.52130841 </i>
    <i name="hartreedc">     -0.40380900 </i>
    <i name="XCdc">     -8.74522528 </i>
    <i name="pawpsdc">    315.49771933 </i>
    <i name="pawaedc">   -297.91569146 </i>
    <i name="eentropy">     -0.00080247 </i>
    <i name="bandstr">     17.81156452 </i>
    <i name="atom">    103.06659554 </i>
    <i name="e_fr_energy">     -4.88555109 </i>
    <i name="e_wo_entrp">     -4.88474862 </i>
    <i name="e_0_energy">     -4.88514985 </i>
   </energy>
  </scstep>
  <scstep>
   <time name="dav">    1.24    1.25</time>
   <time name="total">    1.54    1.56</time>
   <energy>
    <i name="e_fr_energy">     -4.88463997 </i>
    <i name="e_wo_entrp">     -4.88382823 </i>
    <i name="e_0_energy">     -4.88423410 </i>
   </energy>
  </scstep>
  <scstep>
   <time name="dav">    1.01    1.02</time>
   <time name="total">    1.31    1.33</time>
   <energy>
    <i name="e_fr_energy">     -4.88410544 </i>
    <i name="e_wo_entrp">     -4.88328136 </i>
    <i name="e_0_energy">     -4.88369340 </i>
   </energy>
  </scstep>
  <scstep>
   <time name="dav">    1.33    1.33</time>
   <time name="total">    1.62    1.64</time>
   <energy>
    <i name="e_fr_energy">     -4.88410467 </i>
    <i name="e_wo_entrp">     -4.88328066 </i>
    <i name="e_0_energy">     -4.88369266 </i>
   </energy>
  </scstep>
  <scstep>
   <time name="dav">    0.81    0.81</time>
   <time name="total">    1.10    1.12</time>
   <energy>
    <i name="e_fr_energy">     -4.88410120 </i>
    <i name="e_wo_entrp">     -4.88327731 </i>
    <i name="e_0_energy">     -4.88368925 </i>
   </energy>
  </scstep>
  <scstep>
   <time name="dav">    0.67    0.67</time>
   <time name="total">    0.88    0.90</time>
   <energy>
    <i name="alphaZ">      2.32540614 </i>
    <i name="ewald">   -136.52130841 </i>
    <i name="hartreedc">     -0.44822618 </i>
    <i name="XCdc">     -8.75463009 </i>
    <i name="pawpsdc">    296.77613742 </i>
    <i name="pawaedc">   -279.18936065 </i>
    <i name="eentropy">     -0.00082393 </i>
    <i name="bandstr">     17.86210870 </i>
    <i name="atom">    103.06659554 </i>
    <i name="e_fr_energy">     -4.88410145 </i>
    <i name="e_wo_entrp">     -4.88327752 </i>
    <i name="e_0_energy">     -4.88368949 </i>
   </energy>
  </scstep>
  <structure>
   <crystal>
    <varray name="basis" >
     <v>       2.36912271      -0.00000000       1.36781248 </v>
     <v>       0.78970757       2.23363008       1.36781248 </v>
     <v>      -0.00000001      -0.00000001       2.73562700 </v>
    </varray>
    <i name="volume">     14.47623716 </i>
    <varray name="rec_basis" >
     <v>       0.42209717      -0.14923390       0.00000000 </v>
     <v>       0.00000000       0.44770171       0.00000000 </v>
     <v>      -0.21104843      -0.14923379       0.36554691 </v>
    </varray>
   </crystal>
   <varray name="positions" >
    <v>       0.00000000       0.00000000       0.00000000 </v>
   </varray>
  </structure>
  <varray name="forces" >
   <v>      -0.00000000       0.00000000       0.00000000 </v>
  </varray>
  <varray name="stress" >
   <v>      -1.91305144      -0.00000000       0.00000083 </v>
   <v>      -0.00000000      -1.91305103       0.00000059 </v>
   <v>       0.00000083       0.00000059      -1.91305105 </v>
  </varray>
  <energy>
   <i name="e_fr_energy">     -4.88410145 </i>
   <i name="e_wo_entrp">     -4.88327752 </i>
   <i name="e_0_energy">     -4.88368949 </i>
  </energy>
  <time name="totalsc">    9.45    9.69</time>
 </calculation>
 <calculation>
  <scstep>
   <time name="dav">    1.00    1.00</time>
   <time name="total">    1.29    1.29</time>
   <energy>
    <i name="alphaZ">      2.33092764 </i>
    <i name="ewald">   -136.62927619 </i>
    <i name="hartreedc">     -0.44857575 </i>
    <i name="XCdc">     -8.74851536 </i>
    <i name="pawpsdc">    296.64696152 </i>
    <i name="pawaedc">   -279.06018893 </i>
    <i name="eentropy">     -0.00082901 </i>
    <i name="bandstr">     17.95876794 </i>
    <i name="atom">    103.06659554 </i>
    <i name="e_fr_energy">     -4.88413259 </i>
    <i name="e_wo_entrp">     -4.88330358 </i>
    <i name="e_0_energy">     -4.88371809 </i>
   </energy>
  </scstep>
  <scstep>
   <time name="dav">    1.24    1.24</time>
   <time name="total">    1.53    1.55</time>
   <energy>
    <i name="e_fr_energy">     -4.88412583 </i>
    <i name="e_wo_entrp">     -4.88329747 </i>
    <i name="e_0_energy">     -4.88371165 </i>
   </energy>
  </scstep>
  <scstep>
   <time name="dav">    1.01    1.01</time>
   <time name="total">    1.30    1.32</time>
   <energy>
    <i name="e_fr_energy">     -4.88412208 </i>
    <i name="e_wo_entrp">     -4.88329463 </i>
    <i name="e_0_energy">     -4.88370836 </i>
   </energy>
  </scstep>
  <scstep>
   <time name="dav">    0.64    0.64</time>
   <time name="total">    0.93    0.95</time>
   <energy>
    <i name="e_fr_energy">     -4.88412211 </i>
    <i name="e_wo_entrp">     -4.88329465 </i>
    <i name="e_0_energy">     -4.88370838 </i>
   </energy>
  </scstep>
  <scstep>
   <time name="dav">    0.62    0.62</time>
   <time name="total">    0.91    0.92</time>
   <energy>
    <i name="e_fr_energy">     -4.88412228 </i>
    <i name="e_wo_entrp">     -4.88329482 </i>
    <i name="e_0_energy">     -4.88370855 </i>
   </energy>
  </scstep>
  <scstep>
   <time name="dav">    0.63    0.63</time>
   <time name="total">    0.84    0.86</time>
   <energy>
    <i name="alphaZ">      2.33092764 </i>
    <i name="ewald">   -136.62927619 </i>
    <i name="hartreedc">     -0.44454035 </i>
    <i name="XCdc">     -8.74770306 </i>
    <i name="pawpsdc">    298.10084961 </i>
    <i name="pawaedc">   -280.51447398 </i>
    <i name="eentropy">     -0.00082746 </i>
    <i name="bandstr">     17.95432599 </i>
    <i name="atom">    103.06659554 </i>
    <i name="e_fr_energy">     -4.88412226 </i>
    <i name="e_wo_entrp">     -4.88329480 </i>
    <i name="e_0_energy">     -4.88370853 </i>
   </energy>
  </scstep>
  <structure>
   <crystal>
    <varray name="basis" >
     <v>       2.36725058      -0.00000000       1.36673160 </v>
     <v>       0.78908352       2.23186501       1.36673160 </v>
     <v>      -0.00000001      -0.00000001       2.73346524 </v>
    </varray>
    <i name="volume">     14.44194585 </i>
    <varray name="rec_basis" >
     <v>       0.42243099      -0.14935192       0.00000000 </v>
     <v>       0.00000000       0.44805577       0.00000000 </v>
     <v>      -0.21121534      -0.14935181       0.36583600 </v>
    </varray>
   </crystal>
   <varray name="positions" >
    <v>      -0.00000000      -0.00000000       0.00000000 </v>
   </varray>
  </structure>
  <varray name="forces" >
   <v>      -0.00000000       0.00000000       0.00000000 </v>
  </varray>
  <varray name="stress" >
   <v>       0.01862159      -0.00000000      -0.00000001 </v>
   <v>       0.00000000       0.01862158      -0.00000001 </v>
   <v>      -0.00000001      -0.00000001       0.01862158 </v>
  </varray>
  <energy>
   <i name="e_fr_energy">     -4.88412226 </i>
   <i name="e_wo_entrp">     -4.88329480 </i>
   <i name="e_0_energy">     -4.88370853 </i>
  </energy>
  <time name="totalsc">    8.42    8.64</time>
  <eigenvalues>
   <array>
    <dimension dim="1">band</dimension>
    <dimension dim="2">kpoint</dimension>
    <dimension dim="3">spin</dimension>
    <field>eigene</field>
    <field>occ</field>
    <set>
     <set comment="spin 1">
      <set comment="kpoint 1">
       <r>   -4.2759    1.0000 </r>
       <r>   21.3583    0.0000 </r>
       <r>   21.3583    0.0000 </r>
       <r>   21.3583    0.0000 </r>
       <r>   22.1318    0.0000 </r>
       <r>   22.1318    0.0000 </r>
       <r>   22.1318    0.0000 </r>
       <r>   27.4731    0.0000 </r>
      </set>
      <set comment="kpoint 2">
       <r>   -4.1463    1.0000 </r>
       <r>   19.2040    0.0000 </r>
       <r>   20.6853    0.0000 </r>
       <r>   20.6853    0.0000 </r>
       <r>   22.9638    0.0000 </r>
       <r>   22.9638    0.0000 </r>
       <r>   23.1837    0.0000 </r>
       <r>   28.3558    0.0000 </r>
      </set>
      <set comment="kpoint 3">
       <r>   -3.7579    1.0000 </r>
       <r>   16.3747    0.0000 </r>
       <r>   19.9229    0.0000 </r>
       <r>   19.9229    0.0000 </r>
       <r>   23.4703    0.0000 </r>
       <r>   24.0567    0.0000 </r>
       <r>   24.0567    0.0000 </r>
       <r>   27.3254    0.0000 </r>
      </set>
      <set comment="kpoint 4">
       <r>   -3.1124    1.0000 </r>
       <r>   13.5450    0.0000 </r>
       <r>   19.3458    0.0000 </r>
       <r>   19.3458    0.0000 </r>
       <r>   23.4005    0.0000 </r>
       <r>   24.2790    0.0000 </r>
       <r>   24.2791    0.0000 </r>
       <r>   27.3038    0.0000 </r>
      </set>
      <set comment="kpoint 5">
       <r>   -2.2123    1.0000 </r>
       <r>   10.8423    0.0000 </r>
       <r>   18.9669    0.0000 </r>
       <r>   18.9669    0.0000 </r>
       <r>   23.3036    0.0000 </r>
       <r>   23.3873    0.0000 </r>
       <r>   23.3873    0.0000 </r>
       <r>   28.6998    0.0000 </r>
      </set>
      <set comment="kpoint 6">
       <r>   -1.0620    1.0000 </r>
       <r>    8.3179    1.0000 </r>
       <r>   18.7747    0.0000 </r>
       <r>   18.7747    0.0000 </r>
       <r>   22.3810    0.0000 </r>
       <r>   22.3810    0.0000 </r>
       <r>   23.2907    0.0000 </r>
       <r>   27.5357    0.0000 </r>
      </set>
      <set comment="kpoint 7">
       <r>    0.3317    1.0000 </r>
       <r>    6.0001    1.0000 </r>
       <r>   18.7337    0.0000 </r>
       <r>   18.7337    0.0000 </r>
       <r>   21.5759    0.0000 </r>
       <r>   21.5759    0.0000 </r>
       <r>   23.3768    0.0000 </r>
       <r>   26.6153    0.0000 </r>
      </set>
      <set comment="kpoint 8">
       <r>    1.9390    1.0000 </r>
       <r>    3.9286    1.0000 </r>
       <r>   18.7651    0.0000 </r>
       <r>   18.7651    0.0000 </r>
       <r>   21.1128    0.0000 </r>
       <r>   21.1128    0.0000 </r>
       <r>   23.4882    0.0000 </r>
       <r>   26.0739    0.0000 </r>
      </set>
      <set comment="kpoint 9">
       <r>   -4.1031    1.0000 </r>
       <r>   19.6814    0.0000 </r>
       <r>   19.6814    0.0000 </r>
       <r>   20.9554    0.0000 </r>
       <r>   21.2139    0.0000 </r>
       <r>   24.0251    0.0000 </r>
       <r>   24.0251    0.0000 </r>
       <r>   27.2365    0.0000 </r>
      </set>
      <set comment="kpoint 10">
       <r>   -3.8010    1.0000 </r>
       <r>   17.3821    0.0000 </r>
       <r>   18.8402    0.0000 </r>
       <r>   20.3945    0.0000 </r>
       <r>   21.7597    0.0000 </r>
       <r>   24.7431    0.0000 </r>
       <r>   25.1739    0.0000 </r>
       <r>   25.7677    0.0000 </r>
      </set>
      <set comment="kpoint 11">
       <r>   -3.2412    1.0000 </r>
       <r>   14.5676    0.0000 </r>
       <r>   18.2041    0.0000 </r>
       <r>   19.7626    0.0000 </r>
       <r>   22.4483    0.0000 </r>
       <r>   24.5412    0.0000 </r>
       <r>   25.2963    0.0000 </r>
       <r>   25.7861    0.0000 </r>
      </set>
      <set comment="kpoint 12">
       <r>   -2.4261    1.0000 </r>
       <r>   11.8253    0.0000 </r>
       <r>   17.7827    0.0000 </r>
       <r>   19.2517    0.0000 </r>
       <r>   21.8836    0.0000 </r>
       <r>   24.3790    0.0000 </r>
       <r>   25.1322    0.0000 </r>
       <r>   26.3290    0.0000 </r>
      </set>
      <set comment="kpoint 13">
       <r>   -1.3591    1.0000 </r>
       <r>    9.2425    1.0000 </r>
       <r>   17.5770    0.0000 </r>
       <r>   18.8172    0.0000 </r>
       <r>   21.0121    0.0000 </r>
       <r>   24.0964    0.0000 </r>
       <r>   24.3550    0.0000 </r>
       <r>   27.9238    0.0000 </r>
      </set>
      <set comment="kpoint 14">
       <r>   -0.0460    1.0000 </r>
       <r>    6.8559    1.0000 </r>
       <r>   17.5833    0.0000 </r>
       <r>   18.3448    0.0000 </r>
       <r>   20.4926    0.0000 </r>
       <r>   23.1388    0.0000 </r>
       <r>   24.3734    0.0000 </r>
       <r>   27.8335    0.0000 </r>
      </set>
      <set comment="kpoint 15">
       <r>    1.4985    1.0000 </r>
       <r>    4.6941    1.0000 </r>
       <r>   17.7919    0.0000 </r>
       <r>   17.8060    0.0000 </r>
       <r>   20.4533    0.0000 </r>
       <r>   22.3726    0.0000 </r>
       <r>   24.3970    0.0000 </r>
       <r>   27.2948    0.0000 </r>
      </set>
      <set comment="kpoint 16">
       <r>    2.5688    1.0000 </r>
       <r>    3.4691    1.0000 </r>
       <r>   17.3173    0.0000 </r>
       <r>   18.1818    0.0000 </r>
       <r>   20.8030    0.0000 </r>
       <r>   21.8500    0.0000 </r>
       <r>   24.3346    0.0000 </r>
       <r>   27.2064    0.0000 </r>
      </set>
      <set comment="kpoint 17">
       <r>    0.9602    1.0000 </r>
       <r>    5.3868    1.0000 </r>
       <r>   16.9756    0.0000 </r>
       <r>   18.7088    0.0000 </r>
       <r>   21.4485    0.0000 </r>
       <r>   21.6234    0.0000 </r>
       <r>   24.1854    0.0000 </r>
       <r>   27.6015    0.0000 </r>
      </set>
      <set comment="kpoint 18">
       <r>   -0.5106    1.0000 </r>
       <r>    7.6277    1.0000 </r>
       <r>   16.8253    0.0000 </r>
       <r>   19.2906    0.0000 </r>
       <r>   21.7680    0.0000 </r>
       <r>   22.3358    0.0000 </r>
       <r>   24.0525    0.0000 </r>
       <r>   28.3323    0.0000 </r>
      </set>
      <set comment="kpoint 19">
       <r>   -1.7425    1.0000 </r>
       <r>   10.0823    0.9942 </r>
       <r>   16.8848    0.0000 </r>
       <r>   19.8437    0.0000 </r>
       <r>   22.3319    0.0000 </r>
       <r>   23.4135    0.0000 </r>
       <r>   24.0013    0.0000 </r>
       <r>   27.9842    0.0000 </r>
      </set>
      <set comment="kpoint 20">
       <r>   -2.7260    1.0000 </r>
       <r>   12.7225    0.0000 </r>
       <r>   17.1613    0.0000 </r>
       <r>   20.3831    0.0000 </r>
       <r>   23.1379    0.0000 </r>
       <r>   24.0130    0.0000 </r>
       <r>   24.5606    0.0000 </r>
       <r>   26.3089    0.0000 </r>
      </set>
      <set comment="kpoint 21">
       <r>   -3.4563    1.0000 </r>
       <r>   15.5009    0.0000 </r>
       <r>   17.6569    0.0000 </r>
       <r>   20.9766    0.0000 </r>
       <r>   23.2456    0.0000 </r>
       <r>   23.9669    0.0000 </r>
       <r>   25.1810    0.0000 </r>
       <r>   25.8745    0.0000 </r>
      </set>
      <set comment="kpoint 22">
       <r>   -3.9304    1.0000 </r>
       <r>   18.2039    0.0000 </r>
       <r>   18.4628    0.0000 </r>
       <r>   21.4383    0.0000 </r>
       <r>   22.4661    0.0000 </r>
       <r>   23.6044    0.0000 </r>
       <r>   24.4868    0.0000 </r>
       <r>   26.9929    0.0000 </r>
      </set>
      <set comment="kpoint 23">
       <r>   -3.5854    1.0000 </r>
       <r>   17.9264    0.0000 </r>
       <r>   17.9264    0.0000 </r>
       <r>   19.5645    0.0000 </r>
       <r>   19.8840    0.0000 </r>
       <r>   23.9624    0.0000 </r>
       <r>   26.3986    0.0000 </r>
       <r>   26.3986    0.0000 </r>
      </set>
      <set comment="kpoint 24">
       <r>   -3.1121    1.0000 </r>
       <r>   15.7326    0.0000 </r>
       <r>   17.2193    0.0000 </r>
       <r>   19.0293    0.0000 </r>
       <r>   20.1369    0.0000 </r>
       <r>   22.6532    0.0000 </r>
       <r>   27.1153    0.0000 </r>
       <r>   27.3564    0.0000 </r>
      </set>
      <set comment="kpoint 25">
       <r>   -2.3829    1.0000 </r>
       <r>   13.0133    0.0000 </r>
       <r>   16.7297    0.0000 </r>
       <r>   18.3162    0.0000 </r>
       <r>   20.0258    0.0000 </r>
       <r>   23.0082    0.0000 </r>
       <r>   27.0894    0.0000 </r>
       <r>   27.2920    0.0000 </r>
      </set>
      <set comment="kpoint 26">
       <r>   -1.4009    1.0000 </r>
       <r>   10.3927    0.0000 </r>
       <r>   16.4609    0.0000 </r>
       <r>   17.4945    0.0000 </r>
       <r>   19.4258    0.0000 </r>
       <r>   24.4871    0.0000 </r>
       <r>   26.1309    0.0000 </r>
       <r>   27.4526    0.0000 </r>
      </set>
      <set comment="kpoint 27">
       <r>   -0.1709    1.0000 </r>
       <r>    7.9481    1.0000 </r>
       <r>   16.4129    0.0000 </r>
       <r>   16.5855    0.0000 </r>
       <r>   19.1802    0.0000 </r>
       <r>   25.1455    0.0000 </r>
       <r>   25.7485    0.0000 </r>
       <r>   28.1465    0.0000 </r>
      </set>
      <set comment="kpoint 28">
       <r>    1.2977    1.0000 </r>
       <r>    5.7129    1.0000 </r>
       <r>   15.7432    0.0000 </r>
       <r>   16.5834    0.0000 </r>
       <r>   19.2859    0.0000 </r>
       <r>   24.3018    0.0000 </r>
       <r>   26.1272    0.0000 </r>
       <r>   29.6508    0.0000 </r>
      </set>
      <set comment="kpoint 29">
       <r>    2.9074    1.0000 </r>
       <r>    3.7950    1.0000 </r>
       <r>   15.0641    0.0000 </r>
       <r>   16.9676    0.0000 </r>
       <r>   19.6790    0.0000 </r>
       <r>   23.6559    0.0000 </r>
       <r>   26.0372    0.0000 </r>
       <r>   29.7836    0.0000 </r>
      </set>
      <set comment="kpoint 30">
       <r>    1.8353    1.0000 </r>
       <r>    5.0204    1.0000 </r>
       <r>   14.5882    0.0000 </r>
       <r>   17.5557    0.0000 </r>
       <r>   20.3272    0.0000 </r>
       <r>   23.2355    0.0000 </r>
       <r>   25.8053    0.0000 </r>
       <r>   30.0871    0.0000 </r>
      </set>
      <set comment="kpoint 31">
       <r>    0.2927    1.0000 </r>
       <r>    7.1757    1.0000 </r>
       <r>   14.3329    0.0000 </r>
       <r>   18.3289    0.0000 </r>
       <r>   21.2089    0.0000 </r>
       <r>   23.0610    0.0000 </r>
       <r>   25.5745    0.0000 </r>
       <r>   29.6188    0.0000 </r>
      </set>
      <set comment="kpoint 32">
       <r>   -1.0184    1.0000 </r>
       <r>    9.5494    1.0000 </r>
       <r>   14.3074    0.0000 </r>
       <r>   19.2493    0.0000 </r>
       <r>   22.2978    0.0000 </r>
       <r>   23.1525    0.0000 </r>
       <r>   25.3862    0.0000 </r>
       <r>   27.4621    0.0000 </r>
      </set>
      <set comment="kpoint 33">
       <r>   -2.0837    1.0000 </r>
       <r>   12.0997    0.0000 </r>
       <r>   14.5249    0.0000 </r>
       <r>   20.2363    0.0000 </r>
       <r>   23.4973    0.0000 </r>
       <r>   23.5399    0.0000 </r>
       <r>   25.1733    0.0000 </r>
       <r>   25.5885    0.0000 </r>
      </set>
      <set comment="kpoint 34">
       <r>   -2.8975    1.0000 </r>
       <r>   14.5600    0.0000 </r>
       <r>   15.2057    0.0000 </r>
       <r>   21.0763    0.0000 </r>
       <r>   23.4645    0.0000 </r>
       <r>   24.7318    0.0000 </r>
       <r>   24.7548    0.0000 </r>
       <r>   24.8657    0.0000 </r>
      </set>
      <set comment="kpoint 35">
       <r>   -2.7255    1.0000 </r>
       <r>   16.4390    0.0000 </r>
       <r>   16.4390    0.0000 </r>
       <r>   17.9865    0.0000 </r>
       <r>   18.1329    0.0000 </r>
       <r>   20.9609    0.0000 </r>
       <r>   28.8161    0.0000 </r>
       <r>   28.8161    0.0000 </r>
      </set>
      <set comment="kpoint 36">
       <r>   -2.0829    1.0000 </r>
       <r>   14.3433    0.0000 </r>
       <r>   15.8763    0.0000 </r>
       <r>   16.9837    0.0000 </r>
       <r>   18.2483    0.0000 </r>
       <r>   20.5292    0.0000 </r>
       <r>   29.1385    0.0000 </r>
       <r>   29.5546    0.0000 </r>
      </set>
      <set comment="kpoint 37">
       <r>   -1.1872    1.0000 </r>
       <r>   11.7468    0.0000 </r>
       <r>   15.5358    0.0000 </r>
       <r>   15.7579    0.0000 </r>
       <r>   18.1521    0.0000 </r>
       <r>   21.7944    0.0000 </r>
       <r>   28.3381    0.0000 </r>
       <r>   29.7164    0.0000 </r>
      </set>
      <set comment="kpoint 38">
       <r>   -0.0423    1.0000 </r>
       <r>    9.2652    1.0000 </r>
       <r>   14.5893    0.0000 </r>
       <r>   15.4186    0.0000 </r>
       <r>   18.0371    0.0000 </r>
       <r>   23.6915    0.0000 </r>
       <r>   27.3756    0.0000 </r>
       <r>   29.6397    0.0000 </r>
      </set>
      <set comment="kpoint 39">
       <r>    1.3447    1.0000 </r>
       <r>    6.9705    1.0000 </r>
       <r>   13.5822    0.0000 </r>
       <r>   15.5241    0.0000 </r>
       <r>   18.1488    0.0000 </r>
       <r>   25.7005    0.0000 </r>
       <r>   26.4992    0.0000 </r>
       <r>   29.5170    0.0000 </r>
      </set>
      <set comment="kpoint 40">
       <r>    2.9469    1.0000 </r>
       <r>    4.9099    1.0000 </r>
       <r>   12.7801    0.0000 </r>
       <r>   15.8504    0.0000 </r>
       <r>   18.5078    0.0000 </r>
       <r>   25.7902    0.0000 </r>
       <r>   27.2288    0.0000 </r>
       <r>   29.8224    0.0000 </r>
      </set>
      <set comment="kpoint 41">
       <r>    2.9474    1.0000 </r>
       <r>    4.9068    1.0000 </r>
       <r>   12.2028    0.0000 </r>
       <r>   16.3934    0.0000 </r>
       <r>   19.1102    0.0000 </r>
       <r>   25.2838    0.0000 </r>
       <r>   27.5410    0.0000 </r>
       <r>   31.0087    0.0000 </r>
      </set>
      <set comment="kpoint 42">
       <r>    1.3442    1.0000 </r>
       <r>    6.9602    1.0000 </r>
       <r>   11.8626    0.0000 </r>
       <r>   17.1450    0.0000 </r>
       <r>   19.9461    0.0000 </r>
       <r>   24.9983    0.0000 </r>
       <r>   27.3011    0.0000 </r>
       <r>   29.4382    0.0000 </r>
      </set>
      <set comment="kpoint 43">
       <r>   -0.0431    1.0000 </r>
       <r>    9.2271    1.0000 </r>
       <r>   11.7810    0.0000 </r>
       <r>   18.0880    0.0000 </r>
       <r>   20.9981    0.0000 </r>
       <r>   24.9461    0.0000 </r>
       <r>   26.8923    0.0000 </r>
       <r>   27.1758    0.0000 </r>
      </set>
      <set comment="kpoint 44">
       <r>   -1.1881    1.0000 </r>
       <r>   11.3826    0.0000 </r>
       <r>   12.2418    0.0000 </r>
       <r>   19.1776    0.0000 </r>
       <r>   22.2296    0.0000 </r>
       <r>   25.1121    0.0000 </r>
       <r>   25.1575    0.0000 </r>
       <r>   26.2205    0.0000 </r>
      </set>
      <set comment="kpoint 45">
       <r>   -1.5275    1.0000 </r>
       <r>   15.2396    0.0000 </r>
       <r>   15.2396    0.0000 </r>
       <r>   15.4046    0.0000 </r>
       <r>   16.6668    0.0000 </r>
       <r>   19.1132    0.0000 </r>
       <r>   31.1296    0.0000 </r>
       <r>   31.1296    0.0000 </r>
      </set>
      <set comment="kpoint 46">
       <r>   -0.7189    1.0000 </r>
       <r>   13.2048    0.0000 </r>
       <r>   14.0271    0.0000 </r>
       <r>   14.8252    0.0000 </r>
       <r>   16.9837    0.0000 </r>
       <r>   19.3019    0.0000 </r>
       <r>   30.6217    0.0000 </r>
       <r>   31.8059    0.0000 </r>
      </set>
      <set comment="kpoint 47">
       <r>    0.3392    1.0000 </r>
       <r>   10.7726    0.0000 </r>
       <r>   12.6816    0.0000 </r>
       <r>   14.6349    0.0000 </r>
       <r>   17.0801    0.0000 </r>
       <r>   20.9122    0.0000 </r>
       <r>   29.7432    0.0000 </r>
       <r>   31.8231    0.0000 </r>
      </set>
      <set comment="kpoint 48">
       <r>    1.6410    1.0000 </r>
       <r>    8.4476    1.0000 </r>
       <r>   11.5461    0.0000 </r>
       <r>   14.6691    0.0000 </r>
       <r>   17.1865    0.0000 </r>
       <r>   23.0398    0.0000 </r>
       <r>   28.8721    0.0000 </r>
       <r>   31.4608    0.0000 </r>
      </set>
      <set comment="kpoint 49">
       <r>    3.1725    1.0000 </r>
       <r>    6.3169    1.0000 </r>
       <r>   10.6385    0.0000 </r>
       <r>   14.9268    0.0000 </r>
       <r>   17.4958    0.0000 </r>
       <r>   25.3489    0.0000 </r>
       <r>   28.1257    0.0000 </r>
       <r>   30.9145    0.0000 </r>
      </set>
      <set comment="kpoint 50">
       <r>    4.2525    1.0000 </r>
       <r>    5.0789    1.0000 </r>
       <r>    9.9714    1.0000 </r>
       <r>   15.4059    0.0000 </r>
       <r>   18.0379    0.0000 </r>
       <r>   27.5545    0.0000 </r>
       <r>   27.5989    0.0000 </r>
       <r>   30.3225    0.0000 </r>
      </set>
      <set comment="kpoint 51">
       <r>    2.6383    1.0000 </r>
       <r>    6.9614    1.0000 </r>
       <r>    9.5704    1.0000 </r>
       <r>   16.1018    0.0000 </r>
       <r>   18.8132    0.0000 </r>
       <r>   27.1759    0.0000 </r>
       <r>   28.9166    0.0000 </r>
       <r>   29.5071    0.0000 </r>
      </set>
      <set comment="kpoint 52">
       <r>    1.1787    1.0000 </r>
       <r>    8.8040    1.0000 </r>
       <r>    9.7461    1.0000 </r>
       <r>   17.0046    0.0000 </r>
       <r>   19.8098    0.0000 </r>
       <r>   26.8157    0.0000 </r>
       <r>   27.3743    0.0000 </r>
       <r>   28.2111    0.0000 </r>
      </set>
      <set comment="kpoint 53">
       <r>    0.0019    1.0000 </r>
       <r>   12.3049    0.0000 </r>
       <r>   14.3363    0.0000 </r>
       <r>   14.3363    0.0000 </r>
       <r>   15.6578    0.0000 </r>
       <r>   18.0421    0.0000 </r>
       <r>   32.5467    0.0000 </r>
       <r>   33.2282    0.0000 </r>
      </set>
      <set comment="kpoint 54">
       <r>    0.9719    1.0000 </r>
       <r>   10.8470    0.0000 </r>
       <r>   12.5199    0.0000 </r>
       <r>   14.0718    0.0000 </r>
       <r>   16.1405    0.0000 </r>
       <r>   18.5013    0.0000 </r>
       <r>   32.1062    0.0000 </r>
       <r>   33.7568    0.0000 </r>
      </set>
      <set comment="kpoint 55">
       <r>    2.1852    1.0000 </r>
       <r>    9.5407    1.0000 </r>
       <r>   10.2863    0.0006 </r>
       <r>   14.0324    0.0000 </r>
       <r>   16.4036    0.0000 </r>
       <r>   20.3208    0.0000 </r>
       <r>   31.3165    0.0000 </r>
       <r>   33.5392    0.0000 </r>
      </set>
      <set comment="kpoint 56">
       <r>    3.6302    1.0000 </r>
       <r>    7.8805    1.0000 </r>
       <r>    8.7727    1.0000 </r>
       <r>   14.2179    0.0000 </r>
       <r>   16.6873    0.0000 </r>
       <r>   22.6312    0.0000 </r>
       <r>   30.5646    0.0000 </r>
       <r>   32.8708    0.0000 </r>
      </set>
      <set comment="kpoint 57">
       <r>    5.2294    1.0000 </r>
       <r>    6.0066    1.0000 </r>
       <r>    7.9871    1.0000 </r>
       <r>   14.6271    0.0000 </r>
       <r>   17.1702    0.0000 </r>
       <r>   25.1336    0.0000 </r>
       <r>   29.9174    0.0000 </r>
       <r>   31.9112    0.0000 </r>
      </set>
      <set comment="kpoint 58">
       <r>    4.1626    1.0000 </r>
       <r>    6.8598    1.0000 </r>
       <r>    7.8289    1.0000 </r>
       <r>   15.2571    0.0000 </r>
       <r>   17.8800    0.0000 </r>
       <r>   27.6413    0.0000 </r>
       <r>   29.1505    0.0000 </r>
       <r>   30.1711    0.0000 </r>
      </set>
      <set comment="kpoint 59">
       <r>    1.8519    1.0000 </r>
       <r>    9.3167    1.0000 </r>
       <r>   13.7327    0.0000 </r>
       <r>   13.7327    0.0000 </r>
       <r>   14.9788    0.0000 </r>
       <r>   17.3785    0.0000 </r>
       <r>   33.7868    0.0000 </r>
       <r>   35.0249    0.0000 </r>
      </set>
      <set comment="kpoint 60">
       <r>    2.9720    1.0000 </r>
       <r>    7.9925    1.0000 </r>
       <r>   12.0299    0.0000 </r>
       <r>   13.6190    0.0000 </r>
       <r>   15.6384    0.0000 </r>
       <r>   18.0286    0.0000 </r>
       <r>   33.5518    0.0000 </r>
       <r>   35.2959    0.0000 </r>
      </set>
      <set comment="kpoint 61">
       <r>    4.3090    1.0000 </r>
       <r>    6.9161    1.0000 </r>
       <r>    9.8803    1.0000 </r>
       <r>   13.7307    0.0000 </r>
       <r>   16.0681    0.0000 </r>
       <r>   20.0229    0.0000 </r>
       <r>   32.8684    0.0000 </r>
       <r>   34.6855    0.0000 </r>
      </set>
      <set comment="kpoint 62">
       <r>    5.5612    1.0000 </r>
       <r>    6.3520    1.0000 </r>
       <r>    7.9149    1.0000 </r>
       <r>   14.0673    0.0000 </r>
       <r>   16.5212    0.0000 </r>
       <r>   22.4926    0.0000 </r>
       <r>   31.8932    0.0000 </r>
       <r>   33.2842    0.0000 </r>
      </set>
      <set comment="kpoint 63">
       <r>    3.9815    1.0000 </r>
       <r>    6.6024    1.0000 </r>
       <r>   13.4306    0.0000 </r>
       <r>   13.4306    0.0000 </r>
       <r>   14.6377    0.0000 </r>
       <r>   17.0517    0.0000 </r>
       <r>   34.6771    0.0000 </r>
       <r>   36.2359    0.0000 </r>
      </set>
      <set comment="kpoint 64">
       <r>    4.9114    1.0000 </r>
       <r>    5.7610    1.0000 </r>
       <r>   11.8693    0.0000 </r>
       <r>   13.4679    0.0000 </r>
       <r>   15.4711    0.0000 </r>
       <r>   17.8713    0.0000 </r>
       <r>   34.3549    0.0000 </r>
       <r>   35.9475    0.0000 </r>
      </set>
      <set comment="kpoint 65">
       <r>   -3.4132    1.0000 </r>
       <r>   16.4035    0.0000 </r>
       <r>   16.8236    0.0000 </r>
       <r>   20.7263    0.0000 </r>
       <r>   21.3355    0.0000 </r>
       <r>   24.2975    0.0000 </r>
       <r>   25.6579    0.0000 </r>
       <r>   26.0212    0.0000 </r>
      </set>
      <set comment="kpoint 66">
       <r>   -2.7687    1.0000 </r>
       <r>   13.8136    0.0000 </r>
       <r>   16.0895    0.0000 </r>
       <r>   20.0768    0.0000 </r>
       <r>   21.7675    0.0000 </r>
       <r>   23.8457    0.0000 </r>
       <r>   25.8711    0.0000 </r>
       <r>   26.1058    0.0000 </r>
      </set>
      <set comment="kpoint 67">
       <r>   -1.8701    1.0000 </r>
       <r>   11.1442    0.0000 </r>
       <r>   15.7321    0.0000 </r>
       <r>   19.2053    0.0000 </r>
       <r>   21.3295    0.0000 </r>
       <r>   24.4166    0.0000 </r>
       <r>   25.3383    0.0000 </r>
       <r>   26.4923    0.0000 </r>
      </set>
      <set comment="kpoint 68">
       <r>   -0.7215    1.0000 </r>
       <r>    8.6342    1.0000 </r>
       <r>   15.6017    0.0000 </r>
       <r>   18.2681    0.0000 </r>
       <r>   21.0030    0.0000 </r>
       <r>   23.6441    0.0000 </r>
       <r>   25.6047    0.0000 </r>
       <r>   27.8753    0.0000 </r>
      </set>
      <set comment="kpoint 69">
       <r>    0.6701    1.0000 </r>
       <r>    6.3242    1.0000 </r>
       <r>   15.6854    0.0000 </r>
       <r>   17.4043    0.0000 </r>
       <r>   20.9646    0.0000 </r>
       <r>   22.7689    0.0000 </r>
       <r>   25.7544    0.0000 </r>
       <r>   29.2971    0.0000 </r>
      </set>
      <set comment="kpoint 70">
       <r>    2.2760    1.0000 </r>
       <r>    4.2564    1.0000 </r>
       <r>   15.9291    0.0000 </r>
       <r>   16.7539    0.0000 </r>
       <r>   21.1069    0.0000 </r>
       <r>   22.1612    0.0000 </r>
       <r>   25.8449    0.0000 </r>
       <r>   29.0391    0.0000 </r>
      </set>
      <set comment="kpoint 71">
       <r>   -2.5541    1.0000 </r>
       <r>   14.8516    0.0000 </r>
       <r>   15.3544    0.0000 </r>
       <r>   18.7310    0.0000 </r>
       <r>   19.8629    0.0000 </r>
       <r>   21.7398    0.0000 </r>
       <r>   27.5966    0.0000 </r>
       <r>   28.2482    0.0000 </r>
      </set>
      <set comment="kpoint 72">
       <r>   -1.7415    1.0000 </r>
       <r>   12.4001    0.0000 </r>
       <r>   14.7296    0.0000 </r>
       <r>   17.5600    0.0000 </r>
       <r>   20.0795    0.0000 </r>
       <r>   22.4294    0.0000 </r>
       <r>   26.8712    0.0000 </r>
       <r>   28.7064    0.0000 </r>
      </set>
      <set comment="kpoint 73">
       <r>   -0.6780    1.0000 </r>
       <r>    9.8635    1.0000 </r>
       <r>   14.5043    0.0000 </r>
       <r>   16.3718    0.0000 </r>
       <r>   19.9364    0.0000 </r>
       <r>   24.0646    0.0000 </r>
       <r>   25.9582    0.0000 </r>
       <r>   28.8454    0.0000 </r>
      </set>
      <set comment="kpoint 74">
       <r>    0.6310    1.0000 </r>
       <r>    7.4977    1.0000 </r>
       <r>   14.4614    0.0000 </r>
       <r>   15.3829    0.0000 </r>
       <r>   19.9596    0.0000 </r>
       <r>   24.6135    0.0000 </r>
       <r>   26.3247    0.0000 </r>
       <r>   29.0538    0.0000 </r>
      </set>
      <set comment="kpoint 75">
       <r>    2.1713    1.0000 </r>
       <r>    5.3470    1.0000 </r>
       <r>   14.2120    0.0000 </r>
       <r>   15.0275    0.0000 </r>
       <r>   20.2073    0.0000 </r>
       <r>   23.9380    0.0000 </r>
       <r>   27.4779    0.0000 </r>
       <r>   29.8458    0.0000 </r>
      </set>
      <set comment="kpoint 76">
       <r>    3.2452    1.0000 </r>
       <r>    4.1194    1.0000 </r>
       <r>   13.6608    0.0000 </r>
       <r>   15.4186    0.0000 </r>
       <r>   20.6731    0.0000 </r>
       <r>   23.3785    0.0000 </r>
       <r>   27.6788    0.0000 </r>
       <r>   30.9856    0.0000 </r>
      </set>
      <set comment="kpoint 77">
       <r>    1.6342    1.0000 </r>
       <r>    6.0349    1.0000 </r>
       <r>   13.2624    0.0000 </r>
       <r>   16.1059    0.0000 </r>
       <r>   21.3239    0.0000 </r>
       <r>   23.0552    0.0000 </r>
       <r>   27.4237    0.0000 </r>
       <r>   29.7999    0.0000 </r>
      </set>
      <set comment="kpoint 78">
       <r>    0.1676    1.0000 </r>
       <r>    8.2579    1.0000 </r>
       <r>   13.0864    0.0000 </r>
       <r>   17.0144    0.0000 </r>
       <r>   22.0402    0.0000 </r>
       <r>   23.0742    0.0000 </r>
       <r>   26.6278    0.0000 </r>
       <r>   28.2840    0.0000 </r>
      </set>
      <set comment="kpoint 79">
       <r>   -1.0604    1.0000 </r>
       <r>   10.6691    0.0000 </r>
       <r>   13.1580    0.0000 </r>
       <r>   18.1060    0.0000 </r>
       <r>   22.5398    0.0000 </r>
       <r>   23.5449    0.0000 </r>
       <r>   25.1606    0.0000 </r>
       <r>   27.6414    0.0000 </r>
      </set>
      <set comment="kpoint 80">
       <r>   -2.0407    1.0000 </r>
       <r>   12.9791    0.0000 </r>
       <r>   13.7314    0.0000 </r>
       <r>   19.2934    0.0000 </r>
       <r>   22.5770    0.0000 </r>
       <r>   23.3267    0.0000 </r>
       <r>   25.1169    0.0000 </r>
       <r>   27.0537    0.0000 </r>
      </set>
      <set comment="kpoint 81">
       <r>   -1.3572    1.0000 </r>
       <r>   13.5935    0.0000 </r>
       <r>   14.1056    0.0000 </r>
       <r>   15.7835    0.0000 </r>
       <r>   18.6157    0.0000 </r>
       <r>   20.2330    0.0000 </r>
       <r>   28.9720    0.0000 </r>
       <r>   30.7818    0.0000 </r>
      </set>
      <set comment="kpoint 82">
       <r>   -0.3801    1.0000 </r>
       <r>   11.2821    0.0000 </r>
       <r>   13.5625    0.0000 </r>
       <r>   14.5028    0.0000 </r>
       <r>   18.9356    0.0000 </r>
       <r>   21.4166    0.0000 </r>
       <r>   28.1121    0.0000 </r>
       <r>   31.2241    0.0000 </r>
      </set>
      <set comment="kpoint 83">
       <r>    0.8437    1.0000 </r>
       <r>    8.8919    1.0000 </r>
       <r>   13.0085    0.0000 </r>
       <r>   13.8131    0.0000 </r>
       <r>   18.9939    0.0000 </r>
       <r>   23.3863    0.0000 </r>
       <r>   27.2051    0.0000 </r>
       <r>   31.1492    0.0000 </r>
      </set>
      <set comment="kpoint 84">
       <r>    2.3049    1.0000 </r>
       <r>    6.6818    1.0000 </r>
       <r>   12.1345    0.0000 </r>
       <r>   13.8986    0.0000 </r>
       <r>   19.2124    0.0000 </r>
       <r>   25.3448    0.0000 </r>
       <r>   26.6394    0.0000 </r>
       <r>   30.8046    0.0000 </r>
      </set>
      <set comment="kpoint 85">
       <r>    3.9163    1.0000 </r>
       <r>    4.7660    1.0000 </r>
       <r>   11.4110    0.0000 </r>
       <r>   14.2969    0.0000 </r>
       <r>   19.6461    0.0000 </r>
       <r>   25.4742    0.0000 </r>
       <r>   28.0259    0.0000 </r>
       <r>   30.1962    0.0000 </r>
      </set>
      <set comment="kpoint 86">
       <r>    2.8405    1.0000 </r>
       <r>    5.9862    1.0000 </r>
       <r>   10.9144    0.0000 </r>
       <r>   14.9377    0.0000 </r>
       <r>   20.2977    0.0000 </r>
       <r>   25.0787    0.0000 </r>
       <r>   28.7709    0.0000 </r>
       <r>   29.6524    0.0000 </r>
      </set>
      <set comment="kpoint 87">
       <r>    1.3043    1.0000 </r>
       <r>    8.0954    1.0000 </r>
       <r>   10.6770    0.0000 </r>
       <r>   15.8036    0.0000 </r>
       <r>   21.1514    0.0000 </r>
       <r>   24.8326    0.0000 </r>
       <r>   26.9017    0.0000 </r>
       <r>   29.6048    0.0000 </r>
      </set>
      <set comment="kpoint 88">
       <r>   -0.0004    1.0000 </r>
       <r>   10.0959    0.9837 </r>
       <r>   10.9988    0.0000 </r>
       <r>   16.8760    0.0000 </r>
       <r>   22.1559    0.0000 </r>
       <r>   24.4670    0.0000 </r>
       <r>   25.2076    0.0000 </r>
       <r>   28.8581    0.0000 </r>
      </set>
      <set comment="kpoint 89">
       <r>    0.1707    1.0000 </r>
       <r>   12.3593    0.0000 </r>
       <r>   12.6432    0.0000 </r>
       <r>   13.4474    0.0000 </r>
       <r>   17.6602    0.0000 </r>
       <r>   19.2729    0.0000 </r>
       <r>   30.4057    0.0000 </r>
       <r>   33.0690    0.0000 </r>
      </set>
      <set comment="kpoint 90">
       <r>    1.3072    1.0000 </r>
       <r>   10.4247    0.0000 </r>
       <r>   11.2491    0.0000 </r>
       <r>   12.9964    0.0000 </r>
       <r>   18.1379    0.0000 </r>
       <r>   20.6923    0.0000 </r>
       <r>   29.5932    0.0000 </r>
       <r>   33.3015    0.0000 </r>
      </set>
      <set comment="kpoint 91">
       <r>    2.6829    1.0000 </r>
       <r>    8.2237    1.0000 </r>
       <r>   10.1673    0.5464 </r>
       <r>   13.0680    0.0000 </r>
       <r>   18.3678    0.0000 </r>
       <r>   22.8701    0.0000 </r>
       <r>   28.7819    0.0000 </r>
       <r>   32.7183    0.0000 </r>
      </set>
      <set comment="kpoint 92">
       <r>    4.2721    1.0000 </r>
       <r>    6.1938    1.0000 </r>
       <r>    9.3336    1.0000 </r>
       <r>   13.4032    0.0000 </r>
       <r>   18.7554    0.0000 </r>
       <r>   25.2372    0.0000 </r>
       <r>   28.1335    0.0000 </r>
       <r>   31.4227    0.0000 </r>
      </set>
      <set comment="kpoint 93">
       <r>    4.2770    1.0000 </r>
       <r>    6.1594    1.0000 </r>
       <r>    8.7678    1.0000 </r>
       <r>   13.9776    0.0000 </r>
       <r>   19.3540    0.0000 </r>
       <r>   27.0770    0.0000 </r>
       <r>   28.1499    0.0000 </r>
       <r>   29.4752    0.0000 </r>
      </set>
      <set comment="kpoint 94">
       <r>    2.6818    1.0000 </r>
       <r>    7.8327    1.0000 </r>
       <r>    8.7840    1.0000 </r>
       <r>   14.7817    0.0000 </r>
       <r>   20.1631    0.0000 </r>
       <r>   26.9458    0.0000 </r>
       <r>   27.1335    0.0000 </r>
       <r>   30.1811    0.0000 </r>
      </set>
      <set comment="kpoint 95">
       <r>    2.0188    1.0000 </r>
       <r>    9.4641    1.0000 </r>
       <r>   12.0072    0.0000 </r>
       <r>   12.7228    0.0000 </r>
       <r>   17.0169    0.0000 </r>
       <r>   18.6533    0.0000 </r>
       <r>   31.9608    0.0000 </r>
       <r>   34.9851    0.0000 </r>
      </set>
      <set comment="kpoint 96">
       <r>    3.3026    1.0000 </r>
       <r>    8.2905    1.0000 </r>
       <r>   10.0619    0.9990 </r>
       <r>   12.4957    0.0000 </r>
       <r>   17.6588    0.0000 </r>
       <r>   20.2528    0.0000 </r>
       <r>   31.2585    0.0000 </r>
       <r>   34.1844    0.0000 </r>
      </set>
      <set comment="kpoint 97">
       <r>    4.7961    1.0000 </r>
       <r>    7.2912    1.0000 </r>
       <r>    8.0876    1.0000 </r>
       <r>   12.7441    0.0000 </r>
       <r>   18.0531    0.0000 </r>
       <r>   22.6008    0.0000 </r>
       <r>   30.5608    0.0000 </r>
       <r>   32.2999    0.0000 </r>
      </set>
      <set comment="kpoint 98">
       <r>    5.8907    1.0000 </r>
       <r>    6.2107    1.0000 </r>
       <r>    7.2468    1.0000 </r>
       <r>   13.2434    0.0000 </r>
       <r>   18.6016    0.0000 </r>
       <r>   25.1489    0.0000 </r>
       <r>   29.9293    0.0000 </r>
       <r>   30.0021    0.0000 </r>
      </set>
      <set comment="kpoint 99">
       <r>    4.1456    1.0000 </r>
       <r>    6.7620    1.0000 </r>
       <r>   11.6885    0.0000 </r>
       <r>   12.3989    0.0000 </r>
       <r>   16.6939    0.0000 </r>
       <r>   18.3445    0.0000 </r>
       <r>   33.4762    0.0000 </r>
       <r>   34.9917    0.0000 </r>
      </set>
      <set comment="kpoint 100">
       <r>    5.2363    1.0000 </r>
       <r>    6.0805    1.0000 </r>
       <r>    9.8864    1.0000 </r>
       <r>   12.3345    0.0000 </r>
       <r>   17.4988    0.0000 </r>
       <r>   20.1053    0.0000 </r>
       <r>   32.7599    0.0000 </r>
       <r>   33.1985    0.0000 </r>
      </set>
      <set comment="kpoint 101">
       <r>   -0.8473    1.0000 </r>
       <r>   11.7017    0.0000 </r>
       <r>   12.4976    0.0000 </r>
       <r>   16.2471    0.0000 </r>
       <r>   21.4061    0.0000 </r>
       <r>   22.3456    0.0000 </r>
       <r>   25.9590    0.0000 </r>
       <r>   29.9092    0.0000 </r>
      </set>
      <set comment="kpoint 102">
       <r>    0.2956    1.0000 </r>
       <r>    9.5436    1.0000 </r>
       <r>   12.0549    0.0000 </r>
       <r>   15.0223    0.0000 </r>
       <r>   21.6805    0.0000 </r>
       <r>   23.6408    0.0000 </r>
       <r>   25.2293    0.0000 </r>
       <r>   30.4645    0.0000 </r>
      </set>
      <set comment="kpoint 103">
       <r>    1.6805    1.0000 </r>
       <r>    7.2825    1.0000 </r>
       <r>   12.1203    0.0000 </r>
       <r>   14.0079    0.0000 </r>
       <r>   21.7671    0.0000 </r>
       <r>   23.6886    0.0000 </r>
       <r>   26.4315    0.0000 </r>
       <r>   30.5422    0.0000 </r>
      </set>
      <set comment="kpoint 104">
       <r>    3.2813    1.0000 </r>
       <r>    5.2324    1.0000 </r>
       <r>   12.3727    0.0000 </r>
       <r>   13.2845    0.0000 </r>
       <r>   21.9281    0.0000 </r>
       <r>   23.1960    0.0000 </r>
       <r>   28.4519    0.0000 </r>
       <r>   30.0268    0.0000 </r>
      </set>
      <set comment="kpoint 105">
       <r>    0.6761    1.0000 </r>
       <r>   10.7389    0.0000 </r>
       <r>   11.4941    0.0000 </r>
       <r>   13.1408    0.0000 </r>
       <r>   20.4856    0.0000 </r>
       <r>   21.5761    0.0000 </r>
       <r>   27.2334    0.0000 </r>
       <r>   32.5971    0.0000 </r>
      </set>
      <set comment="kpoint 106">
       <r>    1.9756    1.0000 </r>
       <r>    8.7296    1.0000 </r>
       <r>   11.1383    0.0000 </r>
       <r>   12.0763    0.0000 </r>
       <r>   20.9715    0.0000 </r>
       <r>   23.2583    0.0000 </r>
       <r>   26.3932    0.0000 </r>
       <r>   32.6255    0.0000 </r>
      </set>
      <set comment="kpoint 107">
       <r>    3.5049    1.0000 </r>
       <r>    6.6304    1.0000 </r>
       <r>   10.8174    0.0000 </r>
       <r>   11.7307    0.0000 </r>
       <r>   21.2767    0.0000 </r>
       <r>   24.8433    0.0000 </r>
       <r>   26.3356    0.0000 </r>
       <r>   31.1239    0.0000 </r>
      </set>
      <set comment="kpoint 108">
       <r>    4.5849    1.0000 </r>
       <r>    5.4000    1.0000 </r>
       <r>   10.2455    0.0181 </r>
       <r>   12.1382    0.0000 </r>
       <r>   21.7443    0.0000 </r>
       <r>   24.6646    0.0000 </r>
       <r>   28.0222    0.0000 </r>
       <r>   29.2626    0.0000 </r>
      </set>
      <set comment="kpoint 109">
       <r>    2.9716    1.0000 </r>
       <r>    7.2832    1.0000 </r>
       <r>    9.8644    1.0000 </r>
       <r>   12.8611    0.0000 </r>
       <r>   22.3651    0.0000 </r>
       <r>   24.3069    0.0000 </r>
       <r>   26.5010    0.0000 </r>
       <r>   30.7047    0.0000 </r>
      </set>
      <set comment="kpoint 110">
       <r>    1.5151    1.0000 </r>
       <r>    9.1276    1.0000 </r>
       <r>   10.0353    0.9999 </r>
       <r>   13.8305    0.0000 </r>
       <r>   22.9988    0.0000 </r>
       <r>   23.6067    0.0000 </r>
       <r>   25.0123    0.0000 </r>
       <r>   31.8939    0.0000 </r>
      </set>
      <set comment="kpoint 111">
       <r>    2.5181    1.0000 </r>
       <r>    9.8385    1.0000 </r>
       <r>   10.0954    0.9842 </r>
       <r>   11.1667    0.0000 </r>
       <r>   19.8609    0.0000 </r>
       <r>   21.0379    0.0000 </r>
       <r>   28.8103    0.0000 </r>
       <r>   33.7973    0.0000 </r>
      </set>
      <set comment="kpoint 112">
       <r>    3.9605    1.0000 </r>
       <r>    8.1816    1.0000 </r>
       <r>    9.0209    1.0000 </r>
       <r>   10.9223    0.0000 </r>
       <r>   20.5277    0.0000 </r>
       <r>   22.9174    0.0000 </r>
       <r>   28.0403    0.0000 </r>
       <r>   31.8280    0.0000 </r>
      </set>
      <set comment="kpoint 113">
       <r>    5.5597    1.0000 </r>
       <r>    6.3206    1.0000 </r>
       <r>    8.2832    1.0000 </r>
       <r>   11.2963    0.0000 </r>
       <r>   21.0025    0.0000 </r>
       <r>   25.2374    0.0000 </r>
       <r>   27.4351    0.0000 </r>
       <r>   29.5218    0.0000 </r>
      </set>
      <set comment="kpoint 114">
       <r>    4.4914    1.0000 </r>
       <r>    7.1845    1.0000 </r>
       <r>    8.1297    1.0000 </r>
       <r>   11.9542    0.0000 </r>
       <r>   21.6330    0.0000 </r>
       <r>   26.3965    0.0000 </r>
       <r>   26.5921    0.0000 </r>
       <r>   28.8343    0.0000 </r>
      </set>
      <set comment="kpoint 115">
       <r>    4.6364    1.0000 </r>
       <r>    7.2315    1.0000 </r>
       <r>    9.7732    1.0000 </r>
       <r>   10.7487    0.0000 </r>
       <r>   19.5461    0.0000 </r>
       <r>   20.7619    0.0000 </r>
       <r>   30.5932    0.0000 </r>
       <r>   32.4165    0.0000 </r>
      </set>
      <set comment="kpoint 116">
       <r>    5.8860    1.0000 </r>
       <r>    6.6769    1.0000 </r>
       <r>    8.1720    1.0000 </r>
       <r>   10.7344    0.0000 </r>
       <r>   20.3776    0.0000 </r>
       <r>   22.7946    0.0000 </r>
       <r>   29.6806    0.0000 </r>
       <r>   30.2127    0.0000 </r>
      </set>
      <set comment="kpoint 117">
       <r>    3.3460    1.0000 </r>
       <r>    8.4809    1.0000 </r>
       <r>    9.3182    1.0000 </r>
       <r>   10.9450    0.0000 </r>
       <r>   23.0083    0.0000 </r>
       <r>   23.4063    0.0000 </r>
       <r>   25.7166    0.0000 </r>
       <r>   31.3309    0.0000 </r>
      </set>
      <set comment="kpoint 118">
       <r>    4.9309    1.0000 </r>
       <r>    6.7975    1.0000 </r>
       <r>    9.2421    1.0000 </r>
       <r>   10.1934    0.2677 </r>
       <r>   23.3628    0.0000 </r>
       <r>   24.4565    0.0000 </r>
       <r>   26.1865    0.0000 </r>
       <r>   29.0836    0.0000 </r>
      </set>
      <set comment="kpoint 119">
       <r>    5.4471    1.0000 </r>
       <r>    7.9216    1.0000 </r>
       <r>    8.1573    1.0000 </r>
       <r>    9.3362    1.0000 </r>
       <r>   22.7045    0.0000 </r>
       <r>   23.3676    0.0000 </r>
       <r>   27.2732    0.0000 </r>
       <r>   29.4897    0.0000 </r>
      </set>
      <set comment="kpoint 120">
       <r>    6.5295    1.0000 </r>
       <r>    6.8601    1.0000 </r>
       <r>    7.7511    1.0000 </r>
       <r>    9.4103    1.0000 </r>
       <r>   23.4258    0.0000 </r>
       <r>   25.2698    0.0000 </r>
       <r>   26.1117    0.0000 </r>
       <r>   27.9068    0.0000 </r>
      </set>
     </set>
    </set>
   </array>
  </eigenvalues>
  <separator name="orbital magnetization" >
   <v name="MAGDIPOLOUT">      0.00000000      0.00000000      0.00000000</v>
  </separator>
  <dos>
   <i name="efermi">     10.17144677 </i>
   <total>
    <array>
     <dimension dim="1">gridpoints</dimension>
     <dimension dim="2">spin</dimension>
     <field>energy</field>
     <field>total</field>
     <field>integrated</field>
     <set>
      <set comment="spin 1">
       <r>    -6.3015     0.0000     0.0000 </r>
       <r>    -6.1530     0.0000     0.0000 </r>
       <r>    -6.0044     0.0000     0.0000 </r>
       <r>    -5.8559     0.0000     0.0000 </r>
       <r>    -5.7073     0.0000     0.0000 </r>
       <r>    -5.5588     0.0000     0.0000 </r>
       <r>    -5.4102     0.0000     0.0000 </r>
       <r>    -5.2617     0.0000     0.0000 </r>
       <r>    -5.1132     0.0000     0.0000 </r>
       <r>    -4.9646     0.0000     0.0000 </r>
       <r>    -4.8161     0.0000     0.0000 </r>
       <r>    -4.6675     0.0000     0.0000 </r>
       <r>    -4.5190     0.0000     0.0000 </r>
       <r>    -4.3704     0.0000     0.0000 </r>
       <r>    -4.2219     0.0042     0.0006 </r>
       <r>    -4.0734     0.0502     0.0081 </r>
       <r>    -3.9248     0.0324     0.0129 </r>
       <r>    -3.7763     0.1031     0.0282 </r>
       <r>    -3.6277     0.0482     0.0354 </r>
       <r>    -3.4792     0.0489     0.0426 </r>
       <r>    -3.3306     0.1633     0.0669 </r>
       <r>    -3.1821     0.0947     0.0810 </r>
       <r>    -3.0336     0.1275     0.0999 </r>
       <r>    -2.8850     0.0323     0.1047 </r>
       <r>    -2.7365     0.2199     0.1374 </r>
       <r>    -2.5879     0.1247     0.1559 </r>
       <r>    -2.4394     0.1186     0.1735 </r>
       <r>    -2.2908     0.1524     0.1961 </r>
       <r>    -2.1423     0.0405     0.2022 </r>
       <r>    -1.9938     0.2688     0.2421 </r>
       <r>    -1.8452     0.1557     0.2652 </r>
       <r>    -1.6967     0.3039     0.3104 </r>
       <r>    -1.5481     0.0356     0.3157 </r>
       <r>    -1.3996     0.0897     0.3290 </r>
       <r>    -1.2510     0.2197     0.3616 </r>
       <r>    -1.1025     0.1647     0.3861 </r>
       <r>    -0.9539     0.2896     0.4291 </r>
       <r>    -0.8054     0.0903     0.4425 </r>
       <r>    -0.6569     0.4246     0.5056 </r>
       <r>    -0.5083     0.1133     0.5224 </r>
       <r>    -0.3598     0.1828     0.5496 </r>
       <r>    -0.2112     0.0663     0.5594 </r>
       <r>    -0.0627     0.1734     0.5852 </r>
       <r>     0.0859     0.3189     0.6326 </r>
       <r>     0.2344     0.2893     0.6755 </r>
       <r>     0.3829     0.3965     0.7344 </r>
       <r>     0.5315     0.0150     0.7367 </r>
       <r>     0.6800     0.3442     0.7878 </r>
       <r>     0.8286     0.1981     0.8172 </r>
       <r>     0.9771     0.2464     0.8538 </r>
       <r>     1.1257     0.0757     0.8651 </r>
       <r>     1.2742     0.1446     0.8865 </r>
       <r>     1.4227     0.5695     0.9711 </r>
       <r>     1.5713     0.1948     1.0001 </r>
       <r>     1.7198     0.4482     1.0666 </r>
       <r>     1.8684     0.1243     1.0851 </r>
       <r>     2.0169     0.2690     1.1251 </r>
       <r>     2.1655     0.1846     1.1525 </r>
       <r>     2.3140     0.4558     1.2202 </r>
       <r>     2.4625     0.1090     1.2364 </r>
       <r>     2.6111     0.2017     1.2664 </r>
       <r>     2.7596     0.3650     1.3206 </r>
       <r>     2.9082     0.2732     1.3612 </r>
       <r>     3.0567     0.4924     1.4343 </r>
       <r>     3.2053     0.1096     1.4506 </r>
       <r>     3.3538     0.6012     1.5399 </r>
       <r>     3.5024     0.2270     1.5736 </r>
       <r>     3.6509     0.1869     1.6014 </r>
       <r>     3.7994     0.0795     1.6132 </r>
       <r>     3.9480     0.2951     1.6570 </r>
       <r>     4.0965     0.2457     1.6935 </r>
       <r>     4.2451     0.4679     1.7630 </r>
       <r>     4.3936     0.5735     1.8482 </r>
       <r>     4.5422     0.1113     1.8647 </r>
       <r>     4.6907     0.3138     1.9113 </r>
       <r>     4.8392     0.4191     1.9736 </r>
       <r>     4.9878     0.4532     2.0409 </r>
       <r>     5.1363     0.1836     2.0682 </r>
       <r>     5.2849     0.3677     2.1228 </r>
       <r>     5.4334     0.4880     2.1953 </r>
       <r>     5.5820     0.2811     2.2370 </r>
       <r>     5.7305     0.1393     2.2577 </r>
       <r>     5.8790     0.1443     2.2792 </r>
       <r>     6.0276     0.4644     2.3481 </r>
       <r>     6.1761     0.4625     2.4168 </r>
       <r>     6.3247     0.5416     2.4973 </r>
       <r>     6.4732     0.2640     2.5365 </r>
       <r>     6.6218     0.1985     2.5660 </r>
       <r>     6.7703     0.4936     2.6393 </r>
       <r>     6.9188     0.4973     2.7132 </r>
       <r>     7.0674     0.3129     2.7596 </r>
       <r>     7.2159     0.2261     2.7932 </r>
       <r>     7.3645     0.7241     2.9008 </r>
       <r>     7.5130     0.1356     2.9209 </r>
       <r>     7.6616     0.1437     2.9423 </r>
       <r>     7.8101     0.1485     2.9643 </r>
       <r>     7.9587     0.4208     3.0268 </r>
       <r>     8.1072     0.5082     3.1023 </r>
       <r>     8.2557     0.8831     3.2335 </r>
       <r>     8.4043     0.4922     3.3066 </r>
       <r>     8.5528     0.1798     3.3333 </r>
       <r>     8.7014     0.2357     3.3683 </r>
       <r>     8.8499     0.5898     3.4559 </r>
       <r>     8.9985     0.2301     3.4901 </r>
       <r>     9.1470     0.2114     3.5215 </r>
       <r>     9.2955     0.5349     3.6010 </r>
       <r>     9.4441     0.4840     3.6729 </r>
       <r>     9.5926     0.5042     3.7477 </r>
       <r>     9.7412     0.0977     3.7623 </r>
       <r>     9.8897     0.5973     3.8510 </r>
       <r>    10.0383     0.3899     3.9089 </r>
       <r>    10.1868     0.6836     4.0104 </r>
       <r>    10.3353     0.4415     4.0760 </r>
       <r>    10.4839     0.2806     4.1177 </r>
       <r>    10.6324     0.0998     4.1325 </r>
       <r>    10.7810     0.7278     4.2406 </r>
       <r>    10.9295     0.6342     4.3348 </r>
       <r>    11.0781     0.3168     4.3819 </r>
       <r>    11.2266     0.5236     4.4597 </r>
       <r>    11.3751     0.5623     4.5432 </r>
       <r>    11.5237     0.2945     4.5869 </r>
       <r>    11.6722     0.1514     4.6094 </r>
       <r>    11.8208     0.5562     4.6920 </r>
       <r>    11.9693     0.2793     4.7335 </r>
       <r>    12.1179     0.8295     4.8567 </r>
       <r>    12.2664     0.5629     4.9404 </r>
       <r>    12.4150     0.5814     5.0267 </r>
       <r>    12.5635     0.4868     5.0990 </r>
       <r>    12.7120     0.2987     5.1434 </r>
       <r>    12.8606     0.4825     5.2151 </r>
       <r>    13.0091     0.4500     5.2819 </r>
       <r>    13.1577     0.7704     5.3963 </r>
       <r>    13.3062     0.6214     5.4886 </r>
       <r>    13.4548     0.3622     5.5425 </r>
       <r>    13.6033     0.4634     5.6113 </r>
       <r>    13.7518     0.5228     5.6889 </r>
       <r>    13.9004     0.6279     5.7822 </r>
       <r>    14.0489     0.6286     5.8756 </r>
       <r>    14.1975     0.3714     5.9308 </r>
       <r>    14.3460     0.5950     6.0191 </r>
       <r>    14.4946     0.4607     6.0876 </r>
       <r>    14.6431     0.8153     6.2087 </r>
       <r>    14.7916     0.4301     6.2726 </r>
       <r>    14.9402     0.3847     6.3297 </r>
       <r>    15.0887     0.5838     6.4164 </r>
       <r>    15.2373     0.1125     6.4331 </r>
       <r>    15.3858     0.3337     6.4827 </r>
       <r>    15.5344     0.6645     6.5814 </r>
       <r>    15.6829     0.5125     6.6575 </r>
       <r>    15.8314     0.8412     6.7825 </r>
       <r>    15.9800     0.3835     6.8395 </r>
       <r>    16.1285     0.5219     6.9170 </r>
       <r>    16.2771     0.2396     6.9526 </r>
       <r>    16.4256     0.5393     7.0327 </r>
       <r>    16.5742     0.3474     7.0843 </r>
       <r>    16.7227     0.3766     7.1402 </r>
       <r>    16.8713     0.4973     7.2141 </r>
       <r>    17.0198     0.6680     7.3133 </r>
       <r>    17.1683     0.5104     7.3891 </r>
       <r>    17.3169     0.3231     7.4371 </r>
       <r>    17.4654     0.4015     7.4968 </r>
       <r>    17.6140     0.7087     7.6021 </r>
       <r>    17.7625     0.4496     7.6688 </r>
       <r>    17.9111     0.3272     7.7175 </r>
       <r>    18.0596     0.4572     7.7854 </r>
       <r>    18.2081     0.9688     7.9293 </r>
       <r>    18.3567     0.7194     8.0361 </r>
       <r>    18.5052     0.3634     8.0901 </r>
       <r>    18.6538     0.3275     8.1388 </r>
       <r>    18.8023     0.6708     8.2384 </r>
       <r>    18.9509     0.4211     8.3010 </r>
       <r>    19.0994     0.4159     8.3627 </r>
       <r>    19.2479     0.7284     8.4709 </r>
       <r>    19.3965     0.8229     8.5932 </r>
       <r>    19.5450     0.1580     8.6166 </r>
       <r>    19.6936     0.3359     8.6665 </r>
       <r>    19.8421     0.3044     8.7117 </r>
       <r>    19.9907     0.7330     8.8206 </r>
       <r>    20.1392     0.7428     8.9310 </r>
       <r>    20.2877     0.7771     9.0464 </r>
       <r>    20.4363     0.6333     9.1405 </r>
       <r>    20.5848     0.5375     9.2203 </r>
       <r>    20.7334     0.5021     9.2949 </r>
       <r>    20.8819     0.2685     9.3348 </r>
       <r>    21.0305     1.0718     9.4940 </r>
       <r>    21.1790     0.6694     9.5934 </r>
       <r>    21.3276     0.5603     9.6767 </r>
       <r>    21.4761     0.6582     9.7744 </r>
       <r>    21.6246     0.2836     9.8166 </r>
       <r>    21.7732     0.8878     9.9485 </r>
       <r>    21.9217     0.6251    10.0413 </r>
       <r>    22.0703     0.2806    10.0830 </r>
       <r>    22.2188     0.3409    10.1336 </r>
       <r>    22.3674     0.5376    10.2135 </r>
       <r>    22.5159     0.6546    10.3107 </r>
       <r>    22.6644     0.5894    10.3983 </r>
       <r>    22.8130     0.3917    10.4565 </r>
       <r>    22.9615     0.4651    10.5255 </r>
       <r>    23.1101     0.8840    10.6569 </r>
       <r>    23.2586     0.7422    10.7671 </r>
       <r>    23.4072     1.0651    10.9253 </r>
       <r>    23.5557     0.7279    11.0334 </r>
       <r>    23.7042     0.8841    11.1648 </r>
       <r>    23.8528     0.2342    11.1995 </r>
       <r>    24.0013     0.4776    11.2705 </r>
       <r>    24.1499     0.6053    11.3604 </r>
       <r>    24.2984     0.3279    11.4091 </r>
       <r>    24.4470     0.9498    11.5502 </r>
       <r>    24.5955     0.5924    11.6382 </r>
       <r>    24.7440     0.4380    11.7033 </r>
       <r>    24.8926     0.4970    11.7771 </r>
       <r>    25.0411     0.3163    11.8241 </r>
       <r>    25.1897     1.1504    11.9950 </r>
       <r>    25.3382     1.2527    12.1810 </r>
       <r>    25.4868     0.4961    12.2547 </r>
       <r>    25.6353     0.4306    12.3187 </r>
       <r>    25.7839     0.7248    12.4264 </r>
       <r>    25.9324     0.7849    12.5430 </r>
       <r>    26.0809     0.5110    12.6189 </r>
       <r>    26.2295     0.6261    12.7119 </r>
       <r>    26.3780     0.6870    12.8139 </r>
       <r>    26.5266     0.8370    12.9382 </r>
       <r>    26.6751     0.5557    13.0208 </r>
       <r>    26.8237     0.1001    13.0357 </r>
       <r>    26.9722     0.5588    13.1187 </r>
       <r>    27.1207     0.5047    13.1936 </r>
       <r>    27.2693     0.8994    13.3272 </r>
       <r>    27.4178     0.7685    13.4414 </r>
       <r>    27.5664     0.8264    13.5641 </r>
       <r>    27.7149     0.6942    13.6672 </r>
       <r>    27.8635     0.1960    13.6964 </r>
       <r>    28.0120     0.5724    13.7814 </r>
       <r>    28.1605     1.0042    13.9306 </r>
       <r>    28.3091     0.5087    14.0061 </r>
       <r>    28.4576     0.3340    14.0557 </r>
       <r>    28.6062     0.0841    14.0682 </r>
       <r>    28.7547     0.3186    14.1156 </r>
       <r>    28.9033     0.9050    14.2500 </r>
       <r>    29.0518     0.4450    14.3161 </r>
       <r>    29.2003     0.4695    14.3858 </r>
       <r>    29.3489     0.3681    14.4405 </r>
       <r>    29.4974     0.4210    14.5030 </r>
       <r>    29.6460     1.0733    14.6625 </r>
       <r>    29.7945     0.7010    14.7666 </r>
       <r>    29.9431     0.6252    14.8595 </r>
       <r>    30.0916     0.4008    14.9190 </r>
       <r>    30.2402     0.4332    14.9834 </r>
       <r>    30.3887     0.1723    15.0090 </r>
       <r>    30.5372     0.4138    15.0704 </r>
       <r>    30.6858     0.5666    15.1546 </r>
       <r>    30.8343     0.3816    15.2113 </r>
       <r>    30.9829     0.2492    15.2483 </r>
       <r>    31.1314     0.3741    15.3039 </r>
       <r>    31.2800     0.5758    15.3894 </r>
       <r>    31.4285     0.3582    15.4426 </r>
       <r>    31.5770     0.1619    15.4667 </r>
       <r>    31.7256     0.0018    15.4669 </r>
       <r>    31.8741     0.4096    15.5278 </r>
       <r>    32.0227     0.3037    15.5729 </r>
       <r>    32.1712     0.0957    15.5871 </r>
       <r>    32.3198     0.1400    15.6079 </r>
       <r>    32.4683     0.1438    15.6293 </r>
       <r>    32.6168     0.1757    15.6554 </r>
       <r>    32.7654     0.3700    15.7103 </r>
       <r>    32.9139     0.2306    15.7446 </r>
       <r>    33.0625     0.0610    15.7536 </r>
       <r>    33.2110     0.1254    15.7723 </r>
       <r>    33.3596     0.2781    15.8136 </r>
       <r>    33.5081     0.1171    15.8310 </r>
       <r>    33.6566     0.1806    15.8578 </r>
       <r>    33.8052     0.1606    15.8816 </r>
       <r>    33.9537     0.0548    15.8898 </r>
       <r>    34.1023     0.0019    15.8901 </r>
       <r>    34.2508     0.1839    15.9174 </r>
       <r>    34.3994     0.0486    15.9246 </r>
       <r>    34.5479     0.0050    15.9253 </r>
       <r>    34.6965     0.0765    15.9367 </r>
       <r>    34.8450     0.0432    15.9431 </r>
       <r>    34.9935     0.1112    15.9596 </r>
       <r>    35.1421     0.1042    15.9751 </r>
       <r>    35.2906     0.0422    15.9814 </r>
       <r>    35.4392     0.0535    15.9893 </r>
       <r>    35.5877     0.0000    15.9893 </r>
       <r>    35.7363     0.0000    15.9893 </r>
       <r>    35.8848     0.0018    15.9896 </r>
       <r>    36.0333     0.0457    15.9964 </r>
       <r>    36.1819     0.0019    15.9967 </r>
       <r>    36.3304     0.0223    16.0000 </r>
       <r>    36.4790     0.0001    16.0000 </r>
       <r>    36.6275     0.0000    16.0000 </r>
       <r>    36.7761     0.0000    16.0000 </r>
       <r>    36.9246     0.0000    16.0000 </r>
       <r>    37.0731     0.0000    16.0000 </r>
       <r>    37.2217     0.0000    16.0000 </r>
       <r>    37.3702     0.0000    16.0000 </r>
       <r>    37.5188     0.0000    16.0000 </r>
       <r>    37.6673     0.0000    16.0000 </r>
       <r>    37.8159     0.0000    16.0000 </r>
       <r>    37.9644     0.0000    16.0000 </r>
       <r>    38.1130     0.0000    16.0000 </r>
       <r>    38.2615     0.0000    16.0000 </r>
      </set>
     </set>
    </array>
   </total>
  </dos>
 </calculation>
 <structure name="finalpos" >
  <crystal>
   <varray name="basis" >
    <v>       2.36725058      -0.00000000       1.36673160 </v>
    <v>       0.78908352       2.23186501       1.36673160 </v>
    <v>      -0.00000001      -0.00000001       2.73346524 </v>
   </varray>
   <i name="volume">     14.44194585 </i>
   <varray name="rec_basis" >
    <v>       0.42243099      -0.14935192       0.00000000 </v>
    <v>       0.00000000       0.44805577       0.00000000 </v>
    <v>      -0.21121534      -0.14935181       0.36583600 </v>
   </varray>
  </crystal>
  <varray name="positions" >
   <v>      -0.00000000      -0.00000000       0.00000000 </v>
  </varray>
 </structure>
</modeling>
