unknown system                          
           1
     2.347395    0.000000    1.355268
     0.782465    2.213145    1.355268
     0.000000    0.000000    2.710538
   Si
     1
Direct configuration=     1
   0.00000000  0.00000000  0.00000000
unknown system                          
           1
     2.369123   -0.000000    1.367812
     0.789708    2.233630    1.367812
    -0.000000   -0.000000    2.735627
   Si
     1
Direct configuration=     2
   0.00000000  0.00000000  0.00000000
unknown system                          
           1
     2.367251   -0.000000    1.366732
     0.789084    2.231865    1.366732
    -0.000000   -0.000000    2.733465
   Si
     1
Direct configuration=     3
  -0.00000000 -0.00000000  0.00000000
