   1   1   0   0
  0.1345125E+02  0.2594945E-09  0.2594945E-09  0.2594945E-09  0.5000000E-15
  1.000000000000000E-004
  CAR 
 unknown system                          
     38.45274713     -5.99304621  301     11.02870951      1.00000000
     -5.993  0.0000E+00  0.0000E+00
     -5.845  0.0000E+00  0.0000E+00
     -5.697  0.0000E+00  0.0000E+00
     -5.549  0.0000E+00  0.0000E+00
     -5.400  0.0000E+00  0.0000E+00
     -5.252  0.0000E+00  0.0000E+00
     -5.104  0.0000E+00  0.0000E+00
     -4.956  0.0000E+00  0.0000E+00
     -4.808  0.0000E+00  0.0000E+00
     -4.660  0.0000E+00  0.0000E+00
     -4.512  0.0000E+00  0.0000E+00
     -4.363  0.0000E+00  0.0000E+00
     -4.215  0.3566E-15  0.5283E-16
     -4.067  0.3886E-06  0.5757E-07
     -3.919  0.9457E-04  0.1407E-04
     -3.771  0.4466E-04  0.2068E-04
     -3.623  0.1167E-02  0.1936E-03
     -3.474  0.1019E-03  0.2087E-03
     -3.326  0.5182E-03  0.2854E-03
     -3.178  0.1005E-02  0.4343E-03
     -3.030  0.1430E-02  0.6461E-03
     -2.882  0.8889E-03  0.7778E-03
     -2.734  0.3357E-03  0.8276E-03
     -2.586  0.2250E-02  0.1161E-02
     -2.437  0.2009E-03  0.1191E-02
     -2.289  0.7784E-03  0.1306E-02
     -2.141  0.7659E-03  0.1420E-02
     -1.993  0.4107E-02  0.2028E-02
     -1.845  0.2735E-03  0.2069E-02
     -1.697  0.3397E-03  0.2119E-02
     -1.548  0.2815E-02  0.2536E-02
     -1.400  0.8481E-03  0.2662E-02
     -1.252  0.2297E-02  0.3002E-02
     -1.104  0.2437E-03  0.3038E-02
     -0.956  0.2301E-02  0.3379E-02
     -0.808  0.5725E-03  0.3464E-02
     -0.660  0.1875E-02  0.3741E-02
     -0.511  0.4180E-02  0.4361E-02
     -0.363  0.3123E-02  0.4823E-02
     -0.215  0.4479E-07  0.4823E-02
     -0.067  0.7987E-04  0.4835E-02
      0.081  0.4692E-02  0.5530E-02
      0.229  0.2409E-03  0.5566E-02
      0.378  0.1071E-02  0.5725E-02
      0.526  0.1995E-02  0.6020E-02
      0.674  0.2875E-02  0.6446E-02
      0.822  0.2344E-02  0.6794E-02
      0.970  0.7480E-03  0.6904E-02
      1.118  0.6943E-02  0.7933E-02
      1.266  0.4837E-03  0.8005E-02
      1.415  0.2252E-02  0.8338E-02
      1.563  0.1541E-02  0.8567E-02
      1.711  0.3335E-02  0.9061E-02
      1.859  0.1714E-02  0.9315E-02
      2.007  0.7406E-03  0.9425E-02
      2.155  0.4556E-02  0.1010E-01
      2.304  0.3307E-03  0.1015E-01
      2.452  0.7676E-03  0.1026E-01
      2.600  0.2388E-02  0.1062E-01
      2.748  0.6135E-02  0.1153E-01
      2.896  0.1664E-02  0.1177E-01
      3.044  0.8109E-03  0.1189E-01
      3.192  0.9094E-02  0.1324E-01
      3.341  0.8594E-03  0.1337E-01
      3.489  0.4588E-02  0.1405E-01
      3.637  0.8046E-03  0.1417E-01
      3.785  0.1654E-02  0.1441E-01
      3.933  0.2390E-06  0.1441E-01
      4.081  0.1677E-03  0.1444E-01
      4.229  0.8706E-02  0.1572E-01
      4.378  0.9358E-03  0.1586E-01
      4.526  0.5355E-03  0.1594E-01
      4.674  0.3951E-02  0.1653E-01
      4.822  0.5787E-02  0.1739E-01
      4.970  0.3920E-02  0.1797E-01
      5.118  0.1029E-02  0.1812E-01
      5.267  0.4537E-02  0.1879E-01
      5.415  0.8673E-03  0.1892E-01
      5.563  0.3031E-02  0.1937E-01
      5.711  0.6670E-02  0.2036E-01
      5.859  0.5505E-02  0.2117E-01
      6.007  0.2104E-02  0.2148E-01
      6.155  0.4820E-03  0.2156E-01
      6.304  0.4666E-02  0.2225E-01
      6.452  0.8854E-03  0.2238E-01
      6.600  0.1606E-02  0.2262E-01
      6.748  0.4145E-02  0.2323E-01
      6.896  0.7757E-03  0.2335E-01
      7.044  0.4684E-02  0.2404E-01
      7.193  0.2722E-02  0.2444E-01
      7.341  0.9554E-02  0.2586E-01
      7.489  0.9746E-03  0.2600E-01
      7.637  0.1551E-02  0.2623E-01
      7.785  0.1093E-01  0.2785E-01
      7.933  0.1165E-02  0.2802E-01
      8.081  0.8721E-06  0.2802E-01
      8.230  0.4554E-02  0.2870E-01
      8.378  0.5182E-02  0.2947E-01
      8.526  0.1953E-02  0.2976E-01
      8.674  0.1203E-02  0.2993E-01
      8.822  0.1019E-01  0.3144E-01
      8.970  0.1244E-02  0.3163E-01
      9.119  0.3240E-02  0.3211E-01
      9.267  0.2589E-02  0.3249E-01
      9.415  0.3212E-02  0.3297E-01
      9.563  0.4807E-02  0.3368E-01
      9.711  0.3267E-02  0.3416E-01
      9.859  0.5505E-02  0.3498E-01
     10.007  0.1446E-02  0.3519E-01
     10.156  0.5203E-02  0.3596E-01
     10.304  0.9070E-02  0.3731E-01
     10.452  0.8300E-03  0.3743E-01
     10.600  0.1905E-03  0.3746E-01
     10.748  0.5788E-02  0.3832E-01
     10.896  0.7252E-02  0.3939E-01
     11.045  0.4800E-02  0.4010E-01
     11.193  0.6647E-02  0.4109E-01
     11.341  0.5982E-02  0.4197E-01
     11.489  0.2204E-02  0.4230E-01
     11.637  0.1237E-02  0.4248E-01
     11.785  0.8944E-02  0.4381E-01
     11.933  0.7713E-03  0.4392E-01
     12.082  0.4525E-02  0.4459E-01
     12.230  0.6680E-02  0.4558E-01
     12.378  0.9769E-03  0.4573E-01
     12.526  0.1860E-02  0.4600E-01
     12.674  0.2756E-02  0.4641E-01
     12.822  0.3102E-02  0.4687E-01
     12.970  0.2529E-02  0.4724E-01
     13.119  0.6205E-02  0.4816E-01
     13.267  0.7748E-02  0.4931E-01
     13.415  0.2746E-02  0.4972E-01
     13.563  0.5775E-02  0.5057E-01
     13.711  0.3096E-02  0.5103E-01
     13.859  0.9165E-02  0.5239E-01
     14.008  0.2683E-02  0.5279E-01
     14.156  0.2270E-02  0.5312E-01
     14.304  0.2172E-02  0.5345E-01
     14.452  0.3443E-02  0.5396E-01
     14.600  0.4412E-02  0.5461E-01
     14.748  0.4227E-02  0.5524E-01
     14.896  0.5254E-02  0.5601E-01
     15.045  0.8505E-02  0.5727E-01
     15.193  0.3440E-02  0.5778E-01
     15.341  0.7141E-02  0.5884E-01
     15.489  0.6193E-02  0.5976E-01
     15.637  0.8090E-03  0.5988E-01
     15.785  0.2198E-02  0.6021E-01
     15.934  0.7243E-02  0.6128E-01
     16.082  0.3982E-02  0.6187E-01
     16.230  0.2036E-02  0.6217E-01
     16.378  0.5596E-02  0.6300E-01
     16.526  0.1964E-02  0.6329E-01
     16.674  0.5486E-02  0.6410E-01
     16.822  0.6635E-02  0.6509E-01
     16.971  0.3319E-02  0.6558E-01
     17.119  0.1093E-01  0.6720E-01
     17.267  0.4154E-02  0.6781E-01
     17.415  0.4107E-02  0.6842E-01
     17.563  0.7019E-02  0.6946E-01
     17.711  0.3647E-02  0.7000E-01
     17.860  0.5393E-02  0.7080E-01
     18.008  0.3841E-02  0.7137E-01
     18.156  0.3774E-02  0.7193E-01
     18.304  0.3855E-02  0.7250E-01
     18.452  0.7465E-02  0.7361E-01
     18.600  0.7652E-02  0.7474E-01
     18.748  0.7445E-02  0.7584E-01
     18.897  0.7555E-02  0.7696E-01
     19.045  0.4749E-02  0.7767E-01
     19.193  0.1068E-02  0.7782E-01
     19.341  0.1335E-02  0.7802E-01
     19.489  0.3739E-02  0.7858E-01
     19.637  0.1192E-01  0.8034E-01
     19.786  0.9546E-02  0.8176E-01
     19.934  0.8091E-02  0.8295E-01
     20.082  0.8515E-03  0.8308E-01
     20.230  0.2648E-02  0.8347E-01
     20.378  0.2219E-02  0.8380E-01
     20.526  0.4001E-03  0.8386E-01
     20.674  0.1227E-02  0.8404E-01
     20.823  0.4362E-02  0.8469E-01
     20.971  0.1847E-02  0.8496E-01
     21.119  0.6139E-02  0.8587E-01
     21.267  0.4342E-02  0.8652E-01
     21.415  0.7934E-02  0.8769E-01
     21.563  0.1291E-01  0.8960E-01
     21.711  0.1547E-01  0.9190E-01
     21.860  0.1356E-02  0.9210E-01
     22.008  0.3037E-02  0.9255E-01
     22.156  0.5507E-02  0.9336E-01
     22.304  0.1533E-02  0.9359E-01
     22.452  0.4752E-02  0.9429E-01
     22.600  0.2548E-02  0.9467E-01
     22.749  0.4046E-02  0.9527E-01
     22.897  0.6003E-02  0.9616E-01
     23.045  0.7715E-02  0.9730E-01
     23.193  0.1137E-01  0.9899E-01
     23.341  0.3492E-02  0.9950E-01
     23.489  0.4796E-02  0.1002E+00
     23.637  0.6292E-02  0.1011E+00
     23.786  0.8966E-02  0.1025E+00
     23.934  0.8287E-02  0.1037E+00
     24.082  0.4934E-02  0.1044E+00
     24.230  0.3915E-02  0.1050E+00
     24.378  0.8667E-02  0.1063E+00
     24.526  0.4206E-02  0.1069E+00
     24.675  0.3397E-02  0.1074E+00
     24.823  0.5771E-02  0.1083E+00
     24.971  0.8508E-02  0.1095E+00
     25.119  0.5966E-02  0.1104E+00
     25.267  0.9145E-02  0.1118E+00
     25.415  0.3842E-02  0.1123E+00
     25.563  0.8654E-02  0.1136E+00
     25.712  0.8263E-02  0.1149E+00
     25.860  0.2775E-02  0.1153E+00
     26.008  0.2140E-03  0.1153E+00
     26.156  0.6898E-02  0.1163E+00
     26.304  0.5738E-02  0.1172E+00
     26.452  0.3236E-02  0.1176E+00
     26.601  0.8229E-02  0.1189E+00
     26.749  0.1550E-02  0.1191E+00
     26.897  0.6839E-02  0.1201E+00
     27.045  0.1615E-01  0.1225E+00
     27.193  0.8631E-03  0.1226E+00
     27.341  0.4447E-02  0.1233E+00
     27.489  0.7388E-03  0.1234E+00
     27.638  0.1895E-02  0.1237E+00
     27.786  0.6172E-02  0.1246E+00
     27.934  0.1250E-01  0.1264E+00
     28.082  0.8132E-02  0.1277E+00
     28.230  0.1725E-02  0.1279E+00
     28.378  0.7815E-02  0.1291E+00
     28.527  0.7929E-02  0.1302E+00
     28.675  0.3865E-02  0.1308E+00
     28.823  0.5634E-02  0.1316E+00
     28.971  0.1033E-01  0.1332E+00
     29.119  0.7133E-02  0.1342E+00
     29.267  0.7554E-02  0.1354E+00
     29.415  0.5279E-02  0.1361E+00
     29.564  0.6113E-02  0.1370E+00
     29.712  0.6853E-02  0.1381E+00
     29.860  0.5834E-02  0.1389E+00
     30.008  0.2922E-02  0.1394E+00
     30.156  0.1640E-04  0.1394E+00
     30.304  0.5033E-02  0.1401E+00
     30.453  0.4075E-02  0.1407E+00
     30.601  0.4975E-02  0.1414E+00
     30.749  0.7289E-02  0.1425E+00
     30.897  0.2709E-02  0.1429E+00
     31.045  0.6240E-02  0.1438E+00
     31.193  0.1766E-01  0.1465E+00
     31.341  0.1204E-01  0.1482E+00
     31.490  0.3337E-02  0.1487E+00
     31.638  0.5119E-02  0.1495E+00
     31.786  0.1918E-02  0.1498E+00
     31.934  0.1220E-01  0.1516E+00
     32.082  0.4618E-02  0.1523E+00
     32.230  0.6267E-02  0.1532E+00
     32.378  0.2104E-02  0.1535E+00
     32.527  0.3244E-02  0.1540E+00
     32.675  0.6009E-02  0.1549E+00
     32.823  0.8360E-02  0.1561E+00
     32.971  0.4423E-02  0.1568E+00
     33.119  0.2373E-02  0.1571E+00
     33.267  0.2267E-02  0.1575E+00
     33.416  0.1484E-02  0.1577E+00
     33.564  0.4276E-02  0.1583E+00
     33.712  0.3682E-03  0.1584E+00
     33.860  0.2061E-09  0.1584E+00
     34.008  0.6743E-04  0.1584E+00
     34.156  0.4970E-02  0.1591E+00
     34.304  0.2261E-02  0.1595E+00
     34.453  0.3669E-03  0.1595E+00
     34.601  0.4477E-03  0.1596E+00
     34.749  0.1989E-07  0.1596E+00
     34.897  0.6475E-10  0.1596E+00
     35.045  0.1190E-03  0.1596E+00
     35.193  0.6917E-03  0.1597E+00
     35.342  0.6862E-06  0.1597E+00
     35.490  0.0000E+00  0.1597E+00
     35.638  0.0000E+00  0.1597E+00
     35.786  0.2740E-08  0.1597E+00
     35.934  0.2444E-03  0.1597E+00
     36.082  0.3642E-03  0.1598E+00
     36.230  0.2824E-03  0.1598E+00
     36.379  0.3779E-03  0.1599E+00
     36.527  0.7565E-03  0.1600E+00
     36.675  0.3108E-05  0.1600E+00
     36.823  0.2853E-14  0.1600E+00
     36.971  0.0000E+00  0.1600E+00
     37.119  0.0000E+00  0.1600E+00
     37.268  0.0000E+00  0.1600E+00
     37.416  0.0000E+00  0.1600E+00
     37.564  0.0000E+00  0.1600E+00
     37.712  0.0000E+00  0.1600E+00
     37.860  0.0000E+00  0.1600E+00
     38.008  0.0000E+00  0.1600E+00
     38.156  0.0000E+00  0.1600E+00
     38.305  0.0000E+00  0.1600E+00
     38.453  0.0000E+00  0.1600E+00
