    1    1  100    1
  0.1345125E+02  0.2594945E-09  0.2594945E-09  0.2594945E-09  0.5000000E-15
  1.000000000000000E-004
  CAR 
 unknown system                          
      4     56      8
 
  0.0000000E+00  0.0000000E+00  0.0000000E+00  0.7513148E-03
    1       -3.972783   1.000000
    2       23.555670   0.000000
    3       23.555671   0.000000
    4       23.555671   0.000000
    5       23.973406   0.000000
    6       23.973407   0.000000
    7       23.973407   0.000000
    8       27.844574   0.000000
 
  0.9090909E-01  0.0000000E+00  0.0000000E+00  0.9015778E-02
    1       -3.704964   1.000000
    2       20.541965   0.000000
    3       21.520123   0.000000
    4       23.107974   0.000000
    5       23.141707   0.000000
    6       25.229898   0.000000
    7       26.455342   0.000000
    8       26.635942   0.000000
 
  0.1818182E+00  0.0000000E+00  0.0000000E+00  0.9015778E-02
    1       -2.903559   1.000000
    2       16.491376   0.000000
    3       19.738902   0.000000
    4       21.613955   0.000000
    5       22.067204   0.000000
    6       24.088528   0.000000
    7       27.588830   0.000000
    8       27.931980   0.000000
 
  0.2727273E+00  0.0000000E+00  0.0000000E+00  0.9015778E-02
    1       -1.574790   1.000000
    2       12.461054   0.000000
    3       18.407276   0.000000
    4       20.241210   0.000000
    5       20.991503   0.000000
    6       22.864996   0.000000
    7       28.841465   0.000000
    8       29.157172   0.000000
 
  0.3636364E+00  0.0000000E+00  0.0000000E+00  0.9015778E-02
    1        0.271200   1.000000
    2        8.750535   1.000000
    3       17.522257   0.000000
    4       19.269324   0.000000
    5       20.188880   0.000000
    6       21.995359   0.000000
    7       30.235360   0.000000
    8       30.975412   0.000000
 
  0.4545455E+00  0.0000000E+00  0.0000000E+00  0.9015778E-02
    1        2.620276   1.000000
    2        5.455884   1.000000
    3       17.080603   0.000000
    4       18.773784   0.000000
    5       19.769964   0.000000
    6       21.541629   0.000000
    7       31.816512   0.000000
    8       32.703344   0.000000
 
  0.9090909E-01  0.9090909E-01  0.0000000E+00  0.1803156E-01
    1       -3.170343   1.000000
    2       18.493947   0.000000
    3       18.840841   0.000000
    4       21.070581   0.000000
    5       23.879016   0.000000
    6       25.185828   0.000000
    7       26.438832   0.000000
    8       27.673453   0.000000
 
  0.1818182E+00  0.9090909E-01 -0.6938894E-17  0.3606311E-01
    1       -2.105272   1.000000
    2       14.616682   0.000000
    3       17.075923   0.000000
    4       19.626086   0.000000
    5       23.128216   0.000000
    6       24.689146   0.000000
    7       27.003585   0.000000
    8       29.574858   0.000000
 
  0.2727273E+00  0.9090909E-01  0.0000000E+00  0.3606311E-01
    1       -0.517849   1.000000
    2       10.742231   1.000000
    3       15.906946   0.000000
    4       18.517750   0.000000
    5       22.131267   0.000000
    6       24.219904   0.000000
    7       27.933824   0.000000
    8       31.540672   0.000000
 
  0.3636364E+00  0.9090909E-01  0.2775558E-16  0.3606311E-01
    1        1.579784   1.000000
    2        7.237339   1.000000
    3       15.199658   0.000000
    4       17.832826   0.000000
    5       21.469500   0.000000
    6       23.769494   0.000000
    7       29.540426   0.000000
    8       32.710986   0.000000
 
  0.4545455E+00  0.9090909E-01  0.0000000E+00  0.1803156E-01
    1        4.137438   1.000000
    2        4.206649   1.000000
    3       14.962897   0.000000
    4       17.601971   0.000000
    5       21.242461   0.000000
    6       23.597286   0.000000
    7       31.227017   0.000000
    8       31.797428   0.000000
 
  0.1818182E+00  0.1818182E+00  0.1387779E-16  0.1803156E-01
    1       -0.781539   1.000000
    2       13.136503   0.000000
    3       13.213600   0.000000
    4       18.352605   0.000000
    5       23.887575   0.000000
    6       24.533890   0.000000
    7       28.865788   0.000000
    8       29.857160   0.000000
 
  0.2727273E+00  0.1818182E+00  0.0000000E+00  0.3606311E-01
    1        1.057564   1.000000
    2        9.498643   1.000000
    3       12.199761   0.000000
    4       17.464180   0.000000
    5       23.404514   0.000000
    6       25.517442   0.000000
    7       28.970482   0.000000
    8       31.833976   0.000000
 
  0.3636364E+00  0.1818182E+00  0.0000000E+00  0.3606311E-01
    1        3.397883   1.000000
    2        6.221119   1.000000
    3       11.708686   0.000000
    4       17.008868   0.000000
    5       22.993440   0.000000
    6       26.508307   0.000000
    7       29.265198   0.000000
    8       31.321459   0.000000
 
  0.2727273E+00  0.2727273E+00 -0.2775558E-16  0.1803156E-01
    1        3.139415   1.000000
    2        8.741280   1.000000
    3        8.753217   1.000000
    4       16.802273   0.000000
    5       24.894594   0.000000
    6       25.475260   0.000000
    7       29.638913   0.000000
    8       32.218907   0.000000
 
  0.3636364E+00  0.2727273E+00  0.0000000E+00  0.1803156E-01
    1        5.700545   1.000000
    2        5.721215   1.000000
    3        8.495842   1.000000
    4       16.576569   0.000000
    5       24.951056   0.000000
    6       26.973474   0.000000
    7       27.861040   0.000000
    8       33.089385   0.000000
 
  0.9090909E-01  0.9090909E-01  0.9090909E-01  0.6010518E-02
    1       -2.371031   1.000000
    2       16.641601   0.000000
    3       17.154205   0.000000
    4       17.154205   0.000000
    5       26.056620   0.000000
    6       26.056620   0.000000
    7       27.692397   0.000000
    8       27.692397   0.000000
 
  0.1818182E+00  0.9090909E-01  0.9090909E-01  0.1803156E-01
    1       -1.045595   1.000000
    2       12.953224   0.000000
    3       15.439287   0.000000
    4       15.751208   0.000000
    5       25.761641   0.000000
    6       26.234241   0.000000
    7       29.034465   0.000000
    8       29.181165   0.000000
 
  0.2727273E+00  0.9090909E-01  0.9090909E-01  0.1803156E-01
    1        0.795940   1.000000
    2        9.254653   1.000000
    3       14.502410   0.000000
    4       14.784545   0.000000
    5       25.258066   0.000000
    6       25.602697   0.000000
    7       30.631938   0.000000
    8       31.126315   0.000000
 
  0.3636364E+00  0.9090909E-01  0.9090909E-01  0.1803156E-01
    1        3.139657   1.000000
    2        5.968263   1.000000
    3       14.032338   0.000000
    4       14.294747   0.000000
    5       24.934103   0.000000
    6       25.235841   0.000000
    7       32.124046   0.000000
    8       32.937928   0.000000
 
 -0.9090909E-01  0.9090909E-01  0.9090909E-01  0.4507889E-02
    1       -3.437456   1.000000
    2       19.937909   0.000000
    3       19.937909   0.000000
    4       21.686695   0.000000
    5       23.926426   0.000000
    6       24.498501   0.000000
    7       26.278129   0.000000
    8       26.278130   0.000000
 
  0.1818182E+00  0.1818182E+00  0.9090909E-01  0.1803156E-01
    1        0.533982   1.000000
    2       11.713753   0.000000
    3       11.763049   0.000000
    4       14.428368   0.000000
    5       26.952944   0.000000
    6       27.719716   0.000000
    7       29.869689   0.000000
    8       30.654188   0.000000
 
  0.2727273E+00  0.1818182E+00  0.9090909E-01  0.3606311E-01
    1        2.621726   1.000000
    2        8.252687   1.000000
    3       11.000307   0.789113
    4       13.710787   0.000000
    5       26.971295   0.000000
    6       28.350315   0.000000
    7       30.947871   0.000000
    8       32.546797   0.000000
 
  0.3636364E+00  0.1818182E+00  0.9090909E-01  0.1803156E-01
    1        5.184027   1.000000
    2        5.219695   1.000000
    3       10.753428   1.000000
    4       13.469791   0.000000
    5       26.850287   0.000000
    6       28.573707   0.000000
    7       31.850609   0.000000
    8       32.839852   0.000000
 
 -0.1818182E+00  0.1818182E+00  0.9090909E-01  0.1803156E-01
    1       -2.637077   1.000000
    2       16.622002   0.000000
    3       18.146019   0.000000
    4       20.709478   0.000000
    5       22.719107   0.000000
    6       23.613576   0.000000
    7       26.483081   0.000000
    8       28.774959   0.000000
 
  0.2727273E+00  0.2727273E+00  0.9090909E-01  0.1803156E-01
    1        4.945725   1.000000
    2        7.745769   1.000000
    3        7.752117   1.000000
    4       13.233202   0.000000
    5       28.400576   0.000000
    6       29.392419   0.000000
    7       31.137156   0.000000
    8       33.526932   0.000000
 
 -0.2727273E+00  0.2727273E+00  0.9090909E-01  0.1803156E-01
    1       -1.310022   1.000000
    2       12.683041   0.000000
    3       16.765512   0.000000
    4       19.543671   0.000000
    5       22.348070   0.000000
    6       22.985842   0.000000
    7       26.199496   0.000000
    8       32.030915   0.000000
 
 -0.1818182E+00  0.2727273E+00  0.9090909E-01  0.1803156E-01
    1       -1.574710   1.000000
    2       14.925340   0.000000
    3       15.020288   0.000000
    4       20.233339   0.000000
    5       21.459898   0.000000
    6       23.274933   0.000000
    7       28.263245   0.000000
    8       29.079448   0.000000
 
 -0.3636364E+00  0.3636364E+00  0.9090909E-01  0.1803156E-01
    1        0.533540   1.000000
    2        8.995006   1.000000
    3       15.837587   0.000000
    4       18.641844   0.000000
    5       21.432985   0.000000
    6       23.173713   0.000000
    7       26.785699   0.000000
    8       32.399816   0.000000
 
 -0.2727273E+00  0.3636364E+00  0.9090909E-01  0.3606311E-01
    1        0.008521   1.000000
    2       11.208564   0.000000
    3       13.774157   0.000000
    4       19.511197   0.000000
    5       21.635857   0.000000
    6       22.845932   0.000000
    7       27.893156   0.000000
    8       31.196090   0.000000
 
 -0.4545455E+00  0.4545455E+00  0.9090909E-01  0.1803156E-01
    1        2.879273   1.000000
    2        5.709470   1.000000
    3       15.371590   0.000000
    4       18.174106   0.000000
    5       20.963897   0.000000
    6       23.091643   0.000000
    7       28.374263   0.000000
    8       30.652925   0.000000
 
 -0.3636364E+00  0.4545455E+00  0.9090909E-01  0.3606311E-01
    1        2.100348   1.000000
    2        7.735110   1.000000
    3       13.048747   0.000000
    4       18.869147   0.000000
    5       21.301775   0.000000
    6       23.954657   0.000000
    7       27.292582   0.000000
    8       30.281508   0.000000
 
 -0.2727273E+00  0.4545455E+00  0.9090909E-01  0.1803156E-01
    1        1.840078   1.000000
    2       10.212906   1.000000
    3       10.221266   1.000000
    4       19.849437   0.000000
    5       21.699149   0.000000
    6       22.368213   0.000000
    7       28.515162   0.000000
    8       31.185768   0.000000
 
 -0.4545455E+00 -0.4545455E+00  0.9090909E-01  0.1803156E-01
    1        4.659499   1.000000
    2        4.708730   1.000000
    3       12.806266   0.000000
    4       18.645611   0.000000
    5       21.110280   0.000000
    6       24.866559   0.000000
    7       26.985002   0.000000
    8       29.264196   0.000000
 
 -0.3636364E+00 -0.4545455E+00  0.9090909E-01  0.3606311E-01
    1        4.169707   1.000000
    2        6.975251   1.000000
    3        9.718727   1.000000
    4       19.629855   0.000000
    5       21.652801   0.000000
    6       23.740522   0.000000
    7       26.100931   0.000000
    8       31.925160   0.000000
 
 -0.3636364E+00 -0.3636364E+00  0.9090909E-01  0.6010518E-02
    1        6.720156   1.000000
    2        6.720156   1.000000
    3        6.724066   1.000000
    4       19.681143   0.000000
    5       23.540856   0.000000
    6       23.611005   0.000000
    7       23.611005   0.000000
    8       35.082385   0.000000
 
  0.1818182E+00  0.1818182E+00  0.1818182E+00  0.6010518E-02
    1        2.362262   1.000000
    2       10.728659   1.000000
    3       10.776550   1.000000
    4       10.776550   1.000000
    5       29.751274   0.000000
    6       29.751274   0.000000
    7       31.429680   0.000000
    8       31.429680   0.000000
 
  0.2727273E+00  0.1818182E+00  0.1818182E+00  0.1803156E-01
    1        4.689708   1.000000
    2        7.498419   1.000000
    3       10.253927   1.000000
    4       10.279524   1.000000
    5       30.361109   0.000000
    6       30.572139   0.000000
    7       32.800064   0.000000
    8       33.263027   0.000000
 
 -0.1818182E+00  0.1818182E+00  0.1818182E+00  0.4507889E-02
    1       -1.839744   1.000000
    2       16.320953   0.000000
    3       16.320953   0.000000
    4       18.725218   0.000000
    5       19.713884   0.000000
    6       26.057141   0.000000
    7       28.060840   0.000000
    8       28.060841   0.000000
 
  0.2727273E+00  0.2727273E+00  0.1818182E+00  0.6010518E-02
    1        7.245020   1.000000
    2        7.245020   1.000000
    3        7.246214   1.000000
    4       10.019987   1.000000
    5       31.620949   0.000000
    6       32.582716   0.000000
    7       32.582716   0.000000
    8       34.457230   0.000000
 
 -0.2727273E+00  0.2727273E+00  0.1818182E+00  0.1803156E-01
    1       -0.517845   1.000000
    2       13.288021   0.000000
    3       14.915919   0.000000
    4       17.705280   0.000000
    5       19.394077   0.000000
    6       25.561231   0.000000
    7       27.972351   0.000000
    8       30.808909   0.000000
 
 -0.3636364E+00  0.3636364E+00  0.1818182E+00  0.1803156E-01
    1        1.318197   1.000000
    2        9.716165   1.000000
    3       13.971800   0.000000
    4       16.767157   0.000000
    5       20.760386   0.000000
    6       24.725298   0.000000
    7       26.804508   0.000000
    8       29.818639   0.000000
 
 -0.2727273E+00  0.3636364E+00  0.1818182E+00  0.1803156E-01
    1        1.056874   1.000000
    2       12.066608   0.000000
    3       12.075931   0.000000
    4       17.885232   0.000000
    5       18.398884   0.000000
    6       25.377331   0.000000
    7       27.845277   0.000000
    8       30.548562   0.000000
 
 -0.4545455E+00  0.4545455E+00  0.1818182E+00  0.1803156E-01
    1        3.653376   1.000000
    2        6.465962   1.000000
    3       13.498459   0.000000
    4       16.275954   0.000000
    5       22.496736   0.000000
    6       24.277345   0.000000
    7       25.163601   0.000000
    8       28.877122   0.000000
 
 -0.3636364E+00  0.4545455E+00  0.1818182E+00  0.3606311E-01
    1        3.136433   1.000000
    2        8.714926   1.000000
    3       11.336568   0.000000
    4       17.390040   0.000000
    5       19.868838   0.000000
    6       24.332720   0.000000
    7       25.668287   0.000000
    8       31.116651   0.000000
 
 -0.4545455E+00 -0.4545455E+00  0.1818182E+00  0.1803156E-01
    1        5.692631   1.000000
    2        5.709191   1.000000
    3       11.091089   0.038836
    4       17.155202   0.000000
    5       21.590981   0.000000
    6       22.638316   0.000000
    7       25.063532   0.000000
    8       31.078579   0.000000
 
 -0.3636364E+00 -0.4545455E+00  0.1818182E+00  0.1803156E-01
    1        5.445366   1.000000
    2        8.202003   1.000000
    3        8.222928   1.000000
    4       19.038483   0.000000
    5       19.701839   0.000000
    6       21.960995   0.000000
    7       25.022734   0.000000
    8       34.089608   0.000000
 
 -0.2727273E+00  0.2727273E+00  0.2727273E+00  0.4507889E-02
    1        0.795194   1.000000
    2       13.496823   0.000000
    3       13.496823   0.000000
    4       16.102342   0.000000
    5       16.491853   0.000000
    6       27.486238   0.000000
    7       28.633308   0.000000
    8       30.333527   0.000000
 
 -0.3636364E+00  0.3636364E+00  0.2727273E+00  0.1803156E-01
    1        2.618027   1.000000
    2       10.843546   1.000000
    3       12.546067   0.000000
    4       15.277734   0.000000
    5       16.953635   0.000000
    6       24.427484   0.000000
    7       28.475218   0.000000
    8       31.152647   0.000000
 
 -0.4545455E+00  0.4545455E+00  0.2727273E+00  0.1803156E-01
    1        4.932861   1.000000
    2        7.707262   1.000000
    3       12.069758   0.000000
    4       14.775434   0.000000
    5       18.939415   0.000000
    6       21.541496   0.000000
    7       28.072641   0.000000
    8       31.266433   0.000000
 
 -0.3636364E+00  0.4545455E+00  0.2727273E+00  0.1803156E-01
    1        4.676274   1.000000
    2       10.094257   1.000000
    3       10.112705   1.000000
    4       16.086555   0.000000
    5       16.326134   0.000000
    6       21.297761   0.000000
    7       28.870789   0.000000
    8       33.462709   0.000000
 
 -0.4545455E+00 -0.4545455E+00  0.2727273E+00  0.1803156E-01
    1        7.194621   1.000000
    2        7.209192   1.000000
    3        9.856181   1.000000
    4       15.948657   0.000000
    5       18.312316   0.000000
    6       18.687451   0.000000
    7       28.754879   0.000000
    8       34.083061   0.000000
 
 -0.3636364E+00  0.3636364E+00  0.3636364E+00  0.4507889E-02
    1        4.419331   1.000000
    2       11.591515   0.000000
    3       11.591515   0.000000
    4       14.206741   0.000000
    5       14.329082   0.000000
    6       21.068565   0.000000
    7       32.117882   0.000000
    8       33.245506   0.000000
 
 -0.4545455E+00  0.4545455E+00  0.3636364E+00  0.1803156E-01
    1        6.695162   1.000000
    2        9.360200   1.000000
    3       11.113977   0.007938
    4       13.750595   0.000000
    5       15.465437   0.000000
    6       18.020199   0.000000
    7       32.202612   0.000000
    8       34.198153   0.000000
 
 -0.4545455E+00 -0.4545455E+00  0.3636364E+00  0.6010518E-02
    1        9.099638   1.000000
    2        9.099638   1.000000
    3        9.135580   1.000000
    4       15.087620   0.000000
    5       15.283554   0.000000
    6       15.283554   0.000000
    7       32.784996   0.000000
    8       36.432484   0.000000
 
 -0.4545455E+00  0.4545455E+00  0.4545455E+00  0.4507889E-02
    1        8.862955   1.000000
    2       10.635752   1.000000
    3       10.635753   1.000000
    4       13.218946   0.000000
    5       13.245507   0.000000
    6       14.968993   0.000000
    7       35.942968   0.000000
    8       36.233650   0.000000
