 vasp.6.2.0 18Jan21 (build Aug 12 2022 13:00:08) complex                        
  
 executed on             LinuxIFC date 2024.11.05  05:28:46
 running on    4 total cores
 distrk:  each k-point on    4 cores,    1 groups
 distr:  one band on NCORE=   1 cores,    4 groups


--------------------------------------------------------------------------------------------------------


 INCAR:
   ISTART = 0            (Read existing wavefunction, if there)
   ISPIN = 1            (Non-Spin polarised DFT)
   LREAL = .FALSE.       (Projection operators: automatic)
   LWAVE = .FALSE.        (Write WAVECAR or not)
   LCHARG = .FALSE.        (Write CHGCAR or not)
   ADDGRID = .TRUE.        (Increase grid, helps GGA convergence)
   LASPH = .TRUE.        (Give more accurate total energies and band structure calculations)
   PREC = Accurate      (Accurate strictly avoids any aliasing or wrap around errors)
   ENCUT = 350          (Cut-off energy for plane wave basis set, in eV)
   ISMEAR = 0            (Gaussian smearing, metals:1)
   SIGMA = 0.05         (Smearing value in eV, metals:0.2)
   NELM = 90           (Max electronic SCF steps)
   NELMIN = 6            (Min electronic SCF steps)
   EDIFF = 1E-06        (SCF energy convergence, in eV)
   NSW = 100          (Max ionic steps)
   IBRION = 2            (Algorithm: 0-MD, 1-Quasi-New, 2-CG)
   ISIF = 2            (Stress/relaxation: 2-Ions, 3-Shape/Ions/V, 4-Shape/Ions)
   EDIFFG = -2E-03        (Ionic convergence, eV/AA)
   ISYM = 2              (Symmetry: 0\=none, 2\=GGA, 3\=hybrids)

 POTCAR:    PAW_PBE Si 05Jan2001                  
 POTCAR:    PAW_PBE Si 05Jan2001                  
   VRHFIN =Si: s2p2                                                                                 
   LEXCH  = PE                                                                                      
   EATOM  =   103.0669 eV,    7.5752 Ry                                                             
                                                                                                    
   TITEL  = PAW_PBE Si 05Jan2001                                                                    
   LULTRA =        F    use ultrasoft PP ?                                                          
   IUNSCR =        1    unscreen: 0-lin 1-nonlin 2-no                                               
   RPACOR =    1.500    partial core radius                                                         
   POMASS =   28.085; ZVAL   =    4.000    mass and valenz                                          
   RCORE  =    1.900    outmost cutoff radius                                                       
   RWIGS  =    2.480; RWIGS  =    1.312    wigner-seitz radius (au A)                               
   ENMAX  =  245.345; ENMIN  =  184.009 eV                                                          
   ICORE  =        2    local potential                                                             
   LCOR   =        T    correct aug charges                                                         
   LPAW   =        T    paw PP                                                                      
   EAUG   =  322.069                                                                                
   DEXC   =    0.000                                                                                
   RMAX   =    1.950    core radius for proj-oper                                                   
   RAUG   =    1.300    factor for augmentation sphere                                              
   RDEP   =    1.993    radius for radial grids                                                     
   RDEPT  =    1.837    core radius for aug-charge                                                  
                                                                                                    
   Atomic configuration                                                                             
    6 entries                                                                                       
     n  l   j            E        occ.                                                              
     1  0  0.50     -1785.8828   2.0000                                                             
     2  0  0.50      -139.4969   2.0000                                                             
     2  1  1.50       -95.5546   6.0000                                                             
     3  0  0.50       -10.8127   2.0000                                                             
     3  1  0.50        -4.0811   2.0000                                                             
     3  2  1.50        -4.0817   0.0000                                                             
   Description                                                                                      
     l       E           TYP  RCUT    TYP  RCUT                                                     
     0    -10.8127223     23  1.900                                                                 
     0     -7.6451159     23  1.900                                                                 
     1     -4.0811372     23  1.900                                                                 
     1      2.4879257     23  1.900                                                                 
     2     -4.0817478      7  1.900                                                                 
  local pseudopotential read in
  partial core-charges read in
  partial kinetic energy density read in
  atomic valenz-charges read in
  non local Contribution for L=           0  read in
    real space projection operators read in
  non local Contribution for L=           0  read in
    real space projection operators read in
  non local Contribution for L=           1  read in
    real space projection operators read in
  non local Contribution for L=           1  read in
    real space projection operators read in
    PAW grid and wavefunctions read in
 
   number of l-projection  operators is LMAX  =           4
   number of lm-projection operators is LMMAX =           8
 
  PAW_PBE Si 05Jan2001                  :
 energy of atom  1       EATOM= -103.0669
 kinetic energy error for atom=    0.0013 (will be added to EATOM!!)
 
 
 POSCAR: Si1
  positions in direct lattice
  No initial velocities read in
 exchange correlation table for  LEXCH =        8
   RHO(1)=    0.500       N(1)  =     2000
   RHO(2)=  100.500       N(2)  =     4000
 


--------------------------------------------------------------------------------------------------------


 ion  position               nearest neighbor table
   1  0.000  0.000  0.000-
 
  LATTYP: Found a body centered cubic cell.
 ALAT       =     2.9963847474
  
  Lattice vectors:
  
 A1 = (   1.4981923737,   1.4981923737,   1.4981923737)
 A2 = (   1.4981923737,  -1.4981923737,  -1.4981923737)
 A3 = (  -1.4981923737,   1.4981923737,  -1.4981923737)


Analysis of symmetry for initial positions (statically):
=====================================================================
 Subroutine PRICEL returns:
 Original cell was already a primitive cell.
 

 Routine SETGRP: Setting up the symmetry group for a 
 body centered cubic supercell.


 Subroutine GETGRP returns: Found 48 space group operations
 (whereof 48 operations were pure point group operations)
 out of a pool of 48 trial point group operations.


The static configuration has the point symmetry O_h .


Analysis of symmetry for dynamics (positions and initial velocities):
=====================================================================
 Subroutine PRICEL returns:
 Original cell was already a primitive cell.
 

 Routine SETGRP: Setting up the symmetry group for a 
 body centered cubic supercell.


 Subroutine GETGRP returns: Found 48 space group operations
 (whereof 48 operations were pure point group operations)
 out of a pool of 48 trial point group operations.


The dynamic configuration has the point symmetry O_h .


 Subroutine INISYM returns: Found 48 space group operations
 (whereof 48 operations are pure point group operations),
 and found     1 'primitive' translations


----------------------------------------------------------------------------------------

                                     Primitive cell                                     

  volume of cell :      13.4513

  direct lattice vectors                    reciprocal lattice vectors
     1.498192374  1.498192374  1.498192374     0.333735513  0.333735513  0.000000000
     1.498192374 -1.498192374 -1.498192374     0.333735513  0.000000000 -0.333735513
    -1.498192374  1.498192374 -1.498192374     0.000000000  0.333735513 -0.333735513

  length of vectors
     2.594945311  2.594945311  2.594945311     0.471973288  0.471973288  0.471973288

  position of ions in fractional coordinates (direct lattice)
     0.000000000  0.000000000  0.000000000

  ion indices of the primitive-cell ions
   primitive index   ion index
                 1           1

----------------------------------------------------------------------------------------

 
 
 KPOINTS: Automatic                               

Automatic generation of k-mesh.
 Grid dimensions read from file:
 generate k-points for:   11   11   11

 Generating k-lattice:

  Cartesian coordinates                     Fractional coordinates (reciprocal lattice)
     0.030339592  0.030339592  0.000000000     0.090909091  0.000000000  0.000000000
     0.030339592  0.000000000 -0.030339592     0.000000000  0.090909091  0.000000000
     0.000000000  0.030339592 -0.030339592     0.000000000  0.000000000  0.090909091

  Length of vectors
     0.042906663  0.042906663  0.042906663

  Shift w.r.t. Gamma in fractional coordinates (k-lattice)
     0.000000000  0.000000000  0.000000000

 
 Subroutine IBZKPT returns following result:
 ===========================================
 
 Found     56 irreducible k-points:
 
 Following reciprocal coordinates:
            Coordinates               Weight
  0.000000  0.000000  0.000000      1.000000
  0.090909  0.000000  0.000000     12.000000
  0.181818  0.000000  0.000000     12.000000
  0.272727  0.000000  0.000000     12.000000
  0.363636  0.000000  0.000000     12.000000
  0.454545  0.000000  0.000000     12.000000
  0.090909  0.090909  0.000000     24.000000
  0.181818  0.090909 -0.000000     48.000000
  0.272727  0.090909  0.000000     48.000000
  0.363636  0.090909  0.000000     48.000000
  0.454545  0.090909  0.000000     24.000000
  0.181818  0.181818  0.000000     24.000000
  0.272727  0.181818  0.000000     48.000000
  0.363636  0.181818  0.000000     48.000000
  0.272727  0.272727 -0.000000     24.000000
  0.363636  0.272727  0.000000     24.000000
  0.090909  0.090909  0.090909      8.000000
  0.181818  0.090909  0.090909     24.000000
  0.272727  0.090909  0.090909     24.000000
  0.363636  0.090909  0.090909     24.000000
 -0.090909  0.090909  0.090909      6.000000
  0.181818  0.181818  0.090909     24.000000
  0.272727  0.181818  0.090909     48.000000
  0.363636  0.181818  0.090909     24.000000
 -0.181818  0.181818  0.090909     24.000000
  0.272727  0.272727  0.090909     24.000000
 -0.272727  0.272727  0.090909     24.000000
 -0.181818  0.272727  0.090909     24.000000
 -0.363636  0.363636  0.090909     24.000000
 -0.272727  0.363636  0.090909     48.000000
 -0.454545  0.454545  0.090909     24.000000
 -0.363636  0.454545  0.090909     48.000000
 -0.272727  0.454545  0.090909     24.000000
 -0.454545 -0.454545  0.090909     24.000000
 -0.363636 -0.454545  0.090909     48.000000
 -0.363636 -0.363636  0.090909      8.000000
  0.181818  0.181818  0.181818      8.000000
  0.272727  0.181818  0.181818     24.000000
 -0.181818  0.181818  0.181818      6.000000
  0.272727  0.272727  0.181818      8.000000
 -0.272727  0.272727  0.181818     24.000000
 -0.363636  0.363636  0.181818     24.000000
 -0.272727  0.363636  0.181818     24.000000
 -0.454545  0.454545  0.181818     24.000000
 -0.363636  0.454545  0.181818     48.000000
 -0.454545 -0.454545  0.181818     24.000000
 -0.363636 -0.454545  0.181818     24.000000
 -0.272727  0.272727  0.272727      6.000000
 -0.363636  0.363636  0.272727     24.000000
 -0.454545  0.454545  0.272727     24.000000
 -0.363636  0.454545  0.272727     24.000000
 -0.454545 -0.454545  0.272727     24.000000
 -0.363636  0.363636  0.363636      6.000000
 -0.454545  0.454545  0.363636     24.000000
 -0.454545 -0.454545  0.363636      8.000000
 -0.454545  0.454545  0.454545      6.000000
 
 Following cartesian coordinates:
            Coordinates               Weight
  0.000000  0.000000  0.000000      1.000000
  0.030036  0.030036  0.000000     12.000000
  0.060072  0.060072  0.000000     12.000000
  0.090109  0.090109  0.000000     12.000000
  0.120145  0.120145  0.000000     12.000000
  0.150181  0.150181  0.000000     12.000000
  0.060072  0.030036 -0.030036     24.000000
  0.090109  0.060072 -0.030036     48.000000
  0.120145  0.090109 -0.030036     48.000000
  0.150181  0.120145 -0.030036     48.000000
  0.180217  0.150181 -0.030036     24.000000
  0.120145  0.060072 -0.060072     24.000000
  0.150181  0.090109 -0.060072     48.000000
  0.180217  0.120145 -0.060072     48.000000
  0.180217  0.090109 -0.090109     24.000000
  0.210253  0.120145 -0.090109     24.000000
  0.060072  0.060072 -0.060072      8.000000
  0.090109  0.090109 -0.060072     24.000000
  0.120145  0.120145 -0.060072     24.000000
  0.150181  0.150181 -0.060072     24.000000
  0.000000  0.000000 -0.060072      6.000000
  0.120145  0.090109 -0.090109     24.000000
  0.150181  0.120145 -0.090109     48.000000
  0.180217  0.150181 -0.090109     24.000000
  0.000000 -0.030036 -0.090109     24.000000
  0.180217  0.120145 -0.120145     24.000000
  0.000000 -0.060072 -0.120145     24.000000
  0.030036 -0.030036 -0.120145     24.000000
  0.000000 -0.090109 -0.150181     24.000000
  0.030036 -0.060072 -0.150181     48.000000
  0.000000 -0.120145 -0.180217     24.000000
  0.030036 -0.090109 -0.180217     48.000000
  0.060072 -0.060072 -0.180217     24.000000
 -0.300362 -0.120145  0.120145     24.000000
 -0.270326 -0.090109  0.120145     48.000000
 -0.240290 -0.090109  0.090109      8.000000
  0.120145  0.120145 -0.120145      8.000000
  0.150181  0.150181 -0.120145     24.000000
  0.000000  0.000000 -0.120145      6.000000
  0.180217  0.150181 -0.150181      8.000000
  0.000000 -0.030036 -0.150181     24.000000
  0.000000 -0.060072 -0.180217     24.000000
  0.030036 -0.030036 -0.180217     24.000000
  0.000000 -0.090109 -0.210253     24.000000
  0.030036 -0.060072 -0.210253     48.000000
 -0.300362 -0.090109  0.090109     24.000000
 -0.270326 -0.060072  0.090109     24.000000
  0.000000  0.000000 -0.180217      6.000000
  0.000000 -0.030036 -0.210253     24.000000
  0.000000 -0.060072 -0.240290     24.000000
  0.030036 -0.030036 -0.240290     24.000000
 -0.300362 -0.060072  0.060072     24.000000
  0.000000  0.000000 -0.240290      6.000000
  0.000000 -0.030036 -0.270326     24.000000
 -0.300362 -0.030036  0.030036      8.000000
  0.000000  0.000000 -0.300362      6.000000
 


--------------------------------------------------------------------------------------------------------




 Dimension of arrays:
   k-points           NKPTS =     56   k-points in BZ     NKDIM =     56   number of bands    NBANDS=      8
   number of dos      NEDOS =    301   number of ions     NIONS =      1
   non local maximal  LDIM  =      4   non local SUM 2l+1 LMDIM =      8
   total plane-waves  NPLWV =   4096
   max r-space proj   IRMAX =      1   max aug-charges    IRDMAX=  81639
   dimension x,y,z NGX =    16 NGY =   16 NGZ =   16
   dimension x,y,z NGXF=    32 NGYF=   32 NGZF=   32
   support grid    NGXF=    64 NGYF=   64 NGZF=   64
   ions per type =               1
   NGX,Y,Z   is equivalent  to a cutoff of  10.25, 10.25, 10.25 a.u.
   NGXF,Y,Z  is equivalent  to a cutoff of  20.50, 20.50, 20.50 a.u.

 SYSTEM =  unknown system                          
 POSCAR =  Si1                                     

 Startparameter for this run:
   NWRITE =      2    write-flag & timer
   PREC   = accura    normal or accurate (medium, high low for compatibility)
   ISTART =      0    job   : 0-new  1-cont  2-samecut
   ICHARG =      2    charge: 1-file 2-atom 10-const
   ISPIN  =      1    spin polarized calculation?
   LNONCOLLINEAR =      F non collinear calculations
   LSORBIT =      F    spin-orbit coupling
   INIWAV =      1    electr: 0-lowe 1-rand  2-diag
   LASPH  =      T    aspherical Exc in radial PAW
   METAGGA=      F    non-selfconsistent MetaGGA calc.

 Electronic Relaxation 1
   ENCUT  =  350.0 eV  25.72 Ry    5.07 a.u.   3.96  3.96  3.96*2*pi/ulx,y,z
   ENINI  =  350.0     initial cutoff
   ENAUG  =  322.1 eV  augmentation charge cutoff
   NELM   =     90;   NELMIN=  6; NELMDL= -5     # of ELM steps 
   EDIFF  = 0.1E-05   stopping-criterion for ELM
   LREAL  =      F    real-space projection
   NLSPLINE    = F    spline interpolate recip. space projectors
   LCOMPAT=      F    compatible to vasp.4.4
   GGA_COMPAT  = T    GGA compatible to vasp.4.4-vasp.4.6
   LMAXPAW     = -100 max onsite density
   LMAXMIX     =    2 max onsite mixed and CHGCAR
   VOSKOWN=      0    Vosko Wilk Nusair interpolation
   ROPT   =    0.00000
 Ionic relaxation
   EDIFFG = -.2E-02   stopping-criterion for IOM
   NSW    =    100    number of steps for IOM
   NBLOCK =      1;   KBLOCK =    100    inner block; outer block 
   IBRION =      2    ionic relax: 0-MD 1-quasi-New 2-CG
   NFREE  =      1    steps in history (QN), initial steepest desc. (CG)
   ISIF   =      2    stress and relaxation
   IWAVPR =     11    prediction:  0-non 1-charg 2-wave 3-comb
   ISYM   =      2    0-nonsym 1-usesym 2-fastsym
   LCORR  =      T    Harris-Foulkes like correction to forces

   POTIM  = 0.5000    time-step for ionic-motion
   TEIN   =    0.0    initial temperature
   TEBEG  =    0.0;   TEEND  =   0.0 temperature during run
   SMASS  =  -3.00    Nose mass-parameter (am)
   estimated Nose-frequenzy (Omega)   =  0.10E-29 period in steps = 0.13E+47 mass=  -0.154E-27a.u.
   SCALEE = 1.0000    scale energy and forces
   NPACO  =    256;   APACO  = 16.0  distance and # of slots for P.C.
   PSTRESS=    0.0 pullay stress

  Mass of Ions in am
   POMASS =  28.09
  Ionic Valenz
   ZVAL   =   4.00
  Atomic Wigner-Seitz radii
   RWIGS  =  -1.00
  virtual crystal weights 
   VCA    =   1.00
   NELECT =       4.0000    total number of electrons
   NUPDOWN=      -1.0000    fix difference up-down

 DOS related values:
   EMIN   =  10.00;   EMAX   =-10.00  energy-range for DOS
   EFERMI =   0.00
   ISMEAR =     0;   SIGMA  =   0.05  broadening in eV -4-tet -1-fermi 0-gaus

 Electronic relaxation 2 (details)
   IALGO  =     38    algorithm
   LDIAG  =      T    sub-space diagonalisation (order eigenvalues)
   LSUBROT=      F    optimize rotation matrix (better conditioning)
   TURBO    =      0    0=normal 1=particle mesh
   IRESTART =      0    0=no restart 2=restart with 2 vectors
   NREBOOT  =      0    no. of reboots
   NMIN     =      0    reboot dimension
   EREF     =   0.00    reference energy to select bands
   IMIX   =      4    mixing-type and parameters
     AMIX     =   0.40;   BMIX     =  1.00
     AMIX_MAG =   1.60;   BMIX_MAG =  1.00
     AMIN     =   0.10
     WC   =   100.;   INIMIX=   1;  MIXPRE=   1;  MAXMIX= -45

 Intra band minimization:
   WEIMIN = 0.0010     energy-eigenvalue tresh-hold
   EBREAK =  0.31E-07  absolut break condition
   DEPER  =   0.30     relativ break condition  

   TIME   =   0.40     timestep for ELM

  volume/ion in A,a.u.               =      13.45        90.77
  Fermi-wavevector in a.u.,A,eV,Ry     =   1.092716  2.064934 16.245737  1.194028
  Thomas-Fermi vector in A             =   2.228987
 
 Write flags
   LWAVE        =      F    write WAVECAR
   LDOWNSAMPLE  =      F    k-point downsampling of WAVECAR
   LCHARG       =      F    write CHGCAR
   LVTOT        =      F    write LOCPOT, total local potential
   LVHAR        =      F    write LOCPOT, Hartree potential only
   LELF         =      F    write electronic localiz. function (ELF)
   LORBIT       =      0    0 simple, 1 ext, 2 COOP (PROOUT), +10 PAW based schemes


 Dipole corrections
   LMONO  =      F    monopole corrections only (constant potential shift)
   LDIPOL =      F    correct potential (dipole corrections)
   IDIPOL =      0    1-x, 2-y, 3-z, 4-all directions 
   EPSILON=  1.0000000 bulk dielectric constant

 Exchange correlation treatment:
   GGA     =    --    GGA type
   LEXCH   =     8    internal setting for exchange type
   VOSKOWN=      0    Vosko Wilk Nusair interpolation
   LHFCALC =     F    Hartree Fock is set to
   LHFONE  =     F    Hartree Fock one center treatment
   AEXX    =    0.0000 exact exchange contribution

 Linear response parameters
   LEPSILON=     F    determine dielectric tensor
   LRPA    =     F    only Hartree local field effects (RPA)
   LNABLA  =     F    use nabla operator in PAW spheres
   LVEL    =     F    velocity operator in full k-point grid
   LINTERFAST=   F  fast interpolation
   KINTER  =     0    interpolate to denser k-point grid
   CSHIFT  =0.1000    complex shift for real part using Kramers Kronig
   OMEGAMAX=  -1.0    maximum frequency
   DEG_THRESHOLD= 0.2000000E-02 threshold for treating states as degnerate
   RTIME   =   -0.100 relaxation time in fs
  (WPLASMAI=    0.000 imaginary part of plasma frequency in eV, 0.658/RTIME)
   DFIELD  = 0.0000000 0.0000000 0.0000000 field for delta impulse in time
 
 Orbital magnetization related:
   ORBITALMAG=     F  switch on orbital magnetization
   LCHIMAG   =     F  perturbation theory with respect to B field
   DQ        =  0.001000  dq finite difference perturbation B field
   LLRAUG    =     F  two centre corrections for induced B field



--------------------------------------------------------------------------------------------------------


 conjugate gradient relaxation of ions
 charge density and potential will be updated during run
 non-spin polarized calculation
 Variant of blocked Davidson
 Davidson routine will perform the subspace rotation
 perform sub-space diagonalisation
    after iterative eigenvector-optimisation
 modified Broyden-mixing scheme, WC =      100.0
 initial mixing is a Kerker type mixing with AMIX =  0.4000 and BMIX =      1.0000
 Hartree-type preconditioning will be used
 using additional bands            6
 reciprocal scheme for non local part
 use partial core corrections
 calculate Harris-corrections to forces 
   (improved forces if not selfconsistent)
 use gradient corrections 
 use of overlap-Matrix (Vanderbilt PP)
 Gauss-broadening in eV      SIGMA  =   0.05


--------------------------------------------------------------------------------------------------------


  energy-cutoff  :      350.00
  volume of cell :       13.45
      direct lattice vectors                 reciprocal lattice vectors
     1.498192374  1.498192374  1.498192374     0.333735513  0.333735513  0.000000000
     1.498192374 -1.498192374 -1.498192374     0.333735513  0.000000000 -0.333735513
    -1.498192374  1.498192374 -1.498192374     0.000000000  0.333735513 -0.333735513

  length of vectors
     2.594945311  2.594945311  2.594945311     0.471973288  0.471973288  0.471973288


 
 k-points in units of 2pi/SCALE and weight: Automatic                               
   0.00000000  0.00000000  0.00000000       0.001
   0.03003620  0.03003620  0.00000000       0.009
   0.06007239  0.06007239  0.00000000       0.009
   0.09010859  0.09010859  0.00000000       0.009
   0.12014478  0.12014478  0.00000000       0.009
   0.15018098  0.15018098  0.00000000       0.009
   0.06007239  0.03003620 -0.03003620       0.018
   0.09010859  0.06007239 -0.03003620       0.036
   0.12014478  0.09010859 -0.03003620       0.036
   0.15018098  0.12014478 -0.03003620       0.036
   0.18021718  0.15018098 -0.03003620       0.018
   0.12014478  0.06007239 -0.06007239       0.018
   0.15018098  0.09010859 -0.06007239       0.036
   0.18021718  0.12014478 -0.06007239       0.036
   0.18021718  0.09010859 -0.09010859       0.018
   0.21025337  0.12014478 -0.09010859       0.018
   0.06007239  0.06007239 -0.06007239       0.006
   0.09010859  0.09010859 -0.06007239       0.018
   0.12014478  0.12014478 -0.06007239       0.018
   0.15018098  0.15018098 -0.06007239       0.018
   0.00000000  0.00000000 -0.06007239       0.005
   0.12014478  0.09010859 -0.09010859       0.018
   0.15018098  0.12014478 -0.09010859       0.036
   0.18021718  0.15018098 -0.09010859       0.018
   0.00000000 -0.03003620 -0.09010859       0.018
   0.18021718  0.12014478 -0.12014478       0.018
   0.00000000 -0.06007239 -0.12014478       0.018
   0.03003620 -0.03003620 -0.12014478       0.018
   0.00000000 -0.09010859 -0.15018098       0.018
   0.03003620 -0.06007239 -0.15018098       0.036
   0.00000000 -0.12014478 -0.18021718       0.018
   0.03003620 -0.09010859 -0.18021718       0.036
   0.06007239 -0.06007239 -0.18021718       0.018
  -0.30036196 -0.12014478  0.12014478       0.018
  -0.27032577 -0.09010859  0.12014478       0.036
  -0.24028957 -0.09010859  0.09010859       0.006
   0.12014478  0.12014478 -0.12014478       0.006
   0.15018098  0.15018098 -0.12014478       0.018
   0.00000000  0.00000000 -0.12014478       0.005
   0.18021718  0.15018098 -0.15018098       0.006
   0.00000000 -0.03003620 -0.15018098       0.018
   0.00000000 -0.06007239 -0.18021718       0.018
   0.03003620 -0.03003620 -0.18021718       0.018
   0.00000000 -0.09010859 -0.21025337       0.018
   0.03003620 -0.06007239 -0.21025337       0.036
  -0.30036196 -0.09010859  0.09010859       0.018
  -0.27032577 -0.06007239  0.09010859       0.018
   0.00000000  0.00000000 -0.18021718       0.005
   0.00000000 -0.03003620 -0.21025337       0.018
   0.00000000 -0.06007239 -0.24028957       0.018
   0.03003620 -0.03003620 -0.24028957       0.018
  -0.30036196 -0.06007239  0.06007239       0.018
   0.00000000  0.00000000 -0.24028957       0.005
   0.00000000 -0.03003620 -0.27032577       0.018
  -0.30036196 -0.03003620  0.03003620       0.006
   0.00000000  0.00000000 -0.30036196       0.005
 
 k-points in reciprocal lattice and weights: Automatic                               
   0.00000000  0.00000000  0.00000000       0.001
   0.09090909  0.00000000  0.00000000       0.009
   0.18181818  0.00000000  0.00000000       0.009
   0.27272727  0.00000000  0.00000000       0.009
   0.36363636  0.00000000  0.00000000       0.009
   0.45454545  0.00000000  0.00000000       0.009
   0.09090909  0.09090909  0.00000000       0.018
   0.18181818  0.09090909 -0.00000000       0.036
   0.27272727  0.09090909  0.00000000       0.036
   0.36363636  0.09090909  0.00000000       0.036
   0.45454545  0.09090909  0.00000000       0.018
   0.18181818  0.18181818  0.00000000       0.018
   0.27272727  0.18181818  0.00000000       0.036
   0.36363636  0.18181818  0.00000000       0.036
   0.27272727  0.27272727 -0.00000000       0.018
   0.36363636  0.27272727  0.00000000       0.018
   0.09090909  0.09090909  0.09090909       0.006
   0.18181818  0.09090909  0.09090909       0.018
   0.27272727  0.09090909  0.09090909       0.018
   0.36363636  0.09090909  0.09090909       0.018
  -0.09090909  0.09090909  0.09090909       0.005
   0.18181818  0.18181818  0.09090909       0.018
   0.27272727  0.18181818  0.09090909       0.036
   0.36363636  0.18181818  0.09090909       0.018
  -0.18181818  0.18181818  0.09090909       0.018
   0.27272727  0.27272727  0.09090909       0.018
  -0.27272727  0.27272727  0.09090909       0.018
  -0.18181818  0.27272727  0.09090909       0.018
  -0.36363636  0.36363636  0.09090909       0.018
  -0.27272727  0.36363636  0.09090909       0.036
  -0.45454545  0.45454545  0.09090909       0.018
  -0.36363636  0.45454545  0.09090909       0.036
  -0.27272727  0.45454545  0.09090909       0.018
  -0.45454545 -0.45454545  0.09090909       0.018
  -0.36363636 -0.45454545  0.09090909       0.036
  -0.36363636 -0.36363636  0.09090909       0.006
   0.18181818  0.18181818  0.18181818       0.006
   0.27272727  0.18181818  0.18181818       0.018
  -0.18181818  0.18181818  0.18181818       0.005
   0.27272727  0.27272727  0.18181818       0.006
  -0.27272727  0.27272727  0.18181818       0.018
  -0.36363636  0.36363636  0.18181818       0.018
  -0.27272727  0.36363636  0.18181818       0.018
  -0.45454545  0.45454545  0.18181818       0.018
  -0.36363636  0.45454545  0.18181818       0.036
  -0.45454545 -0.45454545  0.18181818       0.018
  -0.36363636 -0.45454545  0.18181818       0.018
  -0.27272727  0.27272727  0.27272727       0.005
  -0.36363636  0.36363636  0.27272727       0.018
  -0.45454545  0.45454545  0.27272727       0.018
  -0.36363636  0.45454545  0.27272727       0.018
  -0.45454545 -0.45454545  0.27272727       0.018
  -0.36363636  0.36363636  0.36363636       0.005
  -0.45454545  0.45454545  0.36363636       0.018
  -0.45454545 -0.45454545  0.36363636       0.006
  -0.45454545  0.45454545  0.45454545       0.005
 
 position of ions in fractional coordinates (direct lattice) 
   0.00000000  0.00000000  0.00000000
 
 position of ions in cartesian coordinates  (Angst):
   0.00000000  0.00000000  0.00000000
 


--------------------------------------------------------------------------------------------------------


 k-point   1 :   0.0000 0.0000 0.0000  plane waves:     201
 k-point   2 :   0.0909 0.0000 0.0000  plane waves:     199
 k-point   3 :   0.1818 0.0000 0.0000  plane waves:     201
 k-point   4 :   0.2727 0.0000 0.0000  plane waves:     198
 k-point   5 :   0.3636 0.0000 0.0000  plane waves:     194
 k-point   6 :   0.4545 0.0000 0.0000  plane waves:     192
 k-point   7 :   0.0909 0.0909 0.0000  plane waves:     198
 k-point   8 :   0.1818 0.0909-0.0000  plane waves:     200
 k-point   9 :   0.2727 0.0909 0.0000  plane waves:     194
 k-point  10 :   0.3636 0.0909 0.0000  plane waves:     195
 k-point  11 :   0.4545 0.0909 0.0000  plane waves:     197
 k-point  12 :   0.1818 0.1818 0.0000  plane waves:     198
 k-point  13 :   0.2727 0.1818 0.0000  plane waves:     195
 k-point  14 :   0.3636 0.1818 0.0000  plane waves:     201
 k-point  15 :   0.2727 0.2727-0.0000  plane waves:     200
 k-point  16 :   0.3636 0.2727 0.0000  plane waves:     203
 k-point  17 :   0.0909 0.0909 0.0909  plane waves:     201
 k-point  18 :   0.1818 0.0909 0.0909  plane waves:     197
 k-point  19 :   0.2727 0.0909 0.0909  plane waves:     198
 k-point  20 :   0.3636 0.0909 0.0909  plane waves:     200
 k-point  21 :  -0.0909 0.0909 0.0909  plane waves:     197
 k-point  22 :   0.1818 0.1818 0.0909  plane waves:     194
 k-point  23 :   0.2727 0.1818 0.0909  plane waves:     198
 k-point  24 :   0.3636 0.1818 0.0909  plane waves:     200
 k-point  25 :  -0.1818 0.1818 0.0909  plane waves:     202
 k-point  26 :   0.2727 0.2727 0.0909  plane waves:     200
 k-point  27 :  -0.2727 0.2727 0.0909  plane waves:     197
 k-point  28 :  -0.1818 0.2727 0.0909  plane waves:     202
 k-point  29 :  -0.3636 0.3636 0.0909  plane waves:     193
 k-point  30 :  -0.2727 0.3636 0.0909  plane waves:     197
 k-point  31 :  -0.4545 0.4545 0.0909  plane waves:     199
 k-point  32 :  -0.3636 0.4545 0.0909  plane waves:     202
 k-point  33 :  -0.2727 0.4545 0.0909  plane waves:     199
 k-point  34 :  -0.4545-0.4545 0.0909  plane waves:     200
 k-point  35 :  -0.3636-0.4545 0.0909  plane waves:     206
 k-point  36 :  -0.3636-0.3636 0.0909  plane waves:     203
 k-point  37 :   0.1818 0.1818 0.1818  plane waves:     192
 k-point  38 :   0.2727 0.1818 0.1818  plane waves:     196
 k-point  39 :  -0.1818 0.1818 0.1818  plane waves:     201
 k-point  40 :   0.2727 0.2727 0.1818  plane waves:     204
 k-point  41 :  -0.2727 0.2727 0.1818  plane waves:     196
 k-point  42 :  -0.3636 0.3636 0.1818  plane waves:     203
 k-point  43 :  -0.2727 0.3636 0.1818  plane waves:     200
 k-point  44 :  -0.4545 0.4545 0.1818  plane waves:     208
 k-point  45 :  -0.3636 0.4545 0.1818  plane waves:     204
 k-point  46 :  -0.4545-0.4545 0.1818  plane waves:     206
 k-point  47 :  -0.3636-0.4545 0.1818  plane waves:     203
 k-point  48 :  -0.2727 0.2727 0.2727  plane waves:     205
 k-point  49 :  -0.3636 0.3636 0.2727  plane waves:     204
 k-point  50 :  -0.4545 0.4545 0.2727  plane waves:     206
 k-point  51 :  -0.3636 0.4545 0.2727  plane waves:     204
 k-point  52 :  -0.4545-0.4545 0.2727  plane waves:     208
 k-point  53 :  -0.3636 0.3636 0.3636  plane waves:     212
 k-point  54 :  -0.4545 0.4545 0.3636  plane waves:     208
 k-point  55 :  -0.4545-0.4545 0.3636  plane waves:     212
 k-point  56 :  -0.4545 0.4545 0.4545  plane waves:     212

 maximum and minimum number of plane-waves per node :       212      192

 maximum number of plane-waves:       212
 maximum index in each direction: 
   IXMAX=    4   IYMAX=    4   IZMAX=    3
   IXMIN=   -4   IYMIN=   -4   IZMIN=   -4


 serial   3D FFT for wavefunctions
 parallel 3D FFT for charge:
    minimum data exchange during FFTs selected (reduces bandwidth)


 total amount of memory used by VASP MPI-rank0    32983. kBytes
=======================================================================

   base      :      30000. kBytes
   nonl-proj :        763. kBytes
   fftplans  :       1246. kBytes
   grid      :        577. kBytes
   one-center:          3. kBytes
   wavefun   :        394. kBytes
 
     INWAV:  cpu time    0.0000: real time    0.0008
 Broyden mixing: mesh for mixing (old mesh)
   NGX =  7   NGY =  7   NGZ =  7
  (NGX  = 32   NGY  = 32   NGZ  = 32)
  gives a total of    343 points

 initial charge density was supplied:
 charge density of overlapping atoms calculated
 number of electron       4.0000000 magnetization 
 keeping initial charge density in first step


--------------------------------------------------------------------------------------------------------


 Maximum index for augmentation-charges        19777 (set IRDMAX)


--------------------------------------------------------------------------------------------------------


 First call to EWALD:  gamma=   0.745
 Maximum number of real-space cells 3x 3x 3
 Maximum number of reciprocal cells 3x 3x 3

    FEWALD:  cpu time    0.0030: real time    0.0034


--------------------------------------- Iteration      1(   1)  ---------------------------------------


    POTLOK:  cpu time    0.0090: real time    0.0128
    SETDIJ:  cpu time    0.1630: real time    0.1631
     EDDAV:  cpu time    0.1550: real time    0.1541
       DOS:  cpu time    0.0000: real time    0.0013
    --------------------------------------------
      LOOP:  cpu time    0.3279: real time    0.3315

 eigenvalue-minimisations  :   920
 total energy-change (2. order) :-0.3125382E+01  (-0.1512040E+03)
 number of electron       4.0000000 magnetization 
 augmentation part        4.0000000 magnetization 

 Free energy of the ion-electron system (eV)
  ---------------------------------------------------
  alpha Z        PSCENC =         2.50260188
  Ewald energy   TEWEN  =      -139.91310605
  -Hartree energ DENC   =        -0.42815531
  -exchange      EXHF   =         0.00000000
  -V(xc)+E(xc)   XCENC  =        -8.61072572
  PAW double counting   =        88.12379961      -70.53051779
  entropy T*S    EENTRO =        -0.00036605
  eigenvalues    EBANDS =        22.66546085
  atomic energy  EATOM  =       103.06562707
  Solvation  Ediel_sol  =         0.00000000
  ---------------------------------------------------
  free energy    TOTEN  =        -3.12538151 eV

  energy without entropy =       -3.12501546  energy(sigma->0) =       -3.12519848


--------------------------------------------------------------------------------------------------------




--------------------------------------- Iteration      1(   2)  ---------------------------------------


     EDDAV:  cpu time    0.2440: real time    0.2590
       DOS:  cpu time    0.0010: real time    0.0012
    --------------------------------------------
      LOOP:  cpu time    0.2450: real time    0.2602

 eigenvalue-minimisations  :  1408
 total energy-change (2. order) :-0.1737350E+01  (-0.1695563E+01)
 number of electron       4.0000000 magnetization 
 augmentation part        4.0000000 magnetization 

 Free energy of the ion-electron system (eV)
  ---------------------------------------------------
  alpha Z        PSCENC =         2.50260188
  Ewald energy   TEWEN  =      -139.91310605
  -Hartree energ DENC   =        -0.42815531
  -exchange      EXHF   =         0.00000000
  -V(xc)+E(xc)   XCENC  =        -8.61072572
  PAW double counting   =        88.12379961      -70.53051779
  entropy T*S    EENTRO =        -0.00081322
  eigenvalues    EBANDS =        20.92855785
  atomic energy  EATOM  =       103.06562707
  Solvation  Ediel_sol  =         0.00000000
  ---------------------------------------------------
  free energy    TOTEN  =        -4.86273167 eV

  energy without entropy =       -4.86191845  energy(sigma->0) =       -4.86232506


--------------------------------------------------------------------------------------------------------




--------------------------------------- Iteration      1(   3)  ---------------------------------------


     EDDAV:  cpu time    0.1600: real time    0.1682
       DOS:  cpu time    0.0020: real time    0.0013
    --------------------------------------------
      LOOP:  cpu time    0.1610: real time    0.1695

 eigenvalue-minimisations  :   952
 total energy-change (2. order) :-0.7569900E-02  (-0.7569745E-02)
 number of electron       4.0000000 magnetization 
 augmentation part        4.0000000 magnetization 

 Free energy of the ion-electron system (eV)
  ---------------------------------------------------
  alpha Z        PSCENC =         2.50260188
  Ewald energy   TEWEN  =      -139.91310605
  -Hartree energ DENC   =        -0.42815531
  -exchange      EXHF   =         0.00000000
  -V(xc)+E(xc)   XCENC  =        -8.61072572
  PAW double counting   =        88.12379961      -70.53051779
  entropy T*S    EENTRO =        -0.00082789
  eigenvalues    EBANDS =        20.92100262
  atomic energy  EATOM  =       103.06562707
  Solvation  Ediel_sol  =         0.00000000
  ---------------------------------------------------
  free energy    TOTEN  =        -4.87030157 eV

  energy without entropy =       -4.86947368  energy(sigma->0) =       -4.86988763


--------------------------------------------------------------------------------------------------------




--------------------------------------- Iteration      1(   4)  ---------------------------------------


     EDDAV:  cpu time    0.2640: real time    0.2720
       DOS:  cpu time    0.0010: real time    0.0012
    --------------------------------------------
      LOOP:  cpu time    0.2650: real time    0.2732

 eigenvalue-minimisations  :  1496
 total energy-change (2. order) :-0.5088160E-05  (-0.5087133E-05)
 number of electron       4.0000000 magnetization 
 augmentation part        4.0000000 magnetization 

 Free energy of the ion-electron system (eV)
  ---------------------------------------------------
  alpha Z        PSCENC =         2.50260188
  Ewald energy   TEWEN  =      -139.91310605
  -Hartree energ DENC   =        -0.42815531
  -exchange      EXHF   =         0.00000000
  -V(xc)+E(xc)   XCENC  =        -8.61072572
  PAW double counting   =        88.12379961      -70.53051779
  entropy T*S    EENTRO =        -0.00082791
  eigenvalues    EBANDS =        20.92099755
  atomic energy  EATOM  =       103.06562707
  Solvation  Ediel_sol  =         0.00000000
  ---------------------------------------------------
  free energy    TOTEN  =        -4.87030666 eV

  energy without entropy =       -4.86947876  energy(sigma->0) =       -4.86989271


--------------------------------------------------------------------------------------------------------




--------------------------------------- Iteration      1(   5)  ---------------------------------------


     EDDAV:  cpu time    0.1560: real time    0.1642
       DOS:  cpu time    0.0010: real time    0.0012
    CHARGE:  cpu time    0.0130: real time    0.0130
    MIXING:  cpu time    0.0010: real time    0.0008
    --------------------------------------------
      LOOP:  cpu time    0.1710: real time    0.1792

 eigenvalue-minimisations  :   944
 total energy-change (2. order) :-0.3596341E-09  (-0.1804722E-09)
 number of electron       4.0000000 magnetization 
 augmentation part       -0.2398672 magnetization 

 Broyden mixing:
  rms(total) = 0.30341E+00    rms(broyden)= 0.30340E+00
  rms(prec ) = 0.42959E+00
  weight for this iteration     100.00

 Free energy of the ion-electron system (eV)
  ---------------------------------------------------
  alpha Z        PSCENC =         2.50260188
  Ewald energy   TEWEN  =      -139.91310605
  -Hartree energ DENC   =        -0.42815531
  -exchange      EXHF   =         0.00000000
  -V(xc)+E(xc)   XCENC  =        -8.61072572
  PAW double counting   =        88.12379961      -70.53051779
  entropy T*S    EENTRO =        -0.00082791
  eigenvalues    EBANDS =        20.92099755
  atomic energy  EATOM  =       103.06562707
  Solvation  Ediel_sol  =         0.00000000
  ---------------------------------------------------
  free energy    TOTEN  =        -4.87030666 eV

  energy without entropy =       -4.86947876  energy(sigma->0) =       -4.86989271


--------------------------------------------------------------------------------------------------------




--------------------------------------- Iteration      1(   6)  ---------------------------------------


    POTLOK:  cpu time    0.0100: real time    0.0175
    SETDIJ:  cpu time    0.1630: real time    0.1629
     EDDAV:  cpu time    0.1540: real time    0.1547
       DOS:  cpu time    0.0010: real time    0.0012
    CHARGE:  cpu time    0.0120: real time    0.0115
    MIXING:  cpu time    0.0010: real time    0.0008
    --------------------------------------------
      LOOP:  cpu time    0.3409: real time    0.3486

 eigenvalue-minimisations  :   936
 total energy-change (2. order) : 0.1225112E-01  (-0.3521560E-03)
 number of electron       4.0000000 magnetization 
 augmentation part       -0.2417482 magnetization 

 Broyden mixing:
  rms(total) = 0.16886E+00    rms(broyden)= 0.16886E+00
  rms(prec ) = 0.24867E+00
  weight for this iteration     100.00

 eigenvalues of (default mixing * dielectric matrix)
  average eigenvalue GAMMA=   2.2456
  2.2456

 Free energy of the ion-electron system (eV)
  ---------------------------------------------------
  alpha Z        PSCENC =         2.50260188
  Ewald energy   TEWEN  =      -139.91310605
  -Hartree energ DENC   =        -0.37106065
  -exchange      EXHF   =         0.00000000
  -V(xc)+E(xc)   XCENC  =        -8.58261869
  PAW double counting   =       183.85669199     -166.27267665
  entropy T*S    EENTRO =        -0.00084462
  eigenvalues    EBANDS =        20.85733018
  atomic energy  EATOM  =       103.06562707
  Solvation  Ediel_sol  =         0.00000000
  ---------------------------------------------------
  free energy    TOTEN  =        -4.85805554 eV

  energy without entropy =       -4.85721092  energy(sigma->0) =       -4.85763323


--------------------------------------------------------------------------------------------------------




--------------------------------------- Iteration      1(   7)  ---------------------------------------


    POTLOK:  cpu time    0.0110: real time    0.0250
    SETDIJ:  cpu time    0.1610: real time    0.1625
     EDDAV:  cpu time    0.1630: real time    0.1631
       DOS:  cpu time    0.0010: real time    0.0013
    CHARGE:  cpu time    0.0120: real time    0.0118
    MIXING:  cpu time    0.0000: real time    0.0008
    --------------------------------------------
      LOOP:  cpu time    0.3489: real time    0.3645

 eigenvalue-minimisations  :   976
 total energy-change (2. order) : 0.7077634E-02  (-0.7108320E-03)
 number of electron       4.0000000 magnetization 
 augmentation part       -0.2444908 magnetization 

 Broyden mixing:
  rms(total) = 0.13889E-01    rms(broyden)= 0.13889E-01
  rms(prec ) = 0.18689E-01
  weight for this iteration     100.00

 eigenvalues of (default mixing * dielectric matrix)
  average eigenvalue GAMMA=   2.4612
  2.4612  2.4612

 Free energy of the ion-electron system (eV)
  ---------------------------------------------------
  alpha Z        PSCENC =         2.50260188
  Ewald energy   TEWEN  =      -139.91310605
  -Hartree energ DENC   =        -0.31561889
  -exchange      EXHF   =         0.00000000
  -V(xc)+E(xc)   XCENC  =        -8.53862292
  PAW double counting   =       375.82227832     -358.25532812
  entropy T*S    EENTRO =        -0.00087068
  eigenvalues    EBANDS =        20.78206148
  atomic energy  EATOM  =       103.06562707
  Solvation  Ediel_sol  =         0.00000000
  ---------------------------------------------------
  free energy    TOTEN  =        -4.85097790 eV

  energy without entropy =       -4.85010723  energy(sigma->0) =       -4.85054257


--------------------------------------------------------------------------------------------------------




--------------------------------------- Iteration      1(   8)  ---------------------------------------


    POTLOK:  cpu time    0.0110: real time    0.0202
    SETDIJ:  cpu time    0.1620: real time    0.1623
     EDDAV:  cpu time    0.2150: real time    0.2159
       DOS:  cpu time    0.0020: real time    0.0013
    CHARGE:  cpu time    0.0110: real time    0.0115
    MIXING:  cpu time    0.0010: real time    0.0007
    --------------------------------------------
      LOOP:  cpu time    0.4009: real time    0.4119

 eigenvalue-minimisations  :  1256
 total energy-change (2. order) : 0.2665161E-04  (-0.3047323E-05)
 number of electron       4.0000000 magnetization 
 augmentation part       -0.2445813 magnetization 

 Broyden mixing:
  rms(total) = 0.98557E-03    rms(broyden)= 0.98540E-03
  rms(prec ) = 0.18431E-02
  weight for this iteration     100.00

 eigenvalues of (default mixing * dielectric matrix)
  average eigenvalue GAMMA=   2.0201
  0.9845  2.4097  2.6660

 Free energy of the ion-electron system (eV)
  ---------------------------------------------------
  alpha Z        PSCENC =         2.50260188
  Ewald energy   TEWEN  =      -139.91310605
  -Hartree energ DENC   =        -0.31752368
  -exchange      EXHF   =         0.00000000
  -V(xc)+E(xc)   XCENC  =        -8.53362798
  PAW double counting   =       359.97266474     -342.41246168
  entropy T*S    EENTRO =        -0.00087154
  eigenvalues    EBANDS =        20.78574598
  atomic energy  EATOM  =       103.06562707
  Solvation  Ediel_sol  =         0.00000000
  ---------------------------------------------------
  free energy    TOTEN  =        -4.85095125 eV

  energy without entropy =       -4.85007971  energy(sigma->0) =       -4.85051548


--------------------------------------------------------------------------------------------------------




--------------------------------------- Iteration      1(   9)  ---------------------------------------


    POTLOK:  cpu time    0.0100: real time    0.0181
    SETDIJ:  cpu time    0.1620: real time    0.1621
     EDDAV:  cpu time    0.1730: real time    0.1725
       DOS:  cpu time    0.0010: real time    0.0013
    --------------------------------------------
      LOOP:  cpu time    0.3459: real time    0.3539

 eigenvalue-minimisations  :  1024
 total energy-change (2. order) :-0.4597705E-06  (-0.4176292E-07)
 number of electron       4.0000000 magnetization 
 augmentation part       -0.2445813 magnetization 

 Free energy of the ion-electron system (eV)
  ---------------------------------------------------
  alpha Z        PSCENC =         2.50260188
  Ewald energy   TEWEN  =      -139.91310605
  -Hartree energ DENC   =        -0.31761341
  -exchange      EXHF   =         0.00000000
  -V(xc)+E(xc)   XCENC  =        -8.53305862
  PAW double counting   =       358.92531697     -341.36560027
  entropy T*S    EENTRO =        -0.00087178
  eigenvalues    EBANDS =        20.78575249
  atomic energy  EATOM  =       103.06562707
  Solvation  Ediel_sol  =         0.00000000
  ---------------------------------------------------
  free energy    TOTEN  =        -4.85095171 eV

  energy without entropy =       -4.85007994  energy(sigma->0) =       -4.85051582


--------------------------------------------------------------------------------------------------------




 average (electrostatic) potential at core
  the test charge radii are     0.9892
  (the norm of the test charge is              1.0000)
       1 -78.8642
 
 
 
 E-fermi :  11.0287     XC(G=0): -11.4940     alpha+bet :-17.8307

 Fermi energy:        11.0287095052

 k-point     1 :       0.0000    0.0000    0.0000
  band No.  band energies     occupation 
      1      -3.9728      2.00000
      2      23.5557      0.00000
      3      23.5557      0.00000
      4      23.5557      0.00000
      5      23.9734      0.00000
      6      23.9734      0.00000
      7      23.9734      0.00000
      8      27.8446      0.00000

 k-point     2 :       0.0909    0.0000    0.0000
  band No.  band energies     occupation 
      1      -3.7050      2.00000
      2      20.5420      0.00000
      3      21.5201      0.00000
      4      23.1080      0.00000
      5      23.1417      0.00000
      6      25.2299      0.00000
      7      26.4553      0.00000
      8      26.6359      0.00000

 k-point     3 :       0.1818    0.0000    0.0000
  band No.  band energies     occupation 
      1      -2.9036      2.00000
      2      16.4914      0.00000
      3      19.7389      0.00000
      4      21.6140      0.00000
      5      22.0672      0.00000
      6      24.0885      0.00000
      7      27.5888      0.00000
      8      27.9320      0.00000

 k-point     4 :       0.2727    0.0000    0.0000
  band No.  band energies     occupation 
      1      -1.5748      2.00000
      2      12.4611      0.00000
      3      18.4073      0.00000
      4      20.2412      0.00000
      5      20.9915      0.00000
      6      22.8650      0.00000
      7      28.8415      0.00000
      8      29.1572      0.00000

 k-point     5 :       0.3636    0.0000    0.0000
  band No.  band energies     occupation 
      1       0.2712      2.00000
      2       8.7505      2.00000
      3      17.5223      0.00000
      4      19.2693      0.00000
      5      20.1889      0.00000
      6      21.9954      0.00000
      7      30.2354      0.00000
      8      30.9754      0.00000

 k-point     6 :       0.4545    0.0000    0.0000
  band No.  band energies     occupation 
      1       2.6203      2.00000
      2       5.4559      2.00000
      3      17.0806      0.00000
      4      18.7738      0.00000
      5      19.7700      0.00000
      6      21.5416      0.00000
      7      31.8165      0.00000
      8      32.7033      0.00000

 k-point     7 :       0.0909    0.0909    0.0000
  band No.  band energies     occupation 
      1      -3.1703      2.00000
      2      18.4939      0.00000
      3      18.8408      0.00000
      4      21.0706      0.00000
      5      23.8790      0.00000
      6      25.1858      0.00000
      7      26.4388      0.00000
      8      27.6735      0.00000

 k-point     8 :       0.1818    0.0909   -0.0000
  band No.  band energies     occupation 
      1      -2.1053      2.00000
      2      14.6167      0.00000
      3      17.0759      0.00000
      4      19.6261      0.00000
      5      23.1282      0.00000
      6      24.6891      0.00000
      7      27.0036      0.00000
      8      29.5749      0.00000

 k-point     9 :       0.2727    0.0909    0.0000
  band No.  band energies     occupation 
      1      -0.5178      2.00000
      2      10.7422      2.00000
      3      15.9069      0.00000
      4      18.5177      0.00000
      5      22.1313      0.00000
      6      24.2199      0.00000
      7      27.9338      0.00000
      8      31.5407      0.00000

 k-point    10 :       0.3636    0.0909    0.0000
  band No.  band energies     occupation 
      1       1.5798      2.00000
      2       7.2373      2.00000
      3      15.1997      0.00000
      4      17.8328      0.00000
      5      21.4695      0.00000
      6      23.7695      0.00000
      7      29.5404      0.00000
      8      32.7110      0.00000

 k-point    11 :       0.4545    0.0909    0.0000
  band No.  band energies     occupation 
      1       4.1374      2.00000
      2       4.2066      2.00000
      3      14.9629      0.00000
      4      17.6020      0.00000
      5      21.2425      0.00000
      6      23.5973      0.00000
      7      31.2270      0.00000
      8      31.7974      0.00000

 k-point    12 :       0.1818    0.1818    0.0000
  band No.  band energies     occupation 
      1      -0.7815      2.00000
      2      13.1365      0.00000
      3      13.2136      0.00000
      4      18.3526      0.00000
      5      23.8876      0.00000
      6      24.5339      0.00000
      7      28.8658      0.00000
      8      29.8572      0.00000

 k-point    13 :       0.2727    0.1818    0.0000
  band No.  band energies     occupation 
      1       1.0576      2.00000
      2       9.4986      2.00000
      3      12.1998      0.00000
      4      17.4642      0.00000
      5      23.4045      0.00000
      6      25.5174      0.00000
      7      28.9705      0.00000
      8      31.8340      0.00000

 k-point    14 :       0.3636    0.1818    0.0000
  band No.  band energies     occupation 
      1       3.3979      2.00000
      2       6.2211      2.00000
      3      11.7087      0.00000
      4      17.0089      0.00000
      5      22.9934      0.00000
      6      26.5083      0.00000
      7      29.2652      0.00000
      8      31.3215      0.00000

 k-point    15 :       0.2727    0.2727   -0.0000
  band No.  band energies     occupation 
      1       3.1394      2.00000
      2       8.7413      2.00000
      3       8.7532      2.00000
      4      16.8023      0.00000
      5      24.8946      0.00000
      6      25.4753      0.00000
      7      29.6389      0.00000
      8      32.2189      0.00000

 k-point    16 :       0.3636    0.2727    0.0000
  band No.  band energies     occupation 
      1       5.7005      2.00000
      2       5.7212      2.00000
      3       8.4958      2.00000
      4      16.5766      0.00000
      5      24.9511      0.00000
      6      26.9735      0.00000
      7      27.8610      0.00000
      8      33.0894      0.00000

 k-point    17 :       0.0909    0.0909    0.0909
  band No.  band energies     occupation 
      1      -2.3710      2.00000
      2      16.6416      0.00000
      3      17.1542      0.00000
      4      17.1542      0.00000
      5      26.0566      0.00000
      6      26.0566      0.00000
      7      27.6924      0.00000
      8      27.6924      0.00000

 k-point    18 :       0.1818    0.0909    0.0909
  band No.  band energies     occupation 
      1      -1.0456      2.00000
      2      12.9532      0.00000
      3      15.4393      0.00000
      4      15.7512      0.00000
      5      25.7616      0.00000
      6      26.2342      0.00000
      7      29.0345      0.00000
      8      29.1812      0.00000

 k-point    19 :       0.2727    0.0909    0.0909
  band No.  band energies     occupation 
      1       0.7959      2.00000
      2       9.2547      2.00000
      3      14.5024      0.00000
      4      14.7845      0.00000
      5      25.2581      0.00000
      6      25.6027      0.00000
      7      30.6319      0.00000
      8      31.1263      0.00000

 k-point    20 :       0.3636    0.0909    0.0909
  band No.  band energies     occupation 
      1       3.1397      2.00000
      2       5.9683      2.00000
      3      14.0323      0.00000
      4      14.2947      0.00000
      5      24.9341      0.00000
      6      25.2358      0.00000
      7      32.1240      0.00000
      8      32.9379      0.00000

 k-point    21 :      -0.0909    0.0909    0.0909
  band No.  band energies     occupation 
      1      -3.4375      2.00000
      2      19.9379      0.00000
      3      19.9379      0.00000
      4      21.6867      0.00000
      5      23.9264      0.00000
      6      24.4985      0.00000
      7      26.2781      0.00000
      8      26.2781      0.00000

 k-point    22 :       0.1818    0.1818    0.0909
  band No.  band energies     occupation 
      1       0.5340      2.00000
      2      11.7138      0.00000
      3      11.7630      0.00000
      4      14.4284      0.00000
      5      26.9529      0.00000
      6      27.7197      0.00000
      7      29.8697      0.00000
      8      30.6542      0.00000

 k-point    23 :       0.2727    0.1818    0.0909
  band No.  band energies     occupation 
      1       2.6217      2.00000
      2       8.2527      2.00000
      3      11.0003      1.57823
      4      13.7108      0.00000
      5      26.9713      0.00000
      6      28.3503      0.00000
      7      30.9479      0.00000
      8      32.5468      0.00000

 k-point    24 :       0.3636    0.1818    0.0909
  band No.  band energies     occupation 
      1       5.1840      2.00000
      2       5.2197      2.00000
      3      10.7534      2.00000
      4      13.4698      0.00000
      5      26.8503      0.00000
      6      28.5737      0.00000
      7      31.8506      0.00000
      8      32.8399      0.00000

 k-point    25 :      -0.1818    0.1818    0.0909
  band No.  band energies     occupation 
      1      -2.6371      2.00000
      2      16.6220      0.00000
      3      18.1460      0.00000
      4      20.7095      0.00000
      5      22.7191      0.00000
      6      23.6136      0.00000
      7      26.4831      0.00000
      8      28.7750      0.00000

 k-point    26 :       0.2727    0.2727    0.0909
  band No.  band energies     occupation 
      1       4.9457      2.00000
      2       7.7458      2.00000
      3       7.7521      2.00000
      4      13.2332      0.00000
      5      28.4006      0.00000
      6      29.3924      0.00000
      7      31.1372      0.00000
      8      33.5269      0.00000

 k-point    27 :      -0.2727    0.2727    0.0909
  band No.  band energies     occupation 
      1      -1.3100      2.00000
      2      12.6830      0.00000
      3      16.7655      0.00000
      4      19.5437      0.00000
      5      22.3481      0.00000
      6      22.9858      0.00000
      7      26.1995      0.00000
      8      32.0309      0.00000

 k-point    28 :      -0.1818    0.2727    0.0909
  band No.  band energies     occupation 
      1      -1.5747      2.00000
      2      14.9253      0.00000
      3      15.0203      0.00000
      4      20.2333      0.00000
      5      21.4599      0.00000
      6      23.2749      0.00000
      7      28.2632      0.00000
      8      29.0794      0.00000

 k-point    29 :      -0.3636    0.3636    0.0909
  band No.  band energies     occupation 
      1       0.5335      2.00000
      2       8.9950      2.00000
      3      15.8376      0.00000
      4      18.6418      0.00000
      5      21.4330      0.00000
      6      23.1737      0.00000
      7      26.7857      0.00000
      8      32.3998      0.00000

 k-point    30 :      -0.2727    0.3636    0.0909
  band No.  band energies     occupation 
      1       0.0085      2.00000
      2      11.2086      0.00000
      3      13.7742      0.00000
      4      19.5112      0.00000
      5      21.6359      0.00000
      6      22.8459      0.00000
      7      27.8932      0.00000
      8      31.1961      0.00000

 k-point    31 :      -0.4545    0.4545    0.0909
  band No.  band energies     occupation 
      1       2.8793      2.00000
      2       5.7095      2.00000
      3      15.3716      0.00000
      4      18.1741      0.00000
      5      20.9639      0.00000
      6      23.0916      0.00000
      7      28.3743      0.00000
      8      30.6529      0.00000

 k-point    32 :      -0.3636    0.4545    0.0909
  band No.  band energies     occupation 
      1       2.1003      2.00000
      2       7.7351      2.00000
      3      13.0487      0.00000
      4      18.8691      0.00000
      5      21.3018      0.00000
      6      23.9547      0.00000
      7      27.2926      0.00000
      8      30.2815      0.00000

 k-point    33 :      -0.2727    0.4545    0.0909
  band No.  band energies     occupation 
      1       1.8401      2.00000
      2      10.2129      2.00000
      3      10.2213      2.00000
      4      19.8494      0.00000
      5      21.6991      0.00000
      6      22.3682      0.00000
      7      28.5152      0.00000
      8      31.1858      0.00000

 k-point    34 :      -0.4545   -0.4545    0.0909
  band No.  band energies     occupation 
      1       4.6595      2.00000
      2       4.7087      2.00000
      3      12.8063      0.00000
      4      18.6456      0.00000
      5      21.1103      0.00000
      6      24.8666      0.00000
      7      26.9850      0.00000
      8      29.2642      0.00000

 k-point    35 :      -0.3636   -0.4545    0.0909
  band No.  band energies     occupation 
      1       4.1697      2.00000
      2       6.9753      2.00000
      3       9.7187      2.00000
      4      19.6299      0.00000
      5      21.6528      0.00000
      6      23.7405      0.00000
      7      26.1009      0.00000
      8      31.9252      0.00000

 k-point    36 :      -0.3636   -0.3636    0.0909
  band No.  band energies     occupation 
      1       6.7202      2.00000
      2       6.7202      2.00000
      3       6.7241      2.00000
      4      19.6811      0.00000
      5      23.5409      0.00000
      6      23.6110      0.00000
      7      23.6110      0.00000
      8      35.0824      0.00000

 k-point    37 :       0.1818    0.1818    0.1818
  band No.  band energies     occupation 
      1       2.3623      2.00000
      2      10.7287      2.00000
      3      10.7766      2.00000
      4      10.7766      2.00000
      5      29.7513      0.00000
      6      29.7513      0.00000
      7      31.4297      0.00000
      8      31.4297      0.00000

 k-point    38 :       0.2727    0.1818    0.1818
  band No.  band energies     occupation 
      1       4.6897      2.00000
      2       7.4984      2.00000
      3      10.2539      2.00000
      4      10.2795      2.00000
      5      30.3611      0.00000
      6      30.5721      0.00000
      7      32.8001      0.00000
      8      33.2630      0.00000

 k-point    39 :      -0.1818    0.1818    0.1818
  band No.  band energies     occupation 
      1      -1.8397      2.00000
      2      16.3210      0.00000
      3      16.3210      0.00000
      4      18.7252      0.00000
      5      19.7139      0.00000
      6      26.0571      0.00000
      7      28.0608      0.00000
      8      28.0608      0.00000

 k-point    40 :       0.2727    0.2727    0.1818
  band No.  band energies     occupation 
      1       7.2450      2.00000
      2       7.2450      2.00000
      3       7.2462      2.00000
      4      10.0200      2.00000
      5      31.6209      0.00000
      6      32.5827      0.00000
      7      32.5827      0.00000
      8      34.4572      0.00000

 k-point    41 :      -0.2727    0.2727    0.1818
  band No.  band energies     occupation 
      1      -0.5178      2.00000
      2      13.2880      0.00000
      3      14.9159      0.00000
      4      17.7053      0.00000
      5      19.3941      0.00000
      6      25.5612      0.00000
      7      27.9724      0.00000
      8      30.8089      0.00000

 k-point    42 :      -0.3636    0.3636    0.1818
  band No.  band energies     occupation 
      1       1.3182      2.00000
      2       9.7162      2.00000
      3      13.9718      0.00000
      4      16.7672      0.00000
      5      20.7604      0.00000
      6      24.7253      0.00000
      7      26.8045      0.00000
      8      29.8186      0.00000

 k-point    43 :      -0.2727    0.3636    0.1818
  band No.  band energies     occupation 
      1       1.0569      2.00000
      2      12.0666      0.00000
      3      12.0759      0.00000
      4      17.8852      0.00000
      5      18.3989      0.00000
      6      25.3773      0.00000
      7      27.8453      0.00000
      8      30.5486      0.00000

 k-point    44 :      -0.4545    0.4545    0.1818
  band No.  band energies     occupation 
      1       3.6534      2.00000
      2       6.4660      2.00000
      3      13.4985      0.00000
      4      16.2760      0.00000
      5      22.4967      0.00000
      6      24.2773      0.00000
      7      25.1636      0.00000
      8      28.8771      0.00000

 k-point    45 :      -0.3636    0.4545    0.1818
  band No.  band energies     occupation 
      1       3.1364      2.00000
      2       8.7149      2.00000
      3      11.3366      0.00000
      4      17.3900      0.00000
      5      19.8688      0.00000
      6      24.3327      0.00000
      7      25.6683      0.00000
      8      31.1167      0.00000

 k-point    46 :      -0.4545   -0.4545    0.1818
  band No.  band energies     occupation 
      1       5.6926      2.00000
      2       5.7092      2.00000
      3      11.0911      0.07767
      4      17.1552      0.00000
      5      21.5910      0.00000
      6      22.6383      0.00000
      7      25.0635      0.00000
      8      31.0786      0.00000

 k-point    47 :      -0.3636   -0.4545    0.1818
  band No.  band energies     occupation 
      1       5.4454      2.00000
      2       8.2020      2.00000
      3       8.2229      2.00000
      4      19.0385      0.00000
      5      19.7018      0.00000
      6      21.9610      0.00000
      7      25.0227      0.00000
      8      34.0896      0.00000

 k-point    48 :      -0.2727    0.2727    0.2727
  band No.  band energies     occupation 
      1       0.7952      2.00000
      2      13.4968      0.00000
      3      13.4968      0.00000
      4      16.1023      0.00000
      5      16.4919      0.00000
      6      27.4862      0.00000
      7      28.6333      0.00000
      8      30.3335      0.00000

 k-point    49 :      -0.3636    0.3636    0.2727
  band No.  band energies     occupation 
      1       2.6180      2.00000
      2      10.8435      2.00000
      3      12.5461      0.00000
      4      15.2777      0.00000
      5      16.9536      0.00000
      6      24.4275      0.00000
      7      28.4752      0.00000
      8      31.1526      0.00000

 k-point    50 :      -0.4545    0.4545    0.2727
  band No.  band energies     occupation 
      1       4.9329      2.00000
      2       7.7073      2.00000
      3      12.0698      0.00000
      4      14.7754      0.00000
      5      18.9394      0.00000
      6      21.5415      0.00000
      7      28.0726      0.00000
      8      31.2664      0.00000

 k-point    51 :      -0.3636    0.4545    0.2727
  band No.  band energies     occupation 
      1       4.6763      2.00000
      2      10.0943      2.00000
      3      10.1127      2.00000
      4      16.0866      0.00000
      5      16.3261      0.00000
      6      21.2978      0.00000
      7      28.8708      0.00000
      8      33.4627      0.00000

 k-point    52 :      -0.4545   -0.4545    0.2727
  band No.  band energies     occupation 
      1       7.1946      2.00000
      2       7.2092      2.00000
      3       9.8562      2.00000
      4      15.9487      0.00000
      5      18.3123      0.00000
      6      18.6875      0.00000
      7      28.7549      0.00000
      8      34.0831      0.00000

 k-point    53 :      -0.3636    0.3636    0.3636
  band No.  band energies     occupation 
      1       4.4193      2.00000
      2      11.5915      0.00000
      3      11.5915      0.00000
      4      14.2067      0.00000
      5      14.3291      0.00000
      6      21.0686      0.00000
      7      32.1179      0.00000
      8      33.2455      0.00000

 k-point    54 :      -0.4545    0.4545    0.3636
  band No.  band energies     occupation 
      1       6.6952      2.00000
      2       9.3602      2.00000
      3      11.1140      0.01588
      4      13.7506      0.00000
      5      15.4654      0.00000
      6      18.0202      0.00000
      7      32.2026      0.00000
      8      34.1982      0.00000

 k-point    55 :      -0.4545   -0.4545    0.3636
  band No.  band energies     occupation 
      1       9.0996      2.00000
      2       9.0996      2.00000
      3       9.1356      2.00000
      4      15.0876      0.00000
      5      15.2836      0.00000
      6      15.2836      0.00000
      7      32.7850      0.00000
      8      36.4325      0.00000

 k-point    56 :      -0.4545    0.4545    0.4545
  band No.  band energies     occupation 
      1       8.8630      2.00000
      2      10.6358      2.00000
      3      10.6358      2.00000
      4      13.2189      0.00000
      5      13.2455      0.00000
      6      14.9690      0.00000
      7      35.9430      0.00000
      8      36.2336      0.00000


--------------------------------------------------------------------------------------------------------


 soft charge-density along one line, spin component           1
         0         1         2         3         4         5         6         7         8         9
 total charge-density along one line
 
 pseudopotential strength for first ion, spin component:           1
 17.856  24.909   0.000  -0.000   0.000   0.000  -0.000   0.000
 24.909  34.753   0.000  -0.000   0.000   0.000  -0.000   0.000
  0.000   0.000   4.083  -0.000   0.000   7.604  -0.000   0.000
 -0.000  -0.000  -0.000   4.083  -0.000  -0.000   7.604  -0.000
  0.000   0.000   0.000  -0.000   4.083   0.000  -0.000   7.604
  0.000   0.000   7.604  -0.000   0.000  14.175  -0.000   0.000
 -0.000  -0.000  -0.000   7.604  -0.000  -0.000  14.175  -0.000
  0.000   0.000   0.000  -0.000   7.604   0.000  -0.000  14.175
 total augmentation occupancy for first ion, spin component:           1
  5.458  -2.334   0.000   0.000   0.000   0.000   0.000   0.000
 -2.334   1.419   0.000   0.000   0.000   0.000   0.000   0.000
  0.000   0.000   2.597   0.000  -0.000  -0.637  -0.000   0.000
  0.000   0.000   0.000   2.597  -0.000   0.000  -0.637  -0.000
  0.000   0.000   0.000   0.000   2.597   0.000   0.000  -0.637
  0.000   0.000  -0.637   0.000  -0.000   0.171   0.000  -0.000
  0.000   0.000  -0.000  -0.637   0.000   0.000   0.171   0.000
  0.000   0.000   0.000  -0.000  -0.637   0.000   0.000   0.171


------------------------ aborting loop because EDIFF is reached ----------------------------------------


    CHARGE:  cpu time    0.0110: real time    0.0115
    FORLOC:  cpu time    0.0000: real time    0.0005
    FORNL :  cpu time    0.0360: real time    0.0362
    STRESS:  cpu time    0.2010: real time    0.2013
    FORCOR:  cpu time    0.0100: real time    0.0094
    FORHAR:  cpu time    0.0010: real time    0.0019
    MIXING:  cpu time    0.0000: real time    0.0005
    OFIELD:  cpu time    0.0000: real time    0.0002

  FORCE on cell =-STRESS in cart. coord.  units (eV):
  Direction    XX          YY          ZZ          XY          YZ          ZX
  --------------------------------------------------------------------------------------
  Alpha Z     2.50260     2.50260     2.50260
  Ewald     -46.63770   -46.63770   -46.63770     0.00000     0.00000     0.00000
  Hartree     0.10587     0.10587     0.10587    -0.00000     0.00000     0.00000
  E(xc)     -12.95195   -12.95195   -12.95195     0.00000    -0.00000    -0.00000
  Local      -4.44107    -4.44107    -4.44107    -0.00001     0.00001     0.00001
  n-local    39.02131    38.57351    38.54245    -1.49187    -1.35528     0.63645
  augment    -6.22012    -6.22012    -6.22012     0.00001    -0.00001    -0.00001
  Kinetic    25.53389    36.17419    27.45680    13.39837    12.68105    -5.66646
  Fock        0.00000     0.00000     0.00000     0.00000     0.00000     0.00000
  -------------------------------------------------------------------------------------
  Total       0.79167     0.79167     0.79167    -0.00000     0.00000     0.00000
  in kB      94.29613    94.29613    94.29613    -0.00000     0.00000     0.00000
  external pressure =       94.30 kB  Pullay stress =        0.00 kB


 VOLUME and BASIS-vectors are now :
 -----------------------------------------------------------------------------
  energy-cutoff  :      350.00
  volume of cell :       13.45
      direct lattice vectors                 reciprocal lattice vectors
     1.498192374  1.498192374  1.498192374     0.333735513  0.333735513  0.000000000
     1.498192374 -1.498192374 -1.498192374     0.333735513  0.000000000 -0.333735513
    -1.498192374  1.498192374 -1.498192374     0.000000000  0.333735513 -0.333735513

  length of vectors
     2.594945311  2.594945311  2.594945311     0.471973288  0.471973288  0.471973288


 FORCES acting on ions
    electron-ion (+dipol)            ewald-force                    non-local-force                 convergence-correction
 -----------------------------------------------------------------------------------------------
   0.830E-15 -.204E-16 0.498E-15   0.154E-15 -.186E-15 -.710E-16   -.165E-23 -.165E-23 0.000E+00   -.457E-17 -.429E-17 -.391E-17
 -----------------------------------------------------------------------------------------------
   0.830E-15 -.204E-16 0.498E-15   0.154E-15 -.186E-15 -.710E-16   -.165E-23 -.165E-23 0.000E+00   -.457E-17 -.429E-17 -.391E-17
 
 
 POSITION                                       TOTAL-FORCE (eV/Angst)
 -----------------------------------------------------------------------------------
      0.00000      0.00000      0.00000         0.000000      0.000000     -0.000000
 -----------------------------------------------------------------------------------
    total drift:                                0.000000     -0.000000      0.000000


--------------------------------------------------------------------------------------------------------



  FREE ENERGIE OF THE ION-ELECTRON SYSTEM (eV)
  ---------------------------------------------------
  free  energy   TOTEN  =        -4.85095171 eV

  energy  without entropy=       -4.85007994  energy(sigma->0) =       -4.85051582
 


--------------------------------------------------------------------------------------------------------


    POTLOK:  cpu time    0.1740: real time    0.1800


--------------------------------------------------------------------------------------------------------




--------------------------------------------------------------------------------------------------------


  
 reached required accuracy - stopping structural energy minimisation
     LOOP+:  cpu time    3.2235: real time    3.3825
    4ORBIT:  cpu time    0.0000: real time    0.0000

 total amount of memory used by VASP MPI-rank0    32983. kBytes
=======================================================================

   base      :      30000. kBytes
   nonl-proj :        763. kBytes
   fftplans  :       1246. kBytes
   grid      :        577. kBytes
   one-center:          3. kBytes
   wavefun   :        394. kBytes
 
  
  
 General timing and accounting informations for this job:
 ========================================================
  
                  Total CPU time used (sec):        3.718
                            User time (sec):        3.562
                          System time (sec):        0.156
                         Elapsed time (sec):        4.409
  
                   Maximum memory used (kb):       50704.
                   Average memory used (kb):          N/A
  
                          Minor page faults:         8825
                          Major page faults:            1
                 Voluntary context switches:         9671
