<?xml version="1.0" encoding="ISO-8859-1"?>
<modeling>
 <generator>
  <i name="program" type="string">vasp </i>
  <i name="version" type="string">6.2.0  </i>
  <i name="subversion" type="string">18Jan21 (build Aug 12 2022 13:00:08) complex                          parallel </i>
  <i name="platform" type="string">LinuxIFC </i>
  <i name="date" type="string">2024 11 05 </i>
  <i name="time" type="string">05:28:46 </i>
 </generator>
 <incar>
  <i type="int" name="ISTART">     0</i>
  <i type="string" name="PREC">Accurate      (Accurate strictly avoids</i>
  <i type="logical" name="ADDGRID"> T  </i>
  <i type="int" name="ISPIN">     1</i>
  <i type="int" name="NELM">    90</i>
  <i type="int" name="NELMIN">     6</i>
  <i type="int" name="IBRION">     2</i>
  <i name="EDIFF">      0.00000100</i>
  <i name="EDIFFG">     -0.00200000</i>
  <i type="int" name="NSW">   100</i>
  <i type="int" name="ISIF">     2</i>
  <i type="int" name="ISYM">     2</i>
  <i name="ENCUT">    350.00000000</i>
  <i type="logical" name="LREAL"> F  </i>
  <i type="int" name="ISMEAR">     0</i>
  <i name="SIGMA">      0.05000000</i>
  <i type="logical" name="LWAVE"> F  </i>
  <i type="logical" name="LCHARG"> F  </i>
  <i type="logical" name="LASPH"> T  </i>
 </incar>
 <primitive_cell>
  <structure name="primitive_cell" >
   <crystal>
    <varray name="basis" >
     <v>       1.49819237       1.49819237       1.49819237 </v>
     <v>       1.49819237      -1.49819237      -1.49819237 </v>
     <v>      -1.49819237       1.49819237      -1.49819237 </v>
    </varray>
    <i name="volume">     13.45125288 </i>
    <varray name="rec_basis" >
     <v>       0.33373551       0.33373551       0.00000000 </v>
     <v>       0.33373551       0.00000000      -0.33373551 </v>
     <v>       0.00000000       0.33373551      -0.33373551 </v>
    </varray>
   </crystal>
   <varray name="positions" >
    <v>       0.00000000       0.00000000       0.00000000 </v>
   </varray>
  </structure>
  <varray name="primitive_index" >
   <v type="int" >        1 </v>
  </varray>
 </primitive_cell>
 <kpoints>
  <generation param="Monkhorst-Pack">
   <v type="int" name="divisions">      11       11       11 </v>
   <v name="usershift">      0.00000000       0.00000000       0.00000000 </v>
   <v name="genvec1">      0.09090909       0.00000000       0.00000000 </v>
   <v name="genvec2">      0.00000000       0.09090909       0.00000000 </v>
   <v name="genvec3">      0.00000000       0.00000000       0.09090909 </v>
   <v name="shift">      0.00000000       0.00000000       0.00000000 </v>
  </generation>
  <varray name="kpointlist" >
   <v>       0.00000000       0.00000000       0.00000000 </v>
   <v>       0.09090909       0.00000000       0.00000000 </v>
   <v>       0.18181818       0.00000000       0.00000000 </v>
   <v>       0.27272727       0.00000000       0.00000000 </v>
   <v>       0.36363636       0.00000000       0.00000000 </v>
   <v>       0.45454545       0.00000000       0.00000000 </v>
   <v>       0.09090909       0.09090909       0.00000000 </v>
   <v>       0.18181818       0.09090909      -0.00000000 </v>
   <v>       0.27272727       0.09090909       0.00000000 </v>
   <v>       0.36363636       0.09090909       0.00000000 </v>
   <v>       0.45454545       0.09090909       0.00000000 </v>
   <v>       0.18181818       0.18181818       0.00000000 </v>
   <v>       0.27272727       0.18181818       0.00000000 </v>
   <v>       0.36363636       0.18181818       0.00000000 </v>
   <v>       0.27272727       0.27272727      -0.00000000 </v>
   <v>       0.36363636       0.27272727       0.00000000 </v>
   <v>       0.09090909       0.09090909       0.09090909 </v>
   <v>       0.18181818       0.09090909       0.09090909 </v>
   <v>       0.27272727       0.09090909       0.09090909 </v>
   <v>       0.36363636       0.09090909       0.09090909 </v>
   <v>      -0.09090909       0.09090909       0.09090909 </v>
   <v>       0.18181818       0.18181818       0.09090909 </v>
   <v>       0.27272727       0.18181818       0.09090909 </v>
   <v>       0.36363636       0.18181818       0.09090909 </v>
   <v>      -0.18181818       0.18181818       0.09090909 </v>
   <v>       0.27272727       0.27272727       0.09090909 </v>
   <v>      -0.27272727       0.27272727       0.09090909 </v>
   <v>      -0.18181818       0.27272727       0.09090909 </v>
   <v>      -0.36363636       0.36363636       0.09090909 </v>
   <v>      -0.27272727       0.36363636       0.09090909 </v>
   <v>      -0.45454545       0.45454545       0.09090909 </v>
   <v>      -0.36363636       0.45454545       0.09090909 </v>
   <v>      -0.27272727       0.45454545       0.09090909 </v>
   <v>      -0.45454545      -0.45454545       0.09090909 </v>
   <v>      -0.36363636      -0.45454545       0.09090909 </v>
   <v>      -0.36363636      -0.36363636       0.09090909 </v>
   <v>       0.18181818       0.18181818       0.18181818 </v>
   <v>       0.27272727       0.18181818       0.18181818 </v>
   <v>      -0.18181818       0.18181818       0.18181818 </v>
   <v>       0.27272727       0.27272727       0.18181818 </v>
   <v>      -0.27272727       0.27272727       0.18181818 </v>
   <v>      -0.36363636       0.36363636       0.18181818 </v>
   <v>      -0.27272727       0.36363636       0.18181818 </v>
   <v>      -0.45454545       0.45454545       0.18181818 </v>
   <v>      -0.36363636       0.45454545       0.18181818 </v>
   <v>      -0.45454545      -0.45454545       0.18181818 </v>
   <v>      -0.36363636      -0.45454545       0.18181818 </v>
   <v>      -0.27272727       0.27272727       0.27272727 </v>
   <v>      -0.36363636       0.36363636       0.27272727 </v>
   <v>      -0.45454545       0.45454545       0.27272727 </v>
   <v>      -0.36363636       0.45454545       0.27272727 </v>
   <v>      -0.45454545      -0.45454545       0.27272727 </v>
   <v>      -0.36363636       0.36363636       0.36363636 </v>
   <v>      -0.45454545       0.45454545       0.36363636 </v>
   <v>      -0.45454545      -0.45454545       0.36363636 </v>
   <v>      -0.45454545       0.45454545       0.45454545 </v>
  </varray>
  <varray name="weights" >
   <v>       0.00075131 </v>
   <v>       0.00901578 </v>
   <v>       0.00901578 </v>
   <v>       0.00901578 </v>
   <v>       0.00901578 </v>
   <v>       0.00901578 </v>
   <v>       0.01803156 </v>
   <v>       0.03606311 </v>
   <v>       0.03606311 </v>
   <v>       0.03606311 </v>
   <v>       0.01803156 </v>
   <v>       0.01803156 </v>
   <v>       0.03606311 </v>
   <v>       0.03606311 </v>
   <v>       0.01803156 </v>
   <v>       0.01803156 </v>
   <v>       0.00601052 </v>
   <v>       0.01803156 </v>
   <v>       0.01803156 </v>
   <v>       0.01803156 </v>
   <v>       0.00450789 </v>
   <v>       0.01803156 </v>
   <v>       0.03606311 </v>
   <v>       0.01803156 </v>
   <v>       0.01803156 </v>
   <v>       0.01803156 </v>
   <v>       0.01803156 </v>
   <v>       0.01803156 </v>
   <v>       0.01803156 </v>
   <v>       0.03606311 </v>
   <v>       0.01803156 </v>
   <v>       0.03606311 </v>
   <v>       0.01803156 </v>
   <v>       0.01803156 </v>
   <v>       0.03606311 </v>
   <v>       0.00601052 </v>
   <v>       0.00601052 </v>
   <v>       0.01803156 </v>
   <v>       0.00450789 </v>
   <v>       0.00601052 </v>
   <v>       0.01803156 </v>
   <v>       0.01803156 </v>
   <v>       0.01803156 </v>
   <v>       0.01803156 </v>
   <v>       0.03606311 </v>
   <v>       0.01803156 </v>
   <v>       0.01803156 </v>
   <v>       0.00450789 </v>
   <v>       0.01803156 </v>
   <v>       0.01803156 </v>
   <v>       0.01803156 </v>
   <v>       0.01803156 </v>
   <v>       0.00450789 </v>
   <v>       0.01803156 </v>
   <v>       0.00601052 </v>
   <v>       0.00450789 </v>
  </varray>
 </kpoints>
 <parameters>
  <separator name="general" >
   <i type="string" name="SYSTEM">unknown system</i>
   <i type="logical" name="LCOMPAT"> F  </i>
  </separator>
  <separator name="electronic" >
   <i type="string" name="PREC">accura</i>
   <i name="ENMAX">    350.00000000</i>
   <i name="ENAUG">    322.06900000</i>
   <i name="EDIFF">      0.00000100</i>
   <i type="int" name="IALGO">    38</i>
   <i type="int" name="IWAVPR">    11</i>
   <i type="int" name="NBANDS">     8</i>
   <i type="int" name="NBANDSLOW">    -1</i>
   <i type="int" name="NBANDSHIGH">    -1</i>
   <i name="NELECT">      4.00000000</i>
   <i type="int" name="TURBO">     0</i>
   <i type="int" name="IRESTART">     0</i>
   <i type="int" name="NREBOOT">     0</i>
   <i type="int" name="NMIN">     0</i>
   <i name="EREF">      0.00000000</i>
   <separator name="electronic smearing" >
    <i type="int" name="ISMEAR">     0</i>
    <i name="SIGMA">      0.05000000</i>
    <i name="KSPACING">      0.50000000</i>
    <i type="logical" name="KGAMMA"> T  </i>
    <i type="logical" name="KBLOWUP"> T  </i>
   </separator>
   <separator name="electronic projectors" >
    <i type="logical" name="LREAL"> F  </i>
    <v name="ROPT">      0.00000000</v>
    <i type="int" name="LMAXPAW">  -100</i>
    <i type="int" name="LMAXMIX">     2</i>
    <i type="logical" name="NLSPLINE"> F  </i>
   </separator>
   <separator name="electronic startup" >
    <i type="int" name="ISTART">     0</i>
    <i type="int" name="ICHARG">     2</i>
    <i type="int" name="INIWAV">     1</i>
   </separator>
   <separator name="electronic spin" >
    <i type="int" name="ISPIN">     1</i>
    <i type="logical" name="LNONCOLLINEAR"> F  </i>
    <v name="MAGMOM">      1.00000000</v>
    <i name="NUPDOWN">     -1.00000000</i>
    <i type="logical" name="LSORBIT"> F  </i>
    <v name="SAXIS">      0.00000000      0.00000000      1.00000000</v>
    <i type="logical" name="LSPIRAL"> F  </i>
    <v name="QSPIRAL">      0.00000000      0.00000000      0.00000000</v>
    <i type="logical" name="LZEROZ"> F  </i>
   </separator>
   <separator name="electronic exchange-correlation" >
    <i type="logical" name="LASPH"> T  </i>
    <i type="logical" name="LMETAGGA"> F  </i>
   </separator>
   <separator name="electronic convergence" >
    <i type="int" name="NELM">    90</i>
    <i type="int" name="NELMDL">    -5</i>
    <i type="int" name="NELMIN">     6</i>
    <i name="ENINI">    350.00000000</i>
    <separator name="electronic convergence detail" >
     <i type="logical" name="LDIAG"> T  </i>
     <i type="logical" name="LSUBROT"> F  </i>
     <i name="WEIMIN">      0.00100000</i>
     <i name="EBREAK">      0.00000003</i>
     <i name="DEPER">      0.30000000</i>
     <i type="int" name="NRMM">     4</i>
     <i name="TIME">      0.40000000</i>
    </separator>
   </separator>
   <separator name="electronic mixer" >
    <i name="AMIX">      0.40000000</i>
    <i name="BMIX">      1.00000000</i>
    <i name="AMIN">      0.10000000</i>
    <i name="AMIX_MAG">      1.60000000</i>
    <i name="BMIX_MAG">      1.00000000</i>
    <separator name="electronic mixer details" >
     <i type="int" name="IMIX">     4</i>
     <i type="logical" name="MIXFIRST"> F  </i>
     <i type="int" name="MAXMIX">   -45</i>
     <i name="WC">    100.00000000</i>
     <i type="int" name="INIMIX">     1</i>
     <i type="int" name="MIXPRE">     1</i>
     <i type="int" name="MREMOVE">     5</i>
    </separator>
   </separator>
   <separator name="electronic dipolcorrection" >
    <i type="logical" name="LDIPOL"> F  </i>
    <i type="logical" name="LMONO"> F  </i>
    <i type="int" name="IDIPOL">     0</i>
    <i name="EPSILON">      1.00000000</i>
    <v name="DIPOL">   -100.00000000   -100.00000000   -100.00000000</v>
    <i name="EFIELD">      0.00000000</i>
   </separator>
  </separator>
  <separator name="grids" >
   <i type="int" name="NGX">    16</i>
   <i type="int" name="NGY">    16</i>
   <i type="int" name="NGZ">    16</i>
   <i type="int" name="NGXF">    32</i>
   <i type="int" name="NGYF">    32</i>
   <i type="int" name="NGZF">    32</i>
   <i type="logical" name="ADDGRID"> T  </i>
  </separator>
  <separator name="ionic" >
   <i type="int" name="NSW">   100</i>
   <i type="int" name="IBRION">     2</i>
   <i type="int" name="MDALGO">     0</i>
   <i type="int" name="ISIF">     2</i>
   <i name="PSTRESS">      0.00000000</i>
   <i name="EDIFFG">     -0.00200000</i>
   <i type="int" name="NFREE">     1</i>
   <i name="POTIM">      0.50000000</i>
   <i name="SMASS">     -3.00000000</i>
   <i name="SCALEE">      1.00000000</i>
  </separator>
  <separator name="ionic md" >
   <i name="TEBEG">      0.00010000</i>
   <i name="TEEND">      0.00010000</i>
   <i type="int" name="NBLOCK">     1</i>
   <i type="int" name="KBLOCK">   100</i>
   <i type="int" name="NPACO">   256</i>
   <i name="APACO">     16.00000000</i>
  </separator>
  <separator name="symmetry" >
   <i type="int" name="ISYM">     2</i>
   <i name="SYMPREC">      0.00001000</i>
  </separator>
  <separator name="dos" >
   <i type="int" name="LORBIT">     0</i>
   <v name="RWIGS">     -1.00000000</v>
   <i type="int" name="NEDOS">   301</i>
   <i name="EMIN">     10.00000000</i>
   <i name="EMAX">    -10.00000000</i>
   <i name="EFERMI">      0.00000000</i>
  </separator>
  <separator name="writing" >
   <i type="int" name="NWRITE">     2</i>
   <i type="logical" name="LWAVE"> F  </i>
   <i type="logical" name="LDOWNSAMPLE"> F  </i>
   <i type="logical" name="LCHARG"> F  </i>
   <i type="logical" name="LPARD"> F  </i>
   <i type="logical" name="LVTOT"> F  </i>
   <i type="logical" name="LVHAR"> F  </i>
   <i type="logical" name="LELF"> F  </i>
   <i type="logical" name="LOPTICS"> F  </i>
   <v name="STM">      0.00000000      0.00000000      0.00000000      0.00000000      0.00000000      0.00000000      0.00000000</v>
  </separator>
  <separator name="performance" >
   <i type="int" name="NPAR">     4</i>
   <i type="int" name="NSIM">     4</i>
   <i type="int" name="NBLK">    -1</i>
   <i type="logical" name="LPLANE"> T  </i>
   <i type="logical" name="LSCALAPACK"> T  </i>
   <i type="logical" name="LSCAAWARE"> F  </i>
   <i type="logical" name="LSCALU"> F  </i>
   <i type="logical" name="LASYNC"> F  </i>
   <i type="logical" name="LORBITALREAL"> F  </i>
  </separator>
  <separator name="miscellaneous" >
   <i type="int" name="IDIOT">     3</i>
   <i type="int" name="PHON_NSTRUCT">    -1</i>
   <i type="logical" name="LMUSIC"> F  </i>
   <v name="POMASS">     28.08500000</v>
   <v name="DARWINR">      0.00000000</v>
   <v name="DARWINV">      1.00000000</v>
   <i type="logical" name="LCORR"> T  </i>
  </separator>
  <i type="logical" name="GGA_COMPAT"> T  </i>
  <i type="logical" name="LBERRY"> F  </i>
  <i type="int" name="ICORELEVEL">     0</i>
  <i type="logical" name="LDAU"> F  </i>
  <i type="int" name="I_CONSTRAINED_M">     0</i>
  <separator name="electronic exchange-correlation" >
   <i type="string" name="GGA">--</i>
   <i type="int" name="VOSKOWN">     0</i>
   <i type="logical" name="LHFCALC"> F  </i>
   <i type="string" name="PRECFOCK"></i>
   <i type="logical" name="LSYMGRAD"> F  </i>
   <i type="logical" name="LHFONE"> F  </i>
   <i type="logical" name="LRHFCALC"> F  </i>
   <i type="logical" name="LTHOMAS"> F  </i>
   <i type="logical" name="LMODELHF"> F  </i>
   <i type="logical" name="LFOCKACE"> F  </i>
   <i name="ENCUT4O">     -1.00000000</i>
   <i type="int" name="EXXOEP">     0</i>
   <i type="int" name="FOURORBIT">     0</i>
   <i name="AEXX">      0.00000000</i>
   <i name="HFALPHA">      0.00000000</i>
   <i name="MCALPHA">      0.00000000</i>
   <i name="ALDAX">      1.00000000</i>
   <i name="AGGAX">      1.00000000</i>
   <i name="ALDAC">      1.00000000</i>
   <i name="AGGAC">      1.00000000</i>
   <i type="int" name="NKREDX">     1</i>
   <i type="int" name="NKREDY">     1</i>
   <i type="int" name="NKREDZ">     1</i>
   <i type="logical" name="SHIFTRED"> F  </i>
   <i type="logical" name="ODDONLY"> F  </i>
   <i type="logical" name="EVENONLY"> F  </i>
   <i type="int" name="LMAXFOCK">     0</i>
   <i type="int" name="NMAXFOCKAE">     0</i>
   <i type="logical" name="LFOCKAEDFT"> F  </i>
   <i name="HFSCREEN">      0.00000000</i>
   <i name="HFSCREENC">      0.00000000</i>
   <i type="int" name="NBANDSGWLOW">     0</i>
  </separator>
  <separator name="vdW DFT" >
   <i type="logical" name="LUSE_VDW"> F  </i>
   <i name="Zab_VDW">     -0.84910000</i>
   <i name="PARAM1">      0.12340000</i>
   <i name="PARAM2">      1.00000000</i>
   <i name="PARAM3">      0.00000000</i>
  </separator>
  <separator name="model GW" >
   <i type="int" name="MODEL_GW">     0</i>
   <i name="MODEL_EPS0">      8.07075173</i>
   <i name="MODEL_ALPHA">      1.00000000</i>
  </separator>
  <separator name="linear response parameters" >
   <i type="logical" name="LEPSILON"> F  </i>
   <i type="logical" name="LRPA"> F  </i>
   <i type="logical" name="LNABLA"> F  </i>
   <i type="logical" name="LVEL"> F  </i>
   <i type="int" name="KINTER">     0</i>
   <i name="CSHIFT">      0.10000000</i>
   <i name="OMEGAMAX">     -1.00000000</i>
   <i name="DEG_THRESHOLD">      0.00200000</i>
   <i name="RTIME">     -0.10000000</i>
   <i name="WPLASMAI">      0.00000000</i>
   <v name="DFIELD">      0.00000000      0.00000000      0.00000000</v>
   <v name="WPLASMA">      0.00000000      0.00000000      0.00000000      0.00000000      0.00000000      0.00000000      0.00000000      0.00000000      0.00000000</v>
  </separator>
  <separator name="orbital magnetization" >
   <i type="logical" name="NUCIND"> F  </i>
   <v name="MAGPOS">      0.00000000      0.00000000      0.00000000</v>
   <i type="logical" name="LNICSALL"> T  </i>
   <i type="logical" name="ORBITALMAG"> F  </i>
   <i type="logical" name="LMAGBLOCH"> F  </i>
   <i type="logical" name="LCHIMAG"> F  </i>
   <i type="logical" name="LGAUGE"> T  </i>
   <i type="int" name="MAGATOM">     0</i>
   <v name="MAGDIPOL">      0.00000000      0.00000000      0.00000000</v>
   <v name="AVECCONST">      0.00000000      0.00000000      0.00000000</v>
  </separator>
  <separator name="response functions" >
   <i type="logical" name="LFINITE_TEMPERATURE"> F  </i>
   <i type="logical" name="LADDER"> F  </i>
   <i type="logical" name="LRPAFORCE"> F  </i>
   <i type="logical" name="LFXC"> F  </i>
   <i type="logical" name="LHARTREE"> T  </i>
   <i type="int" name="IBSE">     0</i>
   <v type="int" name="KPOINT">    -1     0     0     0</v>
   <i type="logical" name="LTCTC"> F  </i>
   <i type="logical" name="LTCTE"> F  </i>
   <i type="logical" name="LTETE"> F  </i>
   <i type="logical" name="LTRIPLET"> F  </i>
   <i type="logical" name="LFXCEPS"> F  </i>
   <i type="logical" name="LFXHEG"> F  </i>
   <i type="int" name="NATURALO">     2</i>
   <i type="logical" name="LHOLEGF"> F  </i>
   <i type="logical" name="L2ORDER"> F  </i>
   <i type="logical" name="LDMP1"> F  </i>
   <i type="logical" name="LMP2LT"> F  </i>
   <i type="logical" name="LSMP2LT"> F  </i>
   <i type="logical" name="LGWLF"> F  </i>
   <i name="ENCUTGW">     -2.00000000</i>
   <i name="ENCUTGWSOFT">     -2.00000000</i>
   <i name="ENCUTLF">     -1.00000000</i>
   <i type="logical" name="LESF_SPLINES"> F  </i>
   <i type="int" name="LMAXMP2">    -1</i>
   <i name="SCISSOR">      0.00000000</i>
   <i type="int" name="NOMEGA">     0</i>
   <i type="int" name="NOMEGAR">     0</i>
   <i type="int" name="NBANDSGW">    -1</i>
   <i type="int" name="NBANDSO">    -1</i>
   <i type="int" name="NBANDSV">    -1</i>
   <i type="int" name="NELM">    90</i>
   <i type="int" name="NELMHF">     1</i>
   <i type="int" name="DIM">     3</i>
   <i type="int" name="IESPILON">     4</i>
   <i type="int" name="ANTIRES">     0</i>
   <i name="OMEGAMAX">    -30.00000000</i>
   <i name="OMEGAMIN">    -30.00000000</i>
   <i name="OMEGATL">   -200.00000000</i>
   <i type="int" name="OMEGAGRID">     0</i>
   <i name="CSHIFT">     -0.10000000</i>
   <i type="logical" name="LSELFENERGY"> F  </i>
   <i type="logical" name="LSPECTRAL"> F  </i>
   <i type="logical" name="LSPECTRALGW"> F  </i>
   <i type="logical" name="LSINGLES"> F  </i>
   <i type="logical" name="LFERMIGW"> F  </i>
   <i type="logical" name="ODDONLYGW"> F  </i>
   <i type="logical" name="EVENONLYGW"> F  </i>
   <i type="int" name="NKREDLFX">     1</i>
   <i type="int" name="NKREDLFY">     1</i>
   <i type="int" name="NKREDLFZ">     1</i>
   <i type="int" name="MAXMEM">  2800</i>
   <i type="int" name="TELESCOPE">     0</i>
   <i type="int" name="NTAUPAR">    -1</i>
   <i type="int" name="NOMEGAPAR">    -1</i>
   <i name="DAMP_NEWTON">      0.80000001</i>
   <i name="LAMBDA">      1.00000000</i>
  </separator>
  <separator name="External order field" >
   <i name="OFIELD_KAPPA">      0.00000000</i>
   <v name="OFIELD_K">      0.00000000      0.00000000      0.00000000</v>
   <i name="OFIELD_Q6_NEAR">      0.00000000</i>
   <i name="OFIELD_Q6_FAR">      0.00000000</i>
   <i name="OFIELD_A">      0.00000000</i>
  </separator>
 </parameters>
 <atominfo>
  <atoms>       1 </atoms>
  <types>       1 </types>
  <array name="atoms" >
   <dimension dim="1">ion</dimension>
   <field type="string">element</field>
   <field type="int">atomtype</field>
   <set>
    <rc><c>Si</c><c>   1</c></rc>
   </set>
  </array>
  <array name="atomtypes" >
   <dimension dim="1">type</dimension>
   <field type="int">atomspertype</field>
   <field type="string">element</field>
   <field>mass</field>
   <field>valence</field>
   <field type="string">pseudopotential</field>
   <set>
    <rc><c>   1</c><c>Si</c><c>     28.08500000</c><c>      4.00000000</c><c>  PAW_PBE Si 05Jan2001                  </c></rc>
   </set>
  </array>
 </atominfo>
 <structure name="initialpos" >
  <crystal>
   <varray name="basis" >
    <v>       1.49819237       1.49819237       1.49819237 </v>
    <v>       1.49819237      -1.49819237      -1.49819237 </v>
    <v>      -1.49819237       1.49819237      -1.49819237 </v>
   </varray>
   <i name="volume">     13.45125288 </i>
   <varray name="rec_basis" >
    <v>       0.33373551       0.33373551       0.00000000 </v>
    <v>       0.33373551       0.00000000      -0.33373551 </v>
    <v>       0.00000000       0.33373551      -0.33373551 </v>
   </varray>
  </crystal>
  <varray name="positions" >
   <v>       0.00000000       0.00000000       0.00000000 </v>
  </varray>
 </structure>
 <calculation>
  <scstep>
   <time name="dav">    0.15    0.15</time>
   <time name="total">    0.33    0.33</time>
   <energy>
    <i name="alphaZ">      2.50260188 </i>
    <i name="ewald">   -139.91310605 </i>
    <i name="hartreedc">     -0.42815531 </i>
    <i name="XCdc">     -8.61072572 </i>
    <i name="pawpsdc">     88.12379961 </i>
    <i name="pawaedc">    -70.53051779 </i>
    <i name="eentropy">     -0.00036605 </i>
    <i name="bandstr">     22.66546085 </i>
    <i name="atom">    103.06562707 </i>
    <i name="e_fr_energy">     -3.12538151 </i>
    <i name="e_wo_entrp">     -3.12501546 </i>
    <i name="e_0_energy">     -3.12519848 </i>
   </energy>
  </scstep>
  <scstep>
   <time name="dav">    0.24    0.26</time>
   <time name="total">    0.24    0.26</time>
   <energy>
    <i name="e_fr_energy">     -4.86273167 </i>
    <i name="e_wo_entrp">     -4.86191845 </i>
    <i name="e_0_energy">     -4.86232506 </i>
   </energy>
  </scstep>
  <scstep>
   <time name="dav">    0.16    0.17</time>
   <time name="total">    0.16    0.17</time>
   <energy>
    <i name="e_fr_energy">     -4.87030157 </i>
    <i name="e_wo_entrp">     -4.86947368 </i>
    <i name="e_0_energy">     -4.86988763 </i>
   </energy>
  </scstep>
  <scstep>
   <time name="dav">    0.26    0.27</time>
   <time name="total">    0.26    0.27</time>
   <energy>
    <i name="e_fr_energy">     -4.87030666 </i>
    <i name="e_wo_entrp">     -4.86947876 </i>
    <i name="e_0_energy">     -4.86989271 </i>
   </energy>
  </scstep>
  <scstep>
   <time name="dav">    0.16    0.16</time>
   <time name="total">    0.17    0.18</time>
   <energy>
    <i name="e_fr_energy">     -4.87030666 </i>
    <i name="e_wo_entrp">     -4.86947876 </i>
    <i name="e_0_energy">     -4.86989271 </i>
   </energy>
  </scstep>
  <scstep>
   <time name="dav">    0.15    0.15</time>
   <time name="total">    0.34    0.35</time>
   <energy>
    <i name="e_fr_energy">     -4.85805554 </i>
    <i name="e_wo_entrp">     -4.85721092 </i>
    <i name="e_0_energy">     -4.85763323 </i>
   </energy>
  </scstep>
  <scstep>
   <time name="dav">    0.16    0.16</time>
   <time name="total">    0.35    0.36</time>
   <energy>
    <i name="e_fr_energy">     -4.85097790 </i>
    <i name="e_wo_entrp">     -4.85010723 </i>
    <i name="e_0_energy">     -4.85054257 </i>
   </energy>
  </scstep>
  <scstep>
   <time name="dav">    0.21    0.22</time>
   <time name="total">    0.40    0.41</time>
   <energy>
    <i name="e_fr_energy">     -4.85095125 </i>
    <i name="e_wo_entrp">     -4.85007971 </i>
    <i name="e_0_energy">     -4.85051548 </i>
   </energy>
  </scstep>
  <scstep>
   <time name="dav">    0.17    0.17</time>
   <time name="total">    0.35    0.35</time>
   <energy>
    <i name="alphaZ">      2.50260188 </i>
    <i name="ewald">   -139.91310605 </i>
    <i name="hartreedc">     -0.31761341 </i>
    <i name="XCdc">     -8.53305862 </i>
    <i name="pawpsdc">    358.92531697 </i>
    <i name="pawaedc">   -341.36560027 </i>
    <i name="eentropy">     -0.00087178 </i>
    <i name="bandstr">     20.78575249 </i>
    <i name="atom">    103.06562707 </i>
    <i name="e_fr_energy">     -4.85095171 </i>
    <i name="e_wo_entrp">     -4.85007994 </i>
    <i name="e_0_energy">     -4.85051582 </i>
   </energy>
  </scstep>
  <structure>
   <crystal>
    <varray name="basis" >
     <v>       1.49819237       1.49819237       1.49819237 </v>
     <v>       1.49819237      -1.49819237      -1.49819237 </v>
     <v>      -1.49819237       1.49819237      -1.49819237 </v>
    </varray>
    <i name="volume">     13.45125288 </i>
    <varray name="rec_basis" >
     <v>       0.33373551       0.33373551       0.00000000 </v>
     <v>       0.33373551       0.00000000      -0.33373551 </v>
     <v>       0.00000000       0.33373551      -0.33373551 </v>
    </varray>
   </crystal>
   <varray name="positions" >
    <v>       0.00000000       0.00000000       0.00000000 </v>
   </varray>
  </structure>
  <varray name="forces" >
   <v>       0.00000000       0.00000000      -0.00000000 </v>
  </varray>
  <varray name="stress" >
   <v>      94.29613498      -0.00000000       0.00000000 </v>
   <v>      -0.00000000      94.29613498       0.00000000 </v>
   <v>      -0.00000000       0.00000000      94.29613498 </v>
  </varray>
  <energy>
   <i name="e_fr_energy">     -4.85095171 </i>
   <i name="e_wo_entrp">     -4.85007994 </i>
   <i name="e_0_energy">     -4.85051582 </i>
  </energy>
  <time name="totalsc">    3.22    3.38</time>
  <eigenvalues>
   <array>
    <dimension dim="1">band</dimension>
    <dimension dim="2">kpoint</dimension>
    <dimension dim="3">spin</dimension>
    <field>eigene</field>
    <field>occ</field>
    <set>
     <set comment="spin 1">
      <set comment="kpoint 1">
       <r>   -3.9728    1.0000 </r>
       <r>   23.5557    0.0000 </r>
       <r>   23.5557    0.0000 </r>
       <r>   23.5557    0.0000 </r>
       <r>   23.9734    0.0000 </r>
       <r>   23.9734    0.0000 </r>
       <r>   23.9734    0.0000 </r>
       <r>   27.8446    0.0000 </r>
      </set>
      <set comment="kpoint 2">
       <r>   -3.7050    1.0000 </r>
       <r>   20.5420    0.0000 </r>
       <r>   21.5201    0.0000 </r>
       <r>   23.1080    0.0000 </r>
       <r>   23.1417    0.0000 </r>
       <r>   25.2299    0.0000 </r>
       <r>   26.4553    0.0000 </r>
       <r>   26.6359    0.0000 </r>
      </set>
      <set comment="kpoint 3">
       <r>   -2.9036    1.0000 </r>
       <r>   16.4914    0.0000 </r>
       <r>   19.7389    0.0000 </r>
       <r>   21.6140    0.0000 </r>
       <r>   22.0672    0.0000 </r>
       <r>   24.0885    0.0000 </r>
       <r>   27.5888    0.0000 </r>
       <r>   27.9320    0.0000 </r>
      </set>
      <set comment="kpoint 4">
       <r>   -1.5748    1.0000 </r>
       <r>   12.4611    0.0000 </r>
       <r>   18.4073    0.0000 </r>
       <r>   20.2412    0.0000 </r>
       <r>   20.9915    0.0000 </r>
       <r>   22.8650    0.0000 </r>
       <r>   28.8415    0.0000 </r>
       <r>   29.1572    0.0000 </r>
      </set>
      <set comment="kpoint 5">
       <r>    0.2712    1.0000 </r>
       <r>    8.7505    1.0000 </r>
       <r>   17.5223    0.0000 </r>
       <r>   19.2693    0.0000 </r>
       <r>   20.1889    0.0000 </r>
       <r>   21.9954    0.0000 </r>
       <r>   30.2354    0.0000 </r>
       <r>   30.9754    0.0000 </r>
      </set>
      <set comment="kpoint 6">
       <r>    2.6203    1.0000 </r>
       <r>    5.4559    1.0000 </r>
       <r>   17.0806    0.0000 </r>
       <r>   18.7738    0.0000 </r>
       <r>   19.7700    0.0000 </r>
       <r>   21.5416    0.0000 </r>
       <r>   31.8165    0.0000 </r>
       <r>   32.7033    0.0000 </r>
      </set>
      <set comment="kpoint 7">
       <r>   -3.1703    1.0000 </r>
       <r>   18.4939    0.0000 </r>
       <r>   18.8408    0.0000 </r>
       <r>   21.0706    0.0000 </r>
       <r>   23.8790    0.0000 </r>
       <r>   25.1858    0.0000 </r>
       <r>   26.4388    0.0000 </r>
       <r>   27.6735    0.0000 </r>
      </set>
      <set comment="kpoint 8">
       <r>   -2.1053    1.0000 </r>
       <r>   14.6167    0.0000 </r>
       <r>   17.0759    0.0000 </r>
       <r>   19.6261    0.0000 </r>
       <r>   23.1282    0.0000 </r>
       <r>   24.6891    0.0000 </r>
       <r>   27.0036    0.0000 </r>
       <r>   29.5749    0.0000 </r>
      </set>
      <set comment="kpoint 9">
       <r>   -0.5178    1.0000 </r>
       <r>   10.7422    1.0000 </r>
       <r>   15.9069    0.0000 </r>
       <r>   18.5177    0.0000 </r>
       <r>   22.1313    0.0000 </r>
       <r>   24.2199    0.0000 </r>
       <r>   27.9338    0.0000 </r>
       <r>   31.5407    0.0000 </r>
      </set>
      <set comment="kpoint 10">
       <r>    1.5798    1.0000 </r>
       <r>    7.2373    1.0000 </r>
       <r>   15.1997    0.0000 </r>
       <r>   17.8328    0.0000 </r>
       <r>   21.4695    0.0000 </r>
       <r>   23.7695    0.0000 </r>
       <r>   29.5404    0.0000 </r>
       <r>   32.7110    0.0000 </r>
      </set>
      <set comment="kpoint 11">
       <r>    4.1374    1.0000 </r>
       <r>    4.2066    1.0000 </r>
       <r>   14.9629    0.0000 </r>
       <r>   17.6020    0.0000 </r>
       <r>   21.2425    0.0000 </r>
       <r>   23.5973    0.0000 </r>
       <r>   31.2270    0.0000 </r>
       <r>   31.7974    0.0000 </r>
      </set>
      <set comment="kpoint 12">
       <r>   -0.7815    1.0000 </r>
       <r>   13.1365    0.0000 </r>
       <r>   13.2136    0.0000 </r>
       <r>   18.3526    0.0000 </r>
       <r>   23.8876    0.0000 </r>
       <r>   24.5339    0.0000 </r>
       <r>   28.8658    0.0000 </r>
       <r>   29.8572    0.0000 </r>
      </set>
      <set comment="kpoint 13">
       <r>    1.0576    1.0000 </r>
       <r>    9.4986    1.0000 </r>
       <r>   12.1998    0.0000 </r>
       <r>   17.4642    0.0000 </r>
       <r>   23.4045    0.0000 </r>
       <r>   25.5174    0.0000 </r>
       <r>   28.9705    0.0000 </r>
       <r>   31.8340    0.0000 </r>
      </set>
      <set comment="kpoint 14">
       <r>    3.3979    1.0000 </r>
       <r>    6.2211    1.0000 </r>
       <r>   11.7087    0.0000 </r>
       <r>   17.0089    0.0000 </r>
       <r>   22.9934    0.0000 </r>
       <r>   26.5083    0.0000 </r>
       <r>   29.2652    0.0000 </r>
       <r>   31.3215    0.0000 </r>
      </set>
      <set comment="kpoint 15">
       <r>    3.1394    1.0000 </r>
       <r>    8.7413    1.0000 </r>
       <r>    8.7532    1.0000 </r>
       <r>   16.8023    0.0000 </r>
       <r>   24.8946    0.0000 </r>
       <r>   25.4753    0.0000 </r>
       <r>   29.6389    0.0000 </r>
       <r>   32.2189    0.0000 </r>
      </set>
      <set comment="kpoint 16">
       <r>    5.7005    1.0000 </r>
       <r>    5.7212    1.0000 </r>
       <r>    8.4958    1.0000 </r>
       <r>   16.5766    0.0000 </r>
       <r>   24.9511    0.0000 </r>
       <r>   26.9735    0.0000 </r>
       <r>   27.8610    0.0000 </r>
       <r>   33.0894    0.0000 </r>
      </set>
      <set comment="kpoint 17">
       <r>   -2.3710    1.0000 </r>
       <r>   16.6416    0.0000 </r>
       <r>   17.1542    0.0000 </r>
       <r>   17.1542    0.0000 </r>
       <r>   26.0566    0.0000 </r>
       <r>   26.0566    0.0000 </r>
       <r>   27.6924    0.0000 </r>
       <r>   27.6924    0.0000 </r>
      </set>
      <set comment="kpoint 18">
       <r>   -1.0456    1.0000 </r>
       <r>   12.9532    0.0000 </r>
       <r>   15.4393    0.0000 </r>
       <r>   15.7512    0.0000 </r>
       <r>   25.7616    0.0000 </r>
       <r>   26.2342    0.0000 </r>
       <r>   29.0345    0.0000 </r>
       <r>   29.1812    0.0000 </r>
      </set>
      <set comment="kpoint 19">
       <r>    0.7959    1.0000 </r>
       <r>    9.2547    1.0000 </r>
       <r>   14.5024    0.0000 </r>
       <r>   14.7845    0.0000 </r>
       <r>   25.2581    0.0000 </r>
       <r>   25.6027    0.0000 </r>
       <r>   30.6319    0.0000 </r>
       <r>   31.1263    0.0000 </r>
      </set>
      <set comment="kpoint 20">
       <r>    3.1397    1.0000 </r>
       <r>    5.9683    1.0000 </r>
       <r>   14.0323    0.0000 </r>
       <r>   14.2947    0.0000 </r>
       <r>   24.9341    0.0000 </r>
       <r>   25.2358    0.0000 </r>
       <r>   32.1240    0.0000 </r>
       <r>   32.9379    0.0000 </r>
      </set>
      <set comment="kpoint 21">
       <r>   -3.4375    1.0000 </r>
       <r>   19.9379    0.0000 </r>
       <r>   19.9379    0.0000 </r>
       <r>   21.6867    0.0000 </r>
       <r>   23.9264    0.0000 </r>
       <r>   24.4985    0.0000 </r>
       <r>   26.2781    0.0000 </r>
       <r>   26.2781    0.0000 </r>
      </set>
      <set comment="kpoint 22">
       <r>    0.5340    1.0000 </r>
       <r>   11.7138    0.0000 </r>
       <r>   11.7630    0.0000 </r>
       <r>   14.4284    0.0000 </r>
       <r>   26.9529    0.0000 </r>
       <r>   27.7197    0.0000 </r>
       <r>   29.8697    0.0000 </r>
       <r>   30.6542    0.0000 </r>
      </set>
      <set comment="kpoint 23">
       <r>    2.6217    1.0000 </r>
       <r>    8.2527    1.0000 </r>
       <r>   11.0003    0.7891 </r>
       <r>   13.7108    0.0000 </r>
       <r>   26.9713    0.0000 </r>
       <r>   28.3503    0.0000 </r>
       <r>   30.9479    0.0000 </r>
       <r>   32.5468    0.0000 </r>
      </set>
      <set comment="kpoint 24">
       <r>    5.1840    1.0000 </r>
       <r>    5.2197    1.0000 </r>
       <r>   10.7534    1.0000 </r>
       <r>   13.4698    0.0000 </r>
       <r>   26.8503    0.0000 </r>
       <r>   28.5737    0.0000 </r>
       <r>   31.8506    0.0000 </r>
       <r>   32.8399    0.0000 </r>
      </set>
      <set comment="kpoint 25">
       <r>   -2.6371    1.0000 </r>
       <r>   16.6220    0.0000 </r>
       <r>   18.1460    0.0000 </r>
       <r>   20.7095    0.0000 </r>
       <r>   22.7191    0.0000 </r>
       <r>   23.6136    0.0000 </r>
       <r>   26.4831    0.0000 </r>
       <r>   28.7750    0.0000 </r>
      </set>
      <set comment="kpoint 26">
       <r>    4.9457    1.0000 </r>
       <r>    7.7458    1.0000 </r>
       <r>    7.7521    1.0000 </r>
       <r>   13.2332    0.0000 </r>
       <r>   28.4006    0.0000 </r>
       <r>   29.3924    0.0000 </r>
       <r>   31.1372    0.0000 </r>
       <r>   33.5269    0.0000 </r>
      </set>
      <set comment="kpoint 27">
       <r>   -1.3100    1.0000 </r>
       <r>   12.6830    0.0000 </r>
       <r>   16.7655    0.0000 </r>
       <r>   19.5437    0.0000 </r>
       <r>   22.3481    0.0000 </r>
       <r>   22.9858    0.0000 </r>
       <r>   26.1995    0.0000 </r>
       <r>   32.0309    0.0000 </r>
      </set>
      <set comment="kpoint 28">
       <r>   -1.5747    1.0000 </r>
       <r>   14.9253    0.0000 </r>
       <r>   15.0203    0.0000 </r>
       <r>   20.2333    0.0000 </r>
       <r>   21.4599    0.0000 </r>
       <r>   23.2749    0.0000 </r>
       <r>   28.2632    0.0000 </r>
       <r>   29.0794    0.0000 </r>
      </set>
      <set comment="kpoint 29">
       <r>    0.5335    1.0000 </r>
       <r>    8.9950    1.0000 </r>
       <r>   15.8376    0.0000 </r>
       <r>   18.6418    0.0000 </r>
       <r>   21.4330    0.0000 </r>
       <r>   23.1737    0.0000 </r>
       <r>   26.7857    0.0000 </r>
       <r>   32.3998    0.0000 </r>
      </set>
      <set comment="kpoint 30">
       <r>    0.0085    1.0000 </r>
       <r>   11.2086    0.0000 </r>
       <r>   13.7742    0.0000 </r>
       <r>   19.5112    0.0000 </r>
       <r>   21.6359    0.0000 </r>
       <r>   22.8459    0.0000 </r>
       <r>   27.8932    0.0000 </r>
       <r>   31.1961    0.0000 </r>
      </set>
      <set comment="kpoint 31">
       <r>    2.8793    1.0000 </r>
       <r>    5.7095    1.0000 </r>
       <r>   15.3716    0.0000 </r>
       <r>   18.1741    0.0000 </r>
       <r>   20.9639    0.0000 </r>
       <r>   23.0916    0.0000 </r>
       <r>   28.3743    0.0000 </r>
       <r>   30.6529    0.0000 </r>
      </set>
      <set comment="kpoint 32">
       <r>    2.1003    1.0000 </r>
       <r>    7.7351    1.0000 </r>
       <r>   13.0487    0.0000 </r>
       <r>   18.8691    0.0000 </r>
       <r>   21.3018    0.0000 </r>
       <r>   23.9547    0.0000 </r>
       <r>   27.2926    0.0000 </r>
       <r>   30.2815    0.0000 </r>
      </set>
      <set comment="kpoint 33">
       <r>    1.8401    1.0000 </r>
       <r>   10.2129    1.0000 </r>
       <r>   10.2213    1.0000 </r>
       <r>   19.8494    0.0000 </r>
       <r>   21.6991    0.0000 </r>
       <r>   22.3682    0.0000 </r>
       <r>   28.5152    0.0000 </r>
       <r>   31.1858    0.0000 </r>
      </set>
      <set comment="kpoint 34">
       <r>    4.6595    1.0000 </r>
       <r>    4.7087    1.0000 </r>
       <r>   12.8063    0.0000 </r>
       <r>   18.6456    0.0000 </r>
       <r>   21.1103    0.0000 </r>
       <r>   24.8666    0.0000 </r>
       <r>   26.9850    0.0000 </r>
       <r>   29.2642    0.0000 </r>
      </set>
      <set comment="kpoint 35">
       <r>    4.1697    1.0000 </r>
       <r>    6.9753    1.0000 </r>
       <r>    9.7187    1.0000 </r>
       <r>   19.6299    0.0000 </r>
       <r>   21.6528    0.0000 </r>
       <r>   23.7405    0.0000 </r>
       <r>   26.1009    0.0000 </r>
       <r>   31.9252    0.0000 </r>
      </set>
      <set comment="kpoint 36">
       <r>    6.7202    1.0000 </r>
       <r>    6.7202    1.0000 </r>
       <r>    6.7241    1.0000 </r>
       <r>   19.6811    0.0000 </r>
       <r>   23.5409    0.0000 </r>
       <r>   23.6110    0.0000 </r>
       <r>   23.6110    0.0000 </r>
       <r>   35.0824    0.0000 </r>
      </set>
      <set comment="kpoint 37">
       <r>    2.3623    1.0000 </r>
       <r>   10.7287    1.0000 </r>
       <r>   10.7766    1.0000 </r>
       <r>   10.7766    1.0000 </r>
       <r>   29.7513    0.0000 </r>
       <r>   29.7513    0.0000 </r>
       <r>   31.4297    0.0000 </r>
       <r>   31.4297    0.0000 </r>
      </set>
      <set comment="kpoint 38">
       <r>    4.6897    1.0000 </r>
       <r>    7.4984    1.0000 </r>
       <r>   10.2539    1.0000 </r>
       <r>   10.2795    1.0000 </r>
       <r>   30.3611    0.0000 </r>
       <r>   30.5721    0.0000 </r>
       <r>   32.8001    0.0000 </r>
       <r>   33.2630    0.0000 </r>
      </set>
      <set comment="kpoint 39">
       <r>   -1.8397    1.0000 </r>
       <r>   16.3210    0.0000 </r>
       <r>   16.3210    0.0000 </r>
       <r>   18.7252    0.0000 </r>
       <r>   19.7139    0.0000 </r>
       <r>   26.0571    0.0000 </r>
       <r>   28.0608    0.0000 </r>
       <r>   28.0608    0.0000 </r>
      </set>
      <set comment="kpoint 40">
       <r>    7.2450    1.0000 </r>
       <r>    7.2450    1.0000 </r>
       <r>    7.2462    1.0000 </r>
       <r>   10.0200    1.0000 </r>
       <r>   31.6209    0.0000 </r>
       <r>   32.5827    0.0000 </r>
       <r>   32.5827    0.0000 </r>
       <r>   34.4572    0.0000 </r>
      </set>
      <set comment="kpoint 41">
       <r>   -0.5178    1.0000 </r>
       <r>   13.2880    0.0000 </r>
       <r>   14.9159    0.0000 </r>
       <r>   17.7053    0.0000 </r>
       <r>   19.3941    0.0000 </r>
       <r>   25.5612    0.0000 </r>
       <r>   27.9724    0.0000 </r>
       <r>   30.8089    0.0000 </r>
      </set>
      <set comment="kpoint 42">
       <r>    1.3182    1.0000 </r>
       <r>    9.7162    1.0000 </r>
       <r>   13.9718    0.0000 </r>
       <r>   16.7672    0.0000 </r>
       <r>   20.7604    0.0000 </r>
       <r>   24.7253    0.0000 </r>
       <r>   26.8045    0.0000 </r>
       <r>   29.8186    0.0000 </r>
      </set>
      <set comment="kpoint 43">
       <r>    1.0569    1.0000 </r>
       <r>   12.0666    0.0000 </r>
       <r>   12.0759    0.0000 </r>
       <r>   17.8852    0.0000 </r>
       <r>   18.3989    0.0000 </r>
       <r>   25.3773    0.0000 </r>
       <r>   27.8453    0.0000 </r>
       <r>   30.5486    0.0000 </r>
      </set>
      <set comment="kpoint 44">
       <r>    3.6534    1.0000 </r>
       <r>    6.4660    1.0000 </r>
       <r>   13.4985    0.0000 </r>
       <r>   16.2760    0.0000 </r>
       <r>   22.4967    0.0000 </r>
       <r>   24.2773    0.0000 </r>
       <r>   25.1636    0.0000 </r>
       <r>   28.8771    0.0000 </r>
      </set>
      <set comment="kpoint 45">
       <r>    3.1364    1.0000 </r>
       <r>    8.7149    1.0000 </r>
       <r>   11.3366    0.0000 </r>
       <r>   17.3900    0.0000 </r>
       <r>   19.8688    0.0000 </r>
       <r>   24.3327    0.0000 </r>
       <r>   25.6683    0.0000 </r>
       <r>   31.1167    0.0000 </r>
      </set>
      <set comment="kpoint 46">
       <r>    5.6926    1.0000 </r>
       <r>    5.7092    1.0000 </r>
       <r>   11.0911    0.0388 </r>
       <r>   17.1552    0.0000 </r>
       <r>   21.5910    0.0000 </r>
       <r>   22.6383    0.0000 </r>
       <r>   25.0635    0.0000 </r>
       <r>   31.0786    0.0000 </r>
      </set>
      <set comment="kpoint 47">
       <r>    5.4454    1.0000 </r>
       <r>    8.2020    1.0000 </r>
       <r>    8.2229    1.0000 </r>
       <r>   19.0385    0.0000 </r>
       <r>   19.7018    0.0000 </r>
       <r>   21.9610    0.0000 </r>
       <r>   25.0227    0.0000 </r>
       <r>   34.0896    0.0000 </r>
      </set>
      <set comment="kpoint 48">
       <r>    0.7952    1.0000 </r>
       <r>   13.4968    0.0000 </r>
       <r>   13.4968    0.0000 </r>
       <r>   16.1023    0.0000 </r>
       <r>   16.4919    0.0000 </r>
       <r>   27.4862    0.0000 </r>
       <r>   28.6333    0.0000 </r>
       <r>   30.3335    0.0000 </r>
      </set>
      <set comment="kpoint 49">
       <r>    2.6180    1.0000 </r>
       <r>   10.8435    1.0000 </r>
       <r>   12.5461    0.0000 </r>
       <r>   15.2777    0.0000 </r>
       <r>   16.9536    0.0000 </r>
       <r>   24.4275    0.0000 </r>
       <r>   28.4752    0.0000 </r>
       <r>   31.1526    0.0000 </r>
      </set>
      <set comment="kpoint 50">
       <r>    4.9329    1.0000 </r>
       <r>    7.7073    1.0000 </r>
       <r>   12.0698    0.0000 </r>
       <r>   14.7754    0.0000 </r>
       <r>   18.9394    0.0000 </r>
       <r>   21.5415    0.0000 </r>
       <r>   28.0726    0.0000 </r>
       <r>   31.2664    0.0000 </r>
      </set>
      <set comment="kpoint 51">
       <r>    4.6763    1.0000 </r>
       <r>   10.0943    1.0000 </r>
       <r>   10.1127    1.0000 </r>
       <r>   16.0866    0.0000 </r>
       <r>   16.3261    0.0000 </r>
       <r>   21.2978    0.0000 </r>
       <r>   28.8708    0.0000 </r>
       <r>   33.4627    0.0000 </r>
      </set>
      <set comment="kpoint 52">
       <r>    7.1946    1.0000 </r>
       <r>    7.2092    1.0000 </r>
       <r>    9.8562    1.0000 </r>
       <r>   15.9487    0.0000 </r>
       <r>   18.3123    0.0000 </r>
       <r>   18.6875    0.0000 </r>
       <r>   28.7549    0.0000 </r>
       <r>   34.0831    0.0000 </r>
      </set>
      <set comment="kpoint 53">
       <r>    4.4193    1.0000 </r>
       <r>   11.5915    0.0000 </r>
       <r>   11.5915    0.0000 </r>
       <r>   14.2067    0.0000 </r>
       <r>   14.3291    0.0000 </r>
       <r>   21.0686    0.0000 </r>
       <r>   32.1179    0.0000 </r>
       <r>   33.2455    0.0000 </r>
      </set>
      <set comment="kpoint 54">
       <r>    6.6952    1.0000 </r>
       <r>    9.3602    1.0000 </r>
       <r>   11.1140    0.0079 </r>
       <r>   13.7506    0.0000 </r>
       <r>   15.4654    0.0000 </r>
       <r>   18.0202    0.0000 </r>
       <r>   32.2026    0.0000 </r>
       <r>   34.1982    0.0000 </r>
      </set>
      <set comment="kpoint 55">
       <r>    9.0996    1.0000 </r>
       <r>    9.0996    1.0000 </r>
       <r>    9.1356    1.0000 </r>
       <r>   15.0876    0.0000 </r>
       <r>   15.2836    0.0000 </r>
       <r>   15.2836    0.0000 </r>
       <r>   32.7850    0.0000 </r>
       <r>   36.4325    0.0000 </r>
      </set>
      <set comment="kpoint 56">
       <r>    8.8630    1.0000 </r>
       <r>   10.6358    1.0000 </r>
       <r>   10.6358    1.0000 </r>
       <r>   13.2189    0.0000 </r>
       <r>   13.2455    0.0000 </r>
       <r>   14.9690    0.0000 </r>
       <r>   35.9430    0.0000 </r>
       <r>   36.2336    0.0000 </r>
      </set>
     </set>
    </set>
   </array>
  </eigenvalues>
  <separator name="orbital magnetization" >
   <v name="MAGDIPOLOUT">      0.00000000      0.00000000      0.00000000</v>
  </separator>
  <dos>
   <i name="efermi">     11.02870951 </i>
   <total>
    <array>
     <dimension dim="1">gridpoints</dimension>
     <dimension dim="2">spin</dimension>
     <field>energy</field>
     <field>total</field>
     <field>integrated</field>
     <set>
      <set comment="spin 1">
       <r>    -5.9930     0.0000     0.0000 </r>
       <r>    -5.8449     0.0000     0.0000 </r>
       <r>    -5.6967     0.0000     0.0000 </r>
       <r>    -5.5486     0.0000     0.0000 </r>
       <r>    -5.4004     0.0000     0.0000 </r>
       <r>    -5.2523     0.0000     0.0000 </r>
       <r>    -5.1041     0.0000     0.0000 </r>
       <r>    -4.9560     0.0000     0.0000 </r>
       <r>    -4.8078     0.0000     0.0000 </r>
       <r>    -4.6597     0.0000     0.0000 </r>
       <r>    -4.5115     0.0000     0.0000 </r>
       <r>    -4.3634     0.0000     0.0000 </r>
       <r>    -4.2152     0.0000     0.0000 </r>
       <r>    -4.0671     0.0000     0.0000 </r>
       <r>    -3.9189     0.0095     0.0014 </r>
       <r>    -3.7708     0.0045     0.0021 </r>
       <r>    -3.6226     0.1167     0.0194 </r>
       <r>    -3.4745     0.0102     0.0209 </r>
       <r>    -3.3263     0.0518     0.0285 </r>
       <r>    -3.1781     0.1005     0.0434 </r>
       <r>    -3.0300     0.1430     0.0646 </r>
       <r>    -2.8818     0.0889     0.0778 </r>
       <r>    -2.7337     0.0336     0.0828 </r>
       <r>    -2.5855     0.2250     0.1161 </r>
       <r>    -2.4374     0.0201     0.1191 </r>
       <r>    -2.2892     0.0778     0.1306 </r>
       <r>    -2.1411     0.0766     0.1420 </r>
       <r>    -1.9929     0.4107     0.2028 </r>
       <r>    -1.8448     0.0273     0.2069 </r>
       <r>    -1.6966     0.0340     0.2119 </r>
       <r>    -1.5485     0.2815     0.2536 </r>
       <r>    -1.4003     0.0848     0.2662 </r>
       <r>    -1.2522     0.2297     0.3002 </r>
       <r>    -1.1040     0.0244     0.3038 </r>
       <r>    -0.9559     0.2301     0.3379 </r>
       <r>    -0.8077     0.0573     0.3464 </r>
       <r>    -0.6596     0.1875     0.3741 </r>
       <r>    -0.5114     0.4180     0.4361 </r>
       <r>    -0.3632     0.3123     0.4823 </r>
       <r>    -0.2151     0.0000     0.4823 </r>
       <r>    -0.0669     0.0080     0.4835 </r>
       <r>     0.0812     0.4692     0.5530 </r>
       <r>     0.2294     0.0241     0.5566 </r>
       <r>     0.3775     0.1071     0.5725 </r>
       <r>     0.5257     0.1995     0.6020 </r>
       <r>     0.6738     0.2875     0.6446 </r>
       <r>     0.8220     0.2344     0.6794 </r>
       <r>     0.9701     0.0748     0.6904 </r>
       <r>     1.1183     0.6943     0.7933 </r>
       <r>     1.2664     0.0484     0.8005 </r>
       <r>     1.4146     0.2252     0.8338 </r>
       <r>     1.5627     0.1541     0.8567 </r>
       <r>     1.7109     0.3335     0.9061 </r>
       <r>     1.8590     0.1714     0.9315 </r>
       <r>     2.0072     0.0741     0.9425 </r>
       <r>     2.1553     0.4556     1.0100 </r>
       <r>     2.3035     0.0331     1.0149 </r>
       <r>     2.4517     0.0768     1.0262 </r>
       <r>     2.5998     0.2388     1.0616 </r>
       <r>     2.7480     0.6135     1.1525 </r>
       <r>     2.8961     0.1664     1.1772 </r>
       <r>     3.0443     0.0811     1.1892 </r>
       <r>     3.1924     0.9094     1.3239 </r>
       <r>     3.3406     0.0859     1.3366 </r>
       <r>     3.4887     0.4588     1.4046 </r>
       <r>     3.6369     0.0805     1.4165 </r>
       <r>     3.7850     0.1654     1.4410 </r>
       <r>     3.9332     0.0000     1.4410 </r>
       <r>     4.0813     0.0168     1.4435 </r>
       <r>     4.2295     0.8706     1.5725 </r>
       <r>     4.3776     0.0936     1.5863 </r>
       <r>     4.5258     0.0535     1.5943 </r>
       <r>     4.6739     0.3951     1.6528 </r>
       <r>     4.8221     0.5787     1.7386 </r>
       <r>     4.9702     0.3920     1.7966 </r>
       <r>     5.1184     0.1029     1.8119 </r>
       <r>     5.2666     0.4537     1.8791 </r>
       <r>     5.4147     0.0867     1.8920 </r>
       <r>     5.5629     0.3031     1.9369 </r>
       <r>     5.7110     0.6670     2.0357 </r>
       <r>     5.8592     0.5505     2.1172 </r>
       <r>     6.0073     0.2104     2.1484 </r>
       <r>     6.1555     0.0482     2.1556 </r>
       <r>     6.3036     0.4666     2.2247 </r>
       <r>     6.4518     0.0885     2.2378 </r>
       <r>     6.5999     0.1606     2.2616 </r>
       <r>     6.7481     0.4145     2.3230 </r>
       <r>     6.8962     0.0776     2.3345 </r>
       <r>     7.0444     0.4684     2.4039 </r>
       <r>     7.1925     0.2722     2.4442 </r>
       <r>     7.3407     0.9554     2.5858 </r>
       <r>     7.4888     0.0975     2.6002 </r>
       <r>     7.6370     0.1551     2.6232 </r>
       <r>     7.7851     1.0932     2.7851 </r>
       <r>     7.9333     0.1165     2.8024 </r>
       <r>     8.0815     0.0001     2.8024 </r>
       <r>     8.2296     0.4554     2.8699 </r>
       <r>     8.3778     0.5182     2.9467 </r>
       <r>     8.5259     0.1953     2.9756 </r>
       <r>     8.6741     0.1203     2.9934 </r>
       <r>     8.8222     1.0187     3.1443 </r>
       <r>     8.9704     0.1244     3.1628 </r>
       <r>     9.1185     0.3240     3.2108 </r>
       <r>     9.2667     0.2589     3.2491 </r>
       <r>     9.4148     0.3212     3.2967 </r>
       <r>     9.5630     0.4807     3.3679 </r>
       <r>     9.7111     0.3267     3.4163 </r>
       <r>     9.8593     0.5505     3.4979 </r>
       <r>    10.0074     0.1446     3.5193 </r>
       <r>    10.1556     0.5203     3.5964 </r>
       <r>    10.3037     0.9070     3.7308 </r>
       <r>    10.4519     0.0830     3.7431 </r>
       <r>    10.6000     0.0190     3.7459 </r>
       <r>    10.7482     0.5788     3.8316 </r>
       <r>    10.8964     0.7252     3.9391 </r>
       <r>    11.0445     0.4800     4.0102 </r>
       <r>    11.1927     0.6647     4.1087 </r>
       <r>    11.3408     0.5982     4.1973 </r>
       <r>    11.4890     0.2204     4.2299 </r>
       <r>    11.6371     0.1237     4.2483 </r>
       <r>    11.7853     0.8944     4.3808 </r>
       <r>    11.9334     0.0771     4.3922 </r>
       <r>    12.0816     0.4525     4.4592 </r>
       <r>    12.2297     0.6680     4.5582 </r>
       <r>    12.3779     0.0977     4.5727 </r>
       <r>    12.5260     0.1860     4.6002 </r>
       <r>    12.6742     0.2756     4.6411 </r>
       <r>    12.8223     0.3102     4.6870 </r>
       <r>    12.9705     0.2529     4.7245 </r>
       <r>    13.1186     0.6205     4.8164 </r>
       <r>    13.2668     0.7748     4.9312 </r>
       <r>    13.4150     0.2746     4.9719 </r>
       <r>    13.5631     0.5775     5.0574 </r>
       <r>    13.7113     0.3096     5.1033 </r>
       <r>    13.8594     0.9165     5.2391 </r>
       <r>    14.0076     0.2683     5.2788 </r>
       <r>    14.1557     0.2270     5.3125 </r>
       <r>    14.3039     0.2172     5.3446 </r>
       <r>    14.4520     0.3443     5.3956 </r>
       <r>    14.6002     0.4412     5.4610 </r>
       <r>    14.7483     0.4227     5.5236 </r>
       <r>    14.8965     0.5254     5.6015 </r>
       <r>    15.0446     0.8505     5.7275 </r>
       <r>    15.1928     0.3440     5.7785 </r>
       <r>    15.3409     0.7141     5.8843 </r>
       <r>    15.4891     0.6193     5.9760 </r>
       <r>    15.6372     0.0809     5.9880 </r>
       <r>    15.7854     0.2198     6.0206 </r>
       <r>    15.9335     0.7243     6.1279 </r>
       <r>    16.0817     0.3982     6.1869 </r>
       <r>    16.2299     0.2036     6.2170 </r>
       <r>    16.3780     0.5596     6.3000 </r>
       <r>    16.5262     0.1964     6.3291 </r>
       <r>    16.6743     0.5486     6.4103 </r>
       <r>    16.8225     0.6635     6.5086 </r>
       <r>    16.9706     0.3319     6.5578 </r>
       <r>    17.1188     1.0935     6.7198 </r>
       <r>    17.2669     0.4154     6.7813 </r>
       <r>    17.4151     0.4107     6.8422 </r>
       <r>    17.5632     0.7019     6.9462 </r>
       <r>    17.7114     0.3647     7.0002 </r>
       <r>    17.8595     0.5393     7.0801 </r>
       <r>    18.0077     0.3841     7.1370 </r>
       <r>    18.1558     0.3774     7.1929 </r>
       <r>    18.3040     0.3855     7.2500 </r>
       <r>    18.4521     0.7465     7.3606 </r>
       <r>    18.6003     0.7652     7.4740 </r>
       <r>    18.7484     0.7445     7.5843 </r>
       <r>    18.8966     0.7555     7.6962 </r>
       <r>    19.0448     0.4749     7.7666 </r>
       <r>    19.1929     0.1068     7.7824 </r>
       <r>    19.3411     0.1335     7.8022 </r>
       <r>    19.4892     0.3739     7.8576 </r>
       <r>    19.6374     1.1919     8.0342 </r>
       <r>    19.7855     0.9546     8.1756 </r>
       <r>    19.9337     0.8091     8.2954 </r>
       <r>    20.0818     0.0851     8.3081 </r>
       <r>    20.2300     0.2648     8.3473 </r>
       <r>    20.3781     0.2219     8.3802 </r>
       <r>    20.5263     0.0400     8.3861 </r>
       <r>    20.6744     0.1227     8.4043 </r>
       <r>    20.8226     0.4362     8.4689 </r>
       <r>    20.9707     0.1847     8.4963 </r>
       <r>    21.1189     0.6139     8.5872 </r>
       <r>    21.2670     0.4342     8.6515 </r>
       <r>    21.4152     0.7934     8.7691 </r>
       <r>    21.5633     1.2913     8.9604 </r>
       <r>    21.7115     1.5472     9.1896 </r>
       <r>    21.8597     0.1356     9.2097 </r>
       <r>    22.0078     0.3037     9.2547 </r>
       <r>    22.1560     0.5507     9.3363 </r>
       <r>    22.3041     0.1533     9.3590 </r>
       <r>    22.4523     0.4752     9.4294 </r>
       <r>    22.6004     0.2548     9.4671 </r>
       <r>    22.7486     0.4046     9.5271 </r>
       <r>    22.8967     0.6003     9.6160 </r>
       <r>    23.0449     0.7715     9.7303 </r>
       <r>    23.1930     1.1367     9.8987 </r>
       <r>    23.3412     0.3492     9.9505 </r>
       <r>    23.4893     0.4796    10.0215 </r>
       <r>    23.6375     0.6292    10.1147 </r>
       <r>    23.7856     0.8966    10.2476 </r>
       <r>    23.9338     0.8287    10.3703 </r>
       <r>    24.0819     0.4934    10.4434 </r>
       <r>    24.2301     0.3915    10.5014 </r>
       <r>    24.3782     0.8667    10.6299 </r>
       <r>    24.5264     0.4206    10.6922 </r>
       <r>    24.6746     0.3397    10.7425 </r>
       <r>    24.8227     0.5771    10.8280 </r>
       <r>    24.9709     0.8508    10.9540 </r>
       <r>    25.1190     0.5966    11.0424 </r>
       <r>    25.2672     0.9145    11.1779 </r>
       <r>    25.4153     0.3842    11.2348 </r>
       <r>    25.5635     0.8654    11.3630 </r>
       <r>    25.7116     0.8263    11.4855 </r>
       <r>    25.8598     0.2775    11.5266 </r>
       <r>    26.0079     0.0214    11.5297 </r>
       <r>    26.1561     0.6898    11.6319 </r>
       <r>    26.3042     0.5738    11.7169 </r>
       <r>    26.4524     0.3236    11.7649 </r>
       <r>    26.6005     0.8229    11.8868 </r>
       <r>    26.7487     0.1550    11.9098 </r>
       <r>    26.8968     0.6839    12.0111 </r>
       <r>    27.0450     1.6149    12.2504 </r>
       <r>    27.1931     0.0863    12.2631 </r>
       <r>    27.3413     0.4447    12.3290 </r>
       <r>    27.4895     0.0739    12.3400 </r>
       <r>    27.6376     0.1895    12.3680 </r>
       <r>    27.7858     0.6172    12.4595 </r>
       <r>    27.9339     1.2500    12.6447 </r>
       <r>    28.0821     0.8132    12.7652 </r>
       <r>    28.2302     0.1725    12.7907 </r>
       <r>    28.3784     0.7815    12.9065 </r>
       <r>    28.5265     0.7929    13.0240 </r>
       <r>    28.6747     0.3865    13.0812 </r>
       <r>    28.8228     0.5634    13.1647 </r>
       <r>    28.9710     1.0332    13.3178 </r>
       <r>    29.1191     0.7133    13.4234 </r>
       <r>    29.2673     0.7554    13.5354 </r>
       <r>    29.4154     0.5279    13.6136 </r>
       <r>    29.5636     0.6113    13.7041 </r>
       <r>    29.7117     0.6853    13.8057 </r>
       <r>    29.8599     0.5834    13.8921 </r>
       <r>    30.0080     0.2922    13.9354 </r>
       <r>    30.1562     0.0016    13.9356 </r>
       <r>    30.3044     0.5033    14.0102 </r>
       <r>    30.4525     0.4075    14.0706 </r>
       <r>    30.6007     0.4975    14.1443 </r>
       <r>    30.7488     0.7289    14.2523 </r>
       <r>    30.8970     0.2709    14.2924 </r>
       <r>    31.0451     0.6240    14.3849 </r>
       <r>    31.1933     1.7659    14.6465 </r>
       <r>    31.3414     1.2039    14.8249 </r>
       <r>    31.4896     0.3337    14.8743 </r>
       <r>    31.6377     0.5119    14.9501 </r>
       <r>    31.7859     0.1918    14.9785 </r>
       <r>    31.9340     1.2198    15.1593 </r>
       <r>    32.0822     0.4618    15.2277 </r>
       <r>    32.2303     0.6267    15.3205 </r>
       <r>    32.3785     0.2104    15.3517 </r>
       <r>    32.5266     0.3244    15.3998 </r>
       <r>    32.6748     0.6009    15.4888 </r>
       <r>    32.8229     0.8360    15.6127 </r>
       <r>    32.9711     0.4423    15.6782 </r>
       <r>    33.1193     0.2373    15.7133 </r>
       <r>    33.2674     0.2267    15.7469 </r>
       <r>    33.4156     0.1484    15.7689 </r>
       <r>    33.5637     0.4276    15.8323 </r>
       <r>    33.7119     0.0368    15.8377 </r>
       <r>    33.8600     0.0000    15.8377 </r>
       <r>    34.0082     0.0067    15.8387 </r>
       <r>    34.1563     0.4970    15.9124 </r>
       <r>    34.3045     0.2261    15.9459 </r>
       <r>    34.4526     0.0367    15.9513 </r>
       <r>    34.6008     0.0448    15.9579 </r>
       <r>    34.7489     0.0000    15.9579 </r>
       <r>    34.8971     0.0000    15.9579 </r>
       <r>    35.0452     0.0119    15.9597 </r>
       <r>    35.1934     0.0692    15.9699 </r>
       <r>    35.3415     0.0001    15.9699 </r>
       <r>    35.4897     0.0000    15.9699 </r>
       <r>    35.6378     0.0000    15.9699 </r>
       <r>    35.7860     0.0000    15.9699 </r>
       <r>    35.9342     0.0244    15.9736 </r>
       <r>    36.0823     0.0364    15.9790 </r>
       <r>    36.2305     0.0282    15.9831 </r>
       <r>    36.3786     0.0378    15.9887 </r>
       <r>    36.5268     0.0757    16.0000 </r>
       <r>    36.6749     0.0003    16.0000 </r>
       <r>    36.8231     0.0000    16.0000 </r>
       <r>    36.9712     0.0000    16.0000 </r>
       <r>    37.1194     0.0000    16.0000 </r>
       <r>    37.2675     0.0000    16.0000 </r>
       <r>    37.4157     0.0000    16.0000 </r>
       <r>    37.5638     0.0000    16.0000 </r>
       <r>    37.7120     0.0000    16.0000 </r>
       <r>    37.8601     0.0000    16.0000 </r>
       <r>    38.0083     0.0000    16.0000 </r>
       <r>    38.1564     0.0000    16.0000 </r>
       <r>    38.3046     0.0000    16.0000 </r>
       <r>    38.4527     0.0000    16.0000 </r>
      </set>
     </set>
    </array>
   </total>
  </dos>
 </calculation>
 <structure name="finalpos" >
  <crystal>
   <varray name="basis" >
    <v>       1.49819237       1.49819237       1.49819237 </v>
    <v>       1.49819237      -1.49819237      -1.49819237 </v>
    <v>      -1.49819237       1.49819237      -1.49819237 </v>
   </varray>
   <i name="volume">     13.45125288 </i>
   <varray name="rec_basis" >
    <v>       0.33373551       0.33373551       0.00000000 </v>
    <v>       0.33373551       0.00000000      -0.33373551 </v>
    <v>       0.00000000       0.33373551      -0.33373551 </v>
   </varray>
  </crystal>
  <varray name="positions" >
   <v>       0.00000000       0.00000000       0.00000000 </v>
  </varray>
 </structure>
</modeling>
