unknown system                          
           1
     1.498192    1.498192    1.498192
     1.498192   -1.498192   -1.498192
    -1.498192    1.498192   -1.498192
   Si
     1
Direct configuration=     1
   0.00000000  0.00000000  0.00000000
