unknown system                          
   1.00000000000000     
     2.802975   -0.000000    0.000000
     0.000000    2.802975    0.000000
    -0.000000   -0.000000    2.802975
   Fe
     2
Direct
  0.000000  0.000000  0.000000
  0.500000  0.500000  0.500000
 
   36   36   36
  199.10      194.12      179.90      158.37      132.27      104.63      78.227      55.212      36.895      23.692    
  15.235      10.550      8.3572      7.2835      6.5195      6.0017      5.6839      5.5225      5.4708      5.5225    
  5.6839      6.0017      6.5195      7.2835      8.3572      10.550      15.235      23.692      36.895      55.212    
  78.227      104.63      132.27      158.37      179.90      194.12      194.12      189.29      175.48      154.54    
  129.13      102.20      76.437      53.967      36.085      23.209      14.981      10.441      8.3219      7.2672    
  6.5093      5.9980      5.6838      5.5249      5.4736      5.5249      5.6838      5.9980      6.5093      7.2672    
  8.3219      10.441      14.981      23.209      36.085      53.967      76.437      102.20      129.13      154.54    
  175.48      189.29      179.90      175.48      162.80      143.55      120.11      95.173      71.260      50.365    
  33.743      21.819      14.258      10.137      8.2225      7.2178      6.4792      5.9867      5.6836      5.5315    
  5.4816      5.5315      5.6836      5.9867      6.4792      7.2178      8.2225      10.137      14.258      21.819    
  33.743      50.365      71.260      95.173      120.11      143.55      162.80      175.48      158.37      154.54    
  143.55      126.78      106.28      84.367      63.265      44.796      30.138      19.701      13.178      9.6964    
  8.0734      7.1337      6.4307      5.9677      5.6835      5.5412      5.4945      5.5412      5.6835      5.9677    
  6.4307      7.1337      8.0734      9.6964      13.178      19.701      30.138      44.796      63.265      84.367    
  106.28      126.78      143.55      154.54      132.27      129.13      120.11      106.28      89.281      71.005    
  53.348      37.901      25.709      17.149      11.918      9.2025      7.8880      7.0143      6.3667      5.9410    
  5.6835      5.5522      5.5112      5.5522      5.6835      5.9410      6.3667      7.0143      7.8880      9.2025    
  11.918      17.149      25.709      37.901      53.348      71.005      89.281      106.28      120.11      129.13    
  104.63      102.20      95.173      84.367      71.005      56.586      42.639      30.494      21.025      14.524    
  10.679      8.7295      7.6667      6.8652      6.2899      5.9084      5.6826      5.5637      5.5294      5.5637    
  5.6826      5.9084      6.2899      6.8652      7.6667      8.7295      10.679      14.524      21.025      30.494    
  42.639      56.586      71.005      84.367      95.173      102.20      78.227      76.437      71.260      63.265    
  53.348      42.639      32.328      23.453      16.680      12.187      9.6337      8.3033      7.4047      6.6991    
  6.2026      5.8736      5.6786      5.5753      5.5453      5.5753      5.6786      5.8736      6.2026      6.6991    
  7.4047      8.3033      9.6337      12.187      16.680      23.453      32.328      42.639      53.348      63.265    
  71.260      76.437      55.212      53.967      50.365      44.796      37.901      30.494      23.453      17.522    
  13.159      10.386      8.8467      7.8899      7.1157      6.5280      6.1101      5.8381      5.6712      5.5855    
  5.5575      5.5855      5.6712      5.8381      6.1101      6.5280      7.1157      7.8899      8.8467      10.386    
  13.159      17.522      23.453      30.494      37.901      44.796      50.365      53.967      36.895      36.085    
  33.743      30.138      25.709      21.025      16.680      13.159      10.684      9.1748      8.2299      7.4600    
  6.8308      6.3568      6.0223      5.7998      5.6630      5.5895      5.5668      5.5895      5.6630      5.7998    
  6.0223      6.3568      6.8308      7.4600      8.2299      9.1748      10.684      13.159      16.680      21.025    
  25.709      30.138      33.743      36.085      23.692      23.209      21.819      19.701      17.149      14.524    
  12.187      10.386      9.1748      8.3532      7.6551      7.0483      6.5642      6.1991      5.9389      5.7622    
  5.6507      5.5893      5.5700      5.5893      5.6507      5.7622      5.9389      6.1991      6.5642      7.0483    
  7.6551      8.3532      9.1748      10.386      12.187      14.524      17.149      19.701      21.819      23.209    
  15.235      14.981      14.258      13.178      11.918      10.679      9.6337      8.8467      8.2299      7.6551    
  7.1276      6.6834      6.3283      6.0593      5.8629      5.7257      5.6350      5.5836      5.5668      5.5836    
  5.6350      5.7257      5.8629      6.0593      6.3283      6.6834      7.1276      7.6551      8.2299      8.8467    
  9.6337      10.679      11.918      13.178      14.258      14.981      10.550      10.441      10.137      9.6964    
  9.2025      8.7295      8.3033      7.8899      7.4600      7.0483      6.6834      6.3759      6.1298      5.9390    
  5.7945      5.6879      5.6148      5.5716      5.5575      5.5716      5.6148      5.6879      5.7945      5.9390    
  6.1298      6.3759      6.6834      7.0483      7.4600      7.8899      8.3033      8.7295      9.2025      9.6964    
  10.137      10.441      8.3572      8.3219      8.2225      8.0734      7.8880      7.6667      7.4047      7.1157    
  6.8308      6.5642      6.3283      6.1298      5.9673      5.8359      5.7310      5.6507      5.5927      5.5574    
  5.5453      5.5574      5.5927      5.6507      5.7310      5.8359      5.9673      6.1298      6.3283      6.5642    
  6.8308      7.1157      7.4047      7.6667      7.8880      8.0734      8.2225      8.3219      7.2835      7.2672    
  7.2178      7.1337      7.0143      6.8652      6.6991      6.5280      6.3568      6.1991      6.0593      5.9390    
  5.8359      5.7477      5.6746      5.6144      5.5686      5.5393      5.5294      5.5393      5.5686      5.6144    
  5.6746      5.7477      5.8359      5.9390      6.0593      6.1991      6.3568      6.5280      6.6991      6.8652    
  7.0143      7.1337      7.2178      7.2672      6.5195      6.5093      6.4792      6.4307      6.3667      6.2899    
  6.2026      6.1101      6.0223      5.9389      5.8629      5.7945      5.7310      5.6746      5.6234      5.5785    
  5.5424      5.5193      5.5112      5.5193      5.5424      5.5785      5.6234      5.6746      5.7310      5.7945    
  5.8629      5.9389      6.0223      6.1101      6.2026      6.2899      6.3667      6.4307      6.4792      6.5093    
  6.0017      5.9980      5.9867      5.9677      5.9410      5.9084      5.8736      5.8381      5.7998      5.7622    
  5.7257      5.6879      5.6507      5.6144      5.5785      5.5450      5.5181      5.5006      5.4945      5.5006    
  5.5181      5.5450      5.5785      5.6144      5.6507      5.6879      5.7257      5.7622      5.7998      5.8381    
  5.8736      5.9084      5.9410      5.9677      5.9867      5.9980      5.6839      5.6838      5.6836      5.6835    
  5.6835      5.6826      5.6786      5.6712      5.6630      5.6507      5.6350      5.6148      5.5927      5.5686    
  5.5424      5.5181      5.4985      5.4860      5.4816      5.4860      5.4985      5.5181      5.5424      5.5686    
  5.5927      5.6148      5.6350      5.6507      5.6630      5.6712      5.6786      5.6826      5.6835      5.6835    
  5.6836      5.6838      5.5225      5.5249      5.5315      5.5412      5.5522      5.5637      5.5753      5.5855    
  5.5895      5.5893      5.5836      5.5716      5.5574      5.5393      5.5193      5.5006      5.4860      5.4767    
  5.4736      5.4767      5.4860      5.5006      5.5193      5.5393      5.5574      5.5716      5.5836      5.5893    
  5.5895      5.5855      5.5753      5.5637      5.5522      5.5412      5.5315      5.5249      5.4708      5.4736    
  5.4816      5.4945      5.5112      5.5294      5.5453      5.5575      5.5668      5.5700      5.5668      5.5575    
  5.5453      5.5294      5.5112      5.4945      5.4816      5.4736      5.4708      5.4736      5.4816      5.4945    
  5.5112      5.5294      5.5453      5.5575      5.5668      5.5700      5.5668      5.5575      5.5453      5.5294    
  5.5112      5.4945      5.4816      5.4736      5.5225      5.5249      5.5315      5.5412      5.5522      5.5637    
  5.5753      5.5855      5.5895      5.5893      5.5836      5.5716      5.5574      5.5393      5.5193      5.5006    
  5.4860      5.4767      5.4736      5.4767      5.4860      5.5006      5.5193      5.5393      5.5574      5.5716    
  5.5836      5.5893      5.5895      5.5855      5.5753      5.5637      5.5522      5.5412      5.5315      5.5249    
  5.6839      5.6838      5.6836      5.6835      5.6835      5.6826      5.6786      5.6712      5.6630      5.6507    
  5.6350      5.6148      5.5927      5.5686      5.5424      5.5181      5.4985      5.4860      5.4816      5.4860    
  5.4985      5.5181      5.5424      5.5686      5.5927      5.6148      5.6350      5.6507      5.6630      5.6712    
  5.6786      5.6826      5.6835      5.6835      5.6836      5.6838      6.0017      5.9980      5.9867      5.9677    
  5.9410      5.9084      5.8736      5.8381      5.7998      5.7622      5.7257      5.6879      5.6507      5.6144    
  5.5785      5.5450      5.5181      5.5006      5.4945      5.5006      5.5181      5.5450      5.5785      5.6144    
  5.6507      5.6879      5.7257      5.7622      5.7998      5.8381      5.8736      5.9084      5.9410      5.9677    
  5.9867      5.9980      6.5195      6.5093      6.4792      6.4307      6.3667      6.2899      6.2026      6.1101    
  6.0223      5.9389      5.8629      5.7945      5.7310      5.6746      5.6234      5.5785      5.5424      5.5193    
  5.5112      5.5193      5.5424      5.5785      5.6234      5.6746      5.7310      5.7945      5.8629      5.9389    
  6.0223      6.1101      6.2026      6.2899      6.3667      6.4307      6.4792      6.5093      7.2835      7.2672    
  7.2178      7.1337      7.0143      6.8652      6.6991      6.5280      6.3568      6.1991      6.0593      5.9390    
  5.8359      5.7477      5.6746      5.6144      5.5686      5.5393      5.5294      5.5393      5.5686      5.6144    
  5.6746      5.7477      5.8359      5.9390      6.0593      6.1991      6.3568      6.5280      6.6991      6.8652    
  7.0143      7.1337      7.2178      7.2672      8.3572      8.3219      8.2225      8.0734      7.8880      7.6667    
  7.4047      7.1157      6.8308      6.5642      6.3283      6.1298      5.9673      5.8359      5.7310      5.6507    
  5.5927      5.5574      5.5453      5.5574      5.5927      5.6507      5.7310      5.8359      5.9673      6.1298    
  6.3283      6.5642      6.8308      7.1157      7.4047      7.6667      7.8880      8.0734      8.2225      8.3219    
  10.550      10.441      10.137      9.6964      9.2025      8.7295      8.3033      7.8899      7.4600      7.0483    
  6.6834      6.3759      6.1298      5.9390      5.7945      5.6879      5.6148      5.5716      5.5575      5.5716    
  5.6148      5.6879      5.7945      5.9390      6.1298      6.3759      6.6834      7.0483      7.4600      7.8899    
  8.3033      8.7295      9.2025      9.6964      10.137      10.441      15.235      14.981      14.258      13.178    
  11.918      10.679      9.6337      8.8467      8.2299      7.6551      7.1276      6.6834      6.3283      6.0593    
  5.8629      5.7257      5.6350      5.5836      5.5668      5.5836      5.6350      5.7257      5.8629      6.0593    
  6.3283      6.6834      7.1276      7.6551      8.2299      8.8467      9.6337      10.679      11.918      13.178    
  14.258      14.981      23.692      23.209      21.819      19.701      17.149      14.524      12.187      10.386    
  9.1748      8.3532      7.6551      7.0483      6.5642      6.1991      5.9389      5.7622      5.6507      5.5893    
  5.5700      5.5893      5.6507      5.7622      5.9389      6.1991      6.5642      7.0483      7.6551      8.3532    
  9.1748      10.386      12.187      14.524      17.149      19.701      21.819      23.209      36.895      36.085    
  33.743      30.138      25.709      21.025      16.680      13.159      10.684      9.1748      8.2299      7.4600    
  6.8308      6.3568      6.0223      5.7998      5.6630      5.5895      5.5668      5.5895      5.6630      5.7998    
  6.0223      6.3568      6.8308      7.4600      8.2299      9.1748      10.684      13.159      16.680      21.025    
  25.709      30.138      33.743      36.085      55.212      53.967      50.365      44.796      37.901      30.494    
  23.453      17.522      13.159      10.386      8.8467      7.8899      7.1157      6.5280      6.1101      5.8381    
  5.6712      5.5855      5.5575      5.5855      5.6712      5.8381      6.1101      6.5280      7.1157      7.8899    
  8.8467      10.386      13.159      17.522      23.453      30.494      37.901      44.796      50.365      53.967    
  78.227      76.437      71.260      63.265      53.348      42.639      32.328      23.453      16.680      12.187    
  9.6337      8.3033      7.4047      6.6991      6.2026      5.8736      5.6786      5.5753      5.5453      5.5753    
  5.6786      5.8736      6.2026      6.6991      7.4047      8.3033      9.6337      12.187      16.680      23.453    
  32.328      42.639      53.348      63.265      71.260      76.437      104.63      102.20      95.173      84.367    
  71.005      56.586      42.639      30.494      21.025      14.524      10.679      8.7295      7.6667      6.8652    
  6.2899      5.9084      5.6826      5.5637      5.5294      5.5637      5.6826      5.9084      6.2899      6.8652    
  7.6667      8.7295      10.679      14.524      21.025      30.494      42.639      56.586      71.005      84.367    
  95.173      102.20      132.27      129.13      120.11      106.28      89.281      71.005      53.348      37.901    
  25.709      17.149      11.918      9.2025      7.8880      7.0143      6.3667      5.9410      5.6835      5.5522    
  5.5112      5.5522      5.6835      5.9410      6.3667      7.0143      7.8880      9.2025      11.918      17.149    
  25.709      37.901      53.348      71.005      89.281      106.28      120.11      129.13      158.37      154.54    
  143.55      126.78      106.28      84.367      63.265      44.796      30.138      19.701      13.178      9.6964    
  8.0734      7.1337      6.4307      5.9677      5.6835      5.5412      5.4945      5.5412      5.6835      5.9677    
  6.4307      7.1337      8.0734      9.6964      13.178      19.701      30.138      44.796      63.265      84.367    
  106.28      126.78      143.55      154.54      179.90      175.48      162.80      143.55      120.11      95.173    
  71.260      50.365      33.743      21.819      14.258      10.137      8.2225      7.2178      6.4792      5.9867    
  5.6836      5.5315      5.4816      5.5315      5.6836      5.9867      6.4792      7.2178      8.2225      10.137    
  14.258      21.819      33.743      50.365      71.260      95.173      120.11      143.55      162.80      175.48    
  194.12      189.29      175.48      154.54      129.13      102.20      76.437      53.967      36.085      23.209    
  14.981      10.441      8.3219      7.2672      6.5093      5.9980      5.6838      5.5249      5.4736      5.5249    
  5.6838      5.9980      6.5093      7.2672      8.3219      10.441      14.981      23.209      36.085      53.967    
  76.437      102.20      129.13      154.54      175.48      189.29      194.12      189.29      175.48      154.54    
  129.13      102.20      76.437      53.967      36.085      23.209      14.981      10.441      8.3219      7.2672    
  6.5093      5.9980      5.6838      5.5249      5.4736      5.5249      5.6838      5.9980      6.5093      7.2672    
  8.3219      10.441      14.981      23.209      36.085      53.967      76.437      102.20      129.13      154.54    
  175.48      189.29      189.29      184.60      171.18      150.81      126.08      99.820      74.687      52.748    
  35.293      22.737      14.735      10.337      8.2885      7.2515      6.4997      5.9947      5.6842      5.5276    
  5.4767      5.5276      5.6842      5.9947      6.4997      7.2515      8.2885      10.337      14.735      22.737    
  35.293      52.748      74.687      99.820      126.08      150.81      171.18      184.60      175.48      171.18    
  158.85      140.11      117.28      92.963      69.625      49.225      33.003      21.381      14.034      10.045    
  8.1939      7.2035      6.4714      5.9848      5.6854      5.5353      5.4860      5.5353      5.6854      5.9848    
  6.4714      7.2035      8.1939      10.045      14.034      21.381      33.003      49.225      69.625      92.963    
  117.28      140.11      158.85      171.18      154.54      150.81      140.11      123.78      103.79      82.409    
  61.808      43.780      29.482      19.319      12.989      9.6239      8.0511      7.1214      6.4257      5.9678    
  5.6873      5.5465      5.5006      5.5465      5.6873      5.9678      6.4257      7.1214      8.0511      9.6239    
  12.989      19.319      29.482      43.780      61.808      82.409      103.79      123.78      140.11      150.81    
  129.13      126.08      117.28      103.79      87.201      69.357      52.117      37.044      25.162      16.839    
  11.773      9.1520      7.8716      7.0050      6.3649      5.9436      5.6896      5.5595      5.5193      5.5595    
  5.6896      5.9436      6.3649      7.0050      7.8716      9.1520      11.773      16.839      25.162      37.044    
  52.117      69.357      87.201      103.79      117.28      126.08      102.20      99.820      92.963      82.409    
  69.357      55.273      41.660      29.817      20.603      14.297      10.581      8.6991      7.6545      6.8600    
  6.2915      5.9141      5.6910      5.5732      5.5393      5.5732      5.6910      5.9141      6.2915      6.8600    
  7.6545      8.6991      10.581      14.297      20.603      29.817      41.660      55.273      69.357      82.409    
  92.963      99.820      76.437      74.687      69.625      61.808      52.117      41.660      31.602      22.960    
  16.386      12.039      9.5784      8.2861      7.3964      6.6986      6.2074      5.8824      5.6893      5.5873    
  5.5574      5.5873      5.6893      5.8824      6.2074      6.6986      7.3964      8.2861      9.5784      12.039    
  16.386      22.960      31.602      41.660      52.117      61.808      69.625      74.687      53.967      52.748    
  49.225      43.780      37.044      29.817      22.960      17.202      12.980      10.307      8.8209      7.8791    
  7.1125      6.5317      6.1188      5.8498      5.6845      5.5995      5.5716      5.5995      5.6845      5.8498    
  6.1188      6.5317      7.1125      7.8791      8.8209      10.307      12.980      17.202      22.960      29.817    
  37.044      43.780      49.225      52.748      36.085      35.293      33.003      29.482      25.162      20.603    
  16.386      12.980      10.595      9.1417      8.2170      7.4545      6.8332      6.3649      6.0344      5.8143    
  5.6789      5.6061      5.5836      5.6061      5.6789      5.8143      6.0344      6.3649      6.8332      7.4545    
  8.2170      9.1417      10.595      12.980      16.386      20.603      25.162      29.482      33.003      35.293    
  23.209      22.737      21.381      19.319      16.839      14.297      12.039      10.307      9.1417      8.3393    
  7.6484      7.0495      6.5717      6.2114      5.9548      5.7802      5.6696      5.6085      5.5893      5.6085    
  5.6696      5.7802      5.9548      6.2114      6.5717      7.0495      7.6484      8.3393      9.1417      10.307    
  12.039      14.297      16.839      19.319      21.381      22.737      14.981      14.735      14.034      12.989    
  11.773      10.581      9.5784      8.8209      8.2170      7.6484      7.1284      6.6904      6.3408      6.0761    
  5.8821      5.7462      5.6567      5.6061      5.5895      5.6061      5.6567      5.7462      5.8821      6.0761    
  6.3408      6.6904      7.1284      7.6484      8.2170      8.8209      9.5784      10.581      11.773      12.989    
  14.034      14.735      10.441      10.337      10.045      9.6239      9.1520      8.6991      8.2861      7.8791    
  7.4545      7.0495      6.6904      6.3884      6.1470      5.9587      5.8171      5.7133      5.6419      5.5995    
  5.5855      5.5995      5.6419      5.7133      5.8171      5.9587      6.1470      6.3884      6.6904      7.0495    
  7.4545      7.8791      8.2861      8.6991      9.1520      9.6239      10.045      10.337      8.3219      8.2885    
  8.1939      8.0511      7.8716      7.6545      7.3964      7.1125      6.8332      6.5717      6.3408      6.1470    
  5.9873      5.8601      5.7589      5.6801      5.6225      5.5873      5.5753      5.5873      5.6225      5.6801    
  5.7589      5.8601      5.9873      6.1470      6.3408      6.5717      6.8332      7.1125      7.3964      7.6545    
  7.8716      8.0511      8.1939      8.2885      7.2672      7.2515      7.2035      7.1214      7.0050      6.8600    
  6.6986      6.5317      6.3649      6.2114      6.0761      5.9587      5.8601      5.7764      5.7046      5.6455    
  5.6011      5.5732      5.5637      5.5732      5.6011      5.6455      5.7046      5.7764      5.8601      5.9587    
  6.0761      6.2114      6.3649      6.5317      6.6986      6.8600      7.0050      7.1214      7.2035      7.2515    
  6.5093      6.4997      6.4714      6.4257      6.3649      6.2915      6.2074      6.1188      6.0344      5.9548    
  5.8821      5.8171      5.7589      5.7046      5.6553      5.6133      5.5806      5.5595      5.5522      5.5595    
  5.5806      5.6133      5.6553      5.7046      5.7589      5.8171      5.8821      5.9548      6.0344      6.1188    
  6.2074      6.2915      6.3649      6.4257      6.4714      6.4997      5.9980      5.9947      5.9848      5.9678    
  5.9436      5.9141      5.8824      5.8498      5.8143      5.7802      5.7462      5.7133      5.6801      5.6455    
  5.6133      5.5847      5.5618      5.5465      5.5412      5.5465      5.5618      5.5847      5.6133      5.6455    
  5.6801      5.7133      5.7462      5.7802      5.8143      5.8498      5.8824      5.9141      5.9436      5.9678    
  5.9848      5.9947      5.6838      5.6842      5.6854      5.6873      5.6896      5.6910      5.6893      5.6845    
  5.6789      5.6696      5.6567      5.6419      5.6225      5.6011      5.5806      5.5618      5.5459      5.5353    
  5.5315      5.5353      5.5459      5.5618      5.5806      5.6011      5.6225      5.6419      5.6567      5.6696    
  5.6789      5.6845      5.6893      5.6910      5.6896      5.6873      5.6854      5.6842      5.5249      5.5276    
  5.5353      5.5465      5.5595      5.5732      5.5873      5.5995      5.6061      5.6085      5.6061      5.5995    
  5.5873      5.5732      5.5595      5.5465      5.5353      5.5276      5.5249      5.5276      5.5353      5.5465    
  5.5595      5.5732      5.5873      5.5995      5.6061      5.6085      5.6061      5.5995      5.5873      5.5732    
  5.5595      5.5465      5.5353      5.5276      5.4736      5.4767      5.4860      5.5006      5.5193      5.5393    
  5.5574      5.5716      5.5836      5.5893      5.5895      5.5855      5.5753      5.5637      5.5522      5.5412    
  5.5315      5.5249      5.5225      5.5249      5.5315      5.5412      5.5522      5.5637      5.5753      5.5855    
  5.5895      5.5893      5.5836      5.5716      5.5574      5.5393      5.5193      5.5006      5.4860      5.4767    
  5.5249      5.5276      5.5353      5.5465      5.5595      5.5732      5.5873      5.5995      5.6061      5.6085    
  5.6061      5.5995      5.5873      5.5732      5.5595      5.5465      5.5353      5.5276      5.5249      5.5276    
  5.5353      5.5465      5.5595      5.5732      5.5873      5.5995      5.6061      5.6085      5.6061      5.5995    
  5.5873      5.5732      5.5595      5.5465      5.5353      5.5276      5.6838      5.6842      5.6854      5.6873    
  5.6896      5.6910      5.6893      5.6845      5.6789      5.6696      5.6567      5.6419      5.6225      5.6011    
  5.5806      5.5618      5.5459      5.5353      5.5315      5.5353      5.5459      5.5618      5.5806      5.6011    
  5.6225      5.6419      5.6567      5.6696      5.6789      5.6845      5.6893      5.6910      5.6896      5.6873    
  5.6854      5.6842      5.9980      5.9947      5.9848      5.9678      5.9436      5.9141      5.8824      5.8498    
  5.8143      5.7802      5.7462      5.7133      5.6801      5.6455      5.6133      5.5847      5.5618      5.5465    
  5.5412      5.5465      5.5618      5.5847      5.6133      5.6455      5.6801      5.7133      5.7462      5.7802    
  5.8143      5.8498      5.8824      5.9141      5.9436      5.9678      5.9848      5.9947      6.5093      6.4997    
  6.4714      6.4257      6.3649      6.2915      6.2074      6.1188      6.0344      5.9548      5.8821      5.8171    
  5.7589      5.7046      5.6553      5.6133      5.5806      5.5595      5.5522      5.5595      5.5806      5.6133    
  5.6553      5.7046      5.7589      5.8171      5.8821      5.9548      6.0344      6.1188      6.2074      6.2915    
  6.3649      6.4257      6.4714      6.4997      7.2672      7.2515      7.2035      7.1214      7.0050      6.8600    
  6.6986      6.5317      6.3649      6.2114      6.0761      5.9587      5.8601      5.7764      5.7046      5.6455    
  5.6011      5.5732      5.5637      5.5732      5.6011      5.6455      5.7046      5.7764      5.8601      5.9587    
  6.0761      6.2114      6.3649      6.5317      6.6986      6.8600      7.0050      7.1214      7.2035      7.2515    
  8.3219      8.2885      8.1939      8.0511      7.8716      7.6545      7.3964      7.1125      6.8332      6.5717    
  6.3408      6.1470      5.9873      5.8601      5.7589      5.6801      5.6225      5.5873      5.5753      5.5873    
  5.6225      5.6801      5.7589      5.8601      5.9873      6.1470      6.3408      6.5717      6.8332      7.1125    
  7.3964      7.6545      7.8716      8.0511      8.1939      8.2885      10.441      10.337      10.045      9.6239    
  9.1520      8.6991      8.2861      7.8791      7.4545      7.0495      6.6904      6.3884      6.1470      5.9587    
  5.8171      5.7133      5.6419      5.5995      5.5855      5.5995      5.6419      5.7133      5.8171      5.9587    
  6.1470      6.3884      6.6904      7.0495      7.4545      7.8791      8.2861      8.6991      9.1520      9.6239    
  10.045      10.337      14.981      14.735      14.034      12.989      11.773      10.581      9.5784      8.8209    
  8.2170      7.6484      7.1284      6.6904      6.3408      6.0761      5.8821      5.7462      5.6567      5.6061    
  5.5895      5.6061      5.6567      5.7462      5.8821      6.0761      6.3408      6.6904      7.1284      7.6484    
  8.2170      8.8209      9.5784      10.581      11.773      12.989      14.034      14.735      23.209      22.737    
  21.381      19.319      16.839      14.297      12.039      10.307      9.1417      8.3393      7.6484      7.0495    
  6.5717      6.2114      5.9548      5.7802      5.6696      5.6085      5.5893      5.6085      5.6696      5.7802    
  5.9548      6.2114      6.5717      7.0495      7.6484      8.3393      9.1417      10.307      12.039      14.297    
  16.839      19.319      21.381      22.737      36.085      35.293      33.003      29.482      25.162      20.603    
  16.386      12.980      10.595      9.1417      8.2170      7.4545      6.8332      6.3649      6.0344      5.8143    
  5.6789      5.6061      5.5836      5.6061      5.6789      5.8143      6.0344      6.3649      6.8332      7.4545    
  8.2170      9.1417      10.595      12.980      16.386      20.603      25.162      29.482      33.003      35.293    
  53.967      52.748      49.225      43.780      37.044      29.817      22.960      17.202      12.980      10.307    
  8.8209      7.8791      7.1125      6.5317      6.1188      5.8498      5.6845      5.5995      5.5716      5.5995    
  5.6845      5.8498      6.1188      6.5317      7.1125      7.8791      8.8209      10.307      12.980      17.202    
  22.960      29.817      37.044      43.780      49.225      52.748      76.437      74.687      69.625      61.808    
  52.117      41.660      31.602      22.960      16.386      12.039      9.5784      8.2861      7.3964      6.6986    
  6.2074      5.8824      5.6893      5.5873      5.5574      5.5873      5.6893      5.8824      6.2074      6.6986    
  7.3964      8.2861      9.5784      12.039      16.386      22.960      31.602      41.660      52.117      61.808    
  69.625      74.687      102.20      99.820      92.963      82.409      69.357      55.273      41.660      29.817    
  20.603      14.297      10.581      8.6991      7.6545      6.8600      6.2915      5.9141      5.6910      5.5732    
  5.5393      5.5732      5.6910      5.9141      6.2915      6.8600      7.6545      8.6991      10.581      14.297    
  20.603      29.817      41.660      55.273      69.357      82.409      92.963      99.820      129.13      126.08    