    2    2  100    2
  0.1173411E+02  0.2863035E-09  0.2863035E-09  0.2863035E-09  0.5000000E-15
  1.000000000000000E-004
  CAR 
 unknown system                          
     16     35     20
 
  0.0000000E+00  0.0000000E+00  0.0000000E+00  0.1953125E-02
    1       -2.559734     -2.425259   1.000000   1.000000
    2        1.027289      2.809135   1.000000   1.000000
    3        1.027289      2.809281   1.000000   1.000000
    4        3.606163      5.466135   1.000000   1.003457
    5        3.606163      5.466272   1.000000   1.003466
    6        3.606163      5.466283   1.000000   1.003467
    7        4.827630      7.540394   1.000000  -0.000000
    8        4.827631      7.540563   1.000000  -0.000000
    9        6.053441      8.186422   0.040231  -0.000000
   10        6.053442      8.186548   0.040228  -0.000000
   11        6.053442      8.186561   0.040228  -0.000000
   12       15.909795     16.145260   0.000000   0.000000
   13       15.909795     16.145260   0.000000   0.000000
   14       15.909795     16.145263   0.000000   0.000000
   15       21.649563     22.674420   0.000000   0.000000
   16       21.649565     22.674433   0.000000   0.000000
   17       26.850264     27.924765   0.000000   0.000000
   18       31.018993     30.735118   0.000000   0.000000
   19       31.018994     30.735118   0.000000   0.000000
   20       31.018994     30.735118   0.000000   0.000000
 
  0.1250000E+00  0.0000000E+00  0.0000000E+00  0.1171875E-01
    1       -2.235657     -2.099352   1.000000   1.000000
    2        1.166345      2.919310   1.000000   1.000000
    3        1.168158      2.974325   1.000000   1.000000
    4        3.605167      5.453465   1.000000   1.002698
    5        3.605168      5.453612   1.000000   1.002706
    6        3.695356      5.564442   1.000000   1.016619
    7        4.681996      7.350994   1.000000  -0.000000
    8        4.884694      7.611618   1.000000  -0.000000
    9        5.790107      7.845058   0.927483  -0.000000
   10        5.790109      7.845194   0.927480  -0.000000
   11        5.956767      8.078057   0.321589  -0.000000
   12       13.966162     14.495696   0.000000   0.000000
   13       16.515573     16.831563   0.000000   0.000000
   14       16.515573     16.831565   0.000000   0.000000
   15       21.744182     22.740317   0.000000   0.000000
   16       22.939285     23.746946   0.000000   0.000000
   17       27.988453     29.001558   0.000000   0.000000
   18       29.288171     29.198837   0.000000   0.000000
   19       30.655196     30.527560   0.000000   0.000000
   20       30.655196     30.527562   0.000000   0.000000
 
  0.2500000E+00  0.0000000E+00  0.0000000E+00  0.1171875E-01
    1       -1.313195     -1.161891   1.000000   1.000000
    2        1.493159      3.095556   1.000000   1.000000
    3        1.565636      3.451478   1.000000   1.000000
    4        3.632869      5.454212   1.000000   1.002738
    5        3.632870      5.454357   1.000000   1.002746
    6        3.951109      5.846349   1.000000   0.767164
    7        4.264893      6.811340   1.000000  -0.000000
    8        5.048732      7.109007   1.000000  -0.000000
    9        5.186367      7.109141   1.000002  -0.000000
   10        5.186368      7.770256   1.000002  -0.000000
   11        5.682151      7.796948   1.034678  -0.000000
   12       10.803274     11.750561  -0.000000   0.000000
   13       18.133162     18.587601   0.000000   0.000000
   14       18.133162     18.587605   0.000000   0.000000
   15       22.046663     22.957187   0.000000   0.000000
   16       24.014389     24.678767   0.000000   0.000000
   17       26.866974     27.002230   0.000000   0.000000
   18       28.836395     29.138865   0.000000   0.000000
   19       28.836396     29.138872   0.000000   0.000000
   20       30.702836     31.100872   0.000000   0.000000
 
  0.3750000E+00  0.0000000E+00  0.0000000E+00  0.1171875E-01
    1        0.013909      0.246362   1.000000   1.000000
    2        1.691693      2.868204   1.000000   1.000000
    3        2.172811      4.186392   1.000000   1.000000
    4        3.638072      5.556992   1.000000   1.015112
    5        3.759795      5.557133   1.000000   1.015139
    6        3.759796      6.009712   1.000000   0.140483
    7        4.338689      6.274690   1.000000  -0.014204
    8        4.548836      6.381601   1.000000  -0.002292
    9        4.548837      6.381736   1.000000  -0.002286
   10        5.275630      7.315980   1.000031  -0.000000
   11        5.359875      8.048509   1.000322  -0.000000
   12        7.998674      9.573295  -0.000000  -0.000000
   13       20.418060     20.968529   0.000000   0.000000
   14       20.418060     20.968531   0.000000   0.000000
   15       22.615161     23.384719   0.000000   0.000000
   16       24.764181     25.290079   0.000000   0.000000
   17       24.928627     25.293810   0.000000   0.000000
   18       26.026396     26.555126   0.000000   0.000000
   19       26.026397     26.555131   0.000000   0.000000
   20       27.958437     28.340503   0.000000   0.000000
 
  0.5000000E+00  0.0000000E+00  0.0000000E+00  0.5859375E-02
    1        1.240104      1.796663   1.000000   1.000000
    2        1.240104      1.796663   1.000000   1.000000
    3        2.901343      5.083905   1.000000   1.000000
    4        2.901343      5.083905   1.000000   1.000000
    5        4.056039      5.851446   1.000000   0.749087
    6        4.056039      5.851446   1.000000   0.749087
    7        4.056040      5.851584   1.000000   0.748592
    8        4.056040      5.851584   1.000000   0.748592
    9        4.803410      6.790222   1.000000  -0.000000
   10        4.803410      6.790222   1.000000  -0.000000
   11        6.149249      8.472677  -0.035111  -0.000000
   12        6.149249      8.472677  -0.035111  -0.000000
   13       23.115487     23.697566   0.000000   0.000000
   14       23.115487     23.697566   0.000000   0.000000
   15       23.115488     23.697568   0.000000   0.000000
   16       23.115488     23.697568   0.000000   0.000000
   17       23.540598     24.121137   0.000000   0.000000
   18       23.540598     24.121137   0.000000   0.000000
   19       25.972784     26.392827   0.000000   0.000000
   20       25.972784     26.392827   0.000000   0.000000
 
  0.1250000E+00  0.1250000E+00  0.0000000E+00  0.2343750E-01
    1       -1.921045     -1.781305   1.000000   1.000000
    2        1.284537      3.076004   1.000000   1.000000
    3        1.320180      3.081571   1.000000   1.000000
    4        3.435362      5.261252   1.000000   1.000020
    5        3.575695      5.412141   1.000000   1.001123
    6        3.950026      5.840506   1.000000   0.787242
    7        4.688401      7.330229   1.000000  -0.000000
    8        4.843082      7.344015   1.000000  -0.000000
    9        5.351092      7.517394   1.000257  -0.000000
   10        5.531868      7.558202   1.010634  -0.000000
   11        6.093328      8.230962  -0.011247  -0.000000
   12       14.053364     14.666661   0.000000   0.000000
   13       14.935116     15.523635   0.000000   0.000000
   14       17.064888     17.431459   0.000000   0.000000
   15       22.388394     23.258920   0.000000   0.000000
   16       24.104171     24.758945   0.000000   0.000000
   17       27.604060     27.767606   0.000000   0.000000
   18       28.838177     29.832095   0.000000   0.000000
   19       29.932256     29.841829   0.000000   0.000000
   20       30.634352     30.550272   0.000000   0.000000
 
  0.2500000E+00  0.1250000E+00  0.0000000E+00  0.4687500E-01
    1       -1.034099     -0.870971   1.000000   1.000000
    2        1.579478      3.241157   1.000000   1.000000
    3        1.712462      3.520537   1.000000   1.000000
    4        3.332062      5.126432   1.000000   1.000000
    5        3.520852      5.332406   1.000000   1.000157
    6        4.324532      6.249317   1.000000  -0.019468
    7        4.445586      6.563557   1.000000  -0.000022
    8        4.690964      6.879807   1.000000  -0.000000
    9        4.977054      6.982230   1.000000  -0.000000
   10        4.987269      7.722970   1.000000  -0.000000
   11        5.992485      8.112280   0.192933  -0.000000
   12       11.151325     12.124191  -0.000000   0.000000
   13       15.977750     16.699289   0.000000   0.000000
   14       18.570452     19.035919   0.000000   0.000000
   15       22.814862     23.577190   0.000000   0.000000
   16       24.849403     25.250075   0.000000   0.000000
   17       25.741879     26.262318   0.000000   0.000000
   18       28.228292     28.347925   0.000000   0.000000
   19       29.162776     29.471650   0.000000   0.000000
   20       32.030968     32.891683   0.000000   0.000000
 
  0.3750000E+00  0.1250000E+00  0.0000000E+00  0.4687500E-01
    1        0.209141      0.481317   1.000000   1.000000
    2        1.752504      2.981242   1.000000   1.000000
    3        2.252212      4.163560   1.000000   1.000000
    4        3.356063      5.147436   1.000000   1.000000
    5        3.376774      5.228150   1.000000   1.000007
    6        4.070297      5.870155   1.000000   0.678722
    7        4.219458      6.430314   1.000000  -0.000789
    8        4.500749      6.476065   1.000000  -0.000256
    9        4.767329      6.735851   1.000000  -0.000000
   10        5.314358      7.749979   1.000096  -0.000000
   11        5.675586      7.995226   1.035258  -0.000000
   12        8.276253      9.796018  -0.000000  -0.000000
   13       17.802106     18.570621   0.000000   0.000000
   14       20.757858     21.302301   0.000000   0.000000
   15       22.264238     22.859662   0.000000   0.000000
   16       23.449918     24.059774   0.000000   0.000000
   17       26.148756     26.426079   0.000000   0.000000
   18       26.302213     26.836993   0.000000   0.000000
   19       26.953030     27.397169   0.000000   0.000000
   20       30.719261     31.103420   0.000000   0.000000
 
  0.5000000E+00  0.1250000E+00  0.0000000E+00  0.2343750E-01
    1        1.316583      1.947150   1.000000   1.000000
    2        1.316583      1.947150   1.000000   1.000000
    3        2.863895      4.841008   1.000000   1.000000
    4        2.863895      4.841008   1.000000   1.000000
    5        3.617355      5.385787   1.000000   1.000610
    6        3.617355      5.385787   1.000000   1.000610
    7        4.281619      6.273670   1.000000  -0.014399
    8        4.281619      6.273670   1.000000  -0.014399
    9        5.238950      7.259288   1.000010  -0.000000
   10        5.238950      7.259288   1.000010  -0.000000
   11        6.240504      8.494309  -0.021455  -0.000000
   12        6.240504      8.494309  -0.021455  -0.000000
   13       19.917919     20.641713   0.000000   0.000000
   14       19.917919     20.641713   0.000000   0.000000
   15       23.396088     23.972148   0.000000   0.000000
   16       23.396088     23.972148   0.000000   0.000000
   17       24.512497     24.946540   0.000000   0.000000
   18       24.512497     24.946540   0.000000   0.000000
   19       28.549001     28.944908   0.000000   0.000000
   20       28.549001     28.944908   0.000000   0.000000
 
  0.2500000E+00  0.2500000E+00  0.0000000E+00  0.2343750E-01
    1       -0.288970     -0.058132   1.000000   1.000000
    2        1.659274      3.326952   1.000000   1.000000
    3        2.193423      3.877255   1.000000   1.000000
    4        3.038943      4.790203   1.000000   1.000000
    5        3.465067      5.158564   1.000000   1.000001
    6        3.997086      5.788490   1.000000   0.930940
    7        4.616011      6.574642   1.000000  -0.000015
    8        4.668291      6.824237   1.000000  -0.000000
    9        4.845635      7.191894   1.000000  -0.000000
   10        4.898220      7.628837   1.000000  -0.000000
   11        6.189616      8.338334  -0.032459  -0.000000
   12       11.100211     12.084400  -0.000000   0.000000
   13       13.868383     14.901672   0.000000   0.000000
   14       19.825299     20.321510   0.000000   0.000000
   15       21.821512     22.421978   0.000000   0.000000
   16       23.183912     23.814916   0.000000   0.000000
   17       27.247708     27.311712   0.000000   0.000000
   18       28.923490     29.235445   0.000000   0.000000
   19       30.036667     30.246480   0.000000   0.000000
   20       30.241163     30.959120   0.000000   0.000000
 
  0.3750000E+00  0.2500000E+00  0.0000000E+00  0.4687500E-01
    1        0.607130      1.076675   1.000000   1.000000
    2        1.592839      2.972762   1.000000   1.000000
    3        2.793324      4.454269   1.000000   1.000000
    4        2.925943      4.646902   1.000000   1.000000
    5        3.414740      5.087824   1.000000   1.000000
    6        3.554399      5.150877   1.000000   1.000000
    7        4.494930      6.628033   1.000000  -0.000003
    8        4.675377      7.040882   1.000000  -0.000000
    9        5.175953      7.393786   1.000001  -0.000000
   10        5.358260      7.848446   1.000309  -0.000000
   11        6.107591      8.241614  -0.021783  -0.000000
   12        8.752161     10.107890  -0.000000  -0.000000
   13       14.804641     15.833688   0.000000   0.000000
   14       19.060824     19.827438   0.000000   0.000000
   15       21.757125     22.291070   0.000000   0.000000
   16       23.661668     24.120258   0.000000   0.000000
   17       25.795415     25.925702   0.000000   0.000000
   18       27.045523     27.603994   0.000000   0.000000
   19       31.062455     31.343812   0.000000   0.000000
   20       31.557145     31.976968   0.000000   0.000000
 
  0.5000000E+00  0.2500000E+00  0.0000000E+00  0.2343750E-01
    1        1.259993      2.187144   1.000000   1.000000
    2        1.259993      2.187144   1.000000   1.000000
    3        3.046090      4.759756   1.000000   1.000000
    4        3.046090      4.759756   1.000000   1.000000
    5        3.315711      4.923114   1.000000   1.000000
    6        3.315711      4.923114   1.000000   1.000000
    7        4.623537      6.862369   1.000000  -0.000000
    8        4.623537      6.862369   1.000000  -0.000000
    9        5.803113      7.893759   0.897280  -0.000000
   10        5.803113      7.893759   0.897280  -0.000000
   11        6.450383      8.493532  -0.000489  -0.000000
   12        6.450383      8.493532  -0.000489  -0.000000
   13       16.703701     17.618561   0.000000   0.000000
   14       16.703701     17.618561   0.000000   0.000000
   15       24.207656     24.768214   0.000000   0.000000
   16       24.207656     24.768214   0.000000   0.000000
   17       24.507085     24.781497   0.000000   0.000000
   18       24.507085     24.781497   0.000000   0.000000
   19       32.640960     32.984959   0.000000   0.000000
   20       32.640960     32.984959   0.000000   0.000000
 
  0.3750000E+00  0.3750000E+00  0.0000000E+00  0.2343750E-01
    1        0.873176      1.729322   1.000000   1.000000
    2        1.297889      2.638125   1.000000   1.000000
    3        2.661778      4.347408   1.000000   1.000000
    4        2.911127      4.602379   1.000000   1.000000
    5        3.609909      5.190032   1.000000   1.000002
    6        4.496153      5.455877   1.000000   1.002830
    7        4.634607      6.959703   1.000000  -0.000000
    8        4.978601      7.324031   1.000000  -0.000000
    9        4.978994      7.740880   1.000000  -0.000000
   10        5.859997      7.959012   0.717661  -0.000000
   11        6.286709      8.446602  -0.012025  -0.000000
   12        8.316680      9.548871  -0.000000  -0.000000
   13       13.438106     14.702331   0.000000   0.000000
   14       16.330360     17.288561   0.000000   0.000000
   15       23.350738     23.881760   0.000000   0.000000
   16       23.914005     24.180924   0.000000   0.000000
   17       25.122617     25.165569   0.000000   0.000000
   18       27.357600     27.959784   0.000000   0.000000
   19       29.654253     30.046855   0.000000   0.000000
   20       32.989939     33.428665   0.000000   0.000000
 
  0.5000000E+00  0.3750000E+00  0.0000000E+00  0.2343750E-01
    1        1.052597      2.225012   1.000000   1.000000
    2        1.052597      2.225012   1.000000   1.000000
    3        2.650574      4.325040   1.000000   1.000000
    4        2.650574      4.325040   1.000000   1.000000
    5        4.329107      5.738567   1.000000   1.006761
    6        4.329107      5.738568   1.000000   1.006761
    7        4.839683      7.260371   1.000000  -0.000000
    8        4.839683      7.260371   1.000000  -0.000000
    9        6.190865      8.243189  -0.032243  -0.000000
   10        6.190865      8.243189  -0.032243  -0.000000
   11        6.550310      8.335689  -0.000032  -0.000000
   12        6.550310      8.335689  -0.000032  -0.000000
   13       14.296721     15.463752   0.000000   0.000000
   14       14.296721     15.463752   0.000000   0.000000
   15       24.405004     24.503316   0.000000   0.000000
   16       24.405004     24.503316   0.000000   0.000000
   17       25.407903     25.951547   0.000000   0.000000
   18       25.407903     25.951547   0.000000   0.000000
   19       30.838965     31.284512   0.000000   0.000000
   20       30.838965     31.284512   0.000000   0.000000
 
  0.5000000E+00  0.5000000E+00  0.0000000E+00  0.5859375E-02
    1        0.958319      2.196821   1.000000   1.000000
    2        0.958319      2.196821   1.000000   1.000000
    3        2.510828      4.171592   1.000000   1.000000
    4        2.510828      4.171592   1.000000   1.000000
    5        4.898317      6.511996   1.000000  -0.000097
    6        4.898317      6.511996   1.000000  -0.000097
    7        5.020508      7.393413   1.000000  -0.000000
    8        5.020508      7.393413   1.000000  -0.000000
    9        6.327274      7.800706  -0.006359  -0.000000
   10        6.327274      7.800706  -0.006359  -0.000000
   11        6.437366      8.491915  -0.000668  -0.000000
   12        6.437366      8.491915  -0.000668  -0.000000
   13       13.346235     14.673468   0.000000   0.000000
   14       13.346235     14.673468   0.000000   0.000000
   15       24.350615     24.368126   0.000000   0.000000
   16       24.350616     24.368126   0.000000   0.000000
   17       26.262824     26.801397   0.000000   0.000000
   18       26.262824     26.801397   0.000000   0.000000
   19       29.530927     29.982357   0.000000   0.000000
   20       29.530927     29.982357   0.000000   0.000000
 
  0.1250000E+00  0.1250000E+00  0.1250000E+00  0.1562500E-01
    1       -1.613517     -1.469656   1.000000   1.000000
    2        1.434872      3.209076   1.000000   1.000000
    3        1.434872      3.209215   1.000000   1.000000
    4        3.395368      5.211159   1.000000   1.000004
    5        3.395368      5.211254   1.000000   1.000004
    6        4.216587      6.120933   1.000000  -0.028566
    7        4.760801      6.652276   1.000000  -0.000001
    8        4.760802      7.437958   1.000000  -0.000000
    9        4.799796      7.438125   1.000000  -0.000000
   10        5.831259      7.904144   0.817514  -0.000000
   11        5.831260      7.904233   0.817511  -0.000000
   12       14.580304     15.265319   0.000000   0.000000
   13       14.580305     15.265337   0.000000   0.000000
   14       15.755113     16.315157   0.000000   0.000000
   15       24.292898     24.920428   0.000000   0.000000
   16       24.292899     24.920434   0.000000   0.000000
   17       27.389655     27.568074   0.000000   0.000000
   18       27.389656     27.568077   0.000000   0.000000
   19       29.516968     30.497816   0.000000   0.000000
   20       31.453658     31.615955   0.000000   0.000000
 
  0.2500000E+00  0.1250000E+00  0.1250000E+00  0.4687500E-01
    1       -0.753837     -0.581611   1.000000   1.000000
    2        1.758036      3.407904   1.000000   1.000000
    3        1.771427      3.582139   1.000000   1.000000
    4        3.248792      5.015863   1.000000   1.000000
    5        3.286057      5.087226   1.000000   1.000000
    6        4.129614      5.894501   1.000000   0.579994
    7        4.546506      6.597547   1.000000  -0.000007
    8        4.667498      7.107254   1.000000  -0.000000
    9        4.944799      7.239980   1.000000  -0.000000
   10        5.254224      7.665198   1.000016  -0.000000
   11        5.881237      7.982259   0.634571  -0.000000
   12       11.541625     12.547846   0.000000   0.000000
   13       15.933521     16.724143   0.000000   0.000000
   14       16.703842     17.337461   0.000000   0.000000
   15       24.553396     24.943421   0.000000   0.000000
   16       24.887442     25.440461   0.000000   0.000000
   17       25.755369     26.131797   0.000000   0.000000
   18       26.329030     26.802823   0.000000   0.000000
   19       30.149697     30.798764   0.000000   0.000000
   20       31.485100     31.417836   0.000000   0.000000
 
  0.3750000E+00  0.1250000E+00  0.1250000E+00  0.4687500E-01
    1        0.423232      0.723542   1.000000   1.000000
    2        1.913613      3.133093   1.000000   1.000000
    3        2.224841      4.106092   1.000000   1.000000
    4        3.088285      4.913916   1.000000   1.000000
    5        3.318848      5.019844   1.000000   1.000000
    6        3.693632      5.466113   1.000000   1.003456
    7        4.334122      6.675028   1.000000  -0.000001
    8        4.693085      6.690089   1.000000  -0.000000
    9        5.055874      7.127161   1.000000  -0.000000
   10        5.398233      7.788960   1.000818  -0.000000
   11        5.667211      7.964554   1.035451  -0.000000
   12        8.644308     10.129512  -0.000000  -0.000000
   13       17.742202     18.564390   0.000000   0.000000
   14       18.395500     19.045780   0.000000   0.000000
   15       22.032733     22.622821   0.000000   0.000000
   16       23.061939     23.594907   0.000000   0.000000
   17       25.957645     26.410132   0.000000   0.000000
   18       27.528377     27.938698   0.000000   0.000000
   19       29.576664     29.787879   0.000000   0.000000
   20       29.885878     30.362357   0.000000   0.000000
 
  0.5000000E+00  0.1250000E+00  0.1250000E+00  0.2343750E-01
    1        1.447440      2.119416   1.000000   1.000000
    2        1.447440      2.119416   1.000000   1.000000
    3        2.719314      4.606947   1.000000   1.000000
    4        2.719314      4.606947   1.000000   1.000000
    5        3.526515      5.225692   1.000000   1.000007
    6        3.526515      5.225692   1.000000   1.000007
    7        4.354268      6.466085   1.000000  -0.000330
    8        4.354269      6.466085   1.000000  -0.000330
    9        5.334043      7.527346   1.000164  -0.000000
   10        5.334043      7.527346   1.000164  -0.000000
   11        6.537672      8.621198  -0.000047  -0.000000
   12        6.537672      8.621198  -0.000047  -0.000000
   13       19.787700     20.537826   0.000000   0.000000
   14       19.787700     20.537826   0.000000   0.000000
   15       20.530185     21.141567   0.000000   0.000000
   16       20.530185     21.141567   0.000000   0.000000
   17       27.553743     27.901007   0.000000   0.000000
   18       27.553743     27.901007   0.000000   0.000000
   19       28.784153     29.174197   0.000000   0.000000
   20       28.784153     29.174197   0.000000   0.000000
 
  0.2500000E+00  0.2500000E+00  0.1250000E+00  0.4687500E-01
    1       -0.008586      0.224126   1.000000   1.000000
    2        1.857242      3.532826   1.000000   1.000000
    3        2.235232      3.913475   1.000000   1.000000
    4        2.976781      4.710594   1.000000   1.000000
    5        3.181679      4.890249   1.000000   1.000000
    6        3.498115      5.197379   1.000000   1.000003
    7        4.708727      7.050077   1.000000  -0.000000
    8        4.886877      7.199828   1.000000  -0.000000
    9        5.009469      7.280945   1.000000  -0.000000
   10        5.256784      7.599915   1.000018  -0.000000
   11        5.905464      8.030223   0.533978  -0.000000
   12       11.666485     12.688713   0.000000   0.000000
   13       13.939250     14.956945   0.000000   0.000000
   14       17.384470     18.065580   0.000000   0.000000
   15       21.968381     22.539139   0.000000   0.000000
   16       25.043158     25.336431   0.000000   0.000000
   17       25.974728     26.417088   0.000000   0.000000
   18       27.523716     28.228378   0.000000   0.000000
   19       29.150771     29.449119   0.000000   0.000000
   20       32.265769     32.191647   0.000000   0.000000
 
  0.3750000E+00  0.2500000E+00  0.1250000E+00  0.9375000E-01
    1        0.865297      1.337715   1.000000   1.000000
    2        1.804170      3.185580   1.000000   1.000000
    3        2.673123      4.312866   1.000000   1.000000
    4        2.836710      4.541824   1.000000   1.000000
    5        3.227299      4.819152   1.000000   1.000000
    6        3.284123      4.922732   1.000000   1.000000
    7        4.659866      6.878959   1.000000  -0.000000
    8        4.711316      7.118986   1.000000  -0.000000
    9        5.073157      7.691991   1.000000  -0.000000
   10        5.805300      7.977063   0.891783  -0.000000
   11        5.963643      7.982033   0.295045  -0.000000
   12        9.321112     10.675317  -0.000000  -0.000000
   13       14.944244     15.941335   0.000000   0.000000
   14       18.868930     19.524215   0.000000   0.000000
   15       19.227771     19.962435   0.000000   0.000000
   16       23.077256     23.524115   0.000000   0.000000
   17       26.766035     27.114327   0.000000   0.000000
   18       27.244169     27.751212   0.000000   0.000000
   19       30.749733     31.082779   0.000000   0.000000
   20       31.382213     31.546425   0.000000   0.000000
 
  0.5000000E+00  0.2500000E+00  0.1250000E+00  0.4687500E-01
    1        1.473376      2.410240   1.000000   1.000000
    2        1.473376      2.410240   1.000000   1.000000
    3        2.781885      4.469875   1.000000   1.000000
    4        2.781885      4.469875   1.000000   1.000000
    5        3.361244      4.887647   1.000000   1.000000
    6        3.361244      4.887647   1.000000   1.000000
    7        4.648334      6.946413   1.000000  -0.000000
    8        4.648334      6.946413   1.000000  -0.000000
    9        5.448142      7.827440   1.002424  -0.000000
   10        5.448142      7.827441   1.002424  -0.000000
   11        7.172890      8.979403  -0.000000  -0.000000
   12        7.172890      8.979403  -0.000000  -0.000000
   13       16.864579     17.744411   0.000000   0.000000
   14       16.864579     17.744411   0.000000   0.000000
   15       20.797871     21.375547   0.000000   0.000000
   16       20.797871     21.375547   0.000000   0.000000
   17       27.406682     27.739671   0.000000   0.000000
   18       27.406682     27.739671   0.000000   0.000000
   19       30.617679     30.980037   0.000000   0.000000
   20       30.617679     30.980037   0.000000   0.000000
 
  0.3750000E+00  0.3750000E+00  0.1250000E+00  0.4687500E-01
    1        1.128072      1.995461   1.000000   1.000000
    2        1.501891      2.853359   1.000000   1.000000
    3        2.619816      4.279866   1.000000   1.000000
    4        2.786343      4.448065   1.000000   1.000000
    5        3.517316      5.019166   1.000000   1.000000
    6        3.961284      5.060022   1.000000   1.000000
    7        4.751916      7.110243   1.000000  -0.000000
    8        4.862961      7.375301   1.000000  -0.000000
    9        4.985533      7.744900   1.000000  -0.000000
   10        5.820446      8.058550   0.850433  -0.000000
   11        6.698637      8.525138  -0.000000  -0.000000
   12        9.176864     10.410161  -0.000000  -0.000000
   13       13.489161     14.714919   0.000000   0.000000
   14       16.490156     17.406253   0.000000   0.000000
   15       20.093689     20.660931   0.000000   0.000000
   16       23.324551     23.601486   0.000000   0.000000
   17       25.146814     25.766695   0.000000   0.000000
   18       26.552112     26.854680   0.000000   0.000000
   19       30.976358     31.414352   0.000000   0.000000
   20       31.773701     31.930968   0.000000   0.000000
 
  0.5000000E+00  0.3750000E+00  0.1250000E+00  0.4687500E-01
    1        1.273592      2.462957   1.000000   1.000000
    2        1.273593      2.462957   1.000000   1.000000
    3        2.596942      4.242574   1.000000   1.000000
    4        2.596942      4.242574   1.000000   1.000000
    5        4.129288      5.373674   1.000000   1.000454
    6        4.129288      5.373674   1.000000   1.000454
    7        4.860635      7.321199   1.000000  -0.000000
    8        4.860635      7.321199   1.000000  -0.000000
    9        5.420486      7.886667   1.001352  -0.000000
   10        5.420486      7.886668   1.001352  -0.000000
   11        7.784412      9.315156  -0.000000  -0.000000
   12        7.784412      9.315156  -0.000000  -0.000000
   13       14.405282     15.524795   0.000000   0.000000
   14       14.405282     15.524795   0.000000   0.000000
   15       21.770220     22.208397   0.000000   0.000000
   16       21.770220     22.208397   0.000000   0.000000
   17       25.596369     26.011765   0.000000   0.000000
   18       25.596369     26.011765   0.000000   0.000000
   19       31.188279     31.486566   0.000000   0.000000
   20       31.188279     31.486566   0.000000   0.000000
 
  0.5000000E+00  0.5000000E+00  0.1250000E+00  0.1171875E-01
    1        1.177938      2.431519   1.000000   1.000000
    2        1.177938      2.431519   1.000000   1.000000
    3        2.482775      4.114997   1.000000   1.000000
    4        2.482775      4.114997   1.000000   1.000000
    5        4.926120      5.872920   1.000000   0.667854
    6        4.926120      5.872920   1.000000   0.667854