PROCAR lm decomposed
# of k-points:   35         # of bands:   20         # of ions:    2

 k-point     1 :    0.00000000 0.00000000 0.00000000     weight = 0.00195312

band     1 # energy   -2.55973383 # occ.  1.00000000
 
ion      s     py     pz     px    dxy    dyz    dz2    dxz  x2-y2    tot
    1  0.369  0.000  0.000  0.000  0.000  0.000  0.000  0.000  0.000  0.369
    2  0.369  0.000  0.000  0.000  0.000  0.000  0.000  0.000  0.000  0.369
tot    0.738  0.000  0.000  0.000  0.000  0.000  0.000  0.000  0.000  0.738
 
band     2 # energy    1.02728920 # occ.  1.00000000
 
ion      s     py     pz     px    dxy    dyz    dz2    dxz  x2-y2    tot
    1  0.000  0.000  0.000  0.000  0.000  0.000  0.051  0.000  0.387  0.439
    2  0.000  0.000  0.000  0.000  0.000  0.000  0.051  0.000  0.387  0.439
tot    0.000  0.000  0.000  0.000  0.000  0.000  0.103  0.000  0.775  0.877
 
band     3 # energy    1.02728944 # occ.  1.00000000
 
ion      s     py     pz     px    dxy    dyz    dz2    dxz  x2-y2    tot
    1  0.000  0.000  0.000  0.000  0.000  0.000  0.387  0.000  0.051  0.439
    2  0.000  0.000  0.000  0.000  0.000  0.000  0.387  0.000  0.051  0.439
tot    0.000  0.000  0.000  0.000  0.000  0.000  0.775  0.000  0.103  0.877
 
band     4 # energy    3.60616266 # occ.  1.00000000
 
ion      s     py     pz     px    dxy    dyz    dz2    dxz  x2-y2    tot
    1  0.000  0.000  0.000  0.000  0.490  0.000  0.000  0.000  0.000  0.490
    2  0.000  0.000  0.000  0.000  0.490  0.000  0.000  0.000  0.000  0.490
tot    0.000  0.000  0.000  0.000  0.979  0.000  0.000  0.000  0.000  0.979
 
band     5 # energy    3.60616339 # occ.  1.00000000
 
ion      s     py     pz     px    dxy    dyz    dz2    dxz  x2-y2    tot
    1  0.000  0.000  0.000  0.000  0.000  0.016  0.000  0.473  0.000  0.490
    2  0.000  0.000  0.000  0.000  0.000  0.016  0.000  0.473  0.000  0.490
tot    0.000  0.000  0.000  0.000  0.000  0.033  0.000  0.946  0.000  0.979
 
band     6 # energy    3.60616341 # occ.  1.00000000
 
ion      s     py     pz     px    dxy    dyz    dz2    dxz  x2-y2    tot
    1  0.000  0.000  0.000  0.000  0.000  0.473  0.000  0.016  0.000  0.490
    2  0.000  0.000  0.000  0.000  0.000  0.473  0.000  0.016  0.000  0.490
tot    0.000  0.000  0.000  0.000  0.000  0.946  0.000  0.033  0.000  0.979
 
band     7 # energy    4.82763003 # occ.  1.00000000
 
ion      s     py     pz     px    dxy    dyz    dz2    dxz  x2-y2    tot
    1  0.000  0.000  0.000  0.000  0.000  0.000  0.480  0.000  0.005  0.485
    2  0.000  0.000  0.000  0.000  0.000  0.000  0.480  0.000  0.005  0.485
tot    0.000  0.000  0.000  0.000  0.000  0.000  0.960  0.000  0.010  0.970
 
band     8 # energy    4.82763083 # occ.  1.00000000
 
ion      s     py     pz     px    dxy    dyz    dz2    dxz  x2-y2    tot
    1  0.000  0.000  0.000  0.000  0.000  0.000  0.005  0.000  0.480  0.485
    2  0.000  0.000  0.000  0.000  0.000  0.000  0.005  0.000  0.480  0.485
tot    0.000  0.000  0.000  0.000  0.000  0.000  0.010  0.000  0.960  0.970
 
band     9 # energy    6.05344089 # occ.  0.04023072
 
ion      s     py     pz     px    dxy    dyz    dz2    dxz  x2-y2    tot
    1  0.000  0.000  0.000  0.000  0.494  0.000  0.000  0.000  0.000  0.494
    2  0.000  0.000  0.000  0.000  0.494  0.000  0.000  0.000  0.000  0.494
tot    0.000  0.000  0.000  0.000  0.988  0.000  0.000  0.000  0.000  0.988
 
band    10 # energy    6.05344234 # occ.  0.04022819
 
ion      s     py     pz     px    dxy    dyz    dz2    dxz  x2-y2    tot
    1  0.000  0.000  0.000  0.000  0.000  0.146  0.000  0.348  0.000  0.494
    2  0.000  0.000  0.000  0.000  0.000  0.146  0.000  0.348  0.000  0.494
tot    0.000  0.000  0.000  0.000  0.000  0.292  0.000  0.696  0.000  0.988
 
band    11 # energy    6.05344238 # occ.  0.04022813
 
ion      s     py     pz     px    dxy    dyz    dz2    dxz  x2-y2    tot
    1  0.000  0.000  0.000  0.000  0.000  0.348  0.000  0.146  0.000  0.494
    2  0.000  0.000  0.000  0.000  0.000  0.348  0.000  0.146  0.000  0.494
tot    0.000  0.000  0.000  0.000  0.000  0.696  0.000  0.292  0.000  0.988
 
band    12 # energy   15.90979477 # occ.  0.00000000
 
ion      s     py     pz     px    dxy    dyz    dz2    dxz  x2-y2    tot
    1  0.000  0.075  0.001  0.302  0.000  0.000  0.000  0.000  0.000  0.378
    2  0.000  0.075  0.001  0.302  0.000  0.000  0.000  0.000  0.000  0.378
tot    0.000  0.149  0.002  0.604  0.000  0.000  0.000  0.000  0.000  0.756
 
band    13 # energy   15.90979494 # occ.  0.00000000
 
ion      s     py     pz     px    dxy    dyz    dz2    dxz  x2-y2    tot
    1  0.000  0.301  0.004  0.072  0.000  0.000  0.000  0.000  0.000  0.378
    2  0.000  0.301  0.004  0.072  0.000  0.000  0.000  0.000  0.000  0.378
tot    0.000  0.602  0.009  0.144  0.000  0.000  0.000  0.000  0.000  0.756
 
band    14 # energy   15.90979501 # occ.  0.00000000
 
ion      s     py     pz     px    dxy    dyz    dz2    dxz  x2-y2    tot
    1  0.000  0.002  0.372  0.004  0.000  0.000  0.000  0.000  0.000  0.378
    2  0.000  0.002  0.372  0.004  0.000  0.000  0.000  0.000  0.000  0.378
tot    0.000  0.004  0.744  0.007  0.000  0.000  0.000  0.000  0.000  0.756
 
band    15 # energy   21.64956333 # occ.  0.00000000
 
ion      s     py     pz     px    dxy    dyz    dz2    dxz  x2-y2    tot
    1  0.000  0.000  0.000  0.000  0.000  0.000  0.479  0.000  0.000  0.479
    2  0.000  0.000  0.000  0.000  0.000  0.000  0.479  0.000  0.000  0.479
tot    0.000  0.000  0.000  0.000  0.000  0.000  0.958  0.000  0.000  0.958
 
band    16 # energy   21.64956500 # occ.  0.00000000
 
ion      s     py     pz     px    dxy    dyz    dz2    dxz  x2-y2    tot
    1  0.000  0.000  0.000  0.000  0.000  0.000  0.000  0.000  0.479  0.479
    2  0.000  0.000  0.000  0.000  0.000  0.000  0.000  0.000  0.479  0.479
tot    0.000  0.000  0.000  0.000  0.000  0.000  0.000  0.000  0.958  0.958
 
band    17 # energy   26.85026400 # occ.  0.00000000
 
ion      s     py     pz     px    dxy    dyz    dz2    dxz  x2-y2    tot
    1  0.391  0.000  0.000  0.000  0.000  0.000  0.000  0.000  0.000  0.391
    2  0.391  0.000  0.000  0.000  0.000  0.000  0.000  0.000  0.000  0.391
tot    0.781  0.000  0.000  0.000  0.000  0.000  0.000  0.000  0.000  0.781
 
band    18 # energy   31.01899349 # occ.  0.00000000
 
ion      s     py     pz     px    dxy    dyz    dz2    dxz  x2-y2    tot
    1  0.000  0.000  0.000  0.000  0.000  0.000  0.000  0.000  0.000  0.000
    2  0.000  0.000  0.000  0.000  0.000  0.000  0.000  0.000  0.000  0.000
tot    0.000  0.000  0.000  0.000  0.000  0.000  0.000  0.000  0.000  0.000
 
band    19 # energy   31.01899351 # occ.  0.00000000
 
ion      s     py     pz     px    dxy    dyz    dz2    dxz  x2-y2    tot
    1  0.000  0.000  0.000  0.000  0.000  0.000  0.000  0.000  0.000  0.000
    2  0.000  0.000  0.000  0.000  0.000  0.000  0.000  0.000  0.000  0.000
tot    0.000  0.000  0.000  0.000  0.000  0.000  0.000  0.000  0.000  0.000
 
band    20 # energy   31.01899355 # occ.  0.00000000
 
ion      s     py     pz     px    dxy    dyz    dz2    dxz  x2-y2    tot
    1  0.000  0.000  0.000  0.000  0.000  0.000  0.000  0.000  0.000  0.000
    2  0.000  0.000  0.000  0.000  0.000  0.000  0.000  0.000  0.000  0.000
tot    0.000  0.000  0.000  0.000  0.000  0.000  0.000  0.000  0.000  0.000
 

 k-point     2 :    0.12500000 0.00000000 0.00000000     weight = 0.01171875

band     1 # energy   -2.23565650 # occ.  1.00000000
 
ion      s     py     pz     px    dxy    dyz    dz2    dxz  x2-y2    tot
    1  0.357  0.000  0.000  0.012  0.000  0.000  0.000  0.000  0.000  0.369
    2  0.357  0.000  0.000  0.012  0.000  0.000  0.000  0.000  0.000  0.369
tot    0.715  0.000  0.000  0.023  0.000  0.000  0.000  0.000  0.000  0.739
 
band     2 # energy    1.16634507 # occ.  1.00000000
 
ion      s     py     pz     px    dxy    dyz    dz2    dxz  x2-y2    tot
    1  0.000  0.000  0.000  0.000  0.000  0.000  0.329  0.000  0.110  0.439
    2  0.000  0.000  0.000  0.000  0.000  0.000  0.329  0.000  0.110  0.439
tot    0.000  0.000  0.000  0.000  0.000  0.000  0.659  0.000  0.220  0.878
 
band     3 # energy    1.16815755 # occ.  1.00000000
 
ion      s     py     pz     px    dxy    dyz    dz2    dxz  x2-y2    tot
    1  0.000  0.000  0.000  0.009  0.000  0.000  0.107  0.000  0.322  0.438
    2  0.000  0.000  0.000  0.009  0.000  0.000  0.107  0.000  0.322  0.438
tot    0.001  0.000  0.000  0.017  0.000  0.000  0.215  0.000  0.643  0.876
 
band     4 # energy    3.60516707 # occ.  1.00000000
 
ion      s     py     pz     px    dxy    dyz    dz2    dxz  x2-y2    tot
    1  0.000  0.001  0.000  0.000  0.487  0.000  0.000  0.000  0.000  0.488
    2  0.000  0.001  0.000  0.000  0.487  0.000  0.000  0.000  0.000  0.488
tot    0.000  0.002  0.000  0.000  0.974  0.000  0.000  0.000  0.000  0.977
 
band     5 # energy    3.60516780 # occ.  1.00000000
 
ion      s     py     pz     px    dxy    dyz    dz2    dxz  x2-y2    tot
    1  0.000  0.000  0.001  0.000  0.000  0.000  0.000  0.487  0.000  0.488
    2  0.000  0.000  0.001  0.000  0.000  0.000  0.000  0.487  0.000  0.488
tot    0.000  0.000  0.002  0.000  0.000  0.000  0.000  0.974  0.000  0.977
 
band     6 # energy    3.69535557 # occ.  1.00000000
 
ion      s     py     pz     px    dxy    dyz    dz2    dxz  x2-y2    tot
    1  0.000  0.000  0.000  0.000  0.000  0.489  0.000  0.000  0.000  0.489
    2  0.000  0.000  0.000  0.000  0.000  0.489  0.000  0.000  0.000  0.489
tot    0.000  0.000  0.000  0.000  0.000  0.978  0.000  0.000  0.000  0.978
 
band     7 # energy    4.68199553 # occ.  1.00000000
 
ion      s     py     pz     px    dxy    dyz    dz2    dxz  x2-y2    tot
    1  0.000  0.000  0.000  0.000  0.000  0.000  0.362  0.000  0.121  0.482
    2  0.000  0.000  0.000  0.000  0.000  0.000  0.362  0.000  0.121  0.482
tot    0.000  0.000  0.000  0.000  0.000  0.000  0.723  0.000  0.241  0.964
 
band     8 # energy    4.88469433 # occ.  1.00000000
 
ion      s     py     pz     px    dxy    dyz    dz2    dxz  x2-y2    tot
    1  0.000  0.000  0.000  0.000  0.000  0.000  0.122  0.000  0.365  0.486
    2  0.000  0.000  0.000  0.000  0.000  0.000  0.122  0.000  0.365  0.486
tot    0.000  0.000  0.000  0.000  0.000  0.000  0.243  0.000  0.729  0.973
 
band     9 # energy    5.79010726 # occ.  0.92748282
 
ion      s     py     pz     px    dxy    dyz    dz2    dxz  x2-y2    tot
    1  0.000  0.007  0.000  0.000  0.483  0.000  0.000  0.000  0.000  0.490
    2  0.000  0.007  0.000  0.000  0.483  0.000  0.000  0.000  0.000  0.490
tot    0.000  0.013  0.000  0.000  0.967  0.000  0.000  0.000  0.000  0.980
 
band    10 # energy    5.79010861 # occ.  0.92747990
 
ion      s     py     pz     px    dxy    dyz    dz2    dxz  x2-y2    tot
    1  0.000  0.000  0.007  0.000  0.000  0.000  0.000  0.483  0.000  0.490
    2  0.000  0.000  0.007  0.000  0.000  0.000  0.000  0.483  0.000  0.490
tot    0.000  0.000  0.013  0.000  0.000  0.000  0.000  0.967  0.000  0.980
 
band    11 # energy    5.95676729 # occ.  0.32158858
 
ion      s     py     pz     px    dxy    dyz    dz2    dxz  x2-y2    tot
    1  0.000  0.000  0.000  0.000  0.000  0.493  0.000  0.000  0.000  0.493
    2  0.000  0.000  0.000  0.000  0.000  0.493  0.000  0.000  0.000  0.493
tot    0.000  0.000  0.000  0.000  0.000  0.986  0.000  0.000  0.000  0.986
 
band    12 # energy   13.96616237 # occ.  0.00000000
 
ion      s     py     pz     px    dxy    dyz    dz2    dxz  x2-y2    tot
    1  0.042  0.000  0.000  0.294  0.000  0.000  0.016  0.000  0.047  0.399
    2  0.042  0.000  0.000  0.294  0.000  0.000  0.016  0.000  0.047  0.399
tot    0.084  0.000  0.000  0.589  0.000  0.000  0.032  0.000  0.095  0.799
 
band    13 # energy   16.51557297 # occ.  0.00000000
 
ion      s     py     pz     px    dxy    dyz    dz2    dxz  x2-y2    tot
    1  0.000  0.364  0.000  0.000  0.023  0.000  0.000  0.000  0.000  0.387
    2  0.000  0.364  0.000  0.000  0.023  0.000  0.000  0.000  0.000  0.387
tot    0.000  0.728  0.000  0.000  0.046  0.000  0.000  0.000  0.000  0.775
 
band    14 # energy   16.51557318 # occ.  0.00000000
 
ion      s     py     pz     px    dxy    dyz    dz2    dxz  x2-y2    tot
    1  0.000  0.000  0.364  0.000  0.000  0.000  0.000  0.023  0.000  0.387
    2  0.000  0.000  0.364  0.000  0.000  0.000  0.000  0.023  0.000  0.387
tot    0.000  0.000  0.728  0.000  0.000  0.000  0.000  0.046  0.000  0.775
 
band    15 # energy   21.74418224 # occ.  0.00000000
 
ion      s     py     pz     px    dxy    dyz    dz2    dxz  x2-y2    tot
    1  0.000  0.000  0.000  0.000  0.000  0.000  0.354  0.000  0.118  0.472
    2  0.000  0.000  0.000  0.000  0.000  0.000  0.354  0.000  0.118  0.472
tot    0.000  0.000  0.000  0.000  0.000  0.000  0.708  0.000  0.236  0.944
 
band    16 # energy   22.93928528 # occ.  0.00000000
 
ion      s     py     pz     px    dxy    dyz    dz2    dxz  x2-y2    tot
    1  0.038  0.000  0.000  0.013  0.000  0.000  0.097  0.000  0.290  0.437
    2  0.038  0.000  0.000  0.013  0.000  0.000  0.097  0.000  0.290  0.437
tot    0.076  0.000  0.000  0.026  0.000  0.000  0.193  0.000  0.579  0.874
 
band    17 # energy   27.98845274 # occ.  0.00000000
 
ion      s     py     pz     px    dxy    dyz    dz2    dxz  x2-y2    tot
    1  0.308  0.000  0.000  0.065  0.000  0.000  0.006  0.000  0.018  0.397
    2  0.308  0.000  0.000  0.065  0.000  0.000  0.006  0.000  0.018  0.397
tot    0.616  0.000  0.000  0.129  0.000  0.000  0.012  0.000  0.036  0.794
 
band    18 # energy   29.28817101 # occ.  0.00000000
 
ion      s     py     pz     px    dxy    dyz    dz2    dxz  x2-y2    tot
    1  0.000  0.000  0.000  0.000  0.000  0.000  0.099  0.000  0.033  0.132
    2  0.000  0.000  0.000  0.000  0.000  0.000  0.099  0.000  0.033  0.132
tot    0.000  0.000  0.000  0.000  0.000  0.000  0.198  0.000  0.066  0.264
 
band    19 # energy   30.65519615 # occ.  0.00000000
 
ion      s     py     pz     px    dxy    dyz    dz2    dxz  x2-y2    tot
    1  0.000  0.012  0.000  0.000  0.126  0.000  0.000  0.000  0.000  0.138
    2  0.000  0.012  0.000  0.000  0.126  0.000  0.000  0.000  0.000  0.138
tot    0.000  0.024  0.000  0.000  0.252  0.000  0.000  0.000  0.000  0.276
 
band    20 # energy   30.65519642 # occ.  0.00000000
 
ion      s     py     pz     px    dxy    dyz    dz2    dxz  x2-y2    tot
    1  0.000  0.000  0.012  0.000  0.000  0.000  0.000  0.126  0.000  0.138
    2  0.000  0.000  0.012  0.000  0.000  0.000  0.000  0.126  0.000  0.138
tot    0.000  0.000  0.024  0.000  0.000  0.000  0.000  0.252  0.000  0.276
 

 k-point     3 :    0.25000000 0.00000000 0.00000000     weight = 0.01171875

band     1 # energy   -1.31319474 # occ.  1.00000000
 
ion      s     py     pz     px    dxy    dyz    dz2    dxz  x2-y2    tot
    1  0.321  0.000  0.000  0.044  0.000  0.000  0.001  0.000  0.004  0.371
    2  0.321  0.000  0.000  0.044  0.000  0.000  0.001  0.000  0.004  0.371
tot    0.642  0.000  0.000  0.087  0.000  0.000  0.003  0.000  0.009  0.741
 
band     2 # energy    1.49315865 # occ.  1.00000000
 
ion      s     py     pz     px    dxy    dyz    dz2    dxz  x2-y2    tot
    1  0.007  0.000  0.000  0.033  0.000  0.000  0.099  0.000  0.296  0.435
    2  0.007  0.000  0.000  0.033  0.000  0.000  0.099  0.000  0.296  0.435
tot    0.014  0.000  0.000  0.067  0.000  0.000  0.197  0.000  0.591  0.869
 
band     3 # energy    1.56563622 # occ.  1.00000000
 
ion      s     py     pz     px    dxy    dyz    dz2    dxz  x2-y2    tot
    1  0.000  0.000  0.000  0.000  0.000  0.000  0.331  0.000  0.110  0.441
    2  0.000  0.000  0.000  0.000  0.000  0.000  0.331  0.000  0.110  0.441
tot    0.000  0.000  0.000  0.000  0.000  0.000  0.662  0.000  0.221  0.883
 
band     4 # energy    3.63286911 # occ.  1.00000000
 
ion      s     py     pz     px    dxy    dyz    dz2    dxz  x2-y2    tot
    1  0.000  0.005  0.000  0.000  0.481  0.000  0.000  0.000  0.000  0.485
    2  0.000  0.005  0.000  0.000  0.481  0.000  0.000  0.000  0.000  0.485
tot    0.000  0.009  0.000  0.000  0.962  0.000  0.000  0.000  0.000  0.971
 
band     5 # energy    3.63286984 # occ.  1.00000000
 
ion      s     py     pz     px    dxy    dyz    dz2    dxz  x2-y2    tot
    1  0.000  0.000  0.005  0.000  0.000  0.000  0.000  0.481  0.000  0.485
    2  0.000  0.000  0.005  0.000  0.000  0.000  0.000  0.481  0.000  0.485
tot    0.000  0.000  0.009  0.000  0.000  0.000  0.000  0.962  0.000  0.971
 
band     6 # energy    3.95110949 # occ.  1.00000000
 
ion      s     py     pz     px    dxy    dyz    dz2    dxz  x2-y2    tot
    1  0.000  0.000  0.000  0.000  0.000  0.488  0.000  0.000  0.000  0.488
    2  0.000  0.000  0.000  0.000  0.000  0.488  0.000  0.000  0.000  0.488
tot    0.000  0.000  0.000  0.000  0.000  0.976  0.000  0.000  0.000  0.976
 
band     7 # energy    4.26489345 # occ.  1.00000000
 
ion      s     py     pz     px    dxy    dyz    dz2    dxz  x2-y2    tot
    1  0.000  0.000  0.000  0.000  0.000  0.000  0.356  0.000  0.119  0.474
    2  0.000  0.000  0.000  0.000  0.000  0.000  0.356  0.000  0.119  0.474
tot    0.000  0.000  0.000  0.000  0.000  0.000  0.711  0.000  0.237  0.948
 
band     8 # energy    5.04873228 # occ.  1.00000001
 
ion      s     py     pz     px    dxy    dyz    dz2    dxz  x2-y2    tot
    1  0.004  0.000  0.000  0.001  0.000  0.000  0.121  0.000  0.363  0.489
    2  0.004  0.000  0.000  0.001  0.000  0.000  0.121  0.000  0.363  0.489
tot    0.008  0.000  0.000  0.001  0.000  0.000  0.242  0.000  0.726  0.977
 
band     9 # energy    5.18636702 # occ.  1.00000173
 
ion      s     py     pz     px    dxy    dyz    dz2    dxz  x2-y2    tot
    1  0.000  0.016  0.000  0.000  0.468  0.000  0.000  0.000  0.000  0.484
    2  0.000  0.016  0.000  0.000  0.468  0.000  0.000  0.000  0.000  0.484
tot    0.000  0.032  0.000  0.000  0.935  0.000  0.000  0.000  0.000  0.967
 
band    10 # energy    5.18636816 # occ.  1.00000173
 
ion      s     py     pz     px    dxy    dyz    dz2    dxz  x2-y2    tot
    1  0.000  0.000  0.016  0.000  0.000  0.000  0.000  0.468  0.000  0.484
    2  0.000  0.000  0.016  0.000  0.000  0.000  0.000  0.468  0.000  0.484
tot    0.000  0.000  0.032  0.000  0.000  0.000  0.000  0.935  0.000  0.967
 
band    11 # energy    5.68215079 # occ.  1.03467755
 
ion      s     py     pz     px    dxy    dyz    dz2    dxz  x2-y2    tot
    1  0.000  0.000  0.000  0.000  0.000  0.491  0.000  0.000  0.000  0.491
    2  0.000  0.000  0.000  0.000  0.000  0.491  0.000  0.000  0.000  0.491
tot    0.000  0.000  0.000  0.000  0.000  0.982  0.000  0.000  0.000  0.982
 
band    12 # energy   10.80327406 # occ. -0.00000000
 
ion      s     py     pz     px    dxy    dyz    dz2    dxz  x2-y2    tot
    1  0.093  0.000  0.000  0.210  0.000  0.000  0.029  0.000  0.086  0.417
    2  0.093  0.000  0.000  0.210  0.000  0.000  0.029  0.000  0.086  0.417
tot    0.187  0.000  0.000  0.419  0.000  0.000  0.057  0.000  0.171  0.834
 
band    13 # energy   18.13316181 # occ.  0.00000000
 
ion      s     py     pz     px    dxy    dyz    dz2    dxz  x2-y2    tot
    1  0.000  0.333  0.000  0.000  0.076  0.000  0.000  0.000  0.000  0.410
    2  0.000  0.333  0.000  0.000  0.076  0.000  0.000  0.000  0.000  0.410
tot    0.000  0.667  0.000  0.000  0.153  0.000  0.000  0.000  0.000  0.819
 
band    14 # energy   18.13316226 # occ.  0.00000000
 
ion      s     py     pz     px    dxy    dyz    dz2    dxz  x2-y2    tot
    1  0.000  0.000  0.333  0.000  0.000  0.000  0.000  0.076  0.000  0.410
    2  0.000  0.000  0.333  0.000  0.000  0.000  0.000  0.076  0.000  0.410
tot    0.000  0.000  0.667  0.000  0.000  0.000  0.000  0.153  0.000  0.819
 
band    15 # energy   22.04666282 # occ.  0.00000000
 
ion      s     py     pz     px    dxy    dyz    dz2    dxz  x2-y2    tot
    1  0.000  0.000  0.000  0.000  0.000  0.000  0.338  0.000  0.113  0.451
    2  0.000  0.000  0.000  0.000  0.000  0.000  0.338  0.000  0.113  0.451
tot    0.000  0.000  0.000  0.000  0.000  0.000  0.677  0.000  0.226  0.902
 
band    16 # energy   24.01438858 # occ.  0.00000000
 
ion      s     py     pz     px    dxy    dyz    dz2    dxz  x2-y2    tot
    1  0.134  0.000  0.000  0.003  0.000  0.000  0.057  0.000  0.172  0.366
    2  0.134  0.000  0.000  0.003  0.000  0.000  0.057  0.000  0.172  0.366
tot    0.267  0.000  0.000  0.006  0.000  0.000  0.115  0.000  0.344  0.731
 
band    17 # energy   26.86697389 # occ.  0.00000000
 
ion      s     py     pz     px    dxy    dyz    dz2    dxz  x2-y2    tot
    1  0.000  0.000  0.000  0.000  0.000  0.000  0.177  0.000  0.059  0.236
    2  0.000  0.000  0.000  0.000  0.000  0.000  0.177  0.000  0.059  0.236
tot    0.000  0.000  0.000  0.000  0.000  0.000  0.353  0.000  0.118  0.471
 
band    18 # energy   28.83639494 # occ.  0.00000000
 
ion      s     py     pz     px    dxy    dyz    dz2    dxz  x2-y2    tot
    1  0.000  0.102  0.000  0.000  0.299  0.000  0.000  0.000  0.000  0.400
    2  0.000  0.102  0.000  0.000  0.299  0.000  0.000  0.000  0.000  0.400
tot    0.000  0.203  0.000  0.000  0.597  0.000  0.000  0.000  0.000  0.800
 
band    19 # energy   28.83639567 # occ.  0.00000000
 
ion      s     py     pz     px    dxy    dyz    dz2    dxz  x2-y2    tot
    1  0.000  0.000  0.102  0.000  0.000  0.000  0.000  0.299  0.000  0.400
    2  0.000  0.000  0.102  0.000  0.000  0.000  0.000  0.299  0.000  0.400
tot    0.000  0.000  0.203  0.000  0.000  0.000  0.000  0.597  0.000  0.800
 
band    20 # energy   30.70283633 # occ.  0.00000000
 
ion      s     py     pz     px    dxy    dyz    dz2    dxz  x2-y2    tot
    1  0.040  0.000  0.000  0.175  0.000  0.000  0.009  0.000  0.026  0.250
    2  0.040  0.000  0.000  0.175  0.000  0.000  0.009  0.000  0.026  0.250
tot    0.081  0.000  0.000  0.351  0.000  0.000  0.017  0.000  0.052  0.501
 

 k-point     4 :    0.37500000 0.00000000 0.00000000     weight = 0.01171875

band     1 # energy    0.01390888 # occ.  1.00000000
 
ion      s     py     pz     px    dxy    dyz    dz2    dxz  x2-y2    tot
    1  0.252  0.000  0.000  0.085  0.000  0.000  0.010  0.000  0.029  0.375
    2  0.252  0.000  0.000  0.085  0.000  0.000  0.010  0.000  0.029  0.375
tot    0.504  0.000  0.000  0.171  0.000  0.000  0.019  0.000  0.057  0.751
 
band     2 # energy    1.69169319 # occ.  1.00000000
 
ion      s     py     pz     px    dxy    dyz    dz2    dxz  x2-y2    tot
    1  0.042  0.000  0.000  0.071  0.000  0.000  0.077  0.000  0.231  0.421
    2  0.042  0.000  0.000  0.071  0.000  0.000  0.077  0.000  0.231  0.421
tot    0.085  0.000  0.000  0.142  0.000  0.000  0.154  0.000  0.462  0.843
 
band     3 # energy    2.17281103 # occ.  1.00000000
 
ion      s     py     pz     px    dxy    dyz    dz2    dxz  x2-y2    tot
    1  0.000  0.000  0.000  0.000  0.000  0.000  0.334  0.000  0.111  0.446
    2  0.000  0.000  0.000  0.000  0.000  0.000  0.334  0.000  0.111  0.446
tot    0.000  0.000  0.000  0.000  0.000  0.000  0.669  0.000  0.223  0.892
 
band     4 # energy    3.63807167 # occ.  1.00000000
 
ion      s     py     pz     px    dxy    dyz    dz2    dxz  x2-y2    tot
    1  0.000  0.000  0.000  0.000  0.000  0.000  0.348  0.000  0.116  0.464
    2  0.000  0.000  0.000  0.000  0.000  0.000  0.348  0.000  0.116  0.464
tot    0.000  0.000  0.000  0.000  0.000  0.000  0.695  0.000  0.232  0.927
 
band     5 # energy    3.75979542 # occ.  1.00000000
 
ion      s     py     pz     px    dxy    dyz    dz2    dxz  x2-y2    tot
    1  0.000  0.010  0.000  0.000  0.472  0.000  0.000  0.000  0.000  0.482
    2  0.000  0.010  0.000  0.000  0.472  0.000  0.000  0.000  0.000  0.482
tot    0.000  0.019  0.000  0.000  0.945  0.000  0.000  0.000  0.000  0.964
 
band     6 # energy    3.75979617 # occ.  1.00000000
 
ion      s     py     pz     px    dxy    dyz    dz2    dxz  x2-y2    tot
    1  0.000  0.000  0.010  0.000  0.000  0.000  0.000  0.472  0.000  0.482
    2  0.000  0.000  0.010  0.000  0.000  0.000  0.000  0.472  0.000  0.482
tot    0.000  0.000  0.019  0.000  0.000  0.000  0.000  0.945  0.000  0.964
 
band     7 # energy    4.33868935 # occ.  1.00000000
 
ion      s     py     pz     px    dxy    dyz    dz2    dxz  x2-y2    tot
    1  0.000  0.000  0.000  0.000  0.000  0.487  0.000  0.000  0.000  0.487
    2  0.000  0.000  0.000  0.000  0.000  0.487  0.000  0.000  0.000  0.487
tot    0.000  0.000  0.000  0.000  0.000  0.974  0.000  0.000  0.000  0.974
 
band     8 # energy    4.54883582 # occ.  1.00000000
 
ion      s     py     pz     px    dxy    dyz    dz2    dxz  x2-y2    tot
    1  0.000  0.018  0.000  0.000  0.461  0.000  0.000  0.000  0.000  0.480
    2  0.000  0.018  0.000  0.000  0.461  0.000  0.000  0.000  0.000  0.480
tot    0.000  0.037  0.000  0.000  0.923  0.000  0.000  0.000  0.000  0.960
 
band     9 # energy    4.54883677 # occ.  1.00000000
 
ion      s     py     pz     px    dxy    dyz    dz2    dxz  x2-y2    tot
    1  0.000  0.000  0.018  0.000  0.000  0.000  0.000  0.461  0.000  0.480
    2  0.000  0.000  0.018  0.000  0.000  0.000  0.000  0.461  0.000  0.480
tot    0.000  0.000  0.037  0.000  0.000  0.000  0.000  0.923  0.000  0.960
 
band    10 # energy    5.27563016 # occ.  1.00003116
 
ion      s     py     pz     px    dxy    dyz    dz2    dxz  x2-y2    tot
    1  0.000  0.000  0.000  0.000  0.000  0.489  0.000  0.000  0.000  0.489
    2  0.000  0.000  0.000  0.000  0.000  0.489  0.000  0.000  0.000  0.489
tot    0.000  0.000  0.000  0.000  0.000  0.977  0.000  0.000  0.000  0.977
 
band    11 # energy    5.35987513 # occ.  1.00032185
 
ion      s     py     pz     px    dxy    dyz    dz2    dxz  x2-y2    tot
    1  0.023  0.000  0.000  0.007  0.000  0.000  0.114  0.000  0.343  0.487
    2  0.023  0.000  0.000  0.007  0.000  0.000  0.114  0.000  0.343  0.487
tot    0.047  0.000  0.000  0.013  0.000  0.000  0.229  0.000  0.686  0.975
 
band    12 # energy    7.99867420 # occ. -0.00000000
 
ion      s     py     pz     px    dxy    dyz    dz2    dxz  x2-y2    tot
    1  0.116  0.000  0.000  0.124  0.000  0.000  0.050  0.000  0.149  0.438
    2  0.116  0.000  0.000  0.124  0.000  0.000  0.050  0.000  0.149  0.438
tot    0.232  0.000  0.000  0.249  0.000  0.000  0.099  0.000  0.297  0.877
 
band    13 # energy   20.41805952 # occ.  0.00000000
 
ion      s     py     pz     px    dxy    dyz    dz2    dxz  x2-y2    tot
    1  0.000  0.296  0.000  0.000  0.142  0.000  0.000  0.000  0.000  0.437
    2  0.000  0.296  0.000  0.000  0.142  0.000  0.000  0.000  0.000  0.437
tot    0.000  0.592  0.000  0.000  0.283  0.000  0.000  0.000  0.000  0.875
 
band    14 # energy   20.41806018 # occ.  0.00000000
 
ion      s     py     pz     px    dxy    dyz    dz2    dxz  x2-y2    tot
    1  0.000  0.000  0.296  0.000  0.000  0.000  0.000  0.142  0.000  0.437
    2  0.000  0.000  0.296  0.000  0.000  0.000  0.000  0.142  0.000  0.437
tot    0.000  0.000  0.592  0.000  0.000  0.000  0.000  0.283  0.000  0.875
 
band    15 # energy   22.61516078 # occ.  0.00000000
 
ion      s     py     pz     px    dxy    dyz    dz2    dxz  x2-y2    tot
    1  0.000  0.000  0.000  0.000  0.000  0.000  0.312  0.000  0.104  0.417
    2  0.000  0.000  0.000  0.000  0.000  0.000  0.312  0.000  0.104  0.417
tot    0.000  0.000  0.000  0.000  0.000  0.000  0.625  0.000  0.208  0.833
 
band    16 # energy   24.76418057 # occ.  0.00000000
 
ion      s     py     pz     px    dxy    dyz    dz2    dxz  x2-y2    tot
    1  0.151  0.000  0.000  0.041  0.000  0.000  0.027  0.000  0.081  0.300
    2  0.151  0.000  0.000  0.041  0.000  0.000  0.027  0.000  0.081  0.300
tot    0.301  0.000  0.000  0.081  0.000  0.000  0.054  0.000  0.163  0.599
 
band    17 # energy   24.92862659 # occ.  0.00000000
 
ion      s     py     pz     px    dxy    dyz    dz2    dxz  x2-y2    tot
    1  0.000  0.000  0.000  0.000  0.000  0.000  0.232  0.000  0.077  0.310
    2  0.000  0.000  0.000  0.000  0.000  0.000  0.232  0.000  0.077  0.310
tot    0.000  0.000  0.000  0.000  0.000  0.000  0.465  0.000  0.155  0.620
 
band    18 # energy   26.02639641 # occ.  0.00000000
 
ion      s     py     pz     px    dxy    dyz    dz2    dxz  x2-y2    tot
    1  0.000  0.189  0.000  0.000  0.283  0.000  0.000  0.000  0.000  0.472
    2  0.000  0.189  0.000  0.000  0.283  0.000  0.000  0.000  0.000  0.472
tot    0.000  0.378  0.000  0.000  0.566  0.000  0.000  0.000  0.000  0.944
 
band    19 # energy   26.02639727 # occ.  0.00000000
 
ion      s     py     pz     px    dxy    dyz    dz2    dxz  x2-y2    tot
    1  0.000  0.000  0.189  0.000  0.000  0.000  0.000  0.283  0.000  0.472
    2  0.000  0.000  0.189  0.000  0.000  0.000  0.000  0.283  0.000  0.472
tot    0.000  0.000  0.378  0.000  0.000  0.000  0.000  0.566  0.000  0.944
 
band    20 # energy   27.95843711 # occ.  0.00000000
 
ion      s     py     pz     px    dxy    dyz    dz2    dxz  x2-y2    tot
    1  0.083  0.000  0.000  0.149  0.000  0.000  0.000  0.000  0.000  0.232
    2  0.083  0.000  0.000  0.149  0.000  0.000  0.000  0.000  0.000  0.232
tot    0.166  0.000  0.000  0.298  0.000  0.000  0.000  0.000  0.000  0.464
 

 k-point     5 :    0.50000000 0.00000000 0.00000000     weight = 0.00585938

band     1 # energy    1.24010411 # occ.  1.00000000
 
ion      s     py     pz     px    dxy    dyz    dz2    dxz  x2-y2    tot
    1  0.237  0.000  0.000  0.032  0.000  0.000  0.064  0.000  0.191  0.523
    2  0.044  0.000  0.000  0.174  0.000  0.000  0.012  0.000  0.035  0.265
tot    0.281  0.000  0.000  0.206  0.000  0.000  0.075  0.000  0.226  0.788
 
band     2 # energy    1.24010411 # occ.  1.00000000
 
ion      s     py     pz     px    dxy    dyz    dz2    dxz  x2-y2    tot
    1  0.044  0.000  0.000  0.174  0.000  0.000  0.012  0.000  0.035  0.265
    2  0.237  0.000  0.000  0.032  0.000  0.000  0.064  0.000  0.191  0.523
tot    0.281  0.000  0.000  0.206  0.000  0.000  0.075  0.000  0.226  0.788
 
band     3 # energy    2.90134334 # occ.  1.00000000
 