 running on    4 total cores
 distrk:  each k-point on    4 cores,    1 groups
 distr:  one band on    1 cores,    4 groups
 vasp.6.2.0 18Jan21 (build Aug 12 2022 13:00:08) complex                        
  
 POSCAR found type information on POSCAR Fe
 POSCAR found :  1 types and       2 ions
 scaLAPACK will be used
 LDA part: xc-table for Pade appr. of Perdew
 -----------------------------------------------------------------------------
|                                                                             |
|           W    W    AA    RRRRR   N    N  II  N    N   GGGG   !!!           |
|           W    W   A  A   R    R  NN   N  II  NN   N  G    G  !!!           |
|           W    W  A    A  R    R  N N  N  II  N N  N  G       !!!           |
|           W WW W  AAAAAA  RRRRR   N  N N  II  N  N N  G  GGG   !            |
|           WW  WW  A    A  R   R   N   NN  II  N   NN  G    G                |
|           W    W  A    A  R    R  N    N  II  N    N   GGGG   !!!           |
|                                                                             |
|     The requested file  could not be found or opened for reading            |
|     k-point information. Automatic k-point generation is used as a          |
|     fallback, which may lead to unwanted results.                           |
|                                                                             |
 -----------------------------------------------------------------------------

 POSCAR, INCAR and KPOINTS ok, starting setup
 FFT: planning ...
 WAVECAR not read
 entering main loop
       N       E                     dE             d eps       ncg     rms          rms(c)
DAV:   1     0.650466215795E+02    0.65047E+02   -0.60658E+03  3064   0.823E+02
DAV:   2    -0.132336550352E+02   -0.78280E+02   -0.69760E+02  2864   0.168E+02
DAV:   3    -0.160690067528E+02   -0.28354E+01   -0.27801E+01  3172   0.407E+01
DAV:   4    -0.160902926862E+02   -0.21286E-01   -0.21281E-01  3012   0.334E+00
DAV:   5    -0.160905526438E+02   -0.25996E-03   -0.25996E-03  3156   0.350E-01    0.195E+01
DAV:   6    -0.165661881816E+02   -0.47564E+00   -0.51180E+00  3076   0.436E+01    0.614E+00
DAV:   7    -0.165059952899E+02    0.60193E-01   -0.36200E-01  3292   0.938E+00    0.436E+00
DAV:   8    -0.164890275981E+02    0.16968E-01   -0.97937E-03  3636   0.101E+00    0.163E+00
DAV:   9    -0.164778953275E+02    0.11132E-01   -0.26866E-03  4132   0.955E-01    0.431E-01
DAV:  10    -0.164775495692E+02    0.34576E-03   -0.16804E-03  3316   0.660E-01    0.628E-02
DAV:  11    -0.164775666893E+02   -0.17120E-04   -0.57586E-05  3320   0.652E-02    0.430E-02
DAV:  12    -0.164775627913E+02    0.38980E-05   -0.44963E-06  3404   0.164E-02    0.159E-02
DAV:  13    -0.164775632615E+02   -0.47022E-06   -0.17974E-06  2828   0.112E-02
   1 F= -.16477563E+02 E0= -.16477092E+02  d E =-.164776E+02  mag=     4.5021
 curvature:   0.00 expect dE= 0.000E+00 dE for cont linesearch  0.000E+00
 trial: gam= 0.00000 g(F)=  0.719E-64 g(S)=  0.547E-01 ort = 0.000E+00 (trialstep = 0.100E+01)
 search vector abs. value=  0.547E-01
 bond charge predicted
       N       E                     dE             d eps       ncg     rms          rms(c)
DAV:   1    -0.171228444225E+02   -0.64528E+00   -0.59270E+00  3048   0.406E+01    0.790E+00
DAV:   2    -0.165289866123E+02    0.59386E+00   -0.11660E+00  3040   0.238E+01    0.638E+00
DAV:   3    -0.164997540056E+02    0.29233E-01   -0.81114E-02  3284   0.518E+00    0.219E+00
DAV:   4    -0.164931193742E+02    0.66346E-02   -0.45207E-03  3496   0.766E-01    0.519E-01
DAV:   5    -0.164879985273E+02    0.51208E-02   -0.29341E-03  3376   0.454E-01    0.929E-02
DAV:   6    -0.164880869231E+02   -0.88396E-04   -0.26021E-04  3052   0.155E-01    0.478E-02
DAV:   7    -0.164880917004E+02   -0.47773E-05   -0.14798E-05  2864   0.354E-02    0.234E-02
DAV:   8    -0.164880868672E+02    0.48332E-05   -0.67644E-07  2164   0.119E-02    0.589E-03
DAV:   9    -0.164880866527E+02    0.21443E-06   -0.12129E-07  1432   0.349E-03
   2 F= -.16488087E+02 E0= -.16486726E+02  d E =-.105234E-01  mag=     4.1583
 trial-energy change:   -0.010523  1 .order   -0.007806   -0.054732    0.039119
 step:   0.6239(harm=  0.5832)  dis= 0.00000  next Energy=   -16.495298 (dE=-0.177E-01)
 bond charge predicted
       N       E                     dE             d eps       ncg     rms          rms(c)
DAV:   1    -0.165908153341E+02   -0.10273E+00   -0.86571E-01  3040   0.161E+01    0.309E+00
DAV:   2    -0.165056688612E+02    0.85146E-01   -0.22532E-01  3044   0.974E+00    0.273E+00
DAV:   3    -0.164966450664E+02    0.90238E-02   -0.16203E-02  3268   0.250E+00    0.817E-01
DAV:   4    -0.164956632287E+02    0.98184E-03   -0.11160E-03  3696   0.421E-01    0.216E-01
DAV:   5    -0.164949174865E+02    0.74574E-03   -0.71947E-04  3100   0.246E-01    0.367E-02
DAV:   6    -0.164949319150E+02   -0.14428E-04   -0.24790E-05  3044   0.489E-02    0.205E-02
DAV:   7    -0.164949353406E+02   -0.34257E-05   -0.15713E-06  2584   0.933E-03    0.889E-03
DAV:   8    -0.164949363498E+02   -0.10092E-05   -0.23871E-07  1400   0.870E-03    0.247E-03
DAV:   9    -0.164949364580E+02   -0.10817E-06   -0.62741E-08  1400   0.179E-03
   3 F= -.16494936E+02 E0= -.16492371E+02  d E =-.173732E-01  mag=     4.2661
 curvature:  -0.29 expect dE=-0.414E-05 dE for cont linesearch -0.414E-05
 ZBRENT: interpolating
 opt :   0.6323  next Energy=   -16.494940 (dE=-0.174E-01)
 bond charge predicted
       N       E                     dE             d eps       ncg     rms          rms(c)
DAV:   1    -0.164949864761E+02   -0.50126E-04   -0.42230E-04  3040   0.352E-01    0.682E-02
DAV:   2    -0.164949467541E+02    0.39722E-04   -0.98944E-05  3036   0.212E-01    0.578E-02
DAV:   3    -0.164949425277E+02    0.42264E-05   -0.74143E-06  3180   0.523E-02    0.183E-02
DAV:   4    -0.164949421670E+02    0.36070E-06   -0.37721E-07  1412   0.791E-03    0.451E-03
DAV:   5    -0.164949419310E+02    0.23595E-06   -0.26265E-07  1448   0.448E-03    0.117E-03
DAV:   6    -0.164949418901E+02    0.40900E-07   -0.38428E-08  1400   0.175E-03
   4 F= -.16494942E+02 E0= -.16492393E+02  d E =-.173786E-01  mag=     4.2626
 curvature:  -0.26 expect dE=-0.103E-06 dE for cont linesearch -0.103E-06
 trial: gam=-0.00270 g(F)=  0.525E-61 g(S)=  0.401E-06 ort = 0.148E-03 (trialstep = 0.926E+00)
 search vector abs. value=  0.103E-09
 reached required accuracy - stopping structural energy minimisation
 writing wavefunctions
