   1   1   0   0
  0.1408159E+02  0.2710538E-09  0.2710538E-09  0.2710538E-09  0.5000000E-15
  1.000000000000000E-004
  CAR 
 unknown system                          
     38.29276672     -6.30207548  301     10.17487348      1.00000000
     -6.302  0.0000E+00  0.0000E+00
     -6.153  0.0000E+00  0.0000E+00
     -6.005  0.0000E+00  0.0000E+00
     -5.856  0.0000E+00  0.0000E+00
     -5.707  0.0000E+00  0.0000E+00
     -5.559  0.0000E+00  0.0000E+00
     -5.410  0.0000E+00  0.0000E+00
     -5.262  0.0000E+00  0.0000E+00
     -5.113  0.0000E+00  0.0000E+00
     -4.964  0.0000E+00  0.0000E+00
     -4.816  0.0000E+00  0.0000E+00
     -4.667  0.0000E+00  0.0000E+00
     -4.518  0.1193E-15  0.1773E-16
     -4.370  0.1487E-06  0.2211E-07
     -4.221  0.4248E-04  0.6336E-05
     -4.072  0.5015E-03  0.8089E-04
     -3.924  0.3245E-03  0.1291E-03
     -3.775  0.1032E-02  0.2826E-03
     -3.626  0.4792E-03  0.3538E-03
     -3.478  0.4932E-03  0.4271E-03
     -3.329  0.1628E-02  0.6691E-03
     -3.180  0.9484E-03  0.8101E-03
     -3.032  0.1272E-02  0.9991E-03
     -2.883  0.3260E-03  0.1048E-02
     -2.734  0.2216E-02  0.1377E-02
     -2.586  0.1230E-02  0.1560E-02
     -2.437  0.1192E-02  0.1737E-02
     -2.289  0.1510E-02  0.1962E-02
     -2.140  0.4111E-03  0.2023E-02
     -1.991  0.2686E-02  0.2422E-02
     -1.843  0.1573E-02  0.2656E-02
     -1.694  0.3034E-02  0.3107E-02
     -1.545  0.3395E-03  0.3157E-02
     -1.397  0.9277E-03  0.3295E-02
     -1.248  0.2167E-02  0.3617E-02
     -1.099  0.1665E-02  0.3865E-02
     -0.951  0.2874E-02  0.4292E-02
     -0.802  0.9117E-03  0.4427E-02
     -0.653  0.4277E-02  0.5063E-02
     -0.505  0.1107E-02  0.5228E-02
     -0.356  0.1843E-02  0.5502E-02
     -0.207  0.6367E-03  0.5596E-02
     -0.059  0.1792E-02  0.5863E-02
      0.090  0.3121E-02  0.6327E-02
      0.239  0.2918E-02  0.6760E-02
      0.387  0.3947E-02  0.7347E-02
      0.536  0.1322E-03  0.7367E-02
      0.684  0.3544E-02  0.7894E-02
      0.833  0.1930E-02  0.8181E-02
      0.982  0.2464E-02  0.8547E-02
      1.130  0.7047E-03  0.8651E-02
      1.279  0.1568E-02  0.8885E-02
      1.428  0.5573E-02  0.9713E-02
      1.576  0.1969E-02  0.1001E-01
      1.725  0.4487E-02  0.1067E-01
      1.874  0.1233E-02  0.1086E-01
      2.022  0.2730E-02  0.1126E-01
      2.171  0.1879E-02  0.1154E-01
      2.320  0.4560E-02  0.1222E-01
      2.468  0.9888E-03  0.1237E-01
      2.617  0.2069E-02  0.1267E-01
      2.766  0.3598E-02  0.1321E-01
      2.914  0.2839E-02  0.1363E-01
      3.063  0.4801E-02  0.1434E-01
      3.211  0.1172E-02  0.1452E-01
      3.360  0.6006E-02  0.1541E-01
      3.509  0.2307E-02  0.1575E-01
      3.657  0.1785E-02  0.1602E-01
      3.806  0.8076E-03  0.1614E-01
      3.955  0.3071E-02  0.1660E-01
      4.103  0.2399E-02  0.1695E-01
      4.252  0.4867E-02  0.1768E-01
      4.401  0.5428E-02  0.1848E-01
      4.549  0.1176E-02  0.1866E-01
      4.698  0.3152E-02  0.1913E-01
      4.847  0.4190E-02  0.1975E-01
      4.995  0.4520E-02  0.2042E-01
      5.144  0.1778E-02  0.2068E-01
      5.293  0.3753E-02  0.2124E-01
      5.441  0.4931E-02  0.2198E-01
      5.590  0.2768E-02  0.2239E-01
      5.739  0.1349E-02  0.2259E-01
      5.887  0.1491E-02  0.2281E-01
      6.036  0.4784E-02  0.2352E-01
      6.184  0.4628E-02  0.2421E-01
      6.333  0.5477E-02  0.2502E-01
      6.482  0.2322E-02  0.2537E-01
      6.630  0.2161E-02  0.2569E-01
      6.779  0.4915E-02  0.2642E-01
      6.928  0.4985E-02  0.2716E-01
      7.076  0.2935E-02  0.2760E-01
      7.225  0.2508E-02  0.2797E-01
      7.374  0.7012E-02  0.2901E-01
      7.522  0.1448E-02  0.2923E-01
      7.671  0.1359E-02  0.2943E-01
      7.820  0.1560E-02  0.2966E-01
      7.968  0.4307E-02  0.3030E-01
      8.117  0.5241E-02  0.3108E-01
      8.266  0.8903E-02  0.3240E-01
      8.414  0.4504E-02  0.3307E-01
      8.563  0.1769E-02  0.3334E-01
      8.712  0.2521E-02  0.3371E-01
      8.860  0.5829E-02  0.3458E-01
      9.009  0.2308E-02  0.3492E-01
      9.157  0.2060E-02  0.3523E-01
      9.306  0.5608E-02  0.3606E-01
      9.455  0.4616E-02  0.3675E-01
      9.603  0.5082E-02  0.3750E-01
      9.752  0.9106E-03  0.3764E-01
      9.901  0.6284E-02  0.3857E-01
     10.049  0.3808E-02  0.3914E-01
     10.198  0.6862E-02  0.4016E-01
     10.347  0.4120E-02  0.4077E-01
     10.495  0.2772E-02  0.4118E-01
     10.644  0.1248E-02  0.4137E-01
     10.793  0.7324E-02  0.4246E-01
     10.941  0.6418E-02  0.4341E-01
     11.090  0.2843E-02  0.4383E-01
     11.239  0.5417E-02  0.4464E-01
     11.387  0.5517E-02  0.4546E-01
     11.536  0.2896E-02  0.4589E-01
     11.685  0.1610E-02  0.4613E-01
     11.833  0.5548E-02  0.4695E-01
     11.982  0.2754E-02  0.4736E-01
     12.130  0.8828E-02  0.4867E-01
     12.279  0.4991E-02  0.4942E-01
     12.428  0.6100E-02  0.5032E-01
     12.576  0.4573E-02  0.5100E-01
     12.725  0.3321E-02  0.5150E-01
     12.874  0.4598E-02  0.5218E-01
     13.022  0.4904E-02  0.5291E-01
     13.171  0.7450E-02  0.5402E-01
     13.320  0.6104E-02  0.5492E-01
     13.468  0.3612E-02  0.5546E-01
     13.617  0.4812E-02  0.5618E-01
     13.766  0.5125E-02  0.5694E-01
     13.914  0.6201E-02  0.5786E-01
     14.063  0.6477E-02  0.5882E-01
     14.212  0.3561E-02  0.5935E-01
     14.360  0.5999E-02  0.6024E-01
     14.509  0.4900E-02  0.6097E-01
     14.658  0.7882E-02  0.6214E-01
     14.806  0.4156E-02  0.6276E-01
     14.955  0.3962E-02  0.6335E-01
     15.103  0.5616E-02  0.6419E-01
     15.252  0.1119E-02  0.6435E-01
     15.401  0.3845E-02  0.6492E-01
     15.549  0.6322E-02  0.6586E-01
     15.698  0.5284E-02  0.6665E-01
     15.847  0.8283E-02  0.6788E-01
     15.995  0.3539E-02  0.6841E-01
     16.144  0.5607E-02  0.6924E-01
     16.293  0.2008E-02  0.6954E-01
     16.441  0.5839E-02  0.7041E-01
     16.590  0.3186E-02  0.7088E-01
     16.739  0.3944E-02  0.7147E-01
     16.887  0.4857E-02  0.7219E-01
     17.036  0.6985E-02  0.7323E-01
     17.185  0.4943E-02  0.7396E-01
     17.333  0.2934E-02  0.7440E-01
     17.482  0.4170E-02  0.7502E-01
     17.630  0.7209E-02  0.7609E-01
     17.779  0.4316E-02  0.7673E-01
     17.928  0.3115E-02  0.7719E-01
     18.076  0.5202E-02  0.7797E-01
     18.225  0.9405E-02  0.7936E-01
     18.374  0.7286E-02  0.8045E-01
     18.522  0.3312E-02  0.8094E-01
     18.671  0.3298E-02  0.8143E-01
     18.820  0.6934E-02  0.8246E-01
     18.968  0.4126E-02  0.8307E-01
     19.117  0.3909E-02  0.8366E-01
     19.266  0.7987E-02  0.8484E-01
     19.414  0.7551E-02  0.8597E-01
     19.563  0.1504E-02  0.8619E-01
     19.712  0.3474E-02  0.8671E-01
     19.860  0.3216E-02  0.8718E-01
     20.009  0.7362E-02  0.8828E-01
     20.158  0.7395E-02  0.8938E-01
     20.306  0.7954E-02  0.9056E-01
     20.455  0.6048E-02  0.9146E-01
     20.603  0.5120E-02  0.9222E-01
     20.752  0.5345E-02  0.9301E-01
     20.901  0.2418E-02  0.9337E-01
     21.049  0.1138E-01  0.9506E-01
     21.198  0.6189E-02  0.9598E-01
     21.347  0.6030E-02  0.9688E-01
     21.495  0.5992E-02  0.9777E-01
     21.644  0.3079E-02  0.9823E-01
     21.793  0.9573E-02  0.9965E-01
     21.941  0.5463E-02  0.1005E+00
     22.090  0.2649E-02  0.1009E+00
     22.239  0.3376E-02  0.1014E+00
     22.387  0.6046E-02  0.1023E+00
     22.536  0.6107E-02  0.1032E+00
     22.685  0.5818E-02  0.1040E+00
     22.833  0.3902E-02  0.1046E+00
     22.982  0.4806E-02  0.1053E+00
     23.131  0.8937E-02  0.1067E+00
     23.279  0.7474E-02  0.1078E+00
     23.428  0.1114E-01  0.1094E+00
     23.576  0.6676E-02  0.1104E+00
     23.725  0.8783E-02  0.1117E+00
     23.874  0.2140E-02  0.1120E+00
     24.022  0.5137E-02  0.1128E+00
     24.171  0.5548E-02  0.1136E+00
     24.320  0.3934E-02  0.1142E+00
     24.468  0.9478E-02  0.1156E+00
     24.617  0.5555E-02  0.1164E+00
     24.766  0.4270E-02  0.1171E+00
     24.914  0.4886E-02  0.1178E+00
     25.063  0.3309E-02  0.1183E+00
     25.212  0.1251E-01  0.1202E+00
     25.360  0.1202E-01  0.1219E+00
     25.509  0.4306E-02  0.1226E+00
     25.658  0.4480E-02  0.1232E+00
     25.806  0.7696E-02  0.1244E+00
     25.955  0.7369E-02  0.1255E+00
     26.104  0.5325E-02  0.1263E+00
     26.252  0.5856E-02  0.1272E+00
     26.401  0.7418E-02  0.1283E+00
     26.549  0.8041E-02  0.1294E+00
     26.698  0.5333E-02  0.1302E+00
     26.847  0.1027E-02  0.1304E+00
     26.995  0.5538E-02  0.1312E+00
     27.144  0.5424E-02  0.1320E+00
     27.293  0.9203E-02  0.1334E+00
     27.441  0.7753E-02  0.1345E+00
     27.590  0.8019E-02  0.1357E+00
     27.739  0.6457E-02  0.1367E+00
     27.887  0.2286E-02  0.1370E+00
     28.036  0.6056E-02  0.1379E+00
     28.185  0.9904E-02  0.1394E+00
     28.333  0.4855E-02  0.1401E+00
     28.482  0.3098E-02  0.1406E+00
     28.631  0.6271E-03  0.1407E+00
     28.779  0.3811E-02  0.1413E+00
     28.928  0.8745E-02  0.1426E+00
     29.076  0.4866E-02  0.1433E+00
     29.225  0.4055E-02  0.1439E+00
     29.374  0.3655E-02  0.1444E+00
     29.522  0.4918E-02  0.1452E+00
     29.671  0.1077E-01  0.1468E+00
     29.820  0.6718E-02  0.1478E+00
     29.968  0.5962E-02  0.1486E+00
     30.117  0.3933E-02  0.1492E+00
     30.266  0.4326E-02  0.1499E+00
     30.414  0.1664E-02  0.1501E+00
     30.563  0.4527E-02  0.1508E+00
     30.712  0.5335E-02  0.1516E+00
     30.860  0.3773E-02  0.1521E+00
     31.009  0.2594E-02  0.1525E+00
     31.158  0.3889E-02  0.1531E+00
     31.306  0.5607E-02  0.1539E+00
     31.455  0.3572E-02  0.1545E+00
     31.604  0.1345E-02  0.1547E+00
     31.752  0.3442E-04  0.1547E+00
     31.901  0.4382E-02  0.1553E+00
     32.049  0.2747E-02  0.1557E+00
     32.198  0.9456E-03  0.1559E+00
     32.347  0.1522E-02  0.1561E+00
     32.495  0.1329E-02  0.1563E+00
     32.644  0.1995E-02  0.1566E+00
     32.793  0.3563E-02  0.1571E+00
     32.941  0.2248E-02  0.1575E+00
     33.090  0.5997E-03  0.1575E+00
     33.239  0.1260E-02  0.1577E+00
     33.387  0.2752E-02  0.1581E+00
     33.536  0.1225E-02  0.1583E+00
     33.685  0.1712E-02  0.1586E+00
     33.833  0.1684E-02  0.1588E+00
     33.982  0.4660E-03  0.1589E+00
     34.131  0.2439E-04  0.1589E+00
     34.279  0.1843E-02  0.1592E+00
     34.428  0.4800E-03  0.1592E+00
     34.577  0.4416E-04  0.1593E+00
     34.725  0.8047E-03  0.1594E+00
     34.874  0.3912E-03  0.1594E+00
     35.022  0.1165E-02  0.1596E+00
     35.171  0.9878E-03  0.1598E+00
     35.320  0.4276E-03  0.1598E+00
     35.468  0.5292E-03  0.1599E+00
     35.617  0.2242E-07  0.1599E+00
     35.766  0.5698E-12  0.1599E+00
     35.914  0.1856E-04  0.1599E+00
     36.063  0.4563E-03  0.1600E+00
     36.212  0.1862E-04  0.1600E+00
     36.360  0.2232E-03  0.1600E+00
     36.509  0.8923E-06  0.1600E+00
     36.658  0.7158E-15  0.1600E+00
     36.806  0.0000E+00  0.1600E+00
     36.955  0.0000E+00  0.1600E+00
     37.104  0.0000E+00  0.1600E+00
     37.252  0.0000E+00  0.1600E+00
     37.401  0.0000E+00  0.1600E+00
     37.550  0.0000E+00  0.1600E+00
     37.698  0.0000E+00  0.1600E+00
     37.847  0.0000E+00  0.1600E+00
     37.995  0.0000E+00  0.1600E+00
     38.144  0.0000E+00  0.1600E+00
     38.293  0.0000E+00  0.1600E+00
