    1    1  100    1
  0.1408159E+02  0.2710538E-09  0.2710538E-09  0.2710538E-09  0.5000000E-15
  1.000000000000000E-004
  CAR 
 unknown system                          
      4    120      8
 
  0.0000000E+00  0.0000000E+00  0.0000000E+00  0.2962963E-03
    1       -4.275037   1.000000
    2       21.364299   0.000000
    3       21.364306   0.000000
    4       21.364314   0.000000
    5       22.139741   0.000000
    6       22.139750   0.000000
    7       22.139759   0.000000
    8       27.479283   0.000000
 
  0.6666667E-01 -0.6938894E-17  0.0000000E+00  0.2370370E-02
    1       -4.145392   1.000000
    2       19.209907   0.000000
    3       20.691445   0.000000
    4       20.691457   0.000000
    5       22.971347   0.000000
    6       22.971361   0.000000
    7       23.191155   0.000000
    8       28.370468   0.000000
 
  0.1333333E+00  0.0000000E+00  0.0000000E+00  0.2370370E-02
    1       -3.756953   1.000000
    2       16.379835   0.000000
    3       19.928752   0.000000
    4       19.928763   0.000000
    5       23.477789   0.000000
    6       24.064489   0.000000
    7       24.064503   0.000000
    8       27.335460   0.000000
 
  0.2000000E+00  0.0000000E+00  0.0000000E+00  0.2370370E-02
    1       -3.111297   1.000000
    2       13.549169   0.000000
    3       19.351535   0.000000
    4       19.351545   0.000000
    5       23.407901   0.000000
    6       24.287168   0.000000
    7       24.287178   0.000000
    8       27.313323   0.000000
 
  0.2666667E+00  0.0000000E+00  0.0000000E+00  0.2370370E-02
    1       -2.211124   1.000000
    2       10.845842   0.000000
    3       18.972629   0.000000
    4       18.972637   0.000000
    5       23.311582   0.000000
    6       23.395431   0.000000
    7       23.395440   0.000000
    8       28.706407   0.000000
 
  0.3333333E+00  0.0000000E+00  0.0000000E+00  0.2370370E-02
    1       -1.060543   1.000000
    2        8.320891   1.000000
    3       18.780376   0.000000
    4       18.780383   0.000000
    5       22.388733   0.000000
    6       22.388743   0.000000
    7       23.299017   0.000000
    8       27.542067   0.000000
 
  0.4000000E+00 -0.2775558E-16  0.0000000E+00  0.2370370E-02
    1        0.333366   1.000000
    2        6.002583   1.000000
    3       18.739241   0.000000
    4       18.739246   0.000000
    5       21.583455   0.000000
    6       21.583467   0.000000
    7       23.384988   0.000000
    8       26.621220   0.000000
 
  0.4666667E+00  0.0000000E+00  0.0000000E+00  0.2370370E-02
    1        1.941003   1.000000
    2        3.930648   1.000000
    3       18.770539   0.000000
    4       18.770543   0.000000
    5       21.118717   0.000000
    6       21.118729   0.000000
    7       23.496446   0.000000
    8       26.079444   0.000000
 
  0.6666667E-01  0.6666667E-01  0.0000000E+00  0.1777778E-02
    1       -4.102184   1.000000
    2       19.687373   0.000000
    3       19.687374   0.000000
    4       20.961398   0.000000
    5       21.221338   0.000000
    6       24.032994   0.000000
    7       24.032995   0.000000
    8       27.248015   0.000000
 
  0.1333333E+00  0.6666667E-01  0.0000000E+00  0.7111111E-02
    1       -3.800043   1.000000
    2       17.387534   0.000000
    3       18.845898   0.000000
    4       20.400790   0.000000
    5       21.766550   0.000000
    6       24.751271   0.000000
    7       25.182495   0.000000
    8       25.776996   0.000000
 
  0.2000000E+00  0.6666667E-01  0.0000000E+00  0.7111111E-02
    1       -3.240179   1.000000
    2       14.572336   0.000000
    3       18.209641   0.000000
    4       19.768705   0.000000
    5       22.455501   0.000000
    6       24.549797   0.000000
    7       25.305241   0.000000
    8       25.795859   0.000000
 
  0.2666667E+00  0.6666667E-01  0.0000000E+00  0.7111111E-02
    1       -2.424897   1.000000
    2       11.829140   0.000000
    3       17.788291   0.000000
    4       19.257640   0.000000
    5       21.890766   0.000000
    6       24.387261   0.000000
    7       25.142430   0.000000
    8       26.339366   0.000000
 
  0.3333333E+00  0.6666667E-01  0.0000000E+00  0.7111111E-02
    1       -1.357769   1.000000
    2        9.245740   1.000000
    3       17.582383   0.000000
    4       18.823000   0.000000
    5       21.019155   0.000000
    6       24.104902   0.000000
    7       24.363478   0.000000
    8       27.933829   0.000000
 
  0.4000000E+00  0.6666667E-01  0.0000000E+00  0.7111111E-02
    1       -0.044456   1.000000
    2        6.858608   1.000000
    3       17.588405   0.000000
    4       18.350367   0.000000
    5       20.499339   0.000000
    6       23.146293   0.000000
    7       24.381868   0.000000
    8       27.840118   0.000000
 
  0.4666667E+00  0.6666667E-01  0.0000000E+00  0.7111111E-02
    1        1.500376   1.000000
    2        4.696372   1.000000
    3       17.797115   0.000000
    4       17.811408   0.000000
    5       20.459776   0.000000
    6       22.380363   0.000000
    7       24.405789   0.000000
    8       27.301135   0.000000
 
 -0.4666667E+00  0.6666667E-01  0.0000000E+00  0.7111111E-02
    1        2.571089   1.000000
    2        3.470907   1.000000
    3       17.322490   0.000000
    4       18.187121   0.000000
    5       20.809522   0.000000
    6       21.857536   0.000000
    7       24.343512   0.000000
    8       27.212916   0.000000
 
 -0.4000000E+00  0.6666667E-01  0.0000000E+00  0.7111111E-02
    1        0.962014   1.000000
    2        5.389186   1.000000
    3       16.980786   0.000000
    4       18.714237   0.000000
    5       21.455726   0.000000
    6       21.630976   0.000000
    7       24.193869   0.000000
    8       27.608374   0.000000
 
 -0.3333333E+00  0.6666667E-01  0.0000000E+00  0.7111111E-02
    1       -0.509079   1.000000
    2        7.630581   1.000000
    3       16.830417   0.000000
    4       19.296360   0.000000
    5       21.774849   0.000000
    6       22.343293   0.000000
    7       24.060785   0.000000
    8       28.339180   0.000000
 
 -0.2666667E+00  0.6666667E-01  0.0000000E+00  0.7111111E-02
    1       -1.741193   1.000000
    2       10.085725   0.994157
    3       16.890289   0.000000
    4       19.849741   0.000000
    5       22.339852   0.000000
    6       23.422069   0.000000
    7       24.009722   0.000000
    8       27.998763   0.000000
 
 -0.2000000E+00  0.6666667E-01  0.0000000E+00  0.7111111E-02
    1       -2.724871   1.000000
    2       12.726537   0.000000
    3       17.166803   0.000000
    4       20.389107   0.000000
    5       23.146158   0.000000
    6       24.021232   0.000000
    7       24.569677   0.000000
    8       26.319291   0.000000
 
 -0.1333333E+00  0.6666667E-01  0.0000000E+00  0.7111111E-02
    1       -3.455342   1.000000
    2       15.505965   0.000000
    3       17.662305   0.000000
    4       20.982700   0.000000
    5       23.253299   0.000000
    6       23.974619   0.000000
    7       25.190052   0.000000
    8       25.883539   0.000000
 
 -0.6666667E-01  0.6666667E-01  0.0000000E+00  0.3555556E-02
    1       -3.929498   1.000000
    2       18.209533   0.000000
    3       18.468396   0.000000
    4       21.444356   0.000000
    5       22.473791   0.000000
    6       23.611721   0.000000
    7       24.494883   0.000000
    8       27.002891   0.000000
 
  0.1333333E+00  0.1333333E+00  0.0000000E+00  0.1777778E-02
    1       -3.584437   1.000000
    2       17.931819   0.000000
    3       17.931820   0.000000
    4       19.571344   0.000000
    5       19.889952   0.000000
    6       23.970881   0.000000
    7       26.407610   0.000000
    8       26.407610   0.000000
 
  0.2000000E+00  0.1333333E+00  0.0000000E+00  0.7111111E-02
    1       -3.111006   1.000000
    2       15.737595   0.000000
    3       17.224566   0.000000
    4       19.035498   0.000000
    5       20.143415   0.000000
    6       22.660954   0.000000
    7       27.125420   0.000000
    8       27.367073   0.000000
 
  0.2666667E+00  0.1333333E+00  0.0000000E+00  0.7111111E-02
    1       -2.381686   1.000000
    2       13.017400   0.000000
    3       16.735042   0.000000
    4       18.322140   0.000000
    5       20.032645   0.000000
    6       23.015829   0.000000
    7       27.101600   0.000000
    8       27.303133   0.000000
 
  0.3333333E+00  0.1333333E+00  0.0000000E+00  0.7111111E-02
    1       -1.399567   1.000000
    2       10.396276   0.000000
    3       16.466043   0.000000
    4       17.500086   0.000000
    5       19.432200   0.000000
    6       24.495250   0.000000
    7       26.142152   0.000000
    8       27.464285   0.000000
 
  0.4000000E+00  0.1333333E+00  0.0000000E+00  0.7111111E-02
    1       -0.169380   1.000000
    2        7.951005   1.000000
    3       16.417928   0.000000
    4       16.590723   0.000000
    5       19.186680   0.000000
    6       25.156042   0.000000
    7       25.757044   0.000000
    8       28.158188   0.000000
 
  0.4666667E+00  0.1333333E+00  0.0000000E+00  0.7111111E-02
    1        1.299520   1.000000
    2        5.715351   1.000000
    3       15.748160   0.000000
    4       16.588365   0.000000
    5       19.292024   0.000000
    6       24.310293   0.000000
    7       26.136386   0.000000
    8       29.662252   0.000000
 
 -0.4666667E+00  0.1333333E+00  0.0000000E+00  0.7111111E-02
    1        2.909790   1.000000
    2        3.796861   1.000000
    3       15.068931   0.000000
    4       16.972618   0.000000
    5       19.685440   0.000000
    6       23.664165   0.000000
    7       26.046884   0.000000
    8       29.792571   0.000000
 
 -0.4000000E+00  0.1333333E+00  0.0000000E+00  0.7111111E-02
    1        1.837276   1.000000
    2        5.022745   1.000000
    3       14.592922   0.000000
    4       17.560936   0.000000
    5       20.334267   0.000000
    6       23.243542   0.000000
    7       25.814328   0.000000
    8       30.096657   0.000000
 
 -0.3333333E+00  0.1333333E+00  0.0000000E+00  0.7111111E-02
    1        0.294338   1.000000
    2        7.178502   1.000000
    3       14.337517   0.000000
    4       18.334418   0.000000
    5       21.216078   0.000000
    6       23.069029   0.000000
    7       25.583709   0.000000
    8       29.635519   0.000000
 
 -0.2666667E+00  0.1333333E+00  0.0000000E+00  0.7111111E-02
    1       -1.016994   1.000000
    2        9.552687   1.000000
    3       14.312059   0.000000
    4       19.255089   0.000000
    5       22.305452   0.000000
    6       23.160521   0.000000
    7       25.395054   0.000000
    8       27.474002   0.000000
 
 -0.2000000E+00  0.1333333E+00  0.0000000E+00  0.7111111E-02
    1       -2.082435   1.000000
    2       12.103523   0.000000
    3       14.529525   0.000000
    4       20.242349   0.000000
    5       23.505464   0.000000
    6       23.547979   0.000000
    7       25.181348   0.000000
    8       25.597645   0.000000
 
 -0.1333333E+00  0.1333333E+00  0.0000000E+00  0.3555556E-02
    1       -2.896400   1.000000
    2       14.564520   0.000000
    3       15.210571   0.000000
    4       21.082520   0.000000
    5       23.472444   0.000000
    6       24.739693   0.000000
    7       24.763529   0.000000
    8       24.874988   0.000000
 
  0.2000000E+00  0.2000000E+00  0.0000000E+00  0.1777778E-02
    1       -2.724325   1.000000
    2       16.444409   0.000000
    3       16.444410   0.000000
    4       17.993285   0.000000
    5       18.138834   0.000000
    6       20.968971   0.000000
    7       28.833194   0.000000
    8       28.833194   0.000000
 
  0.2666667E+00  0.2000000E+00  0.0000000E+00  0.7111111E-02
    1       -2.081685   1.000000
    2       14.348068   0.000000
    3       15.881293   0.000000
    4       16.989326   0.000000
    5       18.254877   0.000000
    6       20.536118   0.000000
    7       29.154921   0.000000
    8       29.571591   0.000000
 
  0.3333333E+00  0.2000000E+00  0.0000000E+00  0.7111111E-02
    1       -1.185814   1.000000
    2       11.750644   0.000000
    3       15.540640   0.000000
    4       15.762908   0.000000
    5       18.158394   0.000000
    6       21.801252   0.000000
    7       28.351936   0.000000
    8       29.730749   0.000000
 
  0.4000000E+00  0.2000000E+00  0.0000000E+00  0.7111111E-02
    1       -0.040771   1.000000
    2        9.268396   1.000000
    3       14.593969   0.000000
    4       15.423230   0.000000
    5       18.042743   0.000000
    6       23.699170   0.000000
    7       27.387134   0.000000
    8       29.653197   0.000000
 
  0.4666667E+00  0.2000000E+00  0.0000000E+00  0.7111111E-02
    1        1.346511   1.000000
    2        6.973165   1.000000
    3       13.586573   0.000000
    4       15.528802   0.000000
    5       18.154843   0.000000
    6       25.708909   0.000000
    7       26.510470   0.000000
    8       29.530292   0.000000
 
 -0.4666667E+00  0.2000000E+00  0.0000000E+00  0.7111111E-02
    1        2.949136   1.000000
    2        4.912110   1.000000
    3       12.784384   0.000000
    4       15.855205   0.000000
    5       18.514081   0.000000
    6       25.800963   0.000000
    7       27.239315   0.000000
    8       29.837589   0.000000
 
 -0.4000000E+00  0.2000000E+00  0.0000000E+00  0.7111111E-02
    1        2.949636   1.000000
    2        4.909072   1.000000
    3       12.206925   0.000000
    4       16.398434   0.000000
    5       19.116814   0.000000
    6       25.294092   0.000000
    7       27.551619   0.000000
    8       31.026201   0.000000
 
 -0.3333333E+00  0.2000000E+00  0.0000000E+00  0.7111111E-02
    1        1.346075   1.000000
    2        6.962878   1.000000
    3       11.866532   0.000000
    4       17.150191   0.000000
    5       19.952666   0.000000
    6       25.006938   0.000000
    7       27.310404   0.000000
    8       29.453263   0.000000
 
 -0.2666667E+00  0.2000000E+00  0.0000000E+00  0.7111111E-02
    1       -0.041553   1.000000
    2        9.230308   1.000000
    3       11.784942   0.000000
    4       18.093445   0.000000
    5       21.005164   0.000000
    6       24.954656   0.000000
    7       26.901655   0.000000
    8       27.187371   0.000000
 
 -0.2000000E+00  0.2000000E+00  0.0000000E+00  0.3555556E-02
    1       -1.186670   1.000000
    2       11.385985   0.000000
    3       12.245923   0.000000
    4       19.183271   0.000000
    5       22.236522   0.000000
    6       25.121067   0.000000
    7       25.165761   0.000000
    8       26.228630   0.000000
 
  0.2666667E+00  0.2666667E+00  0.0000000E+00  0.1777778E-02
    1       -1.526174   1.000000
    2       15.244288   0.000000
    3       15.244289   0.000000
    4       15.409659   0.000000
    5       16.672653   0.000000
    6       19.119514   0.000000
    7       31.146145   0.000000
    8       31.146146   0.000000
 
  0.3333333E+00  0.2666667E+00  0.0000000E+00  0.7111111E-02
    1       -0.717424   1.000000
    2       13.209030   0.000000
    3       14.031643   0.000000
    4       14.829742   0.000000
    5       16.989555   0.000000
    6       19.308270   0.000000
    7       30.638391   0.000000
    8       31.823700   0.000000
 
  0.4000000E+00  0.2666667E+00  0.0000000E+00  0.7111111E-02
    1        0.340850   1.000000
    2       10.776236   0.000000
    3       12.685768   0.000000
    4       14.639338   0.000000
    5       17.085974   0.000000
    6       20.918854   0.000000
    7       29.758636   0.000000
    8       31.839678   0.000000
 
  0.4666667E+00  0.2666667E+00  0.0000000E+00  0.7111111E-02
    1        1.642849   1.000000
    2        8.450710   1.000000
    3       11.550061   0.000000
    4       14.673496   0.000000
    5       17.192354   0.000000
    6       23.047362   0.000000
    7       28.884883   0.000000
    8       31.476736   0.000000
 
 -0.4666667E+00  0.2666667E+00  0.0000000E+00  0.7111111E-02
    1        3.174710   1.000000
    2        6.319478   1.000000
    3       10.642219   0.000000
    4       14.931293   0.000000
    5       17.501746   0.000000
    6       25.357273   0.000000
    7       28.138085   0.000000
    8       30.928762   0.000000
 
 -0.4000000E+00  0.2666667E+00  0.0000000E+00  0.7111111E-02
    1        4.255146   1.000000
    2        5.080985   1.000000
    3        9.975053   1.000000
    4       15.410529   0.000000
    5       18.043811   0.000000
    6       27.566218   0.000000
    7       27.609841   0.000000
    8       30.336986   0.000000
 
 -0.3333333E+00  0.2666667E+00  0.0000000E+00  0.7111111E-02
    1        2.640433   1.000000
    2        6.964093   1.000000
    3        9.573994   1.000000
    4       16.106721   0.000000
    5       18.819862   0.000000
    6       27.187245   0.000000
    7       28.928539   0.000000
    8       29.522486   0.000000
 
 -0.2666667E+00  0.2666667E+00  0.0000000E+00  0.3555556E-02
    1        1.180497   1.000000
    2        8.806946   1.000000
    3        9.749822   1.000000
    4       17.009818   0.000000
    5       19.816415   0.000000
    6       26.826209   0.000000
    7       27.386463   0.000000
    8       28.222391   0.000000
 
  0.3333333E+00  0.3333333E+00  0.0000000E+00  0.1777778E-02
    1        0.003515   1.000000
    2       12.309148   0.000000
    3       14.340738   0.000000
    4       14.340739   0.000000
    5       15.664154   0.000000
    6       18.048359   0.000000
    7       32.571896   0.000000
    8       33.252395   0.000000
 
  0.4000000E+00  0.3333333E+00  0.0000000E+00  0.7111111E-02
    1        0.973607   1.000000
    2       10.850972   0.000000
    3       12.523827   0.000000
    4       14.076055   0.000000
    5       16.146099   0.000000
    6       18.507560   0.000000
    7       32.129259   0.000000
    8       33.779001   0.000000
 
  0.4666667E+00  0.3333333E+00  0.0000000E+00  0.7111111E-02
    1        2.187133   1.000000
    2        9.544448   1.000000
    3       10.289609   0.000587
    4       14.036629   0.000000
    5       16.409526   0.000000
    6       20.327752   0.000000
    7       31.334568   0.000000
    8       33.559295   0.000000
 
 -0.4666667E+00  0.3333333E+00  0.0000000E+00  0.7111111E-02
    1        3.632434   1.000000
    2        7.883667   1.000000
    3        8.775857   1.000000
    4       14.222194   0.000000
    5       16.693216   0.000000
    6       22.638633   0.000000
    7       30.582546   0.000000
    8       32.888443   0.000000
 
 -0.4000000E+00  0.3333333E+00  0.0000000E+00  0.7111111E-02
    1        5.232096   1.000000
    2        6.009059   1.000000
    3        7.990199   1.000000
    4       14.631483   0.000000
    5       17.175854   0.000000
    6       25.141647   0.000000
    7       29.932824   0.000000
    8       31.927428   0.000000
 
 -0.3333333E+00  0.3333333E+00  0.0000000E+00  0.3555556E-02
    1        4.164992   1.000000
    2        6.862244   1.000000
    3        7.832224   1.000000
    4       15.261758   0.000000
    5       17.886142   0.000000
    6       27.652378   0.000000
    7       29.164153   0.000000
    8       30.188169   0.000000
 
  0.4000000E+00  0.4000000E+00  0.0000000E+00  0.1777778E-02
    1        1.853798   1.000000
    2        9.320271   1.000000
    3       13.736791   0.000000
    4       13.736792   0.000000
    5       14.983419   0.000000
    6       17.384520   0.000000
    7       33.811645   0.000000
    8       35.049314   0.000000
 
  0.4666667E+00  0.4000000E+00  0.0000000E+00  0.7111111E-02
    1        2.974087   1.000000
    2        7.995914   1.000000
    3       12.033694   0.000000
    4       13.623027   0.000000
    5       15.643607   0.000000
    6       18.035054   0.000000
    7       33.577144   0.000000
    8       35.324505   0.000000
 
 -0.4666667E+00  0.4000000E+00  0.0000000E+00  0.7111111E-02
    1        4.311251   1.000000
    2        6.919246   1.000000
    3        9.883447   1.000000
    4       13.734761   0.000000
    5       16.073389   0.000000
    6       20.029332   0.000000
    7       32.888944   0.000000
    8       34.710570   0.000000
 
 -0.4000000E+00  0.4000000E+00  0.0000000E+00  0.3555556E-02
    1        5.563284   1.000000
    2        6.355532   1.000000
    3        7.917480   1.000000
    4       14.071508   0.000000
    5       16.526574   0.000000
    6       22.499675   0.000000
    7       31.914239   0.000000
    8       33.309117   0.000000
 
  0.4666667E+00  0.4666667E+00  0.0000000E+00  0.1777778E-02
    1        3.983643   1.000000
    2        6.605355   1.000000
    3       13.434605   0.000000
    4       13.434606   0.000000
    5       14.642253   0.000000
    6       17.057233   0.000000
    7       34.704202   0.000000
    8       36.265728   0.000000
 
 -0.4666667E+00  0.4666667E+00  0.0000000E+00  0.3555556E-02
    1        4.913406   1.000000
    2        5.764210   1.000000
    3       11.873073   0.000000
    4       13.471925   0.000000
    5       15.475932   0.000000
    6       17.876914   0.000000
    7       34.380926   0.000000
    8       35.976774   0.000000
 
  0.2000000E+00  0.1333333E+00  0.6666667E-01  0.7111111E-02
    1       -3.412227   1.000000
    2       16.408763   0.000000
    3       16.828920   0.000000
    4       20.732465   0.000000
    5       21.342536   0.000000
    6       24.306037   0.000000
    7       25.666453   0.000000
    8       26.031543   0.000000
 
  0.2666667E+00  0.1333333E+00  0.6666667E-01  0.1422222E-01
    1       -2.767594   1.000000
    2       13.818093   0.000000
    3       16.094589   0.000000
    4       20.082966   0.000000
    5       21.774759   0.000000
    6       23.853761   0.000000
    7       25.882315   0.000000
    8       26.115480   0.000000
 
  0.3333333E+00  0.1333333E+00  0.6666667E-01  0.1422222E-01
    1       -1.868838   1.000000
    2       11.147848   0.000000
    3       15.736978   0.000000
    4       19.211279   0.000000
    5       21.336377   0.000000
    6       24.424880   0.000000
    7       25.347072   0.000000
    8       26.502998   0.000000
 
  0.4000000E+00  0.1333333E+00  0.6666667E-01  0.1422222E-01
    1       -0.720042   1.000000
    2        8.637261   1.000000
    3       15.606590   0.000000
    4       18.273796   0.000000
    5       21.009993   0.000000
    6       23.652457   0.000000
    7       25.613701   0.000000
    8       27.886637   0.000000
 
  0.4666667E+00  0.1333333E+00  0.6666667E-01  0.1422222E-01
    1        0.671793   1.000000
    2        6.326777   1.000000
    3       15.690313   0.000000
    4       17.409487   0.000000
    5       20.971205   0.000000
    6       22.776550   0.000000
    7       25.763593   0.000000
    8       29.306267   0.000000
 
 -0.4666667E+00  0.1333333E+00  0.6666667E-01  0.1422222E-01
    1        2.278136   1.000000
    2        4.258560   1.000000
    3       15.934139   0.000000
    4       16.759024   0.000000
    5       21.113700   0.000000
    6       22.169295   0.000000
    7       25.854648   0.000000
    8       29.046871   0.000000
 
  0.2666667E+00  0.2000000E+00  0.6666667E-01  0.7111111E-02
    1       -2.552919   1.000000
    2       14.856319   0.000000
    3       15.359318   0.000000
    4       18.736872   0.000000
    5       19.869490   0.000000
    6       21.746836   0.000000
    7       27.608723   0.000000
    8       28.259567   0.000000
 
  0.3333333E+00  0.2000000E+00  0.6666667E-01  0.1422222E-01
    1       -1.740221   1.000000
    2       12.404034   0.000000
    3       14.734305   0.000000
    4       17.565672   0.000000
    5       20.086225   0.000000
    6       22.436610   0.000000
    7       26.882702   0.000000
    8       28.719740   0.000000
 
  0.4000000E+00  0.2000000E+00  0.6666667E-01  0.1422222E-01
    1       -0.676474   1.000000
    2        9.866881   1.000000
    3       14.508960   0.000000
    4       16.377011   0.000000
    5       19.943087   0.000000
    6       24.072474   0.000000
    7       25.969226   0.000000
    8       28.858552   0.000000
 
  0.4666667E+00  0.2000000E+00  0.6666667E-01  0.1422222E-01
    1        0.632696   1.000000
    2        7.500583   1.000000
    3       14.466046   0.000000
    4       15.387785   0.000000
    5       19.966156   0.000000
    6       24.622055   0.000000
    7       26.334224   0.000000
    8       29.067377   0.000000
 
 -0.4666667E+00  0.2000000E+00  0.6666667E-01  0.1422222E-01
    1        2.173304   1.000000
    2        5.349420   1.000000
    3       14.216713   0.000000
    4       15.032243   0.000000
    5       20.214146   0.000000
    6       23.946508   0.000000
    7       27.489103   0.000000
    8       29.861741   0.000000
 
 -0.4000000E+00  0.2000000E+00  0.6666667E-01  0.1422222E-01
    1        3.247678   1.000000
    2        4.121275   1.000000
    3       13.665435   0.000000
    4       15.423447   0.000000
    5       20.679849   0.000000
    6       23.386739   0.000000
    7       27.690163   0.000000
    8       31.002943   0.000000
 
 -0.3333333E+00  0.2000000E+00  0.6666667E-01  0.1422222E-01
    1        1.636102   1.000000
    2        6.037444   1.000000
    3       13.266858   0.000000
    4       16.110925   0.000000
    5       21.330761   0.000000
    6       23.063450   0.000000
    7       27.434516   0.000000
    8       29.815553   0.000000
 
 -0.2666667E+00  0.2000000E+00  0.6666667E-01  0.1422222E-01
    1        0.169268   1.000000
    2        8.260985   1.000000
    3       13.090821   0.000000
    4       17.019804   0.000000
    5       22.047423   0.000000
    6       23.082644   0.000000
    7       26.638231   0.000000
    8       28.297025   0.000000
 
 -0.2000000E+00  0.2000000E+00  0.6666667E-01  0.1422222E-01
    1       -1.058988   1.000000
    2       10.672560   0.000000
    3       13.162444   0.000000
    4       18.111686   0.000000
    5       22.547198   0.000000
    6       23.552923   0.000000
    7       25.169534   0.000000
    8       27.652677   0.000000
 
 -0.1333333E+00  0.2000000E+00  0.6666667E-01  0.7111111E-02
    1       -2.039498   1.000000
    2       12.983198   0.000000
    3       13.735977   0.000000
    4       19.299365   0.000000
    5       22.584549   0.000000
    6       23.334039   0.000000
    7       25.126501   0.000000
    8       27.063432   0.000000
 
  0.3333333E+00  0.2666667E+00  0.6666667E-01  0.7111111E-02
    1       -1.355891   1.000000
    2       13.597744   0.000000
    3       14.110330   0.000000
    4       15.788465   0.000000
    5       18.621864   0.000000
    6       20.239536   0.000000
    7       28.986195   0.000000
    8       30.798138   0.000000
 
  0.4000000E+00  0.2666667E+00  0.6666667E-01  0.1422222E-01
    1       -0.378588   1.000000
    2       11.285819   0.000000
    3       13.567022   0.000000
    4       14.507276   0.000000
    5       18.941791   0.000000
    6       21.423258   0.000000
    7       28.124830   0.000000
    8       31.241062   0.000000
 
  0.4666667E+00  0.2666667E+00  0.6666667E-01  0.1422222E-01
    1        0.845420   1.000000
    2        8.895085   1.000000
    3       13.012961   0.000000
    4       13.817513   0.000000
    5       19.000387   0.000000
    6       23.394077   0.000000
    7       27.217334   0.000000
    8       31.166388   0.000000
 
 -0.4666667E+00  0.2666667E+00  0.6666667E-01  0.1422222E-01
    1        2.306900   1.000000
    2        6.684426   1.000000
    3       12.138642   0.000000
    4       13.903048   0.000000
    5       19.218969   0.000000
    6       25.353278   0.000000
    7       26.650839   0.000000
    8       30.820652   0.000000
 
 -0.4000000E+00  0.2666667E+00  0.6666667E-01  0.1422222E-01
    1        3.918842   1.000000
    2        4.768094   1.000000
    3       11.414958   0.000000
    4       14.301468   0.000000
    5       19.652639   0.000000
    6       25.484160   0.000000
    7       28.037985   0.000000
    8       30.211367   0.000000
 
 -0.3333333E+00  0.2666667E+00  0.6666667E-01  0.1422222E-01
    1        2.842641   1.000000
    2        5.988697   1.000000
    3       10.918249   0.000000
    4       14.942349   0.000000
    5       20.304349   0.000000
    6       25.087571   0.000000
    7       28.783233   0.000000
    8       29.667115   0.000000
 
 -0.2666667E+00  0.2666667E+00  0.6666667E-01  0.1422222E-01
    1        1.306144   1.000000
    2        8.098389   1.000000
    3       10.680787   0.000000
    4       15.808504   0.000000
    5       21.158200   0.000000
    6       24.841384   0.000000
    7       26.912410   0.000000
    8       29.618178   0.000000
 
 -0.2000000E+00  0.2666667E+00  0.6666667E-01  0.7111111E-02
    1        0.001174   1.000000
    2       10.099076   0.983978
    3       11.002750   0.000000
    4       16.881324   0.000000
    5       22.162826   0.000000
    6       24.475565   0.000000
    7       25.216672   0.000000
    8       28.872419   0.000000
 
  0.4000000E+00  0.3333333E+00  0.6666667E-01  0.7111111E-02
    1        0.172314   1.000000
    2       12.363673   0.000000
    3       12.647047   0.000000
    4       13.451503   0.000000
    5       17.665899   0.000000
    6       19.279214   0.000000
    7       30.421213   0.000000
    8       33.090869   0.000000
 
  0.4666667E+00  0.3333333E+00  0.6666667E-01  0.1422222E-01
    1        1.308988   1.000000
    2       10.428313   0.000000
    3       11.252866   0.000000
    4       13.000378   0.000000
    5       18.143876   0.000000
    6       20.699031   0.000000
    7       29.606629   0.000000
    8       33.321014   0.000000
 
 -0.4666667E+00  0.3333333E+00  0.6666667E-01  0.1422222E-01
    1        2.684972   1.000000
    2        8.226744   1.000000
    3       10.170968   0.543979
    4       13.072048   0.000000
    5       18.374033   0.000000
    6       22.877650   0.000000
    7       28.794675   0.000000
    8       32.737395   0.000000
 