 running on    4 total cores
 distrk:  each k-point on    4 cores,    1 groups
 distr:  one band on    1 cores,    4 groups
 vasp.6.2.0 18Jan21 (build Aug 12 2022 13:00:08) complex                        
  
 POSCAR found type information on POSCAR Si
 POSCAR found :  1 types and       1 ions
 scaLAPACK will be used
 LDA part: xc-table for Pade appr. of Perdew
 POSCAR, INCAR and KPOINTS ok, starting setup
 FFT: planning ...
 WAVECAR not read
 entering main loop
       N       E                     dE             d eps       ncg     rms          rms(c)
DAV:   1    -0.326104112144E+01   -0.32610E+01   -0.15254E+03  2080   0.302E+02
DAV:   2    -0.489545747215E+01   -0.16344E+01   -0.15679E+01  2896   0.251E+01
DAV:   3    -0.490283464022E+01   -0.73772E-02   -0.73661E-02  2192   0.167E+00
DAV:   4    -0.490284041054E+01   -0.57703E-05   -0.57710E-05  3176   0.478E-02
DAV:   5    -0.490284041306E+01   -0.25160E-08   -0.15878E-08  2200   0.418E-04    0.279E+00
DAV:   6    -0.488922787092E+01    0.13613E-01   -0.39249E-03  2264   0.275E-01    0.154E+00
DAV:   7    -0.488141224694E+01    0.78156E-02   -0.79284E-03  2288   0.390E-01    0.135E-01
DAV:   8    -0.488137310777E+01    0.39139E-04   -0.26547E-05  2888   0.412E-02    0.141E-02
DAV:   9    -0.488137342813E+01   -0.32036E-06   -0.30827E-07  2384   0.322E-03
   1 F= -.48813734E+01 E0= -.48809791E+01  d E =-.488137E+01
 curvature:   0.00 expect dE= 0.000E+00 dE for cont linesearch  0.000E+00
 trial: gam= 0.00000 g(F)=  0.895E-68 g(S)=  0.524E-02 ort = 0.000E+00 (trialstep = 0.100E+01)
 search vector abs. value=  0.524E-02
 bond charge predicted
       N       E                     dE             d eps       ncg     rms          rms(c)
DAV:   1    -0.488514039588E+01   -0.37673E-02   -0.81249E-02  2088   0.113E+00    0.273E-01
DAV:   2    -0.488424160873E+01    0.89879E-03   -0.48398E-04  2640   0.168E-01    0.154E-01
DAV:   3    -0.488371489058E+01    0.52672E-03   -0.59402E-04  2136   0.103E-01    0.457E-02
DAV:   4    -0.488371421161E+01    0.67897E-06   -0.11295E-06  2824   0.937E-03    0.390E-02
DAV:   5    -0.488371070297E+01    0.35086E-05   -0.23160E-07  1480   0.339E-03    0.816E-03
DAV:   6    -0.488371096138E+01   -0.25842E-06   -0.85972E-09  1096   0.810E-04
   2 F= -.48837110E+01 E0= -.48832988E+01  d E =-.233753E-02
 trial-energy change:   -0.002338  1 .order   -0.002380   -0.005240    0.000481
 step:   0.9124(harm=  0.9160)  dis= 0.00000  next Energy=    -4.883732 (dE=-0.236E-02)
 bond charge predicted
       N       E                     dE             d eps       ncg     rms          rms(c)
DAV:   1    -0.488374265025E+01   -0.31947E-04   -0.62635E-04  2080   0.100E-01    0.234E-02
DAV:   2    -0.488373564528E+01    0.70050E-05   -0.37002E-06  2656   0.147E-02    0.132E-02
DAV:   3    -0.488373194192E+01    0.37034E-05   -0.46040E-06  2096   0.908E-03    0.413E-03
DAV:   4    -0.488373196065E+01   -0.18729E-07   -0.84831E-09  1024   0.830E-04    0.352E-03
DAV:   5    -0.488373214074E+01   -0.18009E-06   -0.25706E-09   992   0.390E-04    0.529E-04
DAV:   6    -0.488373211878E+01    0.21962E-07   -0.95951E-11   984   0.827E-05
   3 F= -.48837321E+01 E0= -.48833182E+01  d E =-.235869E-02
 curvature:  -0.46 expect dE=-0.218E-08 dE for cont linesearch -0.218E-08
 trial: gam=-0.00095 g(F)=  0.151E-65 g(S)=  0.477E-08 ort = 0.500E-05 (trialstep = 0.982E+00)
 search vector abs. value=  0.100E-09
 reached required accuracy - stopping structural energy minimisation
