<?xml version="1.0" encoding="ISO-8859-1"?>
<modeling>
 <generator>
  <i name="program" type="string">vasp </i>
  <i name="version" type="string">6.2.0  </i>
  <i name="subversion" type="string">18Jan21 (build Aug 12 2022 13:00:08) complex                          parallel </i>
  <i name="platform" type="string">LinuxIFC </i>
  <i name="date" type="string">2024 11 03 </i>
  <i name="time" type="string">22:11:17 </i>
 </generator>
 <incar>
  <i type="int" name="ISTART">     0</i>
  <i type="string" name="PREC">Accurate      (Accurate strictly avoids</i>
  <i type="logical" name="ADDGRID"> T  </i>
  <i type="int" name="ISPIN">     1</i>
  <i type="int" name="NELM">    90</i>
  <i type="int" name="NELMIN">     6</i>
  <i type="int" name="IBRION">     2</i>
  <i name="EDIFF">      0.00000100</i>
  <i name="EDIFFG">     -0.00200000</i>
  <i type="int" name="NSW">   100</i>
  <i type="int" name="ISIF">     3</i>
  <i type="int" name="ISYM">     2</i>
  <i name="ENCUT">    400.00000000</i>
  <i type="logical" name="LREAL"> F  </i>
  <i type="int" name="ISMEAR">     0</i>
  <i name="SIGMA">      0.05000000</i>
  <i type="logical" name="LWAVE"> F  </i>
  <i type="logical" name="LCHARG"> F  </i>
  <i type="logical" name="LASPH"> T  </i>
 </incar>
 <primitive_cell>
  <structure name="primitive_cell" >
   <crystal>
    <varray name="basis" >
     <v>       2.34739500       0.00000000       1.35526800 </v>
     <v>       0.78246500       2.21314500       1.35526800 </v>
     <v>       0.00000000       0.00000000       2.71053800 </v>
    </varray>
    <i name="volume">     14.08158510 </i>
    <varray name="rec_basis" >
     <v>       0.42600415      -0.15061523       0.00000000 </v>
     <v>       0.00000000       0.45184568       0.00000000 </v>
     <v>      -0.21300192      -0.15061511       0.36893045 </v>
    </varray>
   </crystal>
   <varray name="positions" >
    <v>       0.00000000       0.00000000       0.00000000 </v>
   </varray>
  </structure>
  <varray name="primitive_index" >
   <v type="int" >        1 </v>
  </varray>
 </primitive_cell>
 <kpoints>
  <generation param="Monkhorst-Pack">
   <v type="int" name="divisions">      15       15       15 </v>
   <v name="usershift">      0.00000000       0.00000000       0.00000000 </v>
   <v name="genvec1">      0.06666667      -0.00000000       0.00000000 </v>
   <v name="genvec2">      0.00000000       0.06666667       0.00000000 </v>
   <v name="genvec3">      0.00000000       0.00000000       0.06666667 </v>
   <v name="shift">      0.00000000       0.00000000       0.00000000 </v>
  </generation>
  <varray name="kpointlist" >
   <v>       0.00000000       0.00000000       0.00000000 </v>
   <v>       0.06666667      -0.00000000       0.00000000 </v>
   <v>       0.13333333       0.00000000       0.00000000 </v>
   <v>       0.20000000       0.00000000       0.00000000 </v>
   <v>       0.26666667       0.00000000       0.00000000 </v>
   <v>       0.33333333       0.00000000       0.00000000 </v>
   <v>       0.40000000      -0.00000000       0.00000000 </v>
   <v>       0.46666667       0.00000000       0.00000000 </v>
   <v>       0.06666667       0.06666667       0.00000000 </v>
   <v>       0.13333333       0.06666667       0.00000000 </v>
   <v>       0.20000000       0.06666667       0.00000000 </v>
   <v>       0.26666667       0.06666667       0.00000000 </v>
   <v>       0.33333333       0.06666667       0.00000000 </v>
   <v>       0.40000000       0.06666667       0.00000000 </v>
   <v>       0.46666667       0.06666667       0.00000000 </v>
   <v>      -0.46666667       0.06666667       0.00000000 </v>
   <v>      -0.40000000       0.06666667       0.00000000 </v>
   <v>      -0.33333333       0.06666667       0.00000000 </v>
   <v>      -0.26666667       0.06666667       0.00000000 </v>
   <v>      -0.20000000       0.06666667       0.00000000 </v>
   <v>      -0.13333333       0.06666667       0.00000000 </v>
   <v>      -0.06666667       0.06666667       0.00000000 </v>
   <v>       0.13333333       0.13333333       0.00000000 </v>
   <v>       0.20000000       0.13333333       0.00000000 </v>
   <v>       0.26666667       0.13333333       0.00000000 </v>
   <v>       0.33333333       0.13333333       0.00000000 </v>
   <v>       0.40000000       0.13333333       0.00000000 </v>
   <v>       0.46666667       0.13333333       0.00000000 </v>
   <v>      -0.46666667       0.13333333       0.00000000 </v>
   <v>      -0.40000000       0.13333333       0.00000000 </v>
   <v>      -0.33333333       0.13333333       0.00000000 </v>
   <v>      -0.26666667       0.13333333       0.00000000 </v>
   <v>      -0.20000000       0.13333333       0.00000000 </v>
   <v>      -0.13333333       0.13333333       0.00000000 </v>
   <v>       0.20000000       0.20000000       0.00000000 </v>
   <v>       0.26666667       0.20000000       0.00000000 </v>
   <v>       0.33333333       0.20000000       0.00000000 </v>
   <v>       0.40000000       0.20000000       0.00000000 </v>
   <v>       0.46666667       0.20000000       0.00000000 </v>
   <v>      -0.46666667       0.20000000       0.00000000 </v>
   <v>      -0.40000000       0.20000000       0.00000000 </v>
   <v>      -0.33333333       0.20000000       0.00000000 </v>
   <v>      -0.26666667       0.20000000       0.00000000 </v>
   <v>      -0.20000000       0.20000000       0.00000000 </v>
   <v>       0.26666667       0.26666667       0.00000000 </v>
   <v>       0.33333333       0.26666667       0.00000000 </v>
   <v>       0.40000000       0.26666667       0.00000000 </v>
   <v>       0.46666667       0.26666667       0.00000000 </v>
   <v>      -0.46666667       0.26666667       0.00000000 </v>
   <v>      -0.40000000       0.26666667       0.00000000 </v>
   <v>      -0.33333333       0.26666667       0.00000000 </v>
   <v>      -0.26666667       0.26666667       0.00000000 </v>
   <v>       0.33333333       0.33333333       0.00000000 </v>
   <v>       0.40000000       0.33333333       0.00000000 </v>
   <v>       0.46666667       0.33333333       0.00000000 </v>
   <v>      -0.46666667       0.33333333       0.00000000 </v>
   <v>      -0.40000000       0.33333333       0.00000000 </v>
   <v>      -0.33333333       0.33333333       0.00000000 </v>
   <v>       0.40000000       0.40000000       0.00000000 </v>
   <v>       0.46666667       0.40000000       0.00000000 </v>
   <v>      -0.46666667       0.40000000       0.00000000 </v>
   <v>      -0.40000000       0.40000000       0.00000000 </v>
   <v>       0.46666667       0.46666667       0.00000000 </v>
   <v>      -0.46666667       0.46666667       0.00000000 </v>
   <v>       0.20000000       0.13333333       0.06666667 </v>
   <v>       0.26666667       0.13333333       0.06666667 </v>
   <v>       0.33333333       0.13333333       0.06666667 </v>
   <v>       0.40000000       0.13333333       0.06666667 </v>
   <v>       0.46666667       0.13333333       0.06666667 </v>
   <v>      -0.46666667       0.13333333       0.06666667 </v>
   <v>       0.26666667       0.20000000       0.06666667 </v>
   <v>       0.33333333       0.20000000       0.06666667 </v>
   <v>       0.40000000       0.20000000       0.06666667 </v>
   <v>       0.46666667       0.20000000       0.06666667 </v>
   <v>      -0.46666667       0.20000000       0.06666667 </v>
   <v>      -0.40000000       0.20000000       0.06666667 </v>
   <v>      -0.33333333       0.20000000       0.06666667 </v>
   <v>      -0.26666667       0.20000000       0.06666667 </v>
   <v>      -0.20000000       0.20000000       0.06666667 </v>
   <v>      -0.13333333       0.20000000       0.06666667 </v>
   <v>       0.33333333       0.26666667       0.06666667 </v>
   <v>       0.40000000       0.26666667       0.06666667 </v>
   <v>       0.46666667       0.26666667       0.06666667 </v>
   <v>      -0.46666667       0.26666667       0.06666667 </v>
   <v>      -0.40000000       0.26666667       0.06666667 </v>
   <v>      -0.33333333       0.26666667       0.06666667 </v>
   <v>      -0.26666667       0.26666667       0.06666667 </v>
   <v>      -0.20000000       0.26666667       0.06666667 </v>
   <v>       0.40000000       0.33333333       0.06666667 </v>
   <v>       0.46666667       0.33333333       0.06666667 </v>
   <v>      -0.46666667       0.33333333       0.06666667 </v>
   <v>      -0.40000000       0.33333333       0.06666667 </v>
   <v>      -0.33333333       0.33333333       0.06666667 </v>
   <v>      -0.26666667       0.33333333       0.06666667 </v>
   <v>       0.46666667       0.40000000       0.06666667 </v>
   <v>      -0.46666667       0.40000000       0.06666667 </v>
   <v>      -0.40000000       0.40000000       0.06666667 </v>
   <v>      -0.33333333       0.40000000       0.06666667 </v>
   <v>      -0.46666667       0.46666667       0.06666667 </v>
   <v>      -0.40000000       0.46666667       0.06666667 </v>
   <v>       0.40000000       0.26666667       0.13333333 </v>
   <v>       0.46666667       0.26666667       0.13333333 </v>
   <v>      -0.46666667       0.26666667       0.13333333 </v>
   <v>      -0.40000000       0.26666667       0.13333333 </v>
   <v>       0.46666667       0.33333333       0.13333333 </v>
   <v>      -0.46666667       0.33333333       0.13333333 </v>
   <v>      -0.40000000       0.33333333       0.13333333 </v>
   <v>      -0.33333333       0.33333333       0.13333333 </v>
   <v>      -0.26666667       0.33333333       0.13333333 </v>
   <v>      -0.20000000       0.33333333       0.13333333 </v>
   <v>      -0.46666667       0.40000000       0.13333333 </v>
   <v>      -0.40000000       0.40000000       0.13333333 </v>
   <v>      -0.33333333       0.40000000       0.13333333 </v>
   <v>      -0.26666667       0.40000000       0.13333333 </v>
   <v>      -0.40000000       0.46666667       0.13333333 </v>
   <v>      -0.33333333       0.46666667       0.13333333 </v>
   <v>      -0.40000000       0.40000000       0.20000000 </v>
   <v>      -0.33333333       0.40000000       0.20000000 </v>
   <v>      -0.33333333       0.46666667       0.20000000 </v>
   <v>      -0.26666667       0.46666667       0.20000000 </v>
  </varray>
  <varray name="weights" >
   <v>       0.00029630 </v>
   <v>       0.00237037 </v>
   <v>       0.00237037 </v>
   <v>       0.00237037 </v>
   <v>       0.00237037 </v>
   <v>       0.00237037 </v>
   <v>       0.00237037 </v>
   <v>       0.00237037 </v>
   <v>       0.00177778 </v>
   <v>       0.00711111 </v>
   <v>       0.00711111 </v>
   <v>       0.00711111 </v>
   <v>       0.00711111 </v>
   <v>       0.00711111 </v>
   <v>       0.00711111 </v>
   <v>       0.00711111 </v>
   <v>       0.00711111 </v>
   <v>       0.00711111 </v>
   <v>       0.00711111 </v>
   <v>       0.00711111 </v>
   <v>       0.00711111 </v>
   <v>       0.00355556 </v>
   <v>       0.00177778 </v>
   <v>       0.00711111 </v>
   <v>       0.00711111 </v>
   <v>       0.00711111 </v>
   <v>       0.00711111 </v>
   <v>       0.00711111 </v>
   <v>       0.00711111 </v>
   <v>       0.00711111 </v>
   <v>       0.00711111 </v>
   <v>       0.00711111 </v>
   <v>       0.00711111 </v>
   <v>       0.00355556 </v>
   <v>       0.00177778 </v>
   <v>       0.00711111 </v>
   <v>       0.00711111 </v>
   <v>       0.00711111 </v>
   <v>       0.00711111 </v>
   <v>       0.00711111 </v>
   <v>       0.00711111 </v>
   <v>       0.00711111 </v>
   <v>       0.00711111 </v>
   <v>       0.00355556 </v>
   <v>       0.00177778 </v>
   <v>       0.00711111 </v>
   <v>       0.00711111 </v>
   <v>       0.00711111 </v>
   <v>       0.00711111 </v>
   <v>       0.00711111 </v>
   <v>       0.00711111 </v>
   <v>       0.00355556 </v>
   <v>       0.00177778 </v>
   <v>       0.00711111 </v>
   <v>       0.00711111 </v>
   <v>       0.00711111 </v>
   <v>       0.00711111 </v>
   <v>       0.00355556 </v>
   <v>       0.00177778 </v>
   <v>       0.00711111 </v>
   <v>       0.00711111 </v>
   <v>       0.00355556 </v>
   <v>       0.00177778 </v>
   <v>       0.00355556 </v>
   <v>       0.00711111 </v>
   <v>       0.01422222 </v>
   <v>       0.01422222 </v>
   <v>       0.01422222 </v>
   <v>       0.01422222 </v>
   <v>       0.01422222 </v>
   <v>       0.00711111 </v>
   <v>       0.01422222 </v>
   <v>       0.01422222 </v>
   <v>       0.01422222 </v>
   <v>       0.01422222 </v>
   <v>       0.01422222 </v>
   <v>       0.01422222 </v>
   <v>       0.01422222 </v>
   <v>       0.01422222 </v>
   <v>       0.00711111 </v>
   <v>       0.00711111 </v>
   <v>       0.01422222 </v>
   <v>       0.01422222 </v>
   <v>       0.01422222 </v>
   <v>       0.01422222 </v>
   <v>       0.01422222 </v>
   <v>       0.01422222 </v>
   <v>       0.00711111 </v>
   <v>       0.00711111 </v>
   <v>       0.01422222 </v>
   <v>       0.01422222 </v>
   <v>       0.01422222 </v>
   <v>       0.01422222 </v>
   <v>       0.00711111 </v>
   <v>       0.00711111 </v>
   <v>       0.01422222 </v>
   <v>       0.01422222 </v>
   <v>       0.00711111 </v>
   <v>       0.00711111 </v>
   <v>       0.00711111 </v>
   <v>       0.00711111 </v>
   <v>       0.01422222 </v>
   <v>       0.01422222 </v>
   <v>       0.01422222 </v>
   <v>       0.00711111 </v>
   <v>       0.01422222 </v>
   <v>       0.01422222 </v>
   <v>       0.01422222 </v>
   <v>       0.01422222 </v>
   <v>       0.00711111 </v>
   <v>       0.00711111 </v>
   <v>       0.01422222 </v>
   <v>       0.01422222 </v>
   <v>       0.00711111 </v>
   <v>       0.00711111 </v>
   <v>       0.00711111 </v>
   <v>       0.00711111 </v>
   <v>       0.01422222 </v>
   <v>       0.00711111 </v>
   <v>       0.00711111 </v>
  </varray>
 </kpoints>
 <parameters>
  <separator name="general" >
   <i type="string" name="SYSTEM">unknown system</i>
   <i type="logical" name="LCOMPAT"> F  </i>
  </separator>
  <separator name="electronic" >
   <i type="string" name="PREC">accura</i>
   <i name="ENMAX">    400.00000000</i>
   <i name="ENAUG">    322.06900000</i>
   <i name="EDIFF">      0.00000100</i>
   <i type="int" name="IALGO">    38</i>
   <i type="int" name="IWAVPR">    11</i>
   <i type="int" name="NBANDS">     8</i>
   <i type="int" name="NBANDSLOW">    -1</i>
   <i type="int" name="NBANDSHIGH">    -1</i>
   <i name="NELECT">      4.00000000</i>
   <i type="int" name="TURBO">     0</i>
   <i type="int" name="IRESTART">     0</i>
   <i type="int" name="NREBOOT">     0</i>
   <i type="int" name="NMIN">     0</i>
   <i name="EREF">      0.00000000</i>
   <separator name="electronic smearing" >
    <i type="int" name="ISMEAR">     0</i>
    <i name="SIGMA">      0.05000000</i>
    <i name="KSPACING">      0.50000000</i>
    <i type="logical" name="KGAMMA"> T  </i>
    <i type="logical" name="KBLOWUP"> T  </i>
   </separator>
   <separator name="electronic projectors" >
    <i type="logical" name="LREAL"> F  </i>
    <v name="ROPT">      0.00000000</v>
    <i type="int" name="LMAXPAW">  -100</i>
    <i type="int" name="LMAXMIX">     2</i>
    <i type="logical" name="NLSPLINE"> F  </i>
   </separator>
   <separator name="electronic startup" >
    <i type="int" name="ISTART">     0</i>
    <i type="int" name="ICHARG">     2</i>
    <i type="int" name="INIWAV">     1</i>
   </separator>
   <separator name="electronic spin" >
    <i type="int" name="ISPIN">     1</i>
    <i type="logical" name="LNONCOLLINEAR"> F  </i>
    <v name="MAGMOM">      1.00000000</v>
    <i name="NUPDOWN">     -1.00000000</i>
    <i type="logical" name="LSORBIT"> F  </i>
    <v name="SAXIS">      0.00000000      0.00000000      1.00000000</v>
    <i type="logical" name="LSPIRAL"> F  </i>
    <v name="QSPIRAL">      0.00000000      0.00000000      0.00000000</v>
    <i type="logical" name="LZEROZ"> F  </i>
   </separator>
   <separator name="electronic exchange-correlation" >
    <i type="logical" name="LASPH"> T  </i>
    <i type="logical" name="LMETAGGA"> F  </i>
   </separator>
   <separator name="electronic convergence" >
    <i type="int" name="NELM">    90</i>
    <i type="int" name="NELMDL">    -5</i>
    <i type="int" name="NELMIN">     6</i>
    <i name="ENINI">    400.00000000</i>
    <separator name="electronic convergence detail" >
     <i type="logical" name="LDIAG"> T  </i>
     <i type="logical" name="LSUBROT"> F  </i>
     <i name="WEIMIN">      0.00100000</i>
     <i name="EBREAK">      0.00000003</i>
     <i name="DEPER">      0.30000000</i>
     <i type="int" name="NRMM">     4</i>
     <i name="TIME">      0.40000000</i>
    </separator>
   </separator>
   <separator name="electronic mixer" >
    <i name="AMIX">      0.40000000</i>
    <i name="BMIX">      1.00000000</i>
    <i name="AMIN">      0.10000000</i>
    <i name="AMIX_MAG">      1.60000000</i>
    <i name="BMIX_MAG">      1.00000000</i>
    <separator name="electronic mixer details" >
     <i type="int" name="IMIX">     4</i>
     <i type="logical" name="MIXFIRST"> F  </i>
     <i type="int" name="MAXMIX">   -45</i>
     <i name="WC">    100.00000000</i>
     <i type="int" name="INIMIX">     1</i>
     <i type="int" name="MIXPRE">     1</i>
     <i type="int" name="MREMOVE">     5</i>
    </separator>
   </separator>
   <separator name="electronic dipolcorrection" >
    <i type="logical" name="LDIPOL"> F  </i>
    <i type="logical" name="LMONO"> F  </i>
    <i type="int" name="IDIPOL">     0</i>
    <i name="EPSILON">      1.00000000</i>
    <v name="DIPOL">   -100.00000000   -100.00000000   -100.00000000</v>
    <i name="EFIELD">      0.00000000</i>
   </separator>
  </separator>
  <separator name="grids" >
   <i type="int" name="NGX">    18</i>
   <i type="int" name="NGY">    18</i>
   <i type="int" name="NGZ">    18</i>
   <i type="int" name="NGXF">    36</i>
   <i type="int" name="NGYF">    36</i>
   <i type="int" name="NGZF">    36</i>
   <i type="logical" name="ADDGRID"> T  </i>
  </separator>
  <separator name="ionic" >
   <i type="int" name="NSW">   100</i>
   <i type="int" name="IBRION">     2</i>
   <i type="int" name="MDALGO">     0</i>
   <i type="int" name="ISIF">     3</i>
   <i name="PSTRESS">      0.00000000</i>
   <i name="EDIFFG">     -0.00200000</i>
   <i type="int" name="NFREE">     1</i>
   <i name="POTIM">      0.50000000</i>
   <i name="SMASS">     -3.00000000</i>
   <i name="SCALEE">      1.00000000</i>
  </separator>
  <separator name="ionic md" >
   <i name="TEBEG">      0.00010000</i>
   <i name="TEEND">      0.00010000</i>
   <i type="int" name="NBLOCK">     1</i>
   <i type="int" name="KBLOCK">   100</i>
   <i type="int" name="NPACO">   256</i>
   <i name="APACO">     16.00000000</i>
  </separator>
  <separator name="symmetry" >
   <i type="int" name="ISYM">     2</i>
   <i name="SYMPREC">      0.00001000</i>
  </separator>
  <separator name="dos" >
   <i type="int" name="LORBIT">     0</i>
   <v name="RWIGS">     -1.00000000</v>
   <i type="int" name="NEDOS">   301</i>
   <i name="EMIN">     10.00000000</i>
   <i name="EMAX">    -10.00000000</i>
   <i name="EFERMI">      0.00000000</i>
  </separator>
  <separator name="writing" >
   <i type="int" name="NWRITE">     2</i>
   <i type="logical" name="LWAVE"> F  </i>
   <i type="logical" name="LDOWNSAMPLE"> F  </i>
   <i type="logical" name="LCHARG"> F  </i>
   <i type="logical" name="LPARD"> F  </i>
   <i type="logical" name="LVTOT"> F  </i>
   <i type="logical" name="LVHAR"> F  </i>
   <i type="logical" name="LELF"> F  </i>
   <i type="logical" name="LOPTICS"> F  </i>
   <v name="STM">      0.00000000      0.00000000      0.00000000      0.00000000      0.00000000      0.00000000      0.00000000</v>
  </separator>
  <separator name="performance" >
   <i type="int" name="NPAR">     4</i>
   <i type="int" name="NSIM">     4</i>
   <i type="int" name="NBLK">    -1</i>
   <i type="logical" name="LPLANE"> T  </i>
   <i type="logical" name="LSCALAPACK"> T  </i>
   <i type="logical" name="LSCAAWARE"> F  </i>
   <i type="logical" name="LSCALU"> F  </i>
   <i type="logical" name="LASYNC"> F  </i>
   <i type="logical" name="LORBITALREAL"> F  </i>
  </separator>
  <separator name="miscellaneous" >
   <i type="int" name="IDIOT">     3</i>
   <i type="int" name="PHON_NSTRUCT">    -1</i>
   <i type="logical" name="LMUSIC"> F  </i>
   <v name="POMASS">     28.08500000</v>
   <v name="DARWINR">      0.00000000</v>
   <v name="DARWINV">      1.00000000</v>
   <i type="logical" name="LCORR"> T  </i>
  </separator>
  <i type="logical" name="GGA_COMPAT"> T  </i>
  <i type="logical" name="LBERRY"> F  </i>
  <i type="int" name="ICORELEVEL">     0</i>
  <i type="logical" name="LDAU"> F  </i>
  <i type="int" name="I_CONSTRAINED_M">     0</i>
  <separator name="electronic exchange-correlation" >
   <i type="string" name="GGA">--</i>
   <i type="int" name="VOSKOWN">     0</i>
   <i type="logical" name="LHFCALC"> F  </i>
   <i type="string" name="PRECFOCK"></i>
   <i type="logical" name="LSYMGRAD"> F  </i>
   <i type="logical" name="LHFONE"> F  </i>
   <i type="logical" name="LRHFCALC"> F  </i>
   <i type="logical" name="LTHOMAS"> F  </i>
   <i type="logical" name="LMODELHF"> F  </i>
   <i type="logical" name="LFOCKACE"> F  </i>
   <i name="ENCUT4O">     -1.00000000</i>
   <i type="int" name="EXXOEP">     0</i>
   <i type="int" name="FOURORBIT">     0</i>
   <i name="AEXX">      0.00000000</i>
   <i name="HFALPHA">      0.00000000</i>
   <i name="MCALPHA">      0.00000000</i>
   <i name="ALDAX">      1.00000000</i>
   <i name="AGGAX">      1.00000000</i>
   <i name="ALDAC">      1.00000000</i>
   <i name="AGGAC">      1.00000000</i>
   <i type="int" name="NKREDX">     1</i>
   <i type="int" name="NKREDY">     1</i>
   <i type="int" name="NKREDZ">     1</i>
   <i type="logical" name="SHIFTRED"> F  </i>
   <i type="logical" name="ODDONLY"> F  </i>
   <i type="logical" name="EVENONLY"> F  </i>
   <i type="int" name="LMAXFOCK">     0</i>
   <i type="int" name="NMAXFOCKAE">     0</i>
   <i type="logical" name="LFOCKAEDFT"> F  </i>
   <i name="HFSCREEN">      0.00000000</i>
   <i name="HFSCREENC">      0.00000000</i>
   <i type="int" name="NBANDSGWLOW">     0</i>
  </separator>
  <separator name="vdW DFT" >
   <i type="logical" name="LUSE_VDW"> F  </i>
   <i name="Zab_VDW">     -0.84910000</i>
   <i name="PARAM1">      0.12340000</i>
   <i name="PARAM2">      1.00000000</i>
   <i name="PARAM3">      0.00000000</i>
  </separator>
  <separator name="model GW" >
   <i type="int" name="MODEL_GW">     0</i>
   <i name="MODEL_EPS0">      8.44895106</i>
   <i name="MODEL_ALPHA">      1.00000000</i>
  </separator>
  <separator name="linear response parameters" >
   <i type="logical" name="LEPSILON"> F  </i>
   <i type="logical" name="LRPA"> F  </i>
   <i type="logical" name="LNABLA"> F  </i>
   <i type="logical" name="LVEL"> F  </i>
   <i type="int" name="KINTER">     0</i>
   <i name="CSHIFT">      0.10000000</i>
   <i name="OMEGAMAX">     -1.00000000</i>
   <i name="DEG_THRESHOLD">      0.00200000</i>
   <i name="RTIME">     -0.10000000</i>
   <i name="WPLASMAI">      0.00000000</i>
   <v name="DFIELD">      0.00000000      0.00000000      0.00000000</v>
   <v name="WPLASMA">      0.00000000      0.00000000      0.00000000      0.00000000      0.00000000      0.00000000      0.00000000      0.00000000      0.00000000</v>
  </separator>
  <separator name="orbital magnetization" >
   <i type="logical" name="NUCIND"> F  </i>
   <v name="MAGPOS">      0.00000000      0.00000000      0.00000000</v>
   <i type="logical" name="LNICSALL"> T  </i>
   <i type="logical" name="ORBITALMAG"> F  </i>
   <i type="logical" name="LMAGBLOCH"> F  </i>
   <i type="logical" name="LCHIMAG"> F  </i>
   <i type="logical" name="LGAUGE"> T  </i>
   <i type="int" name="MAGATOM">     0</i>
   <v name="MAGDIPOL">      0.00000000      0.00000000      0.00000000</v>
   <v name="AVECCONST">      0.00000000      0.00000000      0.00000000</v>
  </separator>
  <separator name="response functions" >
   <i type="logical" name="LFINITE_TEMPERATURE"> F  </i>
   <i type="logical" name="LADDER"> F  </i>
   <i type="logical" name="LRPAFORCE"> F  </i>
   <i type="logical" name="LFXC"> F  </i>
   <i type="logical" name="LHARTREE"> T  </i>
   <i type="int" name="IBSE">     0</i>
   <v type="int" name="KPOINT">    -1     0     0     0</v>
   <i type="logical" name="LTCTC"> F  </i>
   <i type="logical" name="LTCTE"> F  </i>
   <i type="logical" name="LTETE"> F  </i>
   <i type="logical" name="LTRIPLET"> F  </i>
   <i type="logical" name="LFXCEPS"> F  </i>
   <i type="logical" name="LFXHEG"> F  </i>
   <i type="int" name="NATURALO">     2</i>
   <i type="logical" name="LHOLEGF"> F  </i>
   <i type="logical" name="L2ORDER"> F  </i>
   <i type="logical" name="LDMP1"> F  </i>
   <i type="logical" name="LMP2LT"> F  </i>
   <i type="logical" name="LSMP2LT"> F  </i>
   <i type="logical" name="LGWLF"> F  </i>
   <i name="ENCUTGW">     -2.00000000</i>
   <i name="ENCUTGWSOFT">     -2.00000000</i>
   <i name="ENCUTLF">     -1.00000000</i>
   <i type="logical" name="LESF_SPLINES"> F  </i>
   <i type="int" name="LMAXMP2">    -1</i>
   <i name="SCISSOR">      0.00000000</i>
   <i type="int" name="NOMEGA">     0</i>
   <i type="int" name="NOMEGAR">     0</i>
   <i type="int" name="NBANDSGW">    -1</i>
   <i type="int" name="NBANDSO">    -1</i>
   <i type="int" name="NBANDSV">    -1</i>
   <i type="int" name="NELM">    90</i>
   <i type="int" name="NELMHF">     1</i>
   <i type="int" name="DIM">     3</i>
   <i type="int" name="IESPILON">     4</i>
   <i type="int" name="ANTIRES">     0</i>
   <i name="OMEGAMAX">    -30.00000000</i>
   <i name="OMEGAMIN">    -30.00000000</i>
   <i name="OMEGATL">   -200.00000000</i>
   <i type="int" name="OMEGAGRID">     0</i>
   <i name="CSHIFT">     -0.10000000</i>
   <i type="logical" name="LSELFENERGY"> F  </i>
   <i type="logical" name="LSPECTRAL"> F  </i>
   <i type="logical" name="LSPECTRALGW"> F  </i>
   <i type="logical" name="LSINGLES"> F  </i>
   <i type="logical" name="LFERMIGW"> F  </i>
   <i type="logical" name="ODDONLYGW"> F  </i>
   <i type="logical" name="EVENONLYGW"> F  </i>
   <i type="int" name="NKREDLFX">     1</i>
   <i type="int" name="NKREDLFY">     1</i>
   <i type="int" name="NKREDLFZ">     1</i>
   <i type="int" name="MAXMEM">  2800</i>
   <i type="int" name="TELESCOPE">     0</i>
   <i type="int" name="NTAUPAR">    -1</i>
   <i type="int" name="NOMEGAPAR">    -1</i>
   <i name="DAMP_NEWTON">      0.80000001</i>
   <i name="LAMBDA">      1.00000000</i>
  </separator>
  <separator name="External order field" >
   <i name="OFIELD_KAPPA">      0.00000000</i>
   <v name="OFIELD_K">      0.00000000      0.00000000      0.00000000</v>
   <i name="OFIELD_Q6_NEAR">      0.00000000</i>
   <i name="OFIELD_Q6_FAR">      0.00000000</i>
   <i name="OFIELD_A">      0.00000000</i>
  </separator>
 </parameters>
 <atominfo>
  <atoms>       1 </atoms>
  <types>       1 </types>
  <array name="atoms" >
   <dimension dim="1">ion</dimension>
   <field type="string">element</field>
   <field type="int">atomtype</field>
   <set>
    <rc><c>Si</c><c>   1</c></rc>
   </set>
  </array>
  <array name="atomtypes" >
   <dimension dim="1">type</dimension>
   <field type="int">atomspertype</field>
   <field type="string">element</field>
   <field>mass</field>
   <field>valence</field>
   <field type="string">pseudopotential</field>
   <set>
    <rc><c>   1</c><c>Si</c><c>     28.08500000</c><c>      4.00000000</c><c>  PAW_PBE Si 05Jan2001                  </c></rc>
   </set>
  </array>
 </atominfo>
 <structure name="initialpos" >
  <crystal>
   <varray name="basis" >
    <v>       2.34739500       0.00000000       1.35526800 </v>
    <v>       0.78246500       2.21314500       1.35526800 </v>
    <v>       0.00000000       0.00000000       2.71053800 </v>
   </varray>
   <i name="volume">     14.08158510 </i>
   <varray name="rec_basis" >
    <v>       0.42600415      -0.15061523       0.00000000 </v>
    <v>       0.00000000       0.45184568       0.00000000 </v>
    <v>      -0.21300192      -0.15061511       0.36893045 </v>
   </varray>
  </crystal>
  <varray name="positions" >
   <v>       0.00000000       0.00000000       0.00000000 </v>
  </varray>
 </structure>
 <calculation>
  <scstep>
   <time name="dav">    0.59    0.59</time>
   <time name="total">    0.78    0.78</time>
   <energy>
    <i name="alphaZ">      2.39057823 </i>
    <i name="ewald">   -137.78496289 </i>
    <i name="hartreedc">     -0.54229904 </i>
    <i name="XCdc">     -8.73348015 </i>
    <i name="pawpsdc">     88.12379961 </i>
    <i name="pawaedc">    -70.53051779 </i>
    <i name="eentropy">     -0.00052509 </i>
    <i name="bandstr">     20.75061977 </i>
    <i name="atom">    103.06574623 </i>
    <i name="e_fr_energy">     -3.26104112 </i>
    <i name="e_wo_entrp">     -3.26051603 </i>
    <i name="e_0_energy">     -3.26077858 </i>
   </energy>
  </scstep>
  <scstep>
   <time name="dav">    0.81    0.82</time>
   <time name="total">    0.81    0.83</time>
   <energy>
    <i name="e_fr_energy">     -4.89545747 </i>
    <i name="e_wo_entrp">     -4.89468033 </i>
    <i name="e_0_energy">     -4.89506890 </i>
   </energy>
  </scstep>
  <scstep>
   <time name="dav">    0.63    0.64</time>
   <time name="total">    0.63    0.64</time>
   <energy>
    <i name="e_fr_energy">     -4.90283464 </i>
    <i name="e_wo_entrp">     -4.90209444 </i>
    <i name="e_0_energy">     -4.90246454 </i>
   </energy>
  </scstep>
  <scstep>
   <time name="dav">    0.89    0.91</time>
   <time name="total">    0.90    0.91</time>
   <energy>
    <i name="e_fr_energy">     -4.90284041 </i>
    <i name="e_wo_entrp">     -4.90210023 </i>
    <i name="e_0_energy">     -4.90247032 </i>
   </energy>
  </scstep>
  <scstep>
   <time name="dav">    0.63    0.64</time>
   <time name="total">    0.67    0.68</time>
   <energy>
    <i name="e_fr_energy">     -4.90284041 </i>
    <i name="e_wo_entrp">     -4.90210023 </i>
    <i name="e_0_energy">     -4.90247032 </i>
   </energy>
  </scstep>
  <scstep>
   <time name="dav">    0.64    0.64</time>
   <time name="total">    0.86    0.87</time>
   <energy>
    <i name="e_fr_energy">     -4.88922787 </i>
    <i name="e_wo_entrp">     -4.88846590 </i>
    <i name="e_0_energy">     -4.88884688 </i>
   </energy>
  </scstep>
  <scstep>
   <time name="dav">    0.65    0.65</time>
   <time name="total">    0.87    0.89</time>
   <energy>
    <i name="e_fr_energy">     -4.88141225 </i>
    <i name="e_wo_entrp">     -4.88062343 </i>
    <i name="e_0_energy">     -4.88101784 </i>
   </energy>
  </scstep>
  <scstep>
   <time name="dav">    0.82    0.82</time>
   <time name="total">    1.04    1.05</time>
   <energy>
    <i name="e_fr_energy">     -4.88137311 </i>
    <i name="e_wo_entrp">     -4.88058444 </i>
    <i name="e_0_energy">     -4.88097877 </i>
   </energy>
  </scstep>
  <scstep>
   <time name="dav">    0.68    0.68</time>
   <time name="total">    0.86    0.88</time>
   <energy>
    <i name="alphaZ">      2.39057823 </i>
    <i name="ewald">   -137.78496289 </i>
    <i name="hartreedc">     -0.40749998 </i>
    <i name="XCdc">     -8.67182562 </i>
    <i name="pawpsdc">    314.53404044 </i>
    <i name="pawaedc">   -296.95241362 </i>
    <i name="eentropy">     -0.00078873 </i>
    <i name="bandstr">     18.94575252 </i>
    <i name="atom">    103.06574623 </i>
    <i name="e_fr_energy">     -4.88137343 </i>
    <i name="e_wo_entrp">     -4.88058470 </i>
    <i name="e_0_energy">     -4.88097907 </i>
   </energy>
  </scstep>
  <structure>
   <crystal>
    <varray name="basis" >
     <v>       2.34739500       0.00000000       1.35526800 </v>
     <v>       0.78246500       2.21314500       1.35526800 </v>
     <v>       0.00000000       0.00000000       2.71053800 </v>
    </varray>
    <i name="volume">     14.08158510 </i>
    <varray name="rec_basis" >
     <v>       0.42600415      -0.15061523       0.00000000 </v>
     <v>       0.00000000       0.45184568       0.00000000 </v>
     <v>      -0.21300192      -0.15061511       0.36893045 </v>
    </varray>
   </crystal>
   <varray name="positions" >
    <v>       0.00000000       0.00000000       0.00000000 </v>
   </varray>
  </structure>
  <varray name="forces" >
   <v>      -0.00000000       0.00000000       0.00000000 </v>
  </varray>
  <varray name="stress" >
   <v>      21.64976084      -0.00000000      -0.00000922 </v>
   <v>      -0.00000000      21.64975633      -0.00000652 </v>
   <v>      -0.00000922      -0.00000652      21.64975652 </v>
  </varray>
  <energy>
   <i name="e_fr_energy">     -4.88137343 </i>
   <i name="e_wo_entrp">     -4.88058470 </i>
   <i name="e_0_energy">     -4.88097907 </i>
  </energy>
  <time name="totalsc">    8.42    8.67</time>
 </calculation>
 <calculation>
  <scstep>
   <time name="dav">    0.59    0.60</time>
   <time name="total">    0.81    0.82</time>
   <energy>
    <i name="alphaZ">      2.32593478 </i>
    <i name="ewald">   -136.53165277 </i>
    <i name="hartreedc">     -0.40373395 </i>
    <i name="XCdc">     -8.74333346 </i>
    <i name="pawpsdc">    314.53973965 </i>
    <i name="pawaedc">   -296.95782935 </i>
    <i name="eentropy">     -0.00080319 </i>
    <i name="bandstr">     17.82079168 </i>
    <i name="atom">    103.06574623 </i>
    <i name="e_fr_energy">     -4.88514040 </i>
    <i name="e_wo_entrp">     -4.88433721 </i>
    <i name="e_0_energy">     -4.88473880 </i>
   </energy>
  </scstep>
  <scstep>
   <time name="dav">    0.76    0.76</time>
   <time name="total">    0.98    0.99</time>
   <energy>
    <i name="e_fr_energy">     -4.88424161 </i>
    <i name="e_wo_entrp">     -4.88342927 </i>
    <i name="e_0_energy">     -4.88383544 </i>
   </energy>
  </scstep>
  <scstep>
   <time name="dav">    0.61    0.62</time>
   <time name="total">    0.84    0.85</time>
   <energy>
    <i name="e_fr_energy">     -4.88371489 </i>
    <i name="e_wo_entrp">     -4.88289041 </i>
    <i name="e_0_energy">     -4.88330265 </i>
   </energy>
  </scstep>
  <scstep>
   <time name="dav">    0.81    0.81</time>
   <time name="total">    1.03    1.04</time>
   <energy>
    <i name="e_fr_energy">     -4.88371421 </i>
    <i name="e_wo_entrp">     -4.88288980 </i>
    <i name="e_0_energy">     -4.88330201 </i>
   </energy>
  </scstep>
  <scstep>
   <time name="dav">    0.49    0.49</time>
   <time name="total">    0.71    0.73</time>
   <energy>
    <i name="e_fr_energy">     -4.88371070 </i>
    <i name="e_wo_entrp">     -4.88288640 </i>
    <i name="e_0_energy">     -4.88329855 </i>
   </energy>
  </scstep>
  <scstep>
   <time name="dav">    0.41    0.41</time>
   <time name="total">    0.59    0.60</time>
   <energy>
    <i name="alphaZ">      2.32593478 </i>
    <i name="ewald">   -136.53165277 </i>
    <i name="hartreedc">     -0.44777580 </i>
    <i name="XCdc">     -8.75268924 </i>
    <i name="pawpsdc">    295.98897491 </i>
    <i name="pawaedc">   -278.40236118 </i>
    <i name="eentropy">     -0.00082432 </i>
    <i name="bandstr">     17.87093645 </i>
    <i name="atom">    103.06574623 </i>
    <i name="e_fr_energy">     -4.88371096 </i>
    <i name="e_wo_entrp">     -4.88288664 </i>
    <i name="e_0_energy">     -4.88329880 </i>
   </energy>
  </scstep>
  <structure>
   <crystal>
    <varray name="basis" >
     <v>       2.36894322      -0.00000000       1.36770885 </v>
     <v>       0.78964774       2.23346085       1.36770885 </v>
     <v>      -0.00000001      -0.00000001       2.73541974 </v>
    </varray>
    <i name="volume">     14.47294702 </i>
    <varray name="rec_basis" >
     <v>       0.42212915      -0.14924521       0.00000000 </v>
     <v>       0.00000000       0.44773563       0.00000000 </v>
     <v>      -0.21106442      -0.14924510       0.36557461 </v>
    </varray>
   </crystal>
   <varray name="positions" >
    <v>      -0.00000000       0.00000000       0.00000000 </v>
   </varray>
  </structure>
  <varray name="forces" >
   <v>       0.00000000      -0.00000000       0.00000000 </v>
  </varray>
  <varray name="stress" >
   <v>      -1.93230481       0.00000000       0.00000084 </v>
   <v>      -0.00000000      -1.93230440       0.00000059 </v>
   <v>       0.00000084       0.00000059      -1.93230442 </v>
  </varray>
  <energy>
   <i name="e_fr_energy">     -4.88371096 </i>
   <i name="e_wo_entrp">     -4.88288664 </i>
   <i name="e_0_energy">     -4.88329880 </i>
  </energy>
  <time name="totalsc">    5.96    6.18</time>
 </calculation>
 <calculation>
  <scstep>
   <time name="dav">    0.60    0.60</time>
   <time name="total">    0.82    0.83</time>
   <energy>
    <i name="alphaZ">      2.33150113 </i>
    <i name="ewald">   -136.64048044 </i>
    <i name="hartreedc">     -0.44812904 </i>
    <i name="XCdc">     -8.74652880 </i>
    <i name="pawpsdc">    295.87444170 </i>
    <i name="pawaedc">   -278.28783261 </i>
    <i name="eentropy">     -0.00082938 </i>
    <i name="bandstr">     17.96836857 </i>
    <i name="atom">    103.06574623 </i>
    <i name="e_fr_energy">     -4.88374265 </i>
    <i name="e_wo_entrp">     -4.88291327 </i>
    <i name="e_0_energy">     -4.88332796 </i>
   </energy>
  </scstep>
  <scstep>
   <time name="dav">    0.76    0.77</time>
   <time name="total">    0.99    1.00</time>
   <energy>
    <i name="e_fr_energy">     -4.88373565 </i>
    <i name="e_wo_entrp">     -4.88290690 </i>
    <i name="e_0_energy">     -4.88332127 </i>
   </energy>
  </scstep>
  <scstep>
   <time name="dav">    0.60    0.61</time>
   <time name="total">    0.83    0.84</time>
   <energy>
    <i name="e_fr_energy">     -4.88373194 </i>
    <i name="e_wo_entrp">     -4.88290412 </i>
    <i name="e_0_energy">     -4.88331803 </i>
   </energy>
  </scstep>
  <scstep>
   <time name="dav">    0.36    0.36</time>
   <time name="total">    0.59    0.59</time>
   <energy>
    <i name="e_fr_energy">     -4.88373196 </i>
    <i name="e_wo_entrp">     -4.88290413 </i>
    <i name="e_0_energy">     -4.88331805 </i>
   </energy>
  </scstep>
  <scstep>
   <time name="dav">    0.36    0.36</time>
   <time name="total">    0.58    0.60</time>
   <energy>
    <i name="e_fr_energy">     -4.88373214 </i>
    <i name="e_wo_entrp">     -4.88290430 </i>
    <i name="e_0_energy">     -4.88331822 </i>
   </energy>
  </scstep>
  <scstep>
   <time name="dav">    0.35    0.35</time>
   <time name="total">    0.53    0.54</time>
   <energy>
    <i name="alphaZ">      2.33150113 </i>
    <i name="ewald">   -136.64048044 </i>
    <i name="hartreedc">     -0.44406439 </i>
    <i name="XCdc">     -8.74570735 </i>
    <i name="pawpsdc">    297.34513827 </i>
    <i name="pawaedc">   -279.75892899 </i>
    <i name="eentropy">     -0.00082784 </i>
    <i name="bandstr">     17.96389125 </i>
    <i name="atom">    103.06574623 </i>
    <i name="e_fr_energy">     -4.88373212 </i>
    <i name="e_wo_entrp">     -4.88290428 </i>
    <i name="e_0_energy">     -4.88331820 </i>
   </energy>
  </scstep>
  <structure>
   <crystal>
    <varray name="basis" >
     <v>       2.36705647      -0.00000000       1.36661954 </v>
     <v>       0.78901882       2.23168200       1.36661954 </v>
     <v>      -0.00000001      -0.00000001       2.73324110 </v>
    </varray>
    <i name="volume">     14.43839351 </i>
    <varray name="rec_basis" >
     <v>       0.42246563      -0.14936417       0.00000000 </v>
     <v>       0.00000000       0.44809251       0.00000000 </v>
     <v>      -0.21123266      -0.14936406       0.36586600 </v>
    </varray>
   </crystal>
   <varray name="positions" >
    <v>      -0.00000000      -0.00000000       0.00000000 </v>
   </varray>
  </structure>
  <varray name="forces" >
   <v>      -0.00000000      -0.00000000       0.00000000 </v>
  </varray>
  <varray name="stress" >
   <v>       0.02014266       0.00000000      -0.00000001 </v>
   <v>      -0.00000000       0.02014266      -0.00000001 </v>
   <v>      -0.00000001      -0.00000001       0.02014266 </v>
  </varray>
  <energy>
   <i name="e_fr_energy">     -4.88373212 </i>
   <i name="e_wo_entrp">     -4.88290428 </i>
   <i name="e_0_energy">     -4.88331820 </i>
  </energy>
  <time name="totalsc">    5.25    5.45</time>
  <eigenvalues>
   <array>
    <dimension dim="1">band</dimension>
    <dimension dim="2">kpoint</dimension>
    <dimension dim="3">spin</dimension>
    <field>eigene</field>
    <field>occ</field>
    <set>
     <set comment="spin 1">
      <set comment="kpoint 1">
       <r>   -4.2750    1.0000 </r>
       <r>   21.3643    0.0000 </r>
       <r>   21.3643    0.0000 </r>
       <r>   21.3643    0.0000 </r>
       <r>   22.1397    0.0000 </r>
       <r>   22.1397    0.0000 </r>
       <r>   22.1398    0.0000 </r>
       <r>   27.4793    0.0000 </r>
      </set>
      <set comment="kpoint 2">
       <r>   -4.1454    1.0000 </r>
       <r>   19.2099    0.0000 </r>
       <r>   20.6914    0.0000 </r>
       <r>   20.6915    0.0000 </r>
       <r>   22.9713    0.0000 </r>
       <r>   22.9714    0.0000 </r>
       <r>   23.1912    0.0000 </r>
       <r>   28.3705    0.0000 </r>
      </set>
      <set comment="kpoint 3">
       <r>   -3.7570    1.0000 </r>
       <r>   16.3798    0.0000 </r>
       <r>   19.9288    0.0000 </r>
       <r>   19.9288    0.0000 </r>
       <r>   23.4778    0.0000 </r>
       <r>   24.0645    0.0000 </r>
       <r>   24.0645    0.0000 </r>
       <r>   27.3355    0.0000 </r>
      </set>
      <set comment="kpoint 4">
       <r>   -3.1113    1.0000 </r>
       <r>   13.5492    0.0000 </r>
       <r>   19.3515    0.0000 </r>
       <r>   19.3515    0.0000 </r>
       <r>   23.4079    0.0000 </r>
       <r>   24.2872    0.0000 </r>
       <r>   24.2872    0.0000 </r>
       <r>   27.3133    0.0000 </r>
      </set>
      <set comment="kpoint 5">
       <r>   -2.2111    1.0000 </r>
       <r>   10.8458    0.0000 </r>
       <r>   18.9726    0.0000 </r>
       <r>   18.9726    0.0000 </r>
       <r>   23.3116    0.0000 </r>
       <r>   23.3954    0.0000 </r>
       <r>   23.3954    0.0000 </r>
       <r>   28.7064    0.0000 </r>
      </set>
      <set comment="kpoint 6">
       <r>   -1.0605    1.0000 </r>
       <r>    8.3209    1.0000 </r>
       <r>   18.7804    0.0000 </r>
       <r>   18.7804    0.0000 </r>
       <r>   22.3887    0.0000 </r>
       <r>   22.3887    0.0000 </r>
       <r>   23.2990    0.0000 </r>
       <r>   27.5421    0.0000 </r>
      </set>
      <set comment="kpoint 7">
       <r>    0.3334    1.0000 </r>
       <r>    6.0026    1.0000 </r>
       <r>   18.7392    0.0000 </r>
       <r>   18.7392    0.0000 </r>
       <r>   21.5835    0.0000 </r>
       <r>   21.5835    0.0000 </r>
       <r>   23.3850    0.0000 </r>
       <r>   26.6212    0.0000 </r>
      </set>
      <set comment="kpoint 8">
       <r>    1.9410    1.0000 </r>
       <r>    3.9306    1.0000 </r>
       <r>   18.7705    0.0000 </r>
       <r>   18.7705    0.0000 </r>
       <r>   21.1187    0.0000 </r>
       <r>   21.1187    0.0000 </r>
       <r>   23.4964    0.0000 </r>
       <r>   26.0794    0.0000 </r>
      </set>
      <set comment="kpoint 9">
       <r>   -4.1022    1.0000 </r>
       <r>   19.6874    0.0000 </r>
       <r>   19.6874    0.0000 </r>
       <r>   20.9614    0.0000 </r>
       <r>   21.2213    0.0000 </r>
       <r>   24.0330    0.0000 </r>
       <r>   24.0330    0.0000 </r>
       <r>   27.2480    0.0000 </r>
      </set>
      <set comment="kpoint 10">
       <r>   -3.8000    1.0000 </r>
       <r>   17.3875    0.0000 </r>
       <r>   18.8459    0.0000 </r>
       <r>   20.4008    0.0000 </r>
       <r>   21.7666    0.0000 </r>
       <r>   24.7513    0.0000 </r>
       <r>   25.1825    0.0000 </r>
       <r>   25.7770    0.0000 </r>
      </set>
      <set comment="kpoint 11">
       <r>   -3.2402    1.0000 </r>
       <r>   14.5723    0.0000 </r>
       <r>   18.2096    0.0000 </r>
       <r>   19.7687    0.0000 </r>
       <r>   22.4555    0.0000 </r>
       <r>   24.5498    0.0000 </r>
       <r>   25.3052    0.0000 </r>
       <r>   25.7959    0.0000 </r>
      </set>
      <set comment="kpoint 12">
       <r>   -2.4249    1.0000 </r>
       <r>   11.8291    0.0000 </r>
       <r>   17.7883    0.0000 </r>
       <r>   19.2576    0.0000 </r>
       <r>   21.8908    0.0000 </r>
       <r>   24.3873    0.0000 </r>
       <r>   25.1424    0.0000 </r>
       <r>   26.3394    0.0000 </r>
      </set>
      <set comment="kpoint 13">
       <r>   -1.3578    1.0000 </r>
       <r>    9.2457    1.0000 </r>
       <r>   17.5824    0.0000 </r>
       <r>   18.8230    0.0000 </r>
       <r>   21.0192    0.0000 </r>
       <r>   24.1049    0.0000 </r>
       <r>   24.3635    0.0000 </r>
       <r>   27.9338    0.0000 </r>
      </set>
      <set comment="kpoint 14">
       <r>   -0.0445    1.0000 </r>
       <r>    6.8586    1.0000 </r>
       <r>   17.5884    0.0000 </r>
       <r>   18.3504    0.0000 </r>
       <r>   20.4993    0.0000 </r>
       <r>   23.1463    0.0000 </r>
       <r>   24.3819    0.0000 </r>
       <r>   27.8401    0.0000 </r>
      </set>
      <set comment="kpoint 15">
       <r>    1.5004    1.0000 </r>
       <r>    4.6964    1.0000 </r>
       <r>   17.7971    0.0000 </r>
       <r>   17.8114    0.0000 </r>
       <r>   20.4598    0.0000 </r>
       <r>   22.3804    0.0000 </r>
       <r>   24.4058    0.0000 </r>
       <r>   27.3011    0.0000 </r>
      </set>
      <set comment="kpoint 16">
       <r>    2.5711    1.0000 </r>
       <r>    3.4709    1.0000 </r>
       <r>   17.3225    0.0000 </r>
       <r>   18.1871    0.0000 </r>
       <r>   20.8095    0.0000 </r>
       <r>   21.8575    0.0000 </r>
       <r>   24.3435    0.0000 </r>
       <r>   27.2129    0.0000 </r>
      </set>
      <set comment="kpoint 17">
       <r>    0.9620    1.0000 </r>
       <r>    5.3892    1.0000 </r>
       <r>   16.9808    0.0000 </r>
       <r>   18.7142    0.0000 </r>
       <r>   21.4557    0.0000 </r>
       <r>   21.6310    0.0000 </r>
       <r>   24.1939    0.0000 </r>
       <r>   27.6084    0.0000 </r>
      </set>
      <set comment="kpoint 18">
       <r>   -0.5091    1.0000 </r>
       <r>    7.6306    1.0000 </r>
       <r>   16.8304    0.0000 </r>
       <r>   19.2964    0.0000 </r>
       <r>   21.7748    0.0000 </r>
       <r>   22.3433    0.0000 </r>
       <r>   24.0608    0.0000 </r>
       <r>   28.3392    0.0000 </r>
      </set>
      <set comment="kpoint 19">
       <r>   -1.7412    1.0000 </r>
       <r>   10.0857    0.9942 </r>
       <r>   16.8903    0.0000 </r>
       <r>   19.8497    0.0000 </r>
       <r>   22.3399    0.0000 </r>
       <r>   23.4221    0.0000 </r>
       <r>   24.0097    0.0000 </r>
       <r>   27.9988    0.0000 </r>
      </set>
      <set comment="kpoint 20">
       <r>   -2.7249    1.0000 </r>
       <r>   12.7265    0.0000 </r>
       <r>   17.1668    0.0000 </r>
       <r>   20.3891    0.0000 </r>
       <r>   23.1462    0.0000 </r>
       <r>   24.0212    0.0000 </r>
       <r>   24.5697    0.0000 </r>
       <r>   26.3193    0.0000 </r>
      </set>
      <set comment="kpoint 21">
       <r>   -3.4553    1.0000 </r>
       <r>   15.5060    0.0000 </r>
       <r>   17.6623    0.0000 </r>
       <r>   20.9827    0.0000 </r>
       <r>   23.2533    0.0000 </r>
       <r>   23.9746    0.0000 </r>
       <r>   25.1901    0.0000 </r>
       <r>   25.8835    0.0000 </r>
      </set>
      <set comment="kpoint 22">
       <r>   -3.9295    1.0000 </r>
       <r>   18.2095    0.0000 </r>
       <r>   18.4684    0.0000 </r>
       <r>   21.4444    0.0000 </r>
       <r>   22.4738    0.0000 </r>
       <r>   23.6117    0.0000 </r>
       <r>   24.4949    0.0000 </r>
       <r>   27.0029    0.0000 </r>
      </set>
      <set comment="kpoint 23">
       <r>   -3.5844    1.0000 </r>
       <r>   17.9318    0.0000 </r>
       <r>   17.9318    0.0000 </r>
       <r>   19.5713    0.0000 </r>
       <r>   19.8900    0.0000 </r>
       <r>   23.9709    0.0000 </r>
       <r>   26.4076    0.0000 </r>
       <r>   26.4076    0.0000 </r>
      </set>
      <set comment="kpoint 24">
       <r>   -3.1110    1.0000 </r>
       <r>   15.7376    0.0000 </r>
       <r>   17.2246    0.0000 </r>
       <r>   19.0355    0.0000 </r>
       <r>   20.1434    0.0000 </r>
       <r>   22.6610    0.0000 </r>
       <r>   27.1254    0.0000 </r>
       <r>   27.3671    0.0000 </r>
      </set>
      <set comment="kpoint 25">
       <r>   -2.3817    1.0000 </r>
       <r>   13.0174    0.0000 </r>
       <r>   16.7350    0.0000 </r>
       <r>   18.3221    0.0000 </r>
       <r>   20.0326    0.0000 </r>
       <r>   23.0158    0.0000 </r>
       <r>   27.1016    0.0000 </r>
       <r>   27.3031    0.0000 </r>
      </set>
      <set comment="kpoint 26">
       <r>   -1.3996    1.0000 </r>
       <r>   10.3963    0.0000 </r>
       <r>   16.4660    0.0000 </r>
       <r>   17.5001    0.0000 </r>
       <r>   19.4322    0.0000 </r>
       <r>   24.4952    0.0000 </r>
       <r>   26.1422    0.0000 </r>
       <r>   27.4643    0.0000 </r>
      </set>
      <set comment="kpoint 27">
       <r>   -0.1694    1.0000 </r>
       <r>    7.9510    1.0000 </r>
       <r>   16.4179    0.0000 </r>
       <r>   16.5907    0.0000 </r>
       <r>   19.1867    0.0000 </r>
       <r>   25.1560    0.0000 </r>
       <r>   25.7570    0.0000 </r>
       <r>   28.1582    0.0000 </r>
      </set>
      <set comment="kpoint 28">
       <r>    1.2995    1.0000 </r>
       <r>    5.7154    1.0000 </r>
       <r>   15.7482    0.0000 </r>
       <r>   16.5884    0.0000 </r>
       <r>   19.2920    0.0000 </r>
       <r>   24.3103    0.0000 </r>
       <r>   26.1364    0.0000 </r>
       <r>   29.6623    0.0000 </r>
      </set>
      <set comment="kpoint 29">
       <r>    2.9098    1.0000 </r>
       <r>    3.7969    1.0000 </r>
       <r>   15.0689    0.0000 </r>
       <r>   16.9726    0.0000 </r>
       <r>   19.6854    0.0000 </r>
       <r>   23.6642    0.0000 </r>
       <r>   26.0469    0.0000 </r>
       <r>   29.7926    0.0000 </r>
      </set>
      <set comment="kpoint 30">
       <r>    1.8373    1.0000 </r>
       <r>    5.0227    1.0000 </r>
       <r>   14.5929    0.0000 </r>
       <r>   17.5609    0.0000 </r>
       <r>   20.3343    0.0000 </r>
       <r>   23.2435    0.0000 </r>
       <r>   25.8143    0.0000 </r>
       <r>   30.0967    0.0000 </r>
      </set>
      <set comment="kpoint 31">
       <r>    0.2943    1.0000 </r>
       <r>    7.1785    1.0000 </r>
       <r>   14.3375    0.0000 </r>
       <r>   18.3344    0.0000 </r>
       <r>   21.2161    0.0000 </r>
       <r>   23.0690    0.0000 </r>
       <r>   25.5837    0.0000 </r>
       <r>   29.6355    0.0000 </r>
      </set>
      <set comment="kpoint 32">
       <r>   -1.0170    1.0000 </r>
       <r>    9.5527    1.0000 </r>
       <r>   14.3121    0.0000 </r>
       <r>   19.2551    0.0000 </r>
       <r>   22.3055    0.0000 </r>
       <r>   23.1605    0.0000 </r>
       <r>   25.3951    0.0000 </r>
       <r>   27.4740    0.0000 </r>
      </set>
      <set comment="kpoint 33">
       <r>   -2.0824    1.0000 </r>
       <r>   12.1035    0.0000 </r>
       <r>   14.5295    0.0000 </r>
       <r>   20.2423    0.0000 </r>
       <r>   23.5055    0.0000 </r>
       <r>   23.5480    0.0000 </r>
       <r>   25.1813    0.0000 </r>
       <r>   25.5976    0.0000 </r>
      </set>
      <set comment="kpoint 34">
       <r>   -2.8964    1.0000 </r>
       <r>   14.5645    0.0000 </r>
       <r>   15.2106    0.0000 </r>
       <r>   21.0825    0.0000 </r>
       <r>   23.4724    0.0000 </r>
       <r>   24.7397    0.0000 </r>
       <r>   24.7635    0.0000 </r>
       <r>   24.8750    0.0000 </r>
      </set>
      <set comment="kpoint 35">
       <r>   -2.7243    1.0000 </r>
       <r>   16.4444    0.0000 </r>
       <r>   16.4444    0.0000 </r>
       <r>   17.9933    0.0000 </r>
       <r>   18.1388    0.0000 </r>
       <r>   20.9690    0.0000 </r>
       <r>   28.8332    0.0000 </r>
       <r>   28.8332    0.0000 </r>
      </set>
      <set comment="kpoint 36">
       <r>   -2.0817    1.0000 </r>
       <r>   14.3481    0.0000 </r>
       <r>   15.8813    0.0000 </r>
       <r>   16.9893    0.0000 </r>
       <r>   18.2549    0.0000 </r>
       <r>   20.5361    0.0000 </r>
       <r>   29.1549    0.0000 </r>
       <r>   29.5716    0.0000 </r>
      </set>
      <set comment="kpoint 37">
       <r>   -1.1858    1.0000 </r>
       <r>   11.7506    0.0000 </r>
       <r>   15.5406    0.0000 </r>
       <r>   15.7629    0.0000 </r>
       <r>   18.1584    0.0000 </r>
       <r>   21.8013    0.0000 </r>
       <r>   28.3519    0.0000 </r>
       <r>   29.7307    0.0000 </r>
      </set>
      <set comment="kpoint 38">
       <r>   -0.0408    1.0000 </r>
       <r>    9.2684    1.0000 </r>
       <r>   14.5940    0.0000 </r>
       <r>   15.4232    0.0000 </r>
       <r>   18.0427    0.0000 </r>
       <r>   23.6992    0.0000 </r>
       <r>   27.3871    0.0000 </r>
       <r>   29.6532    0.0000 </r>
      </set>
      <set comment="kpoint 39">
       <r>    1.3465    1.0000 </r>
       <r>    6.9732    1.0000 </r>
       <r>   13.5866    0.0000 </r>
       <r>   15.5288    0.0000 </r>
       <r>   18.1548    0.0000 </r>
       <r>   25.7089    0.0000 </r>
       <r>   26.5105    0.0000 </r>
       <r>   29.5303    0.0000 </r>
      </set>
      <set comment="kpoint 40">
       <r>    2.9491    1.0000 </r>
       <r>    4.9121    1.0000 </r>
       <r>   12.7844    0.0000 </r>
       <r>   15.8552    0.0000 </r>
       <r>   18.5141    0.0000 </r>
       <r>   25.8010    0.0000 </r>
       <r>   27.2393    0.0000 </r>
       <r>   29.8376    0.0000 </r>
      </set>
      <set comment="kpoint 41">
       <r>    2.9496    1.0000 </r>
       <r>    4.9091    1.0000 </r>
       <r>   12.2069    0.0000 </r>
       <r>   16.3984    0.0000 </r>
       <r>   19.1168    0.0000 </r>
       <r>   25.2941    0.0000 </r>
       <r>   27.5516    0.0000 </r>
       <r>   31.0262    0.0000 </r>
      </set>
      <set comment="kpoint 42">
       <r>    1.3461    1.0000 </r>
       <r>    6.9629    1.0000 </r>
       <r>   11.8665    0.0000 </r>
       <r>   17.1502    0.0000 </r>
       <r>   19.9527    0.0000 </r>
       <r>   25.0069    0.0000 </r>
       <r>   27.3104    0.0000 </r>
       <r>   29.4533    0.0000 </r>
      </set>
      <set comment="kpoint 43">
       <r>   -0.0416    1.0000 </r>
       <r>    9.2303    1.0000 </r>
       <r>   11.7849    0.0000 </r>
       <r>   18.0934    0.0000 </r>
       <r>   21.0052    0.0000 </r>
       <r>   24.9547    0.0000 </r>
       <r>   26.9017    0.0000 </r>
       <r>   27.1874    0.0000 </r>
      </set>
      <set comment="kpoint 44">
       <r>   -1.1867    1.0000 </r>
       <r>   11.3860    0.0000 </r>
       <r>   12.2459    0.0000 </r>
       <r>   19.1833    0.0000 </r>
       <r>   22.2365    0.0000 </r>
       <r>   25.1211    0.0000 </r>
       <r>   25.1658    0.0000 </r>
       <r>   26.2286    0.0000 </r>
      </set>
      <set comment="kpoint 45">
       <r>   -1.5262    1.0000 </r>
       <r>   15.2443    0.0000 </r>
       <r>   15.2443    0.0000 </r>
       <r>   15.4097    0.0000 </r>
       <r>   16.6727    0.0000 </r>
       <r>   19.1195    0.0000 </r>
       <r>   31.1461    0.0000 </r>
       <r>   31.1461    0.0000 </r>
      </set>
      <set comment="kpoint 46">
       <r>   -0.7174    1.0000 </r>
       <r>   13.2090    0.0000 </r>
       <r>   14.0316    0.0000 </r>
       <r>   14.8297    0.0000 </r>
       <r>   16.9896    0.0000 </r>
       <r>   19.3083    0.0000 </r>
       <r>   30.6384    0.0000 </r>
       <r>   31.8237    0.0000 </r>
      </set>
      <set comment="kpoint 47">
       <r>    0.3408    1.0000 </r>
       <r>   10.7762    0.0000 </r>
       <r>   12.6858    0.0000 </r>
       <r>   14.6393    0.0000 </r>
       <r>   17.0860    0.0000 </r>
       <r>   20.9189    0.0000 </r>
       <r>   29.7586    0.0000 </r>
       <r>   31.8397    0.0000 </r>
      </set>
      <set comment="kpoint 48">
       <r>    1.6428    1.0000 </r>
       <r>    8.4507    1.0000 </r>
       <r>   11.5501    0.0000 </r>
       <r>   14.6735    0.0000 </r>
       <r>   17.1924    0.0000 </r>
       <r>   23.0474    0.0000 </r>
       <r>   28.8849    0.0000 </r>
       <r>   31.4767    0.0000 </r>
      </set>
      <set comment="kpoint 49">
       <r>    3.1747    1.0000 </r>
       <r>    6.3195    1.0000 </r>
       <r>   10.6422    0.0000 </r>
       <r>   14.9313    0.0000 </r>
       <r>   17.5017    0.0000 </r>
       <r>   25.3573    0.0000 </r>
       <r>   28.1381    0.0000 </r>
       <r>   30.9288    0.0000 </r>
      </set>
      <set comment="kpoint 50">
       <r>    4.2551    1.0000 </r>
       <r>    5.0810    1.0000 </r>
       <r>    9.9751    1.0000 </r>
       <r>   15.4105    0.0000 </r>
       <r>   18.0438    0.0000 </r>
       <r>   27.5662    0.0000 </r>
       <r>   27.6098    0.0000 </r>
       <r>   30.3370    0.0000 </r>
      </set>
      <set comment="kpoint 51">
       <r>    2.6404    1.0000 </r>
       <r>    6.9641    1.0000 </r>
       <r>    9.5740    1.0000 </r>
       <r>   16.1067    0.0000 </r>
       <r>   18.8199    0.0000 </r>
       <r>   27.1872    0.0000 </r>
       <r>   28.9285    0.0000 </r>
       <r>   29.5225    0.0000 </r>
      </set>
      <set comment="kpoint 52">
       <r>    1.1805    1.0000 </r>
       <r>    8.8069    1.0000 </r>
       <r>    9.7498    1.0000 </r>
       <r>   17.0098    0.0000 </r>
       <r>   19.8164    0.0000 </r>
       <r>   26.8262    0.0000 </r>
       <r>   27.3865    0.0000 </r>
       <r>   28.2224    0.0000 </r>
      </set>
      <set comment="kpoint 53">
       <r>    0.0035    1.0000 </r>
       <r>   12.3091    0.0000 </r>
       <r>   14.3407    0.0000 </r>
       <r>   14.3407    0.0000 </r>
       <r>   15.6642    0.0000 </r>
       <r>   18.0484    0.0000 </r>
       <r>   32.5719    0.0000 </r>
       <r>   33.2524    0.0000 </r>
      </set>
      <set comment="kpoint 54">
       <r>    0.9736    1.0000 </r>
       <r>   10.8510    0.0000 </r>
       <r>   12.5238    0.0000 </r>
       <r>   14.0761    0.0000 </r>
       <r>   16.1461    0.0000 </r>
       <r>   18.5076    0.0000 </r>
       <r>   32.1293    0.0000 </r>
       <r>   33.7790    0.0000 </r>
      </set>
      <set comment="kpoint 55">
       <r>    2.1871    1.0000 </r>
       <r>    9.5444    1.0000 </r>
       <r>   10.2896    0.0006 </r>
       <r>   14.0366    0.0000 </r>
       <r>   16.4095    0.0000 </r>
       <r>   20.3278    0.0000 </r>
       <r>   31.3346    0.0000 </r>
       <r>   33.5593    0.0000 </r>
      </set>
      <set comment="kpoint 56">
       <r>    3.6324    1.0000 </r>
       <r>    7.8837    1.0000 </r>
       <r>    8.7759    1.0000 </r>
       <r>   14.2222    0.0000 </r>
       <r>   16.6932    0.0000 </r>
       <r>   22.6386    0.0000 </r>
       <r>   30.5825    0.0000 </r>
       <r>   32.8884    0.0000 </r>
      </set>
      <set comment="kpoint 57">
       <r>    5.2321    1.0000 </r>
       <r>    6.0091    1.0000 </r>
       <r>    7.9902    1.0000 </r>
       <r>   14.6315    0.0000 </r>
       <r>   17.1759    0.0000 </r>
       <r>   25.1416    0.0000 </r>
       <r>   29.9328    0.0000 </r>
       <r>   31.9274    0.0000 </r>
      </set>
      <set comment="kpoint 58">
       <r>    4.1650    1.0000 </r>
       <r>    6.8622    1.0000 </r>
       <r>    7.8322    1.0000 </r>
       <r>   15.2618    0.0000 </r>
       <r>   17.8861    0.0000 </r>
       <r>   27.6524    0.0000 </r>
       <r>   29.1642    0.0000 </r>
       <r>   30.1882    0.0000 </r>
      </set>
      <set comment="kpoint 59">
       <r>    1.8538    1.0000 </r>
       <r>    9.3203    1.0000 </r>
       <r>   13.7368    0.0000 </r>
       <r>   13.7368    0.0000 </r>
       <r>   14.9834    0.0000 </r>
       <r>   17.3845    0.0000 </r>
       <r>   33.8116    0.0000 </r>
       <r>   35.0493    0.0000 </r>
      </set>
      <set comment="kpoint 60">
       <r>    2.9741    1.0000 </r>
       <r>    7.9959    1.0000 </r>
       <r>   12.0337    0.0000 </r>
       <r>   13.6230    0.0000 </r>
       <r>   15.6436    0.0000 </r>
       <r>   18.0351    0.0000 </r>
       <r>   33.5771    0.0000 </r>
       <r>   35.3245    0.0000 </r>
      </set>
      <set comment="kpoint 61">
       <r>    4.3113    1.0000 </r>
       <r>    6.9192    1.0000 </r>
       <r>    9.8834    1.0000 </r>
       <r>   13.7348    0.0000 </r>
       <r>   16.0734    0.0000 </r>
       <r>   20.0293    0.0000 </r>
       <r>   32.8889    0.0000 </r>
       <r>   34.7106    0.0000 </r>
      </set>
      <set comment="kpoint 62">
       <r>    5.5633    1.0000 </r>
       <r>    6.3555    1.0000 </r>
       <r>    7.9175    1.0000 </r>
       <r>   14.0715    0.0000 </r>
       <r>   16.5266    0.0000 </r>
       <r>   22.4997    0.0000 </r>
       <r>   31.9142    0.0000 </r>
       <r>   33.3091    0.0000 </r>
      </set>
      <set comment="kpoint 63">
       <r>    3.9836    1.0000 </r>
       <r>    6.6054    1.0000 </r>
       <r>   13.4346    0.0000 </r>
       <r>   13.4346    0.0000 </r>
       <r>   14.6423    0.0000 </r>
       <r>   17.0572    0.0000 </r>
       <r>   34.7042    0.0000 </r>
       <r>   36.2657    0.0000 </r>
      </set>
      <set comment="kpoint 64">
       <r>    4.9134    1.0000 </r>
       <r>    5.7642    1.0000 </r>
       <r>   11.8731    0.0000 </r>
       <r>   13.4719    0.0000 </r>
       <r>   15.4759    0.0000 </r>
       <r>   17.8769    0.0000 </r>
       <r>   34.3809    0.0000 </r>
       <r>   35.9768    0.0000 </r>
      </set>
      <set comment="kpoint 65">
       <r>   -3.4122    1.0000 </r>
       <r>   16.4088    0.0000 </r>
       <r>   16.8289    0.0000 </r>
       <r>   20.7325    0.0000 </r>
       <r>   21.3425    0.0000 </r>
       <r>   24.3060    0.0000 </r>
       <r>   25.6665    0.0000 </r>
       <r>   26.0315    0.0000 </r>
      </set>
      <set comment="kpoint 66">
       <r>   -2.7676    1.0000 </r>
       <r>   13.8181    0.0000 </r>
       <r>   16.0946    0.0000 </r>
       <r>   20.0830    0.0000 </r>
       <r>   21.7748    0.0000 </r>
       <r>   23.8538    0.0000 </r>
       <r>   25.8823    0.0000 </r>
       <r>   26.1155    0.0000 </r>
      </set>
      <set comment="kpoint 67">
       <r>   -1.8688    1.0000 </r>
       <r>   11.1478    0.0000 </r>
       <r>   15.7370    0.0000 </r>
       <r>   19.2113    0.0000 </r>
       <r>   21.3364    0.0000 </r>
       <r>   24.4249    0.0000 </r>
       <r>   25.3471    0.0000 </r>
       <r>   26.5030    0.0000 </r>
      </set>
      <set comment="kpoint 68">
       <r>   -0.7200    1.0000 </r>
       <r>    8.6373    1.0000 </r>
       <r>   15.6066    0.0000 </r>
       <r>   18.2738    0.0000 </r>
       <r>   21.0100    0.0000 </r>
       <r>   23.6525    0.0000 </r>
       <r>   25.6137    0.0000 </r>
       <r>   27.8866    0.0000 </r>
      </set>
      <set comment="kpoint 69">
       <r>    0.6718    1.0000 </r>
       <r>    6.3268    1.0000 </r>
       <r>   15.6903    0.0000 </r>
       <r>   17.4095    0.0000 </r>
       <r>   20.9712    0.0000 </r>
       <r>   22.7766    0.0000 </r>
       <r>   25.7636    0.0000 </r>
       <r>   29.3063    0.0000 </r>
      </set>
      <set comment="kpoint 70">
       <r>    2.2781    1.0000 </r>
       <r>    4.2586    1.0000 </r>
       <r>   15.9341    0.0000 </r>
       <r>   16.7590    0.0000 </r>
       <r>   21.1137    0.0000 </r>
       <r>   22.1693    0.0000 </r>
       <r>   25.8546    0.0000 </r>
       <r>   29.0469    0.0000 </r>
      </set>
      <set comment="kpoint 71">
       <r>   -2.5529    1.0000 </r>
       <r>   14.8563    0.0000 </r>
       <r>   15.3593    0.0000 </r>
       <r>   18.7369    0.0000 </r>
       <r>   19.8695    0.0000 </r>
       <r>   21.7468    0.0000 </r>
       <r>   27.6087    0.0000 </r>
       <r>   28.2596    0.0000 </r>
      </set>
      <set comment="kpoint 72">
       <r>   -1.7402    1.0000 </r>
       <r>   12.4040    0.0000 </r>
       <r>   14.7343    0.0000 </r>
       <r>   17.5657    0.0000 </r>
       <r>   20.0862    0.0000 </r>
       <r>   22.4366    0.0000 </r>
       <r>   26.8827    0.0000 </r>
       <r>   28.7197    0.0000 </r>
      </set>
      <set comment="kpoint 73">
       <r>   -0.6765    1.0000 </r>
       <r>    9.8669    1.0000 </r>
       <r>   14.5090    0.0000 </r>
       <r>   16.3770    0.0000 </r>
       <r>   19.9431    0.0000 </r>
       <r>   24.0725    0.0000 </r>
       <r>   25.9692    0.0000 </r>
       <r>   28.8586    0.0000 </r>
      </set>
      <set comment="kpoint 74">
       <r>    0.6327    1.0000 </r>
       <r>    7.5006    1.0000 </r>
       <r>   14.4660    0.0000 </r>
       <r>   15.3878    0.0000 </r>
       <r>   19.9662    0.0000 </r>
       <r>   24.6221    0.0000 </r>
       <r>   26.3342    0.0000 </r>
       <r>   29.0674    0.0000 </r>
      </set>
      <set comment="kpoint 75">
       <r>    2.1733    1.0000 </r>
       <r>    5.3494    1.0000 </r>
       <r>   14.2167    0.0000 </r>
       <r>   15.0322    0.0000 </r>
       <r>   20.2141    0.0000 </r>
       <r>   23.9465    0.0000 </r>
       <r>   27.4891    0.0000 </r>
       <r>   29.8617    0.0000 </r>
      </set>
      <set comment="kpoint 76">
       <r>    3.2477    1.0000 </r>
       <r>    4.1213    1.0000 </r>
       <r>   13.6654    0.0000 </r>
       <r>   15.4234    0.0000 </r>
       <r>   20.6798    0.0000 </r>
       <r>   23.3867    0.0000 </r>
       <r>   27.6902    0.0000 </r>
       <r>   31.0029    0.0000 </r>
      </set>
      <set comment="kpoint 77">
       <r>    1.6361    1.0000 </r>
       <r>    6.0374    1.0000 </r>
       <r>   13.2669    0.0000 </r>
       <r>   16.1109    0.0000 </r>
       <r>   21.3308    0.0000 </r>
       <r>   23.0634    0.0000 </r>
       <r>   27.4345    0.0000 </r>
       <r>   29.8156    0.0000 </r>
      </set>
      <set comment="kpoint 78">
       <r>    0.1693    1.0000 </r>
       <r>    8.2610    1.0000 </r>
       <r>   13.0908    0.0000 </r>
       <r>   17.0198    0.0000 </r>
       <r>   22.0474    0.0000 </r>
       <r>   23.0826    0.0000 </r>
       <r>   26.6382    0.0000 </r>
       <r>   28.2970    0.0000 </r>
      </set>
      <set comment="kpoint 79">
       <r>   -1.0590    1.0000 </r>
       <r>   10.6726    0.0000 </r>
       <r>   13.1624    0.0000 </r>
       <r>   18.1117    0.0000 </r>
       <r>   22.5472    0.0000 </r>
       <r>   23.5529    0.0000 </r>
       <r>   25.1695    0.0000 </r>
       <r>   27.6527    0.0000 </r>
      </set>
      <set comment="kpoint 80">
       <r>   -2.0395    1.0000 </r>
       <r>   12.9832    0.0000 </r>
       <r>   13.7360    0.0000 </r>
       <r>   19.2994    0.0000 </r>
       <r>   22.5845    0.0000 </r>
       <r>   23.3340    0.0000 </r>
       <r>   25.1265    0.0000 </r>
       <r>   27.0634    0.0000 </r>
      </set>
      <set comment="kpoint 81">
       <r>   -1.3559    1.0000 </r>
       <r>   13.5977    0.0000 </r>
       <r>   14.1103    0.0000 </r>
       <r>   15.7885    0.0000 </r>
       <r>   18.6219    0.0000 </r>
       <r>   20.2395    0.0000 </r>
       <r>   28.9862    0.0000 </r>
       <r>   30.7981    0.0000 </r>
      </set>
      <set comment="kpoint 82">
       <r>   -0.3786    1.0000 </r>
       <r>   11.2858    0.0000 </r>
       <r>   13.5670    0.0000 </r>
       <r>   14.5073    0.0000 </r>
       <r>   18.9418    0.0000 </r>
       <r>   21.4233    0.0000 </r>
       <r>   28.1248    0.0000 </r>
       <r>   31.2411    0.0000 </r>
      </set>
      <set comment="kpoint 83">
       <r>    0.8454    1.0000 </r>
       <r>    8.8951    1.0000 </r>
       <r>   13.0130    0.0000 </r>
       <r>   13.8175    0.0000 </r>
       <r>   19.0004    0.0000 </r>
       <r>   23.3941    0.0000 </r>
       <r>   27.2173    0.0000 </r>
       <r>   31.1664    0.0000 </r>
      </set>
      <set comment="kpoint 84">
       <r>    2.3069    1.0000 </r>
       <r>    6.6844    1.0000 </r>
       <r>   12.1386    0.0000 </r>
       <r>   13.9030    0.0000 </r>
       <r>   19.2190    0.0000 </r>
       <r>   25.3533    0.0000 </r>
       <r>   26.6508    0.0000 </r>
       <r>   30.8207    0.0000 </r>
      </set>
      <set comment="kpoint 85">
       <r>    3.9188    1.0000 </r>
       <r>    4.7681    1.0000 </r>
       <r>   11.4150    0.0000 </r>
       <r>   14.3015    0.0000 </r>
       <r>   19.6526    0.0000 </r>
       <r>   25.4842    0.0000 </r>
       <r>   28.0380    0.0000 </r>
       <r>   30.2114    0.0000 </r>
      </set>
      <set comment="kpoint 86">
       <r>    2.8426    1.0000 </r>
       <r>    5.9887    1.0000 </r>
       <r>   10.9182    0.0000 </r>
       <r>   14.9423    0.0000 </r>
       <r>   20.3043    0.0000 </r>
       <r>   25.0876    0.0000 </r>
       <r>   28.7832    0.0000 </r>
       <r>   29.6671    0.0000 </r>
      </set>
      <set comment="kpoint 87">
       <r>    1.3061    1.0000 </r>
       <r>    8.0984    1.0000 </r>
       <r>   10.6808    0.0000 </r>
       <r>   15.8085    0.0000 </r>
       <r>   21.1582    0.0000 </r>
       <r>   24.8414    0.0000 </r>
       <r>   26.9124    0.0000 </r>
       <r>   29.6182    0.0000 </r>
      </set>
      <set comment="kpoint 88">
       <r>    0.0012    1.0000 </r>
       <r>   10.0991    0.9840 </r>
       <r>   11.0028    0.0000 </r>
       <r>   16.8813    0.0000 </r>
       <r>   22.1628    0.0000 </r>
       <r>   24.4756    0.0000 </r>
       <r>   25.2167    0.0000 </r>
       <r>   28.8724    0.0000 </r>
      </set>
      <set comment="kpoint 89">
       <r>    0.1723    1.0000 </r>
       <r>   12.3637    0.0000 </r>
       <r>   12.6470    0.0000 </r>
       <r>   13.4515    0.0000 </r>
       <r>   17.6659    0.0000 </r>
       <r>   19.2792    0.0000 </r>
       <r>   30.4212    0.0000 </r>
       <r>   33.0909    0.0000 </r>
      </set>
      <set comment="kpoint 90">
       <r>    1.3090    1.0000 </r>
       <r>   10.4283    0.0000 </r>
       <r>   11.2529    0.0000 </r>
       <r>   13.0004    0.0000 </r>
       <r>   18.1439    0.0000 </r>
       <r>   20.6990    0.0000 </r>
       <r>   29.6066    0.0000 </r>
       <r>   33.3210    0.0000 </r>
      </set>
      <set comment="kpoint 91">
       <r>    2.6850    1.0000 </r>
       <r>    8.2267    1.0000 </r>
       <r>   10.1710    0.5440 </r>
       <r>   13.0720    0.0000 </r>
       <r>   18.3740    0.0000 </r>
       <r>   22.8777    0.0000 </r>
       <r>   28.7947    0.0000 </r>
       <r>   32.7374    0.0000 </r>
      </set>
      <set comment="kpoint 92">
       <r>    4.2744    1.0000 </r>
       <r>    6.1964    1.0000 </r>
       <r>    9.3371    1.0000 </r>
       <r>   13.4074    0.0000 </r>
       <r>   18.7615    0.0000 </r>
       <r>   25.2455    0.0000 </r>
       <r>   28.1459    0.0000 </r>
       <r>   31.4400    0.0000 </r>
      </set>
      <set comment="kpoint 93">
       <r>    4.2795    1.0000 </r>
       <r>    6.1618    1.0000 </r>
       <r>    8.7711    1.0000 </r>
       <r>   13.9819    0.0000 </r>
       <r>   19.3603    0.0000 </r>
       <r>   27.0878    0.0000 </r>
       <r>   28.1619    0.0000 </r>
       <r>   29.4892    0.0000 </r>
      </set>
      <set comment="kpoint 94">
       <r>    2.6839    1.0000 </r>
       <r>    7.8354    1.0000 </r>
       <r>    8.7875    1.0000 </r>
       <r>   14.7863    0.0000 </r>
       <r>   20.1697    0.0000 </r>
       <r>   26.9572    0.0000 </r>
       <r>   27.1444    0.0000 </r>
       <r>   30.1965    0.0000 </r>
      </set>
      <set comment="kpoint 95">
       <r>    2.0207    1.0000 </r>
       <r>    9.4678    1.0000 </r>
       <r>   12.0108    0.0000 </r>
       <r>   12.7268    0.0000 </r>
       <r>   17.0225    0.0000 </r>
       <r>   18.6596    0.0000 </r>
       <r>   31.9802    0.0000 </r>
       <r>   35.0098    0.0000 </r>
      </set>
      <set comment="kpoint 96">
       <r>    3.3048    1.0000 </r>
       <r>    8.2940    1.0000 </r>
       <r>   10.0652    0.9990 </r>
       <r>   12.4997    0.0000 </r>
       <r>   17.6652    0.0000 </r>
       <r>   20.2598    0.0000 </r>
       <r>   31.2764    0.0000 </r>
       <r>   34.2096    0.0000 </r>
      </set>
      <set comment="kpoint 97">
       <r>    4.7985    1.0000 </r>
       <r>    7.2947    1.0000 </r>
       <r>    8.0902    1.0000 </r>
       <r>   12.7480    0.0000 </r>
       <r>   18.0590    0.0000 </r>
       <r>   22.6081    0.0000 </r>
       <r>   30.5763    0.0000 </r>
       <r>   32.3195    0.0000 </r>
      </set>
      <set comment="kpoint 98">
       <r>    5.8937    1.0000 </r>
       <r>    6.2130    1.0000 </r>
       <r>    7.2498    1.0000 </r>
       <r>   13.2475    0.0000 </r>
       <r>   18.6077    0.0000 </r>
       <r>   25.1571    0.0000 </r>
       <r>   29.9442    0.0000 </r>
       <r>   30.0175    0.0000 </r>
      </set>
      <set comment="kpoint 99">
       <r>    4.1478    1.0000 </r>
       <r>    6.7651    1.0000 </r>
       <r>   11.6923    0.0000 </r>
       <r>   12.4029    0.0000 </r>
       <r>   16.7000    0.0000 </r>
       <r>   18.3508    0.0000 </r>
       <r>   33.5013    0.0000 </r>
       <r>   35.0206    0.0000 </r>
      </set>
      <set comment="kpoint 100">
       <r>    5.2384    1.0000 </r>
       <r>    6.0838    1.0000 </r>
       <r>    9.8897    1.0000 </r>
       <r>   12.3384    0.0000 </r>
       <r>   17.5046    0.0000 </r>
       <r>   20.1118    0.0000 </r>
       <r>   32.7814    0.0000 </r>
       <r>   33.2213    0.0000 </r>
      </set>
      <set comment="kpoint 101">
       <r>   -0.8459    1.0000 </r>
       <r>   11.7053    0.0000 </r>
       <r>   12.5019    0.0000 </r>
       <r>   16.2521    0.0000 </r>
       <r>   21.4135    0.0000 </r>
       <r>   22.3526    0.0000 </r>
       <r>   25.9701    0.0000 </r>
       <r>   29.9250    0.0000 </r>
      </set>
      <set comment="kpoint 102">
       <r>    0.2973    1.0000 </r>
       <r>    9.5469    1.0000 </r>
       <r>   12.0589    0.0000 </r>
       <r>   15.0270    0.0000 </r>
       <r>   21.6877    0.0000 </r>
       <r>   23.6483    0.0000 </r>
       <r>   25.2384    0.0000 </r>
       <r>   30.4798    0.0000 </r>
      </set>
      <set comment="kpoint 103">
       <r>    1.6824    1.0000 </r>
       <r>    7.2853    1.0000 </r>
       <r>   12.1244    0.0000 </r>
       <r>   14.0123    0.0000 </r>
       <r>   21.7742    0.0000 </r>
       <r>   23.6967    0.0000 </r>
       <r>   26.4420    0.0000 </r>
       <r>   30.5582    0.0000 </r>
      </set>
      <set comment="kpoint 104">
       <r>    3.2835    1.0000 </r>
       <r>    5.2347    1.0000 </r>
       <r>   12.3770    0.0000 </r>
       <r>   13.2886    0.0000 </r>
       <r>   21.9351    0.0000 </r>
       <r>   23.2044    0.0000 </r>
       <r>   28.4653    0.0000 </r>
       <r>   30.0427    0.0000 </r>
      </set>
      <set comment="kpoint 105">
       <r>    0.6778    1.0000 </r>
       <r>   10.7423    0.0000 </r>
       <r>   11.4983    0.0000 </r>
       <r>   13.1449    0.0000 </r>
       <r>   20.4924    0.0000 </r>
       <r>   21.5830    0.0000 </r>
       <r>   27.2453    0.0000 </r>
       <r>   32.6156    0.0000 </r>
      </set>
      <set comment="kpoint 106">
       <r>    1.9776    1.0000 </r>
       <r>    8.7327    1.0000 </r>
       <r>   11.1423    0.0000 </r>
       <r>   12.0800    0.0000 </r>
       <r>   20.9784    0.0000 </r>
       <r>   23.2659    0.0000 </r>
       <r>   26.4044    0.0000 </r>
       <r>   32.6442    0.0000 </r>
      </set>
      <set comment="kpoint 107">
       <r>    3.5072    1.0000 </r>
       <r>    6.6330    1.0000 </r>
       <r>   10.8214    0.0000 </r>
       <r>   11.7345    0.0000 </r>
       <r>   21.2835    0.0000 </r>
       <r>   24.8519    0.0000 </r>
       <r>   26.3462    0.0000 </r>
       <r>   31.1408    0.0000 </r>
      </set>
      <set comment="kpoint 108">
       <r>    4.5876    1.0000 </r>
       <r>    5.4022    1.0000 </r>
       <r>   10.2492    0.0177 </r>
       <r>   12.1421    0.0000 </r>
       <r>   21.7513    0.0000 </r>
       <r>   24.6731    0.0000 </r>
       <r>   28.0329    0.0000 </r>
       <r>   29.2755    0.0000 </r>
      </set>
      <set comment="kpoint 109">
       <r>    2.9737    1.0000 </r>
       <r>    7.2860    1.0000 </r>
       <r>    9.8680    1.0000 </r>
       <r>   12.8652    0.0000 </r>
       <r>   22.3724    0.0000 </r>
       <r>   24.3155    0.0000 </r>
       <r>   26.5117    0.0000 </r>
       <r>   30.7209    0.0000 </r>
      </set>
      <set comment="kpoint 110">
       <r>    1.5170    1.0000 </r>
       <r>    9.1306    1.0000 </r>
       <r>   10.0391    0.9999 </r>
       <r>   13.8349    0.0000 </r>
       <r>   23.0058    0.0000 </r>
       <r>   23.6152    0.0000 </r>
       <r>   25.0214    0.0000 </r>
       <r>   31.9114    0.0000 </r>
      </set>
      <set comment="kpoint 111">
       <r>    2.5202    1.0000 </r>
       <r>    9.8424    1.0000 </r>
       <r>   10.0986    0.9845 </r>
       <r>   11.1703    0.0000 </r>
       <r>   19.8675    0.0000 </r>
       <r>   21.0449    0.0000 </r>
       <r>   28.8234    0.0000 </r>
       <r>   33.8203    0.0000 </r>
      </set>
      <set comment="kpoint 112">
       <r>    3.9627    1.0000 </r>
       <r>    8.1848    1.0000 </r>
       <r>    9.0242    1.0000 </r>
       <r>   10.9259    0.0000 </r>
       <r>   20.5345    0.0000 </r>
       <r>   22.9249    0.0000 </r>
       <r>   28.0524    0.0000 </r>
       <r>   31.8466    0.0000 </r>
      </set>
      <set comment="kpoint 113">
       <r>    5.5623    1.0000 </r>
       <r>    6.3230    1.0000 </r>
       <r>    8.2864    1.0000 </r>
       <r>   11.3000    0.0000 </r>
       <r>   21.0093    0.0000 </r>
       <r>   25.2453    0.0000 </r>
       <r>   27.4461    0.0000 </r>
       <r>   29.5344    0.0000 </r>
      </set>
      <set comment="kpoint 114">
       <r>    4.4938    1.0000 </r>
       <r>    7.1869    1.0000 </r>
       <r>    8.1331    1.0000 </r>
       <r>   11.9581    0.0000 </r>
       <r>   21.6398    0.0000 </r>
       <r>   26.4071    0.0000 </r>
       <r>   26.6019    0.0000 </r>
       <r>   28.8471    0.0000 </r>
      </set>
      <set comment="kpoint 115">
       <r>    4.6387    1.0000 </r>
       <r>    7.2348    1.0000 </r>
       <r>    9.7764    1.0000 </r>
       <r>   10.7524    0.0000 </r>
       <r>   19.5530    0.0000 </r>
       <r>   20.7687    0.0000 </r>
       <r>   30.6077    0.0000 </r>
       <r>   32.4370    0.0000 </r>
      </set>
      <set comment="kpoint 116">
       <r>    5.8882    1.0000 </r>
       <r>    6.6805    1.0000 </r>
       <r>    8.1746    1.0000 </r>
       <r>   10.7378    0.0000 </r>
       <r>   20.3843    0.0000 </r>
       <r>   22.8015    0.0000 </r>
       <r>   29.6922    0.0000 </r>
       <r>   30.2262    0.0000 </r>
      </set>
      <set comment="kpoint 117">
       <r>    3.3482    1.0000 </r>
       <r>    8.4838    1.0000 </r>
       <r>    9.3221    1.0000 </r>
       <r>   10.9486    0.0000 </r>
       <r>   23.0164    0.0000 </r>
       <r>   23.4139    0.0000 </r>
       <r>   25.7280    0.0000 </r>
       <r>   31.3491    0.0000 </r>
      </set>
      <set comment="kpoint 118">
       <r>    4.9334    1.0000 </r>
       <r>    6.8001    1.0000 </r>
       <r>    9.2459    1.0000 </r>
       <r>   10.1965    0.2702 </r>
       <r>   23.3703    0.0000 </r>
       <r>   24.4647    0.0000 </r>
       <r>   26.1960    0.0000 </r>
       <r>   29.0960    0.0000 </r>
      </set>
      <set comment="kpoint 119">
       <r>    5.4496    1.0000 </r>
       <r>    7.9252    1.0000 </r>
       <r>    8.1600    1.0000 </r>
       <r>    9.3393    1.0000 </r>
       <r>   22.7121    0.0000 </r>
       <r>   23.3749    0.0000 </r>
       <r>   27.2841    0.0000 </r>
       <r>   29.5028    0.0000 </r>
      </set>
      <set comment="kpoint 120">
       <r>    6.5324    1.0000 </r>
       <r>    6.8625    1.0000 </r>
       <r>    7.7545    1.0000 </r>
       <r>    9.4134    1.0000 </r>
       <r>   23.4334    0.0000 </r>
       <r>   25.2782    0.0000 </r>
       <r>   26.1216    0.0000 </r>
       <r>   27.9193    0.0000 </r>
      </set>
     </set>
    </set>
   </array>
  </eigenvalues>
  <separator name="orbital magnetization" >
   <v name="MAGDIPOLOUT">      0.00000000      0.00000000      0.00000000</v>
  </separator>
  <dos>
   <i name="efermi">     10.17487348 </i>
   <total>
    <array>
     <dimension dim="1">gridpoints</dimension>
     <dimension dim="2">spin</dimension>
     <field>energy</field>
     <field>total</field>
     <field>integrated</field>
     <set>
      <set comment="spin 1">
       <r>    -6.3021     0.0000     0.0000 </r>
       <r>    -6.1534     0.0000     0.0000 </r>
       <r>    -6.0048     0.0000     0.0000 </r>
       <r>    -5.8561     0.0000     0.0000 </r>
       <r>    -5.7075     0.0000     0.0000 </r>
       <r>    -5.5588     0.0000     0.0000 </r>
       <r>    -5.4102     0.0000     0.0000 </r>
       <r>    -5.2615     0.0000     0.0000 </r>
       <r>    -5.1129     0.0000     0.0000 </r>
       <r>    -4.9642     0.0000     0.0000 </r>
       <r>    -4.8156     0.0000     0.0000 </r>
       <r>    -4.6669     0.0000     0.0000 </r>
       <r>    -4.5183     0.0000     0.0000 </r>
       <r>    -4.3696     0.0000     0.0000 </r>
       <r>    -4.2210     0.0042     0.0006 </r>
       <r>    -4.0723     0.0502     0.0081 </r>
       <r>    -3.9237     0.0324     0.0129 </r>
       <r>    -3.7750     0.1032     0.0283 </r>
       <r>    -3.6264     0.0479     0.0354 </r>
       <r>    -3.4777     0.0493     0.0427 </r>
       <r>    -3.3291     0.1628     0.0669 </r>
       <r>    -3.1804     0.0948     0.0810 </r>
       <r>    -3.0318     0.1272     0.0999 </r>
       <r>    -2.8831     0.0326     0.1048 </r>
       <r>    -2.7345     0.2216     0.1377 </r>
       <r>    -2.5858     0.1230     0.1560 </r>
       <r>    -2.4372     0.1192     0.1737 </r>
       <r>    -2.2885     0.1510     0.1962 </r>
       <r>    -2.1399     0.0411     0.2023 </r>
       <r>    -1.9912     0.2686     0.2422 </r>
       <r>    -1.8426     0.1573     0.2656 </r>
       <r>    -1.6939     0.3034     0.3107 </r>
       <r>    -1.5453     0.0340     0.3157 </r>
       <r>    -1.3966     0.0928     0.3295 </r>
       <r>    -1.2480     0.2167     0.3617 </r>
       <r>    -1.0993     0.1665     0.3865 </r>
       <r>    -0.9507     0.2874     0.4292 </r>
       <r>    -0.8020     0.0912     0.4427 </r>
       <r>    -0.6534     0.4277     0.5063 </r>
       <r>    -0.5047     0.1107     0.5228 </r>
       <r>    -0.3561     0.1843     0.5502 </r>
       <r>    -0.2074     0.0637     0.5596 </r>
       <r>    -0.0588     0.1792     0.5863 </r>
       <r>     0.0899     0.3121     0.6327 </r>
       <r>     0.2385     0.2918     0.6760 </r>
       <r>     0.3872     0.3947     0.7347 </r>
       <r>     0.5358     0.0132     0.7367 </r>
       <r>     0.6844     0.3544     0.7894 </r>
       <r>     0.8331     0.1930     0.8181 </r>
       <r>     0.9817     0.2464     0.8547 </r>
       <r>     1.1304     0.0705     0.8651 </r>
       <r>     1.2790     0.1568     0.8885 </r>
       <r>     1.4277     0.5573     0.9713 </r>
       <r>     1.5763     0.1969     1.0006 </r>
       <r>     1.7250     0.4487     1.0673 </r>
       <r>     1.8736     0.1233     1.0856 </r>
       <r>     2.0223     0.2730     1.1262 </r>
       <r>     2.1709     0.1879     1.1541 </r>
       <r>     2.3196     0.4560     1.2219 </r>
       <r>     2.4682     0.0989     1.2366 </r>
       <r>     2.6169     0.2069     1.2673 </r>
       <r>     2.7655     0.3598     1.3208 </r>
       <r>     2.9142     0.2839     1.3630 </r>
       <r>     3.0628     0.4801     1.4344 </r>
       <r>     3.2115     0.1172     1.4518 </r>
       <r>     3.3601     0.6006     1.5411 </r>
       <r>     3.5088     0.2307     1.5754 </r>
       <r>     3.6574     0.1785     1.6019 </r>
       <r>     3.8061     0.0808     1.6139 </r>
       <r>     3.9547     0.3071     1.6596 </r>
       <r>     4.1034     0.2399     1.6952 </r>
       <r>     4.2520     0.4867     1.7676 </r>
       <r>     4.4007     0.5428     1.8483 </r>
       <r>     4.5493     0.1176     1.8657 </r>
       <r>     4.6980     0.3152     1.9126 </r>
       <r>     4.8466     0.4190     1.9749 </r>
       <r>     4.9953     0.4520     2.0421 </r>
       <r>     5.1439     0.1778     2.0685 </r>
       <r>     5.2926     0.3753     2.1243 </r>
       <r>     5.4412     0.4931     2.1976 </r>
       <r>     5.5899     0.2768     2.2387 </r>
       <r>     5.7385     0.1349     2.2588 </r>
       <r>     5.8872     0.1491     2.2809 </r>
       <r>     6.0358     0.4784     2.3520 </r>
       <r>     6.1845     0.4628     2.4208 </r>
       <r>     6.3331     0.5477     2.5023 </r>
       <r>     6.4818     0.2322     2.5368 </r>
       <r>     6.6304     0.2161     2.5689 </r>
       <r>     6.7791     0.4915     2.6420 </r>
       <r>     6.9277     0.4985     2.7161 </r>
       <r>     7.0764     0.2935     2.7597 </r>
       <r>     7.2250     0.2508     2.7970 </r>
       <r>     7.3737     0.7012     2.9012 </r>
       <r>     7.5223     0.1448     2.9227 </r>
       <r>     7.6710     0.1359     2.9429 </r>
       <r>     7.8196     0.1560     2.9661 </r>
       <r>     7.9683     0.4307     3.0301 </r>
       <r>     8.1169     0.5241     3.1081 </r>
       <r>     8.2656     0.8903     3.2404 </r>
       <r>     8.4142     0.4504     3.3074 </r>
       <r>     8.5629     0.1769     3.3336 </r>
       <r>     8.7115     0.2521     3.3711 </r>
       <r>     8.8602     0.5829     3.4578 </r>
       <r>     9.0088     0.2308     3.4921 </r>
       <r>     9.1575     0.2060     3.5227 </r>
       <r>     9.3061     0.5608     3.6061 </r>
       <r>     9.4548     0.4616     3.6747 </r>
       <r>     9.6034     0.5082     3.7502 </r>
       <r>     9.7521     0.0911     3.7638 </r>
       <r>     9.9007     0.6284     3.8572 </r>
       <r>    10.0494     0.3808     3.9138 </r>
       <r>    10.1980     0.6862     4.0158 </r>
       <r>    10.3467     0.4120     4.0770 </r>
       <r>    10.4953     0.2772     4.1182 </r>
       <r>    10.6440     0.1248     4.1368 </r>
       <r>    10.7926     0.7324     4.2457 </r>
       <r>    10.9413     0.6418     4.3411 </r>
       <r>    11.0899     0.2843     4.3833 </r>
       <r>    11.2386     0.5417     4.4638 </r>
       <r>    11.3872     0.5517     4.5459 </r>
       <r>    11.5359     0.2896     4.5889 </r>
       <r>    11.6845     0.1610     4.6128 </r>
       <r>    11.8332     0.5548     4.6953 </r>
       <r>    11.9818     0.2754     4.7363 </r>
       <r>    12.1305     0.8828     4.8675 </r>
       <r>    12.2791     0.4991     4.9417 </r>
       <r>    12.4278     0.6100     5.0323 </r>
       <r>    12.5764     0.4573     5.1003 </r>
       <r>    12.7251     0.3321     5.1497 </r>
       <r>    12.8737     0.4598     5.2180 </r>
       <r>    13.0224     0.4904     5.2909 </r>
       <r>    13.1710     0.7450     5.4017 </r>
       <r>    13.3197     0.6104     5.4924 </r>
       <r>    13.4683     0.3612     5.5461 </r>
       <r>    13.6170     0.4812     5.6176 </r>
       <r>    13.7656     0.5125     5.6938 </r>
       <r>    13.9143     0.6201     5.7860 </r>
       <r>    14.0629     0.6477     5.8823 </r>
       <r>    14.2116     0.3561     5.9352 </r>
       <r>    14.3602     0.5999     6.0244 </r>
       <r>    14.5089     0.4900     6.0972 </r>
       <r>    14.6575     0.7882     6.2144 </r>
       <r>    14.8061     0.4156     6.2762 </r>
       <r>    14.9548     0.3962     6.3351 </r>
       <r>    15.1034     0.5616     6.4185 </r>
       <r>    15.2521     0.1119     6.4352 </r>
       <r>    15.4007     0.3845     6.4923 </r>
       <r>    15.5494     0.6322     6.5863 </r>
       <r>    15.6980     0.5284     6.6648 </r>
       <r>    15.8467     0.8283     6.7880 </r>
       <r>    15.9953     0.3539     6.8406 </r>
       <r>    16.1440     0.5607     6.9239 </r>
       <r>    16.2926     0.2008     6.9538 </r>
       <r>    16.4413     0.5839     7.0406 </r>
       <r>    16.5899     0.3186     7.0879 </r>
       <r>    16.7386     0.3944     7.1466 </r>
       <r>    16.8872     0.4857     7.2188 </r>
       <r>    17.0359     0.6985     7.3226 </r>
       <r>    17.1845     0.4943     7.3961 </r>
       <r>    17.3332     0.2934     7.4397 </r>
       <r>    17.4818     0.4170     7.5017 </r>
       <r>    17.6305     0.7209     7.6089 </r>
       <r>    17.7791     0.4316     7.6730 </r>
       <r>    17.9278     0.3115     7.7193 </r>
       <r>    18.0764     0.5202     7.7967 </r>
       <r>    18.2251     0.9405     7.9365 </r>
       <r>    18.3737     0.7286     8.0448 </r>
       <r>    18.5224     0.3312     8.0940 </r>
       <r>    18.6710     0.3298     8.1430 </r>
       <r>    18.8197     0.6934     8.2461 </r>
       <r>    18.9683     0.4126     8.3074 </r>
       <r>    19.1170     0.3909     8.3655 </r>
       <r>    19.2656     0.7987     8.4843 </r>
       <r>    19.4143     0.7551     8.5965 </r>
       <r>    19.5629     0.1504     8.6189 </r>
       <r>    19.7116     0.3474     8.6705 </r>
       <r>    19.8602     0.3216     8.7183 </r>
       <r>    20.0089     0.7362     8.8278 </r>
       <r>    20.1575     0.7395     8.9377 </r>
       <r>    20.3062     0.7954     9.0559 </r>
       <r>    20.4548     0.6048     9.1458 </r>
       <r>    20.6035     0.5120     9.2220 </r>
       <r>    20.7521     0.5345     9.3014 </r>
       <r>    20.9008     0.2418     9.3374 </r>
       <r>    21.0494     1.1376     9.5065 </r>
       <r>    21.1981     0.6189     9.5985 </r>
       <r>    21.3467     0.6030     9.6881 </r>
       <r>    21.4954     0.5992     9.7772 </r>
       <r>    21.6440     0.3079     9.8229 </r>
       <r>    21.7927     0.9573     9.9652 </r>
       <r>    21.9413     0.5463    10.0464 </r>
       <r>    22.0900     0.2649    10.0858 </r>
       <r>    22.2386     0.3376    10.1360 </r>
       <r>    22.3873     0.6046    10.2259 </r>
       <r>    22.5359     0.6107    10.3167 </r>
       <r>    22.6846     0.5818    10.4031 </r>
       <r>    22.8332     0.3902    10.4611 </r>
       <r>    22.9819     0.4806    10.5326 </r>
       <r>    23.1305     0.8937    10.6654 </r>
       <r>    23.2792     0.7474    10.7765 </r>
       <r>    23.4278     1.1139    10.9421 </r>
       <r>    23.5765     0.6676    11.0414 </r>
       <r>    23.7251     0.8783    11.1719 </r>
       <r>    23.8738     0.2140    11.2037 </r>
       <r>    24.0224     0.5137    11.2801 </r>
       <r>    24.1711     0.5548    11.3626 </r>
       <r>    24.3197     0.3934    11.4211 </r>
       <r>    24.4684     0.9478    11.5619 </r>
       <r>    24.6170     0.5555    11.6445 </r>
       <r>    24.7657     0.4270    11.7080 </r>
       <r>    24.9143     0.4886    11.7806 </r>
       <r>    25.0630     0.3309    11.8298 </r>
       <r>    25.2116     1.2506    12.0157 </r>
       <r>    25.3603     1.2018    12.1944 </r>
       <r>    25.5089     0.4306    12.2584 </r>
       <r>    25.6576     0.4480    12.3250 </r>
       <r>    25.8062     0.7696    12.4394 </r>
       <r>    25.9549     0.7369    12.5489 </r>
       <r>    26.1035     0.5325    12.6281 </r>
       <r>    26.2522     0.5856    12.7151 </r>
       <r>    26.4008     0.7418    12.8254 </r>
       <r>    26.5495     0.8041    12.9449 </r>
       <r>    26.6981     0.5333    13.0242 </r>
       <r>    26.8468     0.1027    13.0394 </r>
       <r>    26.9954     0.5538    13.1218 </r>
       <r>    27.1441     0.5424    13.2024 </r>
       <r>    27.2927     0.9203    13.3392 </r>
       <r>    27.4414     0.7753    13.4544 </r>
       <r>    27.5900     0.8019    13.5737 </r>
       <r>    27.7387     0.6457    13.6696 </r>
       <r>    27.8873     0.2286    13.7036 </r>
       <r>    28.0360     0.6056    13.7936 </r>
       <r>    28.1846     0.9904    13.9408 </r>
       <r>    28.3333     0.4855    14.0130 </r>
       <r>    28.4819     0.3098    14.0591 </r>
       <r>    28.6306     0.0627    14.0684 </r>
       <r>    28.7792     0.3811    14.1250 </r>
       <r>    28.9278     0.8745    14.2550 </r>
       <r>    29.0765     0.4866    14.3274 </r>
       <r>    29.2251     0.4055    14.3876 </r>
       <r>    29.3738     0.3655    14.4420 </r>
       <r>    29.5224     0.4918    14.5151 </r>
       <r>    29.6711     1.0769    14.6752 </r>
       <r>    29.8197     0.6718    14.7750 </r>
       <r>    29.9684     0.5962    14.8637 </r>
       <r>    30.1170     0.3933    14.9221 </r>
       <r>    30.2657     0.4326    14.9864 </r>
       <r>    30.4143     0.1664    15.0112 </r>
       <r>    30.5630     0.4527    15.0785 </r>
       <r>    30.7116     0.5335    15.1578 </r>
       <r>    30.8603     0.3773    15.2139 </r>
       <r>    31.0089     0.2594    15.2524 </r>
       <r>    31.1576     0.3889    15.3102 </r>
       <r>    31.3062     0.5607    15.3936 </r>
       <r>    31.4549     0.3572    15.4467 </r>
       <r>    31.6035     0.1345    15.4667 </r>
       <r>    31.7522     0.0034    15.4672 </r>
       <r>    31.9008     0.4382    15.5323 </r>
       <r>    32.0495     0.2747    15.5731 </r>
       <r>    32.1981     0.0946    15.5872 </r>
       <r>    32.3468     0.1522    15.6098 </r>
       <r>    32.4954     0.1329    15.6296 </r>
       <r>    32.6441     0.1995    15.6592 </r>
       <r>    32.7927     0.3563    15.7122 </r>
       <r>    32.9414     0.2248    15.7456 </r>
       <r>    33.0900     0.0600    15.7545 </r>
       <r>    33.2387     0.1260    15.7733 </r>
       <r>    33.3873     0.2752    15.8142 </r>
       <r>    33.5360     0.1225    15.8324 </r>
       <r>    33.6846     0.1712    15.8578 </r>
       <r>    33.8333     0.1684    15.8829 </r>
       <r>    33.9819     0.0466    15.8898 </r>
       <r>    34.1306     0.0024    15.8901 </r>
       <r>    34.2792     0.1843    15.9175 </r>
       <r>    34.4279     0.0480    15.9247 </r>
       <r>    34.5765     0.0044    15.9253 </r>
       <r>    34.7252     0.0805    15.9373 </r>
       <r>    34.8738     0.0391    15.9431 </r>
       <r>    35.0225     0.1165    15.9604 </r>
       <r>    35.1711     0.0988    15.9751 </r>
       <r>    35.3198     0.0428    15.9815 </r>
       <r>    35.4684     0.0529    15.9893 </r>
       <r>    35.6171     0.0000    15.9893 </r>
       <r>    35.7657     0.0000    15.9893 </r>
       <r>    35.9144     0.0019    15.9896 </r>
       <r>    36.0630     0.0456    15.9964 </r>
       <r>    36.2117     0.0019    15.9967 </r>
       <r>    36.3603     0.0223    16.0000 </r>
       <r>    36.5090     0.0001    16.0000 </r>
       <r>    36.6576     0.0000    16.0000 </r>
       <r>    36.8063     0.0000    16.0000 </r>
       <r>    36.9549     0.0000    16.0000 </r>
       <r>    37.1036     0.0000    16.0000 </r>
       <r>    37.2522     0.0000    16.0000 </r>
       <r>    37.4009     0.0000    16.0000 </r>
       <r>    37.5495     0.0000    16.0000 </r>
       <r>    37.6982     0.0000    16.0000 </r>
       <r>    37.8468     0.0000    16.0000 </r>
       <r>    37.9955     0.0000    16.0000 </r>
       <r>    38.1441     0.0000    16.0000 </r>
       <r>    38.2928     0.0000    16.0000 </r>
      </set>
     </set>
    </array>
   </total>
  </dos>
 </calculation>
 <structure name="finalpos" >
  <crystal>
   <varray name="basis" >
    <v>       2.36705647      -0.00000000       1.36661954 </v>
    <v>       0.78901882       2.23168200       1.36661954 </v>
    <v>      -0.00000001      -0.00000001       2.73324110 </v>
   </varray>
   <i name="volume">     14.43839351 </i>
   <varray name="rec_basis" >
    <v>       0.42246563      -0.14936417       0.00000000 </v>
    <v>       0.00000000       0.44809251       0.00000000 </v>
    <v>      -0.21123266      -0.14936406       0.36586600 </v>
   </varray>
  </crystal>
  <varray name="positions" >
   <v>      -0.00000000      -0.00000000       0.00000000 </v>
  </varray>
 </structure>
</modeling>
