unknown system                          
           1
     2.347395    0.000000    1.355268
     0.782465    2.213145    1.355268
     0.000000    0.000000    2.710538
   Si
     1
Direct configuration=     1
   0.00000000  0.00000000  0.00000000
unknown system                          
           1
     2.368943   -0.000000    1.367709
     0.789648    2.233461    1.367709
    -0.000000   -0.000000    2.735420
   Si
     1
Direct configuration=     2
  -0.00000000  0.00000000  0.00000000
unknown system                          
           1
     2.367056   -0.000000    1.366620
     0.789019    2.231682    1.366620
    -0.000000   -0.000000    2.733241
   Si
     1
Direct configuration=     3
  -0.00000000 -0.00000000  0.00000000
