unknown system                          
   1.00000000000000     
     2.690673   -0.000000    0.000000
     0.000000    2.690673    0.000000
    -0.000000   -0.000000    2.690673
   Fe
     2
Direct
  0.000000  0.000000  0.000000
  0.500000  0.500000  0.500000
 
   32   32   32
  198.84      192.58      174.88      148.76      118.31      87.761      60.586      39.016      23.841      14.598    
  9.8984      7.8968      6.8340      6.0977      5.6773      5.4640      5.4074      5.4640      5.6773      6.0977    
  6.8340      7.8968      9.8984      14.598      23.841      39.016      60.586      87.761      118.31      148.76    
  174.88      192.58      192.58      186.53      169.46      144.24      114.79      85.204      58.854      37.929    
  23.229      14.304      9.7915      7.8661      6.8178      6.0929      5.6797      5.4712      5.4154      5.4712    
  5.6797      6.0929      6.8178      7.8661      9.7915      14.304      23.229      37.929      58.854      85.204    
  114.79      144.24      169.46      186.53      174.88      169.46      154.14      131.42      104.78      77.896    
  53.889      34.825      21.492      13.481      9.4985      7.7777      6.7688      6.0786      5.6860      5.4911    
  5.4375      5.4911      5.6860      6.0786      6.7688      7.7777      9.4985      13.481      21.492      34.825    
  53.889      77.896      104.78      131.42      154.14      169.46      148.76      144.24      131.42      112.30    
  89.762      66.884      46.397      30.157      18.918      12.297      9.0910      7.6371      6.6861      6.0545    
  5.6935      5.5206      5.4697      5.5206      5.6935      6.0545      6.6861      7.6371      9.0910      12.297    
  18.918      30.157      46.397      66.884      89.762      112.30      131.42      144.24      118.31      114.79    
  104.78      89.762      71.934      53.750      37.465      24.657      15.959      10.997      8.6534      7.4439    
  6.5742      6.0197      5.7005      5.5534      5.5069      5.5534      5.7005      6.0197      6.5742      7.4439    
  8.6534      10.997      15.959      24.657      37.465      53.750      71.934      89.762      104.78      114.79    
  87.761      85.204      77.896      66.884      53.750      40.347      28.418      19.200      13.140      9.8329    
  8.2291      7.1978      6.4441      5.9728      5.7061      5.5824      5.5449      5.5824      5.7061      5.9728    
  6.4441      7.1978      8.2291      9.8329      13.140      19.200      28.418      40.347      53.750      66.884    
  77.896      85.204      60.586      58.854      53.889      46.397      37.465      28.418      20.507      14.600    
  10.892      8.9362      7.7975      6.9179      6.3058      5.9186      5.7072      5.6038      5.5768      5.6038    
  5.7072      5.9186      6.3058      6.9179      7.7975      8.9362      10.892      14.600      20.507      28.418    
  37.465      46.397      53.889      58.854      39.016      37.929      34.825      30.157      24.657      19.200    
  14.600      11.328      9.3839      8.2359      7.3369      6.6422      6.1634      5.8653      5.6984      5.6188    
  5.5954      5.6188      5.6984      5.8653      6.1634      6.6422      7.3369      8.2359      9.3839      11.328    
  14.600      19.200      24.657      30.157      34.825      37.929      23.841      23.229      21.492      18.918    
  15.959      13.140      10.892      9.3839      8.3987      7.5839      6.8988      6.3861      6.0331      5.8116    
  5.6838      5.6209      5.6019      5.6209      5.6838      5.8116      6.0331      6.3861      6.8988      7.5839    
  8.3987      9.3839      10.892      13.140      15.959      18.918      21.492      23.229      14.598      14.304    
  13.481      12.297      10.997      9.8329      8.9362      8.2359      7.5839      6.9953      6.5207      6.1653    
  5.9188      5.7576      5.6613      5.6107      5.5954      5.6107      5.6613      5.7576      5.9188      6.1653    
  6.5207      6.9953      7.5839      8.2359      8.9362      9.8329      10.997      12.297      13.481      14.304    
  9.8984      9.7915      9.4985      9.0910      8.6534      8.2291      7.7975      7.3369      6.8988      6.5207    
  6.2159      5.9858      5.8197      5.7066      5.6325      5.5907      5.5768      5.5907      5.6325      5.7066    
  5.8197      5.9858      6.2159      6.5207      6.8988      7.3369      7.7975      8.2291      8.6534      9.0910    
  9.4985      9.7915      7.8968      7.8661      7.7777      7.6371      7.4439      7.1978      6.9179      6.6422    
  6.3861      6.1653      5.9858      5.8444      5.7372      5.6546      5.5946      5.5573      5.5449      5.5573    
  5.5946      5.6546      5.7372      5.8444      5.9858      6.1653      6.3861      6.6422      6.9179      7.1978    
  7.4439      7.6371      7.7777      7.8661      6.8340      6.8178      6.7688      6.6861      6.5742      6.4441    
  6.3058      6.1634      6.0331      5.9188      5.8197      5.7372      5.6639      5.6007      5.5506      5.5183    
  5.5069      5.5183      5.5506      5.6007      5.6639      5.7372      5.8197      5.9188      6.0331      6.1634    
  6.3058      6.4441      6.5742      6.6861      6.7688      6.8178      6.0977      6.0929      6.0786      6.0545    
  6.0197      5.9728      5.9186      5.8653      5.8116      5.7576      5.7066      5.6546      5.6007      5.5500    
  5.5080      5.4797      5.4697      5.4797      5.5080      5.5500      5.6007      5.6546      5.7066      5.7576    
  5.8116      5.8653      5.9186      5.9728      6.0197      6.0545      6.0786      6.0929      5.6773      5.6797    
  5.6860      5.6935      5.7005      5.7061      5.7072      5.6984      5.6838      5.6613      5.6325      5.5946    
  5.5506      5.5080      5.4715      5.4466      5.4375      5.4466      5.4715      5.5080      5.5506      5.5946    
  5.6325      5.6613      5.6838      5.6984      5.7072      5.7061      5.7005      5.6935      5.6860      5.6797    
  5.4640      5.4712      5.4911      5.5206      5.5534      5.5824      5.6038      5.6188      5.6209      5.6107    
  5.5907      5.5573      5.5183      5.4797      5.4466      5.4235      5.4154      5.4235      5.4466      5.4797    
  5.5183      5.5573      5.5907      5.6107      5.6209      5.6188      5.6038      5.5824      5.5534      5.5206    
  5.4911      5.4712      5.4074      5.4154      5.4375      5.4697      5.5069      5.5449      5.5768      5.5954    
  5.6019      5.5954      5.5768      5.5449      5.5069      5.4697      5.4375      5.4154      5.4074      5.4154    
  5.4375      5.4697      5.5069      5.5449      5.5768      5.5954      5.6019      5.5954      5.5768      5.5449    
  5.5069      5.4697      5.4375      5.4154      5.4640      5.4712      5.4911      5.5206      5.5534      5.5824    
  5.6038      5.6188      5.6209      5.6107      5.5907      5.5573      5.5183      5.4797      5.4466      5.4235    
  5.4154      5.4235      5.4466      5.4797      5.5183      5.5573      5.5907      5.6107      5.6209      5.6188    
  5.6038      5.5824      5.5534      5.5206      5.4911      5.4712      5.6773      5.6797      5.6860      5.6935    
  5.7005      5.7061      5.7072      5.6984      5.6838      5.6613      5.6325      5.5946      5.5506      5.5080    
  5.4715      5.4466      5.4375      5.4466      5.4715      5.5080      5.5506      5.5946      5.6325      5.6613    
  5.6838      5.6984      5.7072      5.7061      5.7005      5.6935      5.6860      5.6797      6.0977      6.0929    
  6.0786      6.0545      6.0197      5.9728      5.9186      5.8653      5.8116      5.7576      5.7066      5.6546    
  5.6007      5.5500      5.5080      5.4797      5.4697      5.4797      5.5080      5.5500      5.6007      5.6546    
  5.7066      5.7576      5.8116      5.8653      5.9186      5.9728      6.0197      6.0545      6.0786      6.0929    
  6.8340      6.8178      6.7688      6.6861      6.5742      6.4441      6.3058      6.1634      6.0331      5.9188    
  5.8197      5.7372      5.6639      5.6007      5.5506      5.5183      5.5069      5.5183      5.5506      5.6007    
  5.6639      5.7372      5.8197      5.9188      6.0331      6.1634      6.3058      6.4441      6.5742      6.6861    
  6.7688      6.8178      7.8968      7.8661      7.7777      7.6371      7.4439      7.1978      6.9179      6.6422    
  6.3861      6.1653      5.9858      5.8444      5.7372      5.6546      5.5946      5.5573      5.5449      5.5573    
  5.5946      5.6546      5.7372      5.8444      5.9858      6.1653      6.3861      6.6422      6.9179      7.1978    
  7.4439      7.6371      7.7777      7.8661      9.8984      9.7915      9.4985      9.0910      8.6534      8.2291    
  7.7975      7.3369      6.8988      6.5207      6.2159      5.9858      5.8197      5.7066      5.6325      5.5907    
  5.5768      5.5907      5.6325      5.7066      5.8197      5.9858      6.2159      6.5207      6.8988      7.3369    
  7.7975      8.2291      8.6534      9.0910      9.4985      9.7915      14.598      14.304      13.481      12.297    
  10.997      9.8329      8.9362      8.2359      7.5839      6.9953      6.5207      6.1653      5.9188      5.7576    
  5.6613      5.6107      5.5954      5.6107      5.6613      5.7576      5.9188      6.1653      6.5207      6.9953    
  7.5839      8.2359      8.9362      9.8329      10.997      12.297      13.481      14.304      23.841      23.229    
  21.492      18.918      15.959      13.140      10.892      9.3839      8.3987      7.5839      6.8988      6.3861    
  6.0331      5.8116      5.6838      5.6209      5.6019      5.6209      5.6838      5.8116      6.0331      6.3861    
  6.8988      7.5839      8.3987      9.3839      10.892      13.140      15.959      18.918      21.492      23.229    
  39.016      37.929      34.825      30.157      24.657      19.200      14.600      11.328      9.3839      8.2359    
  7.3369      6.6422      6.1634      5.8653      5.6984      5.6188      5.5954      5.6188      5.6984      5.8653    
  6.1634      6.6422      7.3369      8.2359      9.3839      11.328      14.600      19.200      24.657      30.157    
  34.825      37.929      60.586      58.854      53.889      46.397      37.465      28.418      20.507      14.600    
  10.892      8.9362      7.7975      6.9179      6.3058      5.9186      5.7072      5.6038      5.5768      5.6038    
  5.7072      5.9186      6.3058      6.9179      7.7975      8.9362      10.892      14.600      20.507      28.418    
  37.465      46.397      53.889      58.854      87.761      85.204      77.896      66.884      53.750      40.347    
  28.418      19.200      13.140      9.8329      8.2291      7.1978      6.4441      5.9728      5.7061      5.5824    
  5.5449      5.5824      5.7061      5.9728      6.4441      7.1978      8.2291      9.8329      13.140      19.200    
  28.418      40.347      53.750      66.884      77.896      85.204      118.31      114.79      104.78      89.762    
  71.934      53.750      37.465      24.657      15.959      10.997      8.6534      7.4439      6.5742      6.0197    
  5.7005      5.5534      5.5069      5.5534      5.7005      6.0197      6.5742      7.4439      8.6534      10.997    
  15.959      24.657      37.465      53.750      71.934      89.762      104.78      114.79      148.76      144.24    
  131.42      112.30      89.762      66.884      46.397      30.157      18.918      12.297      9.0910      7.6371    
  6.6861      6.0545      5.6935      5.5206      5.4697      5.5206      5.6935      6.0545      6.6861      7.6371    
  9.0910      12.297      18.918      30.157      46.397      66.884      89.762      112.30      131.42      144.24    
  174.88      169.46      154.14      131.42      104.78      77.896      53.889      34.825      21.492      13.481    
  9.4985      7.7777      6.7688      6.0786      5.6860      5.4911      5.4375      5.4911      5.6860      6.0786    
  6.7688      7.7777      9.4985      13.481      21.492      34.825      53.889      77.896      104.78      131.42    
  154.14      169.46      192.58      186.53      169.46      144.24      114.79      85.204      58.854      37.929    
  23.229      14.304      9.7915      7.8661      6.8178      6.0929      5.6797      5.4712      5.4154      5.4712    
  5.6797      6.0929      6.8178      7.8661      9.7915      14.304      23.229      37.929      58.854      85.204    
  114.79      144.24      169.46      186.53      192.58      186.53      169.46      144.24      114.79      85.204    
  58.854      37.929      23.229      14.304      9.7915      7.8661      6.8178      6.0929      5.6797      5.4712    
  5.4154      5.4712      5.6797      6.0929      6.8178      7.8661      9.7915      14.304      23.229      37.929    
  58.854      85.204      114.79      144.24      169.46      186.53      186.53      180.71      164.24      139.87    
  111.39      82.722      57.170      36.873      22.637      14.022      9.6907      7.8371      6.8024      6.0889    
  5.6825      5.4786      5.4235      5.4786      5.6825      6.0889      6.8024      7.8371      9.6907      14.022    
  22.637      36.873      57.170      82.722      111.39      139.87      164.24      180.71      169.46      164.24    
  149.44      127.47      101.68      75.627      52.344      33.858      20.956      13.232      9.4142      7.7529    
  6.7554      6.0763      5.6901      5.4996      5.4466      5.4996      5.6901      6.0763      6.7554      7.7529    
  9.4142      13.232      20.956      33.858      52.344      75.627      101.68      127.47      149.44      164.24    
  144.24      139.87      127.47      108.96      87.121      64.936      45.065      29.331      18.470      12.099    
  9.0298      7.6167      6.6760      6.0548      5.6995      5.5301      5.4797      5.5301      5.6995      6.0548    
  6.6760      7.6167      9.0298      12.099      18.470      29.331      45.065      64.936      87.121      108.96    
  127.47      139.87      114.79      111.39      101.68      87.121      69.827      52.186      36.399      24.007    
  15.621      10.861      8.6145      7.4280      6.5683      6.0225      5.7085      5.5641      5.5183      5.5641    
  5.7085      6.0225      6.5683      7.4280      8.6145      10.861      15.621      24.007      36.399      52.186    
  69.827      87.121      101.68      111.39      85.204      82.722      75.627      64.936      52.186      39.187    
  27.639      18.742      12.917      9.7546      8.2056      7.1860      6.4432      5.9785      5.7161      5.5940    
  5.5573      5.5940      5.7161      5.9785      6.4432      7.1860      8.2056      9.7546      12.917      18.742    
  27.639      39.187      52.186      64.936      75.627      82.722      58.854      57.170      52.344      45.065    
  36.399      27.639      20.001      14.319      10.772      8.8988      7.7813      6.9120      6.3089      5.9272    
  5.7192      5.6172      5.5907      5.6172      5.7192      5.9272      6.3089      6.9120      7.7813      8.8988    
  10.772      14.319      20.001      27.639      36.399      45.065      52.344      57.170      37.929      36.873    
  33.858      29.331      24.007      18.742      14.319      11.190      9.3339      8.2160      7.3271      6.6427    
  6.1710      5.8777      5.7126      5.6341      5.6107      5.6341      5.7126      5.8777      6.1710      6.6427    
  7.3271      8.2160      9.3339      11.190      14.319      18.742      24.007      29.331      33.858      36.873    
  23.229      22.637      20.956      18.470      15.621      12.917      10.772      9.3339      8.3770      7.5718    
  6.8972      6.3927      6.0452      5.8268      5.7013      5.6395      5.6209      5.6395      5.7013      5.8268    
  6.0452      6.3927      6.8972      7.5718      8.3770      9.3339      10.772      12.917      15.621      18.470    
  20.956      22.637      14.304      14.022      13.232      12.099      10.861      9.7546      8.8988      8.2160    
  7.5718      6.9929      6.5266      6.1772      5.9359      5.7788      5.6842      5.6341      5.6188      5.6341    
  5.6842      5.7788      5.9359      6.1772      6.5266      6.9929      7.5718      8.2160      8.8988      9.7546    
  10.861      12.099      13.232      14.022      9.7915      9.6907      9.4142      9.0298      8.6145      8.2056    
  7.7813      7.3271      6.8972      6.5266      6.2278      6.0042      5.8430      5.7312      5.6581      5.6172    
  5.6038      5.6172      5.6581      5.7312      5.8430      6.0042      6.2278      6.5266      6.8972      7.3271    
  7.7813      8.2056      8.6145      9.0298      9.4142      9.6907      7.8661      7.8371      7.7529      7.6167    
  7.4280      7.1860      6.9120      6.6427      6.3927      6.1772      6.0042      5.8682      5.7627      5.6838    
  5.6281      5.5940      5.5824      5.5940      5.6281      5.6838      5.7627      5.8682      6.0042      6.1772    
  6.3927      6.6427      6.9120      7.1860      7.4280      7.6167      7.7529      7.8371      6.8178      6.8024    
  6.7554      6.6760      6.5683      6.4432      6.3089      6.1710      6.0452      5.9359      5.8430      5.7627    
  5.6952      5.6392      5.5941      5.5641      5.5534      5.5641      5.5941      5.6392      5.6952      5.7627    
  5.8430      5.9359      6.0452      6.1710      6.3089      6.4432      6.5683      6.6760      6.7554      6.8024    
  6.0929      6.0889      6.0763      6.0548      6.0225      5.9785      5.9272      5.8777      5.8268      5.7788    
  5.7312      5.6838      5.6392      5.5954      5.5570      5.5301      5.5206      5.5301      5.5570      5.5954    
  5.6392      5.6838      5.7312      5.7788      5.8268      5.8777      5.9272      5.9785      6.0225      6.0548    
  6.0763      6.0889      5.6797      5.6825      5.6901      5.6995      5.7085      5.7161      5.7192      5.7126    
  5.7013      5.6842      5.6581      5.6281      5.5941      5.5570      5.5231      5.4996      5.4911      5.4996    
  5.5231      5.5570      5.5941      5.6281      5.6581      5.6842      5.7013      5.7126      5.7192      5.7161    
  5.7085      5.6995      5.6901      5.6825      5.4712      5.4786      5.4996      5.5301      5.5641      5.5940    
  5.6172      5.6341      5.6395      5.6341      5.6172      5.5940      5.5641      5.5301      5.4996      5.4786    
  5.4712      5.4786      5.4996      5.5301      5.5641      5.5940      5.6172      5.6341      5.6395      5.6341    
  5.6172      5.5940      5.5641      5.5301      5.4996      5.4786      5.4154      5.4235      5.4466      5.4797    
  5.5183      5.5573      5.5907      5.6107      5.6209      5.6188      5.6038      5.5824      5.5534      5.5206    
  5.4911      5.4712      5.4640      5.4712      5.4911      5.5206      5.5534      5.5824      5.6038      5.6188    
  5.6209      5.6107      5.5907      5.5573      5.5183      5.4797      5.4466      5.4235      5.4712      5.4786    
  5.4996      5.5301      5.5641      5.5940      5.6172      5.6341      5.6395      5.6341      5.6172      5.5940    
  5.5641      5.5301      5.4996      5.4786      5.4712      5.4786      5.4996      5.5301      5.5641      5.5940    
  5.6172      5.6341      5.6395      5.6341      5.6172      5.5940      5.5641      5.5301      5.4996      5.4786    
  5.6797      5.6825      5.6901      5.6995      5.7085      5.7161      5.7192      5.7126      5.7013      5.6842    
  5.6581      5.6281      5.5941      5.5570      5.5231      5.4996      5.4911      5.4996      5.5231      5.5570    
  5.5941      5.6281      5.6581      5.6842      5.7013      5.7126      5.7192      5.7161      5.7085      5.6995    
  5.6901      5.6825      6.0929      6.0889      6.0763      6.0548      6.0225      5.9785      5.9272      5.8777    
  5.8268      5.7788      5.7312      5.6838      5.6392      5.5954      5.5570      5.5301      5.5206      5.5301    
  5.5570      5.5954      5.6392      5.6838      5.7312      5.7788      5.8268      5.8777      5.9272      5.9785    
  6.0225      6.0548      6.0763      6.0889      6.8178      6.8024      6.7554      6.6760      6.5683      6.4432    
  6.3089      6.1710      6.0452      5.9359      5.8430      5.7627      5.6952      5.6392      5.5941      5.5641    
  5.5534      5.5641      5.5941      5.6392      5.6952      5.7627      5.8430      5.9359      6.0452      6.1710    
  6.3089      6.4432      6.5683      6.6760      6.7554      6.8024      7.8661      7.8371      7.7529      7.6167    
  7.4280      7.1860      6.9120      6.6427      6.3927      6.1772      6.0042      5.8682      5.7627      5.6838    
  5.6281      5.5940      5.5824      5.5940      5.6281      5.6838      5.7627      5.8682      6.0042      6.1772    
  6.3927      6.6427      6.9120      7.1860      7.4280      7.6167      7.7529      7.8371      9.7915      9.6907    
  9.4142      9.0298      8.6145      8.2056      7.7813      7.3271      6.8972      6.5266      6.2278      6.0042    
  5.8430      5.7312      5.6581      5.6172      5.6038      5.6172      5.6581      5.7312      5.8430      6.0042    
  6.2278      6.5266      6.8972      7.3271      7.7813      8.2056      8.6145      9.0298      9.4142      9.6907    
  14.304      14.022      13.232      12.099      10.861      9.7546      8.8988      8.2160      7.5718      6.9929    
  6.5266      6.1772      5.9359      5.7788      5.6842      5.6341      5.6188      5.6341      5.6842      5.7788    
  5.9359      6.1772      6.5266      6.9929      7.5718      8.2160      8.8988      9.7546      10.861      12.099    
  13.232      14.022      23.229      22.637      20.956      18.470      15.621      12.917      10.772      9.3339    
  8.3770      7.5718      6.8972      6.3927      6.0452      5.8268      5.7013      5.6395      5.6209      5.6395    
  5.7013      5.8268      6.0452      6.3927      6.8972      7.5718      8.3770      9.3339      10.772      12.917    
  15.621      18.470      20.956      22.637      37.929      36.873      33.858      29.331      24.007      18.742    
  14.319      11.190      9.3339      8.2160      7.3271      6.6427      6.1710      5.8777      5.7126      5.6341    
  5.6107      5.6341      5.7126      5.8777      6.1710      6.6427      7.3271      8.2160      9.3339      11.190    
  14.319      18.742      24.007      29.331      33.858      36.873      58.854      57.170      52.344      45.065    
  36.399      27.639      20.001      14.319      10.772      8.8988      7.7813      6.9120      6.3089      5.9272    
  5.7192      5.6172      5.5907      5.6172      5.7192      5.9272      6.3089      6.9120      7.7813      8.8988    
  10.772      14.319      20.001      27.639      36.399      45.065      52.344      57.170      85.204      82.722    
  75.627      64.936      52.186      39.187      27.639      18.742      12.917      9.7546      8.2056      7.1860    
  6.4432      5.9785      5.7161      5.5940      5.5573      5.5940      5.7161      5.9785      6.4432      7.1860    
  8.2056      9.7546      12.917      18.742      27.639      39.187      52.186      64.936      75.627      82.722    
  114.79      111.39      101.68      87.121      69.827      52.186      36.399      24.007      15.621      10.861    
  8.6145      7.4280      6.5683      6.0225      5.7085      5.5641      5.5183      5.5641      5.7085      6.0225    
  6.5683      7.4280      8.6145      10.861      15.621      24.007      36.399      52.186      69.827      87.121    
  101.68      111.39      144.24      139.87      127.47      108.96      87.121      64.936      45.065      29.331    
  18.470      12.099      9.0298      7.6167      6.6760      6.0548      5.6995      5.5301      5.4797      5.5301    
  5.6995      6.0548      6.6760      7.6167      9.0298      12.099      18.470      29.331      45.065      64.936    
  87.121      108.96      127.47      139.87      169.46      164.24      149.44      127.47      101.68      75.627    
  52.344      33.858      20.956      13.232      9.4142      7.7529      6.7554      6.0763      5.6901      5.4996    
  5.4466      5.4996      5.6901      6.0763      6.7554      7.7529      9.4142      13.232      20.956      33.858    
  52.344      75.627      101.68      127.47      149.44      164.24      186.53      180.71      164.24      139.87    
  111.39      82.722      57.170      36.873      22.637      14.022      9.6907      7.8371      6.8024      6.0889    
  5.6825      5.4786      5.4235      5.4786      5.6825      6.0889      6.8024      7.8371      9.6907      14.022    
  22.637      36.873      57.170      82.722      111.39      139.87      164.24      180.71      174.88      169.46    
  154.14      131.42      104.78      77.896      53.889      34.825      21.492      13.481      9.4985      7.7777    
  6.7688      6.0786      5.6860      5.4911      5.4375      5.4911      5.6860      6.0786      6.7688      7.7777    
  9.4985      13.481      21.492      34.825      53.889      77.896      104.78      131.42      154.14      169.46    
  169.46      164.24      149.44      127.47      101.68      75.627      52.344      33.858      20.956      13.232    
  9.4142      7.7529      6.7554      6.0763      5.6901      5.4996      5.4466      5.4996      5.6901      6.0763    
  6.7554      7.7529      9.4142      13.232      20.956      33.858      52.344      75.627      101.68      127.47    
  149.44      164.24      154.14      149.44      136.10      116.24      92.849      69.138      47.922      31.104    
  19.438      12.540      9.1829      7.6788      6.7142      6.0691      5.7009      5.5231      5.4715      5.5231    
  5.7009      6.0691      6.7142      7.6788      9.1829      12.540      19.438      31.104      47.922      69.138    
  92.849      116.24      136.10      149.44      131.42      127.47      116.24      99.450      79.580      59.364    
  41.265      26.984      17.208      11.553      8.8606      7.5550      6.6445      6.0546      5.7155      5.5570    
  5.5080      5.5570      5.7155      6.0546      6.6445      7.5550      8.8606      11.553      17.208      26.984    
  41.265      59.364      79.580      99.450      116.24      127.47      104.78      101.68      92.849      79.580    
  63.806      47.722      33.369      22.171      14.676      10.487      8.5046      7.3775      6.5503      6.0301    
  5.7311      5.5941      5.5506      5.5941      5.7311      6.0301      6.5503      7.3775      8.5046      10.487    
  14.676      22.171      33.369      47.722      63.806      79.580      92.849      101.68      77.896      75.627    
  69.138      59.364      47.722      35.890      25.432      17.455      12.302      9.5400      8.1353      7.1488    
  6.4399      5.9944      5.7460      5.6281      5.5946      5.6281      5.7460      5.9944      6.4399      7.1488    
  8.1353      9.5400      12.302      17.455      25.432      35.890      47.722      59.364      69.138      75.627    
  53.889      52.344      47.922      41.265      33.369      25.432      18.578      13.543      10.444      8.7933    
  7.7306      6.8949      6.3189      5.9547      5.7556      5.6581      5.6325      5.6581      5.7556      5.9547    
  6.3189      6.8949      7.7306      8.7933      10.444      13.543      18.578      25.432      33.369      41.265    
  47.922      52.344      34.825      33.858      31.104      26.984      22.171      17.455      13.543      10.814    
  9.1963      8.1552      7.2983      6.6462      6.1957      5.9167      5.7588      5.6842      5.6613      5.6842    
  5.7588      5.9167      6.1957      6.6462      7.2983      8.1552      9.1963      10.814      13.543      17.455    
  22.171      26.984      31.104      33.858      21.492      20.956      19.438      17.208      14.676      12.302    
  10.444      9.1963      8.3117      7.5366      6.8950      6.4153      6.0871      5.8799      5.7608      5.7013    
  5.6838      5.7013      5.7608      5.8799      6.0871      6.4153      6.8950      7.5366      8.3117      9.1963    
  10.444      12.302      14.676      17.208      19.438      20.956      13.481      13.232      12.540      11.553    
  10.487      9.5400      8.7933      8.1552      7.5366      6.9886      6.5480      6.2211      5.9945      5.8471    
  5.7588      5.7126      5.6984      5.7126      5.7588      5.8471      5.9945      6.2211      6.5480      6.9886    
  7.5366      8.1552      8.7933      9.5400      10.487      11.553      12.540      13.232      9.4985      9.4142    
  9.1829      8.8606      8.5046      8.1353      7.7306      7.2983      6.8950      6.5480      6.2723      6.0658    
  5.9191      5.8199      5.7556      5.7192      5.7072      5.7192      5.7556      5.8199      5.9191      6.0658    
  6.2723      6.5480      6.8950      7.2983      7.7306      8.1353      8.5046      8.8606      9.1829      9.4142    
  7.7777      7.7529      7.6788      7.5550      7.3775      7.1488      6.8949      6.6462      6.4153      6.2211    
  6.0658      5.9475      5.8602      5.7941      5.7460      5.7161      5.7061      5.7161      5.7460      5.7941    
  5.8602      5.9475      6.0658      6.2211      6.4153      6.6462      6.8949      7.1488      7.3775      7.5550    
  7.6788      7.7529      6.7688      6.7554      6.7142      6.6445      6.5503      6.4399      6.3189      6.1957    
  6.0871      5.9945      5.9191      5.8602      5.8096      5.7658      5.7311      5.7085      5.7005      5.7085    