unknown system                          
   1.00000000000000     
     2.801194   -0.000000    0.000000
     0.000000    2.801194    0.000000
    -0.000000   -0.000000    2.801194
   Fe
     2
Direct
  0.000000  0.000000 -0.000000
  0.500000  0.500000  0.500000
 
   32   32   32
 0.18591084211E+03 0.18030182314E+03 0.16442400670E+03 0.14088021608E+03 0.11323149368E+03
 0.85186443364E+02 0.59863233329E+02 0.39358789151E+02 0.24547301185E+02 0.15200653906E+02
 0.10223768635E+02 0.80544992354E+01 0.70275357701E+01 0.63158698346E+01 0.58886210844E+01
 0.56637648731E+01 0.56020922639E+01 0.56637648731E+01 0.58886210844E+01 0.63158698346E+01
 0.70275357701E+01 0.80544992354E+01 0.10223768635E+02 0.15200653906E+02 0.24547301185E+02
 0.39358789151E+02 0.59863233329E+02 0.85186443364E+02 0.11323149368E+03 0.14088021608E+03
 0.16442400670E+03 0.18030182314E+03 0.18030182314E+03 0.17488619076E+03 0.15954722854E+03
 0.13677724954E+03 0.11000030340E+03 0.82801569716E+02 0.58218008168E+02 0.38304632134E+02
 0.23934829255E+02 0.14894184158E+02 0.10104159262E+02 0.80223738429E+01 0.70141323578E+01
 0.63110951453E+01 0.58909417686E+01 0.56700314050E+01 0.56095510964E+01 0.56700314050E+01
 0.58909417686E+01 0.63110951453E+01 0.70141323578E+01 0.80223738429E+01 0.10104159262E+02
 0.14894184158E+02 0.23934829255E+02 0.38304632134E+02 0.58218008168E+02 0.82801569716E+02
 0.11000030340E+03 0.13677724954E+03 0.15954722854E+03 0.17488619076E+03 0.16442400670E+03
 0.15954722854E+03 0.14571128363E+03 0.12510862631E+03 0.10078497016E+03 0.75980535958E+02
 0.53498861242E+02 0.35285509663E+02 0.22191907316E+02 0.14030355498E+02 0.97752467122E+01
 0.79313465328E+01 0.69727676529E+01 0.62962695122E+01 0.58966685585E+01 0.56873014295E+01
 0.56302742958E+01 0.56873014295E+01 0.58966685585E+01 0.62962695122E+01 0.69727676529E+01
 0.79313465328E+01 0.97752467122E+01 0.14030355498E+02 0.22191907316E+02 0.35285509663E+02
 0.53498861242E+02 0.75980535958E+02 0.10078497016E+03 0.12510862631E+03 0.14571128363E+03
 0.15954722854E+03 0.14088021608E+03 0.13677724954E+03 0.12510862631E+03 0.10764887991E+03
 0.86918693283E+02 0.65666905302E+02 0.46353797633E+02 0.30728456842E+02 0.19592929008E+02
 0.12775075930E+02 0.93153710760E+01 0.77953292109E+01 0.68994550818E+01 0.62716245495E+01
 0.59026861050E+01 0.57133579397E+01 0.56599305730E+01 0.57133579397E+01 0.59026861050E+01
 0.62716245495E+01 0.68994550818E+01 0.77953292109E+01 0.93153710760E+01 0.12775075930E+02
 0.19592929008E+02 0.30728456842E+02 0.46353797633E+02 0.65666905302E+02 0.86918693283E+02
 0.10764887991E+03 0.12510862631E+03 0.13677724954E+03 0.11323149368E+03 0.11000030340E+03
 0.10078497016E+03 0.86918693283E+02 0.70355592821E+02 0.53294401063E+02 0.37782154717E+02
 0.25310574510E+02 0.16572128394E+02 0.11373121565E+02 0.88263173131E+01 0.76196181815E+01
 0.67945688372E+01 0.62362347064E+01 0.59059039564E+01 0.57428423360E+01 0.56931820067E+01
 0.57428423360E+01 0.59059039564E+01 0.62362347064E+01 0.67945688372E+01 0.76196181815E+01
 0.88263173131E+01 0.11373121565E+02 0.16572128394E+02 0.25310574510E+02 0.37782154717E+02
 0.53294401063E+02 0.70355592821E+02 0.86918693283E+02 0.10078497016E+03 0.11000030340E+03
 0.85186443364E+02 0.82801569716E+02 0.75980535958E+02 0.65666905302E+02 0.53294401063E+02
 0.40536073122E+02 0.28997652162E+02 0.19856650349E+02 0.13635400065E+02 0.10088955258E+02
 0.83783978932E+01 0.73989309948E+01 0.66655179420E+01 0.61891790794E+01 0.59055535028E+01
 0.57698511354E+01 0.57260686682E+01 0.57698511354E+01 0.59055535028E+01 0.61891790794E+01
 0.66655179420E+01 0.73989309948E+01 0.83783978932E+01 0.10088955258E+02 0.13635400065E+02
 0.19856650349E+02 0.28997652162E+02 0.40536073122E+02 0.53294401063E+02 0.65666905302E+02
 0.75980535958E+02 0.82801569716E+02 0.59863233329E+02 0.58218008168E+02 0.53498861242E+02
 0.46353797633E+02 0.37782154717E+02 0.28997652162E+02 0.21167285646E+02 0.15148660743E+02
 0.11226448133E+02 0.90977181738E+01 0.79669216872E+01 0.71352716602E+01 0.65263686507E+01
 0.61302423090E+01 0.59016715539E+01 0.57878189624E+01 0.57550456019E+01 0.57878189624E+01
 0.59016715539E+01 0.61302423090E+01 0.65263686507E+01 0.71352716602E+01 0.79669216872E+01
 0.90977181738E+01 0.11226448133E+02 0.15148660743E+02 0.21167285646E+02 0.28997652162E+02
 0.37782154717E+02 0.46353797633E+02 0.53498861242E+02 0.58218008168E+02 0.39358789151E+02
 0.38304632134E+02 0.35285509663E+02 0.30728456842E+02 0.25310574510E+02 0.19856650349E+02
 0.15148660743E+02 0.11692196023E+02 0.95667686580E+01 0.83847200397E+01 0.75405366193E+01
 0.68617932981E+01 0.63812431513E+01 0.60689276321E+01 0.58896251496E+01 0.57989652398E+01
 0.57731727626E+01 0.57989652398E+01 0.58896251496E+01 0.60689276321E+01 0.63812431513E+01
 0.68617932981E+01 0.75405366193E+01 0.83847200397E+01 0.95667686580E+01 0.11692196023E+02
 0.15148660743E+02 0.19856650349E+02 0.25310574510E+02 0.30728456842E+02 0.35285509663E+02
 0.38304632134E+02 0.24547301185E+02 0.23934829255E+02 0.22191907316E+02 0.19592929008E+02
 0.16572128394E+02 0.13635400065E+02 0.11226448133E+02 0.95667686580E+01 0.85416399990E+01
 0.77757311354E+01 0.71143016172E+01 0.66042982485E+01 0.62416408435E+01 0.60081317287E+01
 0.58691366031E+01 0.57997951179E+01 0.57779823272E+01 0.57997951179E+01 0.58691366031E+01
 0.60081317287E+01 0.62416408435E+01 0.66042982485E+01 0.71143016172E+01 0.77757311354E+01
 0.85416399990E+01 0.95667686580E+01 0.11226448133E+02 0.13635400065E+02 0.16572128394E+02
 0.19592929008E+02 0.22191907316E+02 0.23934829255E+02 0.15200653906E+02 0.14894184158E+02
 0.14030355498E+02 0.12775075930E+02 0.11373121565E+02 0.10088955258E+02 0.90977181738E+01
 0.83847200397E+01 0.77757311354E+01 0.72085897224E+01 0.67373318550E+01 0.63745583954E+01
 0.61173599105E+01 0.59468915157E+01 0.58441412868E+01 0.57896008398E+01 0.57731727626E+01
 0.57896008398E+01 0.58441412868E+01 0.59468915157E+01 0.61173599105E+01 0.63745583954E+01
 0.67373318550E+01 0.72085897224E+01 0.77757311354E+01 0.83847200397E+01 0.90977181738E+01
 0.10088955258E+02 0.11373121565E+02 0.12775075930E+02 0.14030355498E+02 0.14894184158E+02
 0.10223768635E+02 0.10104159262E+02 0.97752467122E+01 0.93153710760E+01 0.88263173131E+01
 0.83783978932E+01 0.79669216872E+01 0.75405366193E+01 0.71143016172E+01 0.67373318550E+01
 0.64248009400E+01 0.61844282424E+01 0.60100705069E+01 0.58904685786E+01 0.58126160068E+01
 0.57692457576E+01 0.57550456019E+01 0.57692457576E+01 0.58126160068E+01 0.58904685786E+01
 0.60100705069E+01 0.61844282424E+01 0.64248009400E+01 0.67373318550E+01 0.71143016172E+01
 0.75405366193E+01 0.79669216872E+01 0.83783978932E+01 0.88263173131E+01 0.93153710760E+01
 0.97752467122E+01 0.10104159262E+02 0.80544992354E+01 0.80223738429E+01 0.79313465328E+01
 0.77953292109E+01 0.76196181815E+01 0.73989309948E+01 0.71352716602E+01 0.68617932981E+01
 0.66042982485E+01 0.63745583954E+01 0.61844282424E+01 0.60346317637E+01 0.59202370402E+01
 0.58338955090E+01 0.57737767813E+01 0.57378172548E+01 0.57260686682E+01 0.57378172548E+01
 0.57737767813E+01 0.58338955090E+01 0.59202370402E+01 0.60346317637E+01 0.61844282424E+01
 0.63745583954E+01 0.66042982485E+01 0.68617932981E+01 0.71352716602E+01 0.73989309948E+01
 0.76196181815E+01 0.77953292109E+01 0.79313465328E+01 0.80223738429E+01 0.70275357701E+01
 0.70141323578E+01 0.69727676529E+01 0.68994550818E+01 0.67945688372E+01 0.66655179420E+01
 0.65263686507E+01 0.63812431513E+01 0.62416408435E+01 0.61173599105E+01 0.60100705069E+01
 0.59202370402E+01 0.58427878930E+01 0.57801588894E+01 0.57329463247E+01 0.57035274297E+01
 0.56931820067E+01 0.57035274297E+01 0.57329463247E+01 0.57801588894E+01 0.58427878930E+01
 0.59202370402E+01 0.60100705069E+01 0.61173599105E+01 0.62416408435E+01 0.63812431513E+01
 0.65263686507E+01 0.66655179420E+01 0.67945688372E+01 0.68994550818E+01 0.69727676529E+01
 0.70141323578E+01 0.63158698346E+01 0.63110951453E+01 0.62962695122E+01 0.62716245495E+01
 0.62362347064E+01 0.61891790794E+01 0.61302423090E+01 0.60689276321E+01 0.60081317287E+01
 0.59468915157E+01 0.58904685786E+01 0.58338955090E+01 0.57801588894E+01 0.57326125243E+01
 0.56944277673E+01 0.56688521096E+01 0.56599305730E+01 0.56688521096E+01 0.56944277673E+01
 0.57326125243E+01 0.57801588894E+01 0.58338955090E+01 0.58904685786E+01 0.59468915157E+01
 0.60081317287E+01 0.60689276321E+01 0.61302423090E+01 0.61891790794E+01 0.62362347064E+01
 0.62716245495E+01 0.62962695122E+01 0.63110951453E+01 0.58886210844E+01 0.58909417686E+01
 0.58966685585E+01 0.59026861050E+01 0.59059039564E+01 0.59055535028E+01 0.59016715539E+01
 0.58896251496E+01 0.58691366031E+01 0.58441412868E+01 0.58126160068E+01 0.57737767813E+01
 0.57329463247E+01 0.56944277673E+01 0.56612746313E+01 0.56384765303E+01 0.56302742958E+01
 0.56384765303E+01 0.56612746313E+01 0.56944277673E+01 0.57329463247E+01 0.57737767813E+01
 0.58126160068E+01 0.58441412868E+01 0.58691366031E+01 0.58896251496E+01 0.59016715539E+01
 0.59055535028E+01 0.59059039564E+01 0.59026861050E+01 0.58966685585E+01 0.58909417686E+01
 0.56637648731E+01 0.56700314050E+01 0.56873014295E+01 0.57133579397E+01 0.57428423360E+01
 0.57698511354E+01 0.57878189624E+01 0.57989652398E+01 0.57997951179E+01 0.57896008398E+01
 0.57692457576E+01 0.57378172548E+01 0.57035274297E+01 0.56688521096E+01 0.56384765303E+01
 0.56170597854E+01 0.56095510964E+01 0.56170597854E+01 0.56384765303E+01 0.56688521096E+01
 0.57035274297E+01 0.57378172548E+01 0.57692457576E+01 0.57896008398E+01 0.57997951179E+01
 0.57989652398E+01 0.57878189624E+01 0.57698511354E+01 0.57428423360E+01 0.57133579397E+01
 0.56873014295E+01 0.56700314050E+01 0.56020922639E+01 0.56095510964E+01 0.56302742958E+01
 0.56599305730E+01 0.56931820067E+01 0.57260686682E+01 0.57550456019E+01 0.57731727626E+01
 0.57779823272E+01 0.57731727626E+01 0.57550456019E+01 0.57260686682E+01 0.56931820067E+01
 0.56599305730E+01 0.56302742958E+01 0.56095510964E+01 0.56020922639E+01 0.56095510964E+01
 0.56302742958E+01 0.56599305730E+01 0.56931820067E+01 0.57260686682E+01 0.57550456019E+01
 0.57731727626E+01 0.57779823272E+01 0.57731727626E+01 0.57550456019E+01 0.57260686682E+01
 0.56931820067E+01 0.56599305730E+01 0.56302742958E+01 0.56095510964E+01 0.56637648731E+01
 0.56700314050E+01 0.56873014295E+01 0.57133579397E+01 0.57428423360E+01 0.57698511354E+01
 0.57878189624E+01 0.57989652398E+01 0.57997951179E+01 0.57896008398E+01 0.57692457576E+01
 0.57378172548E+01 0.57035274297E+01 0.56688521096E+01 0.56384765303E+01 0.56170597854E+01
 0.56095510964E+01 0.56170597854E+01 0.56384765303E+01 0.56688521096E+01 0.57035274297E+01
 0.57378172548E+01 0.57692457576E+01 0.57896008398E+01 0.57997951179E+01 0.57989652398E+01
 0.57878189624E+01 0.57698511354E+01 0.57428423360E+01 0.57133579397E+01 0.56873014295E+01
 0.56700314050E+01 0.58886210844E+01 0.58909417686E+01 0.58966685585E+01 0.59026861050E+01
 0.59059039564E+01 0.59055535028E+01 0.59016715539E+01 0.58896251496E+01 0.58691366031E+01
 0.58441412868E+01 0.58126160068E+01 0.57737767813E+01 0.57329463247E+01 0.56944277673E+01
 0.56612746313E+01 0.56384765303E+01 0.56302742958E+01 0.56384765303E+01 0.56612746313E+01
 0.56944277673E+01 0.57329463247E+01 0.57737767813E+01 0.58126160068E+01 0.58441412868E+01
 0.58691366031E+01 0.58896251496E+01 0.59016715539E+01 0.59055535028E+01 0.59059039564E+01
 0.59026861050E+01 0.58966685585E+01 0.58909417686E+01 0.63158698346E+01 0.63110951453E+01
 0.62962695122E+01 0.62716245495E+01 0.62362347064E+01 0.61891790794E+01 0.61302423090E+01
 0.60689276321E+01 0.60081317287E+01 0.59468915157E+01 0.58904685786E+01 0.58338955090E+01
 0.57801588894E+01 0.57326125243E+01 0.56944277673E+01 0.56688521096E+01 0.56599305730E+01
 0.56688521096E+01 0.56944277673E+01 0.57326125243E+01 0.57801588894E+01 0.58338955090E+01
 0.58904685786E+01 0.59468915157E+01 0.60081317287E+01 0.60689276321E+01 0.61302423090E+01
 0.61891790794E+01 0.62362347064E+01 0.62716245495E+01 0.62962695122E+01 0.63110951453E+01
 0.70275357701E+01 0.70141323578E+01 0.69727676529E+01 0.68994550818E+01 0.67945688372E+01
 0.66655179420E+01 0.65263686507E+01 0.63812431513E+01 0.62416408435E+01 0.61173599105E+01
 0.60100705069E+01 0.59202370402E+01 0.58427878930E+01 0.57801588894E+01 0.57329463247E+01
 0.57035274297E+01 0.56931820067E+01 0.57035274297E+01 0.57329463247E+01 0.57801588894E+01
 0.58427878930E+01 0.59202370402E+01 0.60100705069E+01 0.61173599105E+01 0.62416408435E+01
 0.63812431513E+01 0.65263686507E+01 0.66655179420E+01 0.67945688372E+01 0.68994550818E+01
 0.69727676529E+01 0.70141323578E+01 0.80544992354E+01 0.80223738429E+01 0.79313465328E+01
 0.77953292109E+01 0.76196181815E+01 0.73989309948E+01 0.71352716602E+01 0.68617932981E+01
 0.66042982485E+01 0.63745583954E+01 0.61844282424E+01 0.60346317637E+01 0.59202370402E+01
 0.58338955090E+01 0.57737767813E+01 0.57378172548E+01 0.57260686682E+01 0.57378172548E+01
 0.57737767813E+01 0.58338955090E+01 0.59202370402E+01 0.60346317637E+01 0.61844282424E+01
 0.63745583954E+01 0.66042982485E+01 0.68617932981E+01 0.71352716602E+01 0.73989309948E+01
 0.76196181815E+01 0.77953292109E+01 0.79313465328E+01 0.80223738429E+01 0.10223768635E+02
 0.10104159262E+02 0.97752467122E+01 0.93153710760E+01 0.88263173131E+01 0.83783978932E+01
 0.79669216872E+01 0.75405366193E+01 0.71143016172E+01 0.67373318550E+01 0.64248009400E+01
 0.61844282424E+01 0.60100705069E+01 0.58904685786E+01 0.58126160068E+01 0.57692457576E+01
 0.57550456019E+01 0.57692457576E+01 0.58126160068E+01 0.58904685786E+01 0.60100705069E+01
 0.61844282424E+01 0.64248009400E+01 0.67373318550E+01 0.71143016172E+01 0.75405366193E+01
 0.79669216872E+01 0.83783978932E+01 0.88263173131E+01 0.93153710760E+01 0.97752467122E+01
 0.10104159262E+02 0.15200653906E+02 0.14894184158E+02 0.14030355498E+02 0.12775075930E+02
 0.11373121565E+02 0.10088955258E+02 0.90977181738E+01 0.83847200397E+01 0.77757311354E+01
 0.72085897224E+01 0.67373318550E+01 0.63745583954E+01 0.61173599105E+01 0.59468915157E+01
 0.58441412868E+01 0.57896008398E+01 0.57731727626E+01 0.57896008398E+01 0.58441412868E+01
 0.59468915157E+01 0.61173599105E+01 0.63745583954E+01 0.67373318550E+01 0.72085897224E+01
 0.77757311354E+01 0.83847200397E+01 0.90977181738E+01 0.10088955258E+02 0.11373121565E+02
 0.12775075930E+02 0.14030355498E+02 0.14894184158E+02 0.24547301185E+02 0.23934829255E+02
 0.22191907316E+02 0.19592929008E+02 0.16572128394E+02 0.13635400065E+02 0.11226448133E+02
 0.95667686580E+01 0.85416399990E+01 0.77757311354E+01 0.71143016172E+01 0.66042982485E+01
 0.62416408435E+01 0.60081317287E+01 0.58691366031E+01 0.57997951179E+01 0.57779823272E+01
 0.57997951179E+01 0.58691366031E+01 0.60081317287E+01 0.62416408435E+01 0.66042982485E+01
 0.71143016172E+01 0.77757311354E+01 0.85416399990E+01 0.95667686580E+01 0.11226448133E+02
 0.13635400065E+02 0.16572128394E+02 0.19592929008E+02 0.22191907316E+02 0.23934829255E+02
 0.39358789151E+02 0.38304632134E+02 0.35285509663E+02 0.30728456842E+02 0.25310574510E+02
 0.19856650349E+02 0.15148660743E+02 0.11692196023E+02 0.95667686580E+01 0.83847200397E+01
 0.75405366193E+01 0.68617932981E+01 0.63812431513E+01 0.60689276321E+01 0.58896251496E+01
 0.57989652398E+01 0.57731727626E+01 0.57989652398E+01 0.58896251496E+01 0.60689276321E+01
 0.63812431513E+01 0.68617932981E+01 0.75405366193E+01 0.83847200397E+01 0.95667686580E+01
 0.11692196023E+02 0.15148660743E+02 0.19856650349E+02 0.25310574510E+02 0.30728456842E+02
 0.35285509663E+02 0.38304632134E+02 0.59863233329E+02 0.58218008168E+02 0.53498861242E+02
 0.46353797633E+02 0.37782154717E+02 0.28997652162E+02 0.21167285646E+02 0.15148660743E+02
 0.11226448133E+02 0.90977181738E+01 0.79669216872E+01 0.71352716602E+01 0.65263686507E+01
 0.61302423090E+01 0.59016715539E+01 0.57878189624E+01 0.57550456019E+01 0.57878189624E+01
 0.59016715539E+01 0.61302423090E+01 0.65263686507E+01 0.71352716602E+01 0.79669216872E+01
 0.90977181738E+01 0.11226448133E+02 0.15148660743E+02 0.21167285646E+02 0.28997652162E+02
 0.37782154717E+02 0.46353797633E+02 0.53498861242E+02 0.58218008168E+02 0.85186443364E+02
 0.82801569716E+02 0.75980535958E+02 0.65666905302E+02 0.53294401063E+02 0.40536073122E+02
 0.28997652162E+02 0.19856650349E+02 0.13635400065E+02 0.10088955258E+02 0.83783978932E+01
 0.73989309948E+01 0.66655179420E+01 0.61891790794E+01 0.59055535028E+01 0.57698511354E+01
 0.57260686682E+01 0.57698511354E+01 0.59055535028E+01 0.61891790794E+01 0.66655179420E+01
 0.73989309948E+01 0.83783978932E+01 0.10088955258E+02 0.13635400065E+02 0.19856650349E+02
 0.28997652162E+02 0.40536073122E+02 0.53294401063E+02 0.65666905302E+02 0.75980535958E+02
 0.82801569716E+02 0.11323149368E+03 0.11000030340E+03 0.10078497016E+03 0.86918693283E+02
 0.70355592821E+02 0.53294401063E+02 0.37782154717E+02 0.25310574510E+02 0.16572128394E+02
 0.11373121565E+02 0.88263173131E+01 0.76196181815E+01 0.67945688372E+01 0.62362347064E+01
 0.59059039564E+01 0.57428423360E+01 0.56931820067E+01 0.57428423360E+01 0.59059039564E+01
 0.62362347064E+01 0.67945688372E+01 0.76196181815E+01 0.88263173131E+01 0.11373121565E+02
 0.16572128394E+02 0.25310574510E+02 0.37782154717E+02 0.53294401063E+02 0.70355592821E+02
 0.86918693283E+02 0.10078497016E+03 0.11000030340E+03 0.14088021608E+03 0.13677724954E+03
 0.12510862631E+03 0.10764887991E+03 0.86918693283E+02 0.65666905302E+02 0.46353797633E+02
 0.30728456842E+02 0.19592929008E+02 0.12775075930E+02 0.93153710760E+01 0.77953292109E+01
 0.68994550818E+01 0.62716245495E+01 0.59026861050E+01 0.57133579397E+01 0.56599305730E+01
 0.57133579397E+01 0.59026861050E+01 0.62716245495E+01 0.68994550818E+01 0.77953292109E+01
 0.93153710760E+01 0.12775075930E+02 0.19592929008E+02 0.30728456842E+02 0.46353797633E+02
 0.65666905302E+02 0.86918693283E+02 0.10764887991E+03 0.12510862631E+03 0.13677724954E+03
 0.16442400670E+03 0.15954722854E+03 0.14571128363E+03 0.12510862631E+03 0.10078497016E+03
 0.75980535958E+02 0.53498861242E+02 0.35285509663E+02 0.22191907316E+02 0.14030355498E+02
 0.97752467122E+01 0.79313465328E+01 0.69727676529E+01 0.62962695122E+01 0.58966685585E+01
 0.56873014295E+01 0.56302742958E+01 0.56873014295E+01 0.58966685585E+01 0.62962695122E+01
 0.69727676529E+01 0.79313465328E+01 0.97752467122E+01 0.14030355498E+02 0.22191907316E+02
 0.35285509663E+02 0.53498861242E+02 0.75980535958E+02 0.10078497016E+03 0.12510862631E+03
 0.14571128363E+03 0.15954722854E+03 0.18030182314E+03 0.17488619076E+03 0.15954722854E+03
 0.13677724954E+03 0.11000030340E+03 0.82801569716E+02 0.58218008168E+02 0.38304632134E+02
 0.23934829255E+02 0.14894184158E+02 0.10104159262E+02 0.80223738429E+01 0.70141323578E+01
 0.63110951453E+01 0.58909417686E+01 0.56700314050E+01 0.56095510964E+01 0.56700314050E+01
 0.58909417686E+01 0.63110951453E+01 0.70141323578E+01 0.80223738429E+01 0.10104159262E+02
 0.14894184158E+02 0.23934829255E+02 0.38304632134E+02 0.58218008168E+02 0.82801569716E+02
 0.11000030340E+03 0.13677724954E+03 0.15954722854E+03 0.17488619076E+03 0.18030182314E+03
 0.17488619076E+03 0.15954722854E+03 0.13677724954E+03 0.11000030340E+03 0.82801569716E+02
 0.58218008168E+02 0.38304632134E+02 0.23934829255E+02 0.14894184158E+02 0.10104159262E+02
 0.80223738429E+01 0.70141323578E+01 0.63110951453E+01 0.58909417686E+01 0.56700314050E+01
 0.56095510964E+01 0.56700314050E+01 0.58909417686E+01 0.63110951453E+01 0.70141323578E+01
 0.80223738429E+01 0.10104159262E+02 0.14894184158E+02 0.23934829255E+02 0.38304632134E+02
 0.58218008168E+02 0.82801569716E+02 0.11000030340E+03 0.13677724954E+03 0.15954722854E+03
 0.17488619076E+03 0.17488619076E+03 0.16965552241E+03 0.15483251480E+03 0.13280469200E+03
 0.10686621077E+03 0.80484184714E+02 0.56617443635E+02 0.37278878092E+02 0.23340768045E+02
 0.14598947382E+02 0.99906456534E+01 0.79921848776E+01 0.70012656323E+01 0.63068679740E+01
 0.58934378219E+01 0.56764712808E+01 0.56170597854E+01 0.56764712808E+01 0.58934378219E+01
 0.63068679740E+01 0.70012656323E+01 0.79921848776E+01 0.99906456534E+01 0.14598947382E+02
 0.23340768045E+02 0.37278878092E+02 0.56617443635E+02 0.80484184714E+02 0.10686621077E+03
 0.13280469200E+03 0.15483251480E+03 0.16965552241E+03 0.15954722854E+03 0.15483251480E+03
 0.14144981641E+03 0.12150234379E+03 0.97924946310E+02 0.73855686227E+02 0.52026767043E+02
 0.34343013683E+02 0.21651623059E+02 0.13767573050E+02 0.96791555766E+01 0.79062812358E+01
 0.69610979269E+01 0.62937205800E+01 0.59002145939E+01 0.56947590408E+01 0.56384765303E+01
 0.56947590408E+01 0.59002145939E+01 0.62937205800E+01 0.69610979269E+01 0.79062812358E+01
 0.96791555766E+01 0.13767573050E+02 0.21651623059E+02 0.34343013683E+02 0.52026767043E+02
 0.73855686227E+02 0.97924946310E+02 0.12150234379E+03 0.14144981641E+03 0.15483251480E+03
 0.13677724954E+03 0.13280469200E+03 0.12150234379E+03 0.10457729959E+03 0.84464974726E+02
 0.63832773475E+02 0.45079236130E+02 0.29916520149E+02 0.19137183993E+02 0.12562345760E+02
 0.92442377050E+01 0.77765117527E+01 0.68901798881E+01 0.62713163923E+01 0.59075109309E+01
 0.57217847523E+01 0.56688521096E+01 0.57217847523E+01 0.59075109309E+01 0.62713163923E+01
 0.68901798881E+01 0.77765117527E+01 0.92442377050E+01 0.12562345760E+02 0.19137183993E+02
 0.29916520149E+02 0.45079236130E+02 0.63832773475E+02 0.84464974726E+02 0.10457729959E+03
 0.12150234379E+03 0.13280469200E+03 0.11000030340E+03 0.10686621077E+03 0.97924946310E+02
 0.84464974726E+02 0.68380534211E+02 0.51810674148E+02 0.36751236514E+02 0.24664231944E+02
 0.16221785951E+02 0.11221120834E+02 0.87817325637E+01 0.76056126314E+01 0.67885463536E+01
 0.62385478876E+01 0.59128490344E+01 0.57526827961E+01 0.57035274297E+01 0.57526827961E+01
 0.59128490344E+01 0.62385478876E+01 0.67885463536E+01 0.76056126314E+01 0.87817325637E+01
 0.11221120834E+02 0.16221785951E+02 0.24664231944E+02 0.36751236514E+02 0.51810674148E+02
 0.68380534211E+02 0.84464974726E+02 0.97924946310E+02 0.10686621077E+03 0.82801569716E+02
 0.80484184714E+02 0.73855686227E+02 0.63832773475E+02 0.51810674148E+02 0.39420180477E+02
 0.28230766429E+02 0.19390971344E+02 0.13397147123E+02 0.99981584255E+01 0.83540764017E+01
 0.73887286354E+01 0.66640282811E+01 0.61941822549E+01 0.59146509605E+01 0.57808890289E+01
 0.57378172548E+01 0.57808890289E+01 0.59146509605E+01 0.61941822549E+01 0.66640282811E+01
 0.73887286354E+01 0.83540764017E+01 0.99981584255E+01 0.13397147123E+02 0.19390971344E+02
 0.28230766429E+02 0.39420180477E+02 0.51810674148E+02 0.63832773475E+02 0.73855686227E+02
 0.80484184714E+02 0.58218008168E+02 0.56617443635E+02 0.52026767043E+02 0.45079236130E+02
 0.36751236514E+02 0.28230766429E+02 0.20656034106E+02 0.14854320432E+02 0.11091129246E+02
 0.90547788763E+01 0.79531946668E+01 0.71297542792E+01 0.65294335605E+01 0.61386709576E+01
 0.59138222601E+01 0.58013138667E+01 0.57692457576E+01 0.58013138667E+01 0.59138222601E+01
 0.61386709576E+01 0.65294335605E+01 0.71297542792E+01 0.79531946668E+01 0.90547788763E+01
 0.11091129246E+02 0.14854320432E+02 0.20656034106E+02 0.28230766429E+02 0.36751236514E+02
 0.45079236130E+02 0.52026767043E+02 0.56617443635E+02 0.38304632134E+02 0.37278878092E+02
 0.34343013683E+02 0.29916520149E+02 0.24664231944E+02 0.19390971344E+02 0.14854320432E+02
 0.11538628086E+02 0.95085134973E+01 0.83666952081E+01 0.75323526550E+01 0.68629074050E+01
 0.63892840360E+01 0.60815390287E+01 0.59044576205E+01 0.58151737991E+01 0.57896008398E+01
 0.58151737991E+01 0.59044576205E+01 0.60815390287E+01 0.63892840360E+01 0.68629074050E+01
 0.75323526550E+01 0.83666952081E+01 0.95085134973E+01 0.11538628086E+02 0.14854320432E+02
 0.19390971344E+02 0.24664231944E+02 0.29916520149E+02 0.34343013683E+02 0.37278878092E+02
 0.23934829255E+02 0.23340768045E+02 0.21651623059E+02 0.19137183993E+02 0.16221785951E+02
 0.13397147123E+02 0.11091129246E+02 0.95085134973E+01 0.85213504984E+01 0.77662024523E+01
 0.71139004952E+01 0.66117873802E+01 0.62546680536E+01 0.60254014610E+01 0.58891965275E+01
 0.58212135618E+01 0.57997951179E+01 0.58212135618E+01 0.58891965275E+01 0.60254014610E+01
 0.62546680536E+01 0.66117873802E+01 0.71139004952E+01 0.77662024523E+01 0.85213504984E+01
 0.95085134973E+01 0.11091129246E+02 0.13397147123E+02 0.16221785951E+02 0.19137183993E+02
 0.21651623059E+02 0.23340768045E+02 0.14894184158E+02 0.14598947382E+02 0.13767573050E+02
 0.12562345760E+02 0.11221120834E+02 0.99981584255E+01 0.90547788763E+01 0.83666952081E+01
 0.77662024523E+01 0.72076200891E+01 0.67444341722E+01 0.63883153144E+01 0.61373773299E+01
 0.59704357728E+01 0.58692016068E+01 0.58151737991E+01 0.57989652398E+01 0.58151737991E+01
 0.58692016068E+01 0.59704357728E+01 0.61373773299E+01 0.63883153144E+01 0.67444341722E+01
 0.72076200891E+01 0.77662024523E+01 0.83666952081E+01 0.90547788763E+01 0.99981584255E+01
 0.11221120834E+02 0.12562345760E+02 0.13767573050E+02 0.14598947382E+02 0.10104159262E+02
 0.99906456534E+01 0.96791555766E+01 0.92442377050E+01 0.87817325637E+01 0.83540764017E+01
 0.79531946668E+01 0.75323526550E+01 0.71139004952E+01 0.67444341722E+01 0.64389117538E+01
 0.62058953439E+01 0.60351564684E+01 0.59179080317E+01 0.58425754026E+01 0.58013138667E+01
 0.57878189624E+01 0.58013138667E+01 0.58425754026E+01 0.59179080317E+01 0.60351564684E+01
 0.62058953439E+01 0.64389117538E+01 0.67444341722E+01 0.71139004952E+01 0.75323526550E+01
 0.79531946668E+01 0.83540764017E+01 0.87817325637E+01 0.92442377050E+01 0.96791555766E+01
 0.99906456534E+01 0.80223738429E+01 0.79921848776E+01 0.79062812358E+01 0.77765117527E+01
 0.76056126314E+01 0.73887286354E+01 0.71297542792E+01 0.68629074050E+01 0.66117873802E+01
 0.63883153144E+01 0.62058953439E+01 0.60601592307E+01 0.59498894383E+01 0.58695972749E+01
 0.58142698527E+01 0.57808890289E+01 0.57698511354E+01 0.57808890289E+01 0.58142698527E+01
 0.58695972749E+01 0.59498894383E+01 0.60601592307E+01 0.62058953439E+01 0.63883153144E+01
 0.66117873802E+01 0.68629074050E+01 0.71297542792E+01 0.73887286354E+01 0.76056126314E+01
 0.77765117527E+01 0.79062812358E+01 0.79921848776E+01 0.70141323578E+01 0.70012656323E+01
 0.69610979269E+01 0.68901798881E+01 0.67885463536E+01 0.66640282811E+01 0.65294335605E+01
 0.63892840360E+01 0.62546680536E+01 0.61373773299E+01 0.60351564684E+01 0.59498894383E+01
 0.58808850254E+01 0.58246632563E+01 0.57808942184E+01 0.57526827961E+01 0.57428423360E+01
 0.57526827961E+01 0.57808942184E+01 0.58246632563E+01 0.58808850254E+01 0.59498894383E+01
 0.60351564684E+01 0.61373773299E+01 0.62546680536E+01 0.63892840360E+01 0.65294335605E+01
 0.66640282811E+01 0.67885463536E+01 0.68901798881E+01 0.69610979269E+01 0.70012656323E+01
 0.63110951453E+01 0.63068679740E+01 0.62937205800E+01 0.62713163923E+01 0.62385478876E+01
 0.61941822549E+01 0.61386709576E+01 0.60815390287E+01 0.60254014610E+01 0.59704357728E+01
 0.59179080317E+01 0.58695972749E+01 0.58246632563E+01 0.57819079363E+01 0.57460186288E+01
 0.57217847523E+01 0.57133579397E+01 0.57217847523E+01 0.57460186288E+01 0.57819079363E+01
 0.58246632563E+01 0.58695972749E+01 0.59179080317E+01 0.59704357728E+01 0.60254014610E+01
 0.60815390287E+01 0.61386709576E+01 0.61941822549E+01 0.62385478876E+01 0.62713163923E+01
 0.62937205800E+01 0.63068679740E+01 0.58909417686E+01 0.58934378219E+01 0.59002145939E+01
 0.59075109309E+01 0.59128490344E+01 0.59146509605E+01 0.59138222601E+01 0.59044576205E+01
 0.58891965275E+01 0.58692016068E+01 0.58425754026E+01 0.58142698527E+01 0.57808942184E+01
 0.57460186288E+01 0.57153290284E+01 0.56947590408E+01 0.56873014295E+01 0.56947590408E+01
 0.57153290284E+01 0.57460186288E+01 0.57808942184E+01 0.58142698527E+01 0.58425754026E+01
 0.58692016068E+01 0.58891965275E+01 0.59044576205E+01 0.59138222601E+01 0.59146509605E+01
 0.59128490344E+01 0.59075109309E+01 0.59002145939E+01 0.58934378219E+01 0.56700314050E+01
 0.56764712808E+01 0.56947590408E+01 0.57217847523E+01 0.57526827961E+01 0.57808890289E+01
 0.58013138667E+01 0.58151737991E+01 0.58212135618E+01 0.58151737991E+01 0.58013138667E+01
 0.57808890289E+01 0.57526827961E+01 0.57217847523E+01 0.56947590408E+01 0.56764712808E+01
 0.56700314050E+01 0.56764712808E+01 0.56947590408E+01 0.57217847523E+01 0.57526827961E+01
 0.57808890289E+01 0.58013138667E+01 0.58151737991E+01 0.58212135618E+01 0.58151737991E+01
 0.58013138667E+01 0.57808890289E+01 0.57526827961E+01 0.57217847523E+01 0.56947590408E+01
 0.56764712808E+01 0.56095510964E+01 0.56170597854E+01 0.56384765303E+01 0.56688521096E+01
 0.57035274297E+01 0.57378172548E+01 0.57692457576E+01 0.57896008398E+01 0.57997951179E+01
 0.57989652398E+01 0.57878189624E+01 0.57698511354E+01 0.57428423360E+01 0.57133579397E+01
 0.56873014295E+01 0.56700314050E+01 0.56637648731E+01 0.56700314050E+01 0.56873014295E+01
 0.57133579397E+01 0.57428423360E+01 0.57698511354E+01 0.57878189624E+01 0.57989652398E+01
 0.57997951179E+01 0.57896008398E+01 0.57692457576E+01 0.57378172548E+01 0.57035274297E+01
 0.56688521096E+01 0.56384765303E+01 0.56170597854E+01 0.56700314050E+01 0.56764712808E+01
 0.56947590408E+01 0.57217847523E+01 0.57526827961E+01 0.57808890289E+01 0.58013138667E+01
 0.58151737991E+01 0.58212135618E+01 0.58151737991E+01 0.58013138667E+01 0.57808890289E+01
 0.57526827961E+01 0.57217847523E+01 0.56947590408E+01 0.56764712808E+01 0.56700314050E+01
 0.56764712808E+01 0.56947590408E+01 0.57217847523E+01 0.57526827961E+01 0.57808890289E+01
 0.58013138667E+01 0.58151737991E+01 0.58212135618E+01 0.58151737991E+01 0.58013138667E+01
 0.57808890289E+01 0.57526827961E+01 0.57217847523E+01 0.56947590408E+01 0.56764712808E+01
 0.58909417686E+01 0.58934378219E+01 0.59002145939E+01 0.59075109309E+01 0.59128490344E+01
 0.59146509605E+01 0.59138222601E+01 0.59044576205E+01 0.58891965275E+01 0.58692016068E+01
 0.58425754026E+01 0.58142698527E+01 0.57808942184E+01 0.57460186288E+01 0.57153290284E+01
 0.56947590408E+01 0.56873014295E+01 0.56947590408E+01 0.57153290284E+01 0.57460186288E+01
 0.57808942184E+01 0.58142698527E+01 0.58425754026E+01 0.58692016068E+01 0.58891965275E+01
 0.59044576205E+01 0.59138222601E+01 0.59146509605E+01 0.59128490344E+01 0.59075109309E+01