   2   2   1   0
  0.1173411E+02  0.2863036E-09  0.2863036E-09  0.2863036E-09  0.5000000E-15
  1.000000000000000E-004
  CAR 
 unknown system                          
     46.17453168     -4.77261631  301      6.17987425      1.00000000
     -4.773  0.0000E+00  0.0000E+00  0.0000E+00  0.0000E+00
     -4.603  0.0000E+00  0.0000E+00  0.0000E+00  0.0000E+00
     -4.433  0.0000E+00  0.0000E+00  0.0000E+00  0.0000E+00
     -4.263  0.0000E+00  0.0000E+00  0.0000E+00  0.0000E+00
     -4.093 -0.3381E-33  0.0000E+00 -0.5742E-34  0.0000E+00
     -3.923 -0.1601E-27 -0.4425E-33 -0.2719E-28 -0.7515E-34
     -3.754 -0.1774E-22 -0.2037E-27 -0.3013E-23 -0.3459E-28
     -3.584 -0.4469E-18 -0.2194E-22 -0.7589E-19 -0.3725E-23
     -3.414 -0.2690E-14 -0.5367E-18 -0.4568E-15 -0.9115E-19
     -3.244 -0.3824E-11 -0.3139E-14 -0.6498E-12 -0.5332E-15
     -3.074 -0.1306E-08 -0.4335E-11 -0.2225E-09 -0.7367E-12
     -2.905 -0.1101E-06 -0.1438E-08 -0.1892E-07 -0.2450E-09
     -2.735 -0.2251E-05 -0.1177E-06 -0.4011E-06 -0.2024E-07
     -2.565 -0.6010E-05 -0.2333E-05 -0.1422E-05 -0.4164E-06
     -2.395  0.6214E-04 -0.5769E-05  0.9131E-05 -0.1396E-05
     -2.225  0.2262E-03  0.6452E-04  0.4754E-04  0.9562E-05
     -2.055  0.3510E-03  0.2274E-03  0.1071E-03  0.4818E-04
     -1.886  0.5277E-03  0.3486E-03  0.1968E-03  0.1074E-03
     -1.716  0.4495E-03  0.5253E-03  0.2731E-03  0.1966E-03
     -1.546  0.6852E-03  0.4391E-03  0.3895E-03  0.2712E-03
     -1.376  0.7405E-03  0.6704E-03  0.5152E-03  0.3850E-03
     -1.206  0.7936E-03  0.7252E-03  0.6500E-03  0.5082E-03
     -1.036  0.7099E-03  0.7719E-03  0.7706E-03  0.6393E-03
     -0.867  0.1011E-02  0.6940E-03  0.9423E-03  0.7571E-03
     -0.697  0.1214E-02  0.9088E-03  0.1149E-02  0.9114E-03
     -0.527  0.1006E-02  0.1167E-02  0.1319E-02  0.1110E-02
     -0.357  0.9691E-03  0.1044E-02  0.1484E-02  0.1287E-02
     -0.187  0.1485E-02  0.7800E-03  0.1736E-02  0.1420E-02
     -0.018  0.1611E-02  0.1273E-02  0.2010E-02  0.1636E-02
      0.152  0.1537E-02  0.1475E-02  0.2271E-02  0.1886E-02
      0.322  0.1554E-02  0.1424E-02  0.2535E-02  0.2128E-02
      0.492  0.1921E-02  0.1210E-02  0.2861E-02  0.2334E-02
      0.662  0.2438E-02  0.1560E-02  0.3275E-02  0.2598E-02
      0.832  0.2745E-02  0.1533E-02  0.3741E-02  0.2859E-02
      1.001  0.3531E-02  0.1938E-02  0.4341E-02  0.3188E-02
      1.171  0.6906E-02  0.2160E-02  0.5513E-02  0.3555E-02
      1.341  0.1124E-01  0.1992E-02  0.7422E-02  0.3893E-02
      1.511  0.1163E-01  0.1794E-02  0.9397E-02  0.4198E-02
      1.681  0.1477E-01  0.2733E-02  0.1190E-01  0.4662E-02
      1.851  0.1818E-01  0.3105E-02  0.1499E-01  0.5189E-02
      2.020  0.1683E-01  0.3148E-02  0.1785E-01  0.5724E-02
      2.190  0.1246E-01  0.4148E-02  0.1997E-01  0.6428E-02
      2.360  0.8935E-02  0.5183E-02  0.2148E-01  0.7308E-02
      2.530  0.8740E-02  0.7036E-02  0.2297E-01  0.8503E-02
      2.700  0.2051E-01  0.7632E-02  0.2645E-01  0.9799E-02
      2.869  0.2953E-01  0.6611E-02  0.3147E-01  0.1092E-01
      3.039  0.2196E-01  0.8430E-02  0.3520E-01  0.1235E-01
      3.209  0.1920E-01  0.1061E-01  0.3846E-01  0.1416E-01
      3.379  0.2142E-01  0.1292E-01  0.4209E-01  0.1635E-01
      3.549  0.2715E-01  0.1211E-01  0.4670E-01  0.1841E-01
      3.719  0.2623E-01  0.9703E-02  0.5116E-01  0.2005E-01
      3.888  0.1624E-01  0.6239E-02  0.5392E-01  0.2111E-01
      4.058  0.9197E-02  0.6267E-02  0.5548E-01  0.2218E-01
      4.228  0.8185E-02  0.1493E-01  0.5687E-01  0.2471E-01
      4.398  0.8461E-02  0.2435E-01  0.5830E-01  0.2885E-01
      4.568  0.1090E-01  0.2492E-01  0.6016E-01  0.3308E-01
      4.738  0.1582E-01  0.2222E-01  0.6284E-01  0.3685E-01
      4.907  0.2673E-01  0.2160E-01  0.6738E-01  0.4052E-01
      5.077  0.3739E-01  0.2213E-01  0.7373E-01  0.4428E-01
      5.247  0.4762E-01  0.2375E-01  0.8182E-01  0.4831E-01
      5.417  0.4132E-01  0.2121E-01  0.8883E-01  0.5191E-01
      5.587  0.2192E-01  0.1665E-01  0.9256E-01  0.5474E-01
      5.756  0.1615E-01  0.1004E-01  0.9530E-01  0.5645E-01
      5.926  0.1482E-01  0.5358E-02  0.9782E-01  0.5736E-01
      6.096  0.1309E-01  0.5216E-02  0.1000E+00  0.5824E-01
      6.266  0.1572E-01  0.4969E-02  0.1027E+00  0.5909E-01
      6.436  0.1222E-01  0.5372E-02  0.1048E+00  0.6000E-01
      6.606  0.6215E-02  0.6390E-02  0.1058E+00  0.6109E-01
      6.775  0.2818E-02  0.9407E-02  0.1063E+00  0.6268E-01
      6.945  0.2193E-02  0.1244E-01  0.1067E+00  0.6480E-01
      7.115  0.3136E-02  0.1502E-01  0.1072E+00  0.6735E-01
      7.285  0.3548E-02  0.1810E-01  0.1078E+00  0.7042E-01
      7.455  0.2752E-02  0.2293E-01  0.1083E+00  0.7431E-01
      7.625  0.2327E-02  0.2602E-01  0.1087E+00  0.7873E-01
      7.794  0.3531E-02  0.2403E-01  0.1093E+00  0.8281E-01
      7.964  0.2683E-02  0.3343E-01  0.1097E+00  0.8849E-01
      8.134  0.1735E-02  0.4658E-01  0.1100E+00  0.9640E-01
      8.304  0.2558E-02  0.2849E-01  0.1105E+00  0.1012E+00
      8.474  0.3403E-02  0.1522E-01  0.1111E+00  0.1038E+00
      8.643  0.3168E-02  0.1075E-01  0.1116E+00  0.1057E+00
      8.813  0.2563E-02  0.5807E-02  0.1120E+00  0.1066E+00
      8.983  0.2387E-02  0.3783E-02  0.1124E+00  0.1073E+00
      9.153  0.1740E-02  0.4393E-02  0.1127E+00  0.1080E+00
      9.323  0.2213E-02  0.4307E-02  0.1131E+00  0.1088E+00
      9.493  0.2620E-02  0.3796E-02  0.1135E+00  0.1094E+00
      9.662  0.2472E-02  0.2606E-02  0.1140E+00  0.1098E+00
      9.832  0.2180E-02  0.2792E-02  0.1143E+00  0.1103E+00
     10.002  0.2606E-02  0.4600E-02  0.1148E+00  0.1111E+00
     10.172  0.2463E-02  0.3978E-02  0.1152E+00  0.1118E+00
     10.342  0.1763E-02  0.2437E-02  0.1155E+00  0.1122E+00
     10.512  0.1531E-02  0.1974E-02  0.1158E+00  0.1125E+00
     10.681  0.1998E-02  0.3014E-02  0.1161E+00  0.1130E+00
     10.851  0.1819E-02  0.3520E-02  0.1164E+00  0.1136E+00
     11.021  0.1110E-02  0.2671E-02  0.1166E+00  0.1141E+00
     11.191  0.1777E-02  0.2060E-02  0.1169E+00  0.1144E+00
     11.361  0.2474E-02  0.3018E-02  0.1173E+00  0.1149E+00
     11.530  0.1814E-02  0.2672E-02  0.1176E+00  0.1154E+00
     11.700  0.1675E-02  0.1708E-02  0.1179E+00  0.1157E+00
     11.870  0.9603E-03  0.2071E-02  0.1181E+00  0.1160E+00
     12.040  0.1317E-02  0.2184E-02  0.1183E+00  0.1164E+00
     12.210  0.8038E-03  0.1556E-02  0.1184E+00  0.1167E+00
     12.380  0.4651E-03  0.2263E-02  0.1185E+00  0.1171E+00
     12.549  0.1279E-02  0.2334E-02  0.1187E+00  0.1175E+00
     12.719  0.1289E-02  0.1851E-02  0.1189E+00  0.1178E+00
     12.889  0.9465E-03  0.1371E-02  0.1191E+00  0.1180E+00
     13.059  0.9103E-03  0.1042E-02  0.1193E+00  0.1182E+00
     13.229  0.8242E-03  0.1117E-02  0.1194E+00  0.1184E+00
     13.399  0.8628E-03  0.9393E-03  0.1195E+00  0.1185E+00
     13.568  0.4170E-03  0.1513E-02  0.1196E+00  0.1188E+00
     13.738  0.1423E-03  0.1724E-02  0.1196E+00  0.1191E+00
     13.908  0.1435E-02  0.9440E-03  0.1199E+00  0.1192E+00
     14.078  0.3681E-02  0.3992E-03  0.1205E+00  0.1193E+00
     14.248  0.5346E-02  0.8263E-03  0.1214E+00  0.1195E+00
     14.417  0.5949E-02  0.6853E-03  0.1224E+00  0.1196E+00
     14.587  0.4828E-02  0.3776E-03  0.1233E+00  0.1196E+00
     14.757  0.3754E-02  0.1366E-03  0.1239E+00  0.1197E+00
     14.927  0.3307E-02  0.4584E-03  0.1244E+00  0.1197E+00
     15.097  0.3609E-02  0.1833E-02  0.1251E+00  0.1200E+00
     15.267  0.3096E-02  0.4444E-02  0.1256E+00  0.1208E+00
     15.436  0.3212E-02  0.6087E-02  0.1261E+00  0.1218E+00
     15.606  0.3140E-02  0.7294E-02  0.1267E+00  0.1231E+00
     15.776  0.2772E-02  0.5437E-02  0.1271E+00  0.1240E+00
     15.946  0.3333E-02  0.2491E-02  0.1277E+00  0.1244E+00
     16.116  0.3122E-02  0.3454E-02  0.1282E+00  0.1250E+00
     16.286  0.3024E-02  0.4190E-02  0.1287E+00  0.1257E+00
     16.455  0.4601E-02  0.4765E-02  0.1295E+00  0.1265E+00
     16.625  0.4307E-02  0.3555E-02  0.1303E+00  0.1271E+00
     16.795  0.3606E-02  0.2651E-02  0.1309E+00  0.1276E+00
     16.965  0.3145E-02  0.3292E-02  0.1314E+00  0.1281E+00
     17.135  0.3769E-02  0.3609E-02  0.1320E+00  0.1288E+00
     17.304  0.3912E-02  0.5067E-02  0.1327E+00  0.1296E+00
     17.474  0.3646E-02  0.4598E-02  0.1333E+00  0.1304E+00
     17.644  0.3488E-02  0.3906E-02  0.1339E+00  0.1311E+00
     17.814  0.3478E-02  0.4194E-02  0.1345E+00  0.1318E+00
     17.984  0.5171E-02  0.3846E-02  0.1354E+00  0.1324E+00
     18.154  0.4198E-02  0.2673E-02  0.1361E+00  0.1329E+00
     18.323  0.2135E-02  0.3903E-02  0.1365E+00  0.1335E+00
     18.493  0.2583E-02  0.3990E-02  0.1369E+00  0.1342E+00
     18.663  0.3656E-02  0.4371E-02  0.1375E+00  0.1350E+00
     18.833  0.3134E-02  0.5558E-02  0.1381E+00  0.1359E+00
     19.003  0.4348E-02  0.3737E-02  0.1388E+00  0.1365E+00
     19.173  0.5749E-02  0.1893E-02  0.1398E+00  0.1369E+00
     19.342  0.3477E-02  0.2583E-02  0.1404E+00  0.1373E+00
     19.512  0.2639E-02  0.3427E-02  0.1408E+00  0.1379E+00
     19.682  0.3431E-02  0.4961E-02  0.1414E+00  0.1387E+00
     19.852  0.1763E-02  0.4972E-02  0.1417E+00  0.1396E+00
     20.022  0.1558E-02  0.4683E-02  0.1420E+00  0.1404E+00
     20.191  0.4748E-02  0.3177E-02  0.1428E+00  0.1409E+00
     20.361  0.5481E-02  0.2708E-02  0.1437E+00  0.1414E+00
     20.531  0.4515E-02  0.2135E-02  0.1445E+00  0.1417E+00
     20.701  0.4237E-02  0.2456E-02  0.1452E+00  0.1421E+00
     20.871  0.2062E-02  0.4521E-02  0.1455E+00  0.1429E+00
     21.041  0.1653E-02  0.4866E-02  0.1458E+00  0.1437E+00
     21.210  0.2667E-02  0.5317E-02  0.1463E+00  0.1446E+00
     21.380  0.3193E-02  0.3796E-02  0.1468E+00  0.1453E+00
     21.550  0.2994E-02  0.1839E-02  0.1473E+00  0.1456E+00
     21.720  0.3951E-02  0.2816E-02  0.1480E+00  0.1461E+00
     21.890  0.5387E-02  0.2692E-02  0.1489E+00  0.1465E+00
     22.060  0.4360E-02  0.2857E-02  0.1496E+00  0.1470E+00
     22.229  0.3130E-02  0.3588E-02  0.1502E+00  0.1476E+00
     22.399  0.1576E-02  0.4953E-02  0.1504E+00  0.1485E+00
     22.569  0.1774E-02  0.5084E-02  0.1507E+00  0.1493E+00
     22.739  0.3784E-02  0.3659E-02  0.1514E+00  0.1499E+00
     22.909  0.3696E-02  0.2416E-02  0.1520E+00  0.1504E+00
     23.078  0.4305E-02  0.1532E-02  0.1527E+00  0.1506E+00
     23.248  0.5164E-02  0.2942E-02  0.1536E+00  0.1511E+00
     23.418  0.5070E-02  0.3650E-02  0.1545E+00  0.1517E+00
     23.588  0.4661E-02  0.3766E-02  0.1553E+00  0.1524E+00
     23.758  0.3688E-02  0.4864E-02  0.1559E+00  0.1532E+00
     23.928  0.3334E-02  0.5548E-02  0.1565E+00  0.1541E+00
     24.097  0.3505E-02  0.4769E-02  0.1571E+00  0.1550E+00
     24.267  0.4495E-02  0.3862E-02  0.1578E+00  0.1556E+00
     24.437  0.5448E-02  0.4331E-02  0.1588E+00  0.1563E+00
     24.607  0.4559E-02  0.4704E-02  0.1595E+00  0.1571E+00
     24.777  0.6773E-02  0.3829E-02  0.1607E+00  0.1578E+00
     24.947  0.6594E-02  0.5478E-02  0.1618E+00  0.1587E+00
     25.116  0.3984E-02  0.7162E-02  0.1625E+00  0.1599E+00
     25.286  0.3871E-02  0.6511E-02  0.1631E+00  0.1611E+00
     25.456  0.4182E-02  0.4818E-02  0.1638E+00  0.1619E+00
     25.626  0.3650E-02  0.4012E-02  0.1645E+00  0.1625E+00
     25.796  0.4490E-02  0.4660E-02  0.1652E+00  0.1633E+00
     25.965  0.5611E-02  0.3855E-02  0.1662E+00  0.1640E+00
     26.135  0.5764E-02  0.4031E-02  0.1672E+00  0.1647E+00
     26.305  0.6310E-02  0.5405E-02  0.1682E+00  0.1656E+00
     26.475  0.6155E-02  0.5261E-02  0.1693E+00  0.1665E+00
     26.645  0.4576E-02  0.5935E-02  0.1700E+00  0.1675E+00
     26.815  0.3118E-02  0.7375E-02  0.1706E+00  0.1688E+00
     26.984  0.3308E-02  0.5048E-02  0.1711E+00  0.1696E+00
     27.154  0.5259E-02  0.3567E-02  0.1720E+00  0.1702E+00
     27.324  0.5887E-02  0.3672E-02  0.1730E+00  0.1708E+00
     27.494  0.6064E-02  0.4508E-02  0.1741E+00  0.1716E+00
     27.664  0.5113E-02  0.5539E-02  0.1749E+00  0.1725E+00
     27.834  0.4490E-02  0.5310E-02  0.1757E+00  0.1734E+00
     28.003  0.3663E-02  0.6166E-02  0.1763E+00  0.1745E+00
     28.173  0.2799E-02  0.5684E-02  0.1768E+00  0.1755E+00
     28.343  0.3316E-02  0.3458E-02  0.1774E+00  0.1760E+00
     28.513  0.3557E-02  0.2716E-02  0.1780E+00  0.1765E+00
     28.683  0.2439E-02  0.4084E-02  0.1784E+00  0.1772E+00
     28.853  0.4191E-02  0.3493E-02  0.1791E+00  0.1778E+00
     29.022  0.4796E-02  0.2332E-02  0.1799E+00  0.1782E+00
     29.192  0.3537E-02  0.2839E-02  0.1805E+00  0.1787E+00
     29.362  0.2803E-02  0.4667E-02  0.1810E+00  0.1795E+00
     29.532  0.3274E-02  0.5080E-02  0.1815E+00  0.1803E+00
     29.702  0.2897E-02  0.2992E-02  0.1820E+00  0.1808E+00
     29.871  0.1564E-02  0.2348E-02  0.1823E+00  0.1812E+00
     30.041  0.2255E-02  0.3038E-02  0.1827E+00  0.1818E+00
     30.211  0.2372E-02  0.2611E-02  0.1831E+00  0.1822E+00
     30.381  0.3718E-02  0.2826E-02  0.1837E+00  0.1827E+00
     30.551  0.3575E-02  0.2396E-02  0.1843E+00  0.1831E+00
     30.721  0.2560E-02  0.2659E-02  0.1847E+00  0.1835E+00
     30.890  0.3241E-02  0.3911E-02  0.1853E+00  0.1842E+00
     31.060  0.4353E-02  0.3607E-02  0.1860E+00  0.1848E+00
     31.230  0.4796E-02  0.3140E-02  0.1869E+00  0.1853E+00
     31.400  0.5306E-02  0.3962E-02  0.1878E+00  0.1860E+00
     31.570  0.5899E-02  0.5669E-02  0.1888E+00  0.1870E+00
     31.740  0.7043E-02  0.5311E-02  0.1899E+00  0.1879E+00
     31.909  0.5757E-02  0.5363E-02  0.1909E+00  0.1888E+00
     32.079  0.5745E-02  0.6277E-02  0.1919E+00  0.1899E+00
     32.249  0.4516E-02  0.5370E-02  0.1927E+00  0.1908E+00
     32.419  0.3553E-02  0.5873E-02  0.1933E+00  0.1918E+00
     32.589  0.4019E-02  0.5435E-02  0.1940E+00  0.1927E+00
     32.758  0.3543E-02  0.4404E-02  0.1946E+00  0.1934E+00
     32.928  0.3999E-02  0.5126E-02  0.1952E+00  0.1943E+00
     33.098  0.2487E-02  0.3756E-02  0.1957E+00  0.1949E+00
     33.268  0.1223E-02  0.1685E-02  0.1959E+00  0.1952E+00
     33.438  0.9055E-03  0.2188E-02  0.1960E+00  0.1956E+00
     33.608  0.1643E-02  0.1712E-02  0.1963E+00  0.1959E+00
     33.777  0.2077E-02  0.2111E-02  0.1967E+00  0.1963E+00
     33.947  0.7139E-03  0.2129E-02  0.1968E+00  0.1966E+00
     34.117  0.7985E-03  0.5634E-03  0.1969E+00  0.1967E+00
     34.287  0.1492E-02  0.1081E-02  0.1972E+00  0.1969E+00
     34.457  0.1601E-02  0.2053E-02  0.1974E+00  0.1972E+00
     34.627  0.1009E-02  0.1575E-02  0.1976E+00  0.1975E+00
     34.796  0.5878E-03  0.7837E-03  0.1977E+00  0.1976E+00
     34.966  0.8716E-03  0.6433E-03  0.1979E+00  0.1978E+00
     35.136  0.5805E-03  0.7132E-03  0.1980E+00  0.1979E+00
     35.306  0.1696E-03  0.4977E-03  0.1980E+00  0.1980E+00
     35.476 -0.4458E-05  0.1446E-03  0.1980E+00  0.1980E+00
     35.645  0.4206E-03  0.2491E-03  0.1981E+00  0.1980E+00
     35.815  0.1064E-02  0.8498E-03  0.1982E+00  0.1982E+00
     35.985  0.5897E-03  0.7681E-03  0.1983E+00  0.1983E+00
     36.155  0.1572E-04  0.2859E-03  0.1983E+00  0.1983E+00
     36.325  0.4723E-03  0.5846E-03  0.1984E+00  0.1984E+00
     36.495  0.1260E-02  0.1042E-02  0.1986E+00  0.1986E+00
     36.664  0.8643E-03  0.9019E-03  0.1988E+00  0.1988E+00
     36.834  0.7023E-03  0.7088E-03  0.1989E+00  0.1989E+00
     37.004  0.1213E-03  0.8427E-04  0.1989E+00  0.1989E+00
     37.174  0.3776E-03  0.1690E-03  0.1990E+00  0.1989E+00
     37.344  0.4327E-03  0.5837E-03  0.1991E+00  0.1990E+00
     37.514  0.2399E-03  0.4101E-03  0.1991E+00  0.1991E+00
     37.683  0.1629E-03  0.9124E-04  0.1991E+00  0.1991E+00
     37.853  0.1452E-04 -0.5629E-05  0.1991E+00  0.1991E+00
     38.023  0.4136E-03  0.4014E-03  0.1992E+00  0.1992E+00
     38.193  0.4188E-03  0.4315E-03  0.1993E+00  0.1993E+00
     38.363 -0.7559E-05 -0.8450E-05  0.1993E+00  0.1993E+00
     38.532 -0.1323E-04  0.7716E-04  0.1993E+00  0.1993E+00
     38.702  0.6453E-03  0.7236E-03  0.1994E+00  0.1994E+00
     38.872  0.8978E-03  0.7820E-03  0.1995E+00  0.1995E+00
     39.042  0.2683E-03  0.3248E-03  0.1996E+00  0.1996E+00
     39.212  0.2385E-03  0.1918E-03  0.1996E+00  0.1996E+00
     39.382  0.1939E-03  0.1173E-03  0.1996E+00  0.1996E+00
     39.551  0.1443E-03  0.1579E-03  0.1997E+00  0.1997E+00
     39.721  0.8930E-05  0.1605E-04  0.1997E+00  0.1997E+00
     39.891 -0.1810E-04 -0.1279E-04  0.1997E+00  0.1997E+00
     40.061  0.1076E-03  0.1631E-03  0.1997E+00  0.1997E+00
     40.231  0.2707E-03  0.2452E-03  0.1997E+00  0.1997E+00
     40.401  0.6455E-04  0.1717E-04  0.1997E+00  0.1997E+00
     40.570 -0.2084E-04  0.7658E-04  0.1997E+00  0.1998E+00
     40.740  0.1456E-03  0.2719E-03  0.1998E+00  0.1998E+00
     40.910  0.2547E-03  0.8254E-04  0.1998E+00  0.1998E+00
     41.080  0.2708E-04 -0.1451E-04  0.1998E+00  0.1998E+00
     41.250  0.6640E-04  0.1723E-03  0.1998E+00  0.1998E+00
     41.419  0.2590E-03  0.2638E-03  0.1999E+00  0.1999E+00
     41.589  0.1750E-03  0.2676E-03  0.1999E+00  0.1999E+00
     41.759  0.2601E-03  0.1517E-03  0.1999E+00  0.2000E+00
     41.929  0.9434E-04 -0.7011E-05  0.2000E+00  0.2000E+00
     42.099 -0.1240E-04 -0.4803E-05  0.2000E+00  0.2000E+00
     42.269 -0.2430E-05 -0.1707E-06  0.2000E+00  0.2000E+00
     42.438 -0.5480E-07 -0.1144E-08  0.2000E+00  0.2000E+00
     42.608 -0.2459E-09 -0.1652E-11  0.2000E+00  0.2000E+00
     42.778 -0.2414E-12 -0.1112E-13  0.2000E+00  0.2000E+00
     42.948 -0.3534E-12 -0.1801E-10  0.2000E+00  0.2000E+00
     43.118 -0.3081E-09 -0.6800E-08  0.2000E+00  0.2000E+00
     43.288 -0.5845E-07 -0.5353E-06  0.2000E+00  0.2000E+00
     43.457 -0.2164E-05 -0.6780E-05  0.2000E+00  0.2000E+00
     43.627 -0.7423E-05  0.2029E-04  0.2000E+00  0.2000E+00
     43.797  0.8116E-04  0.1654E-03  0.2000E+00  0.2000E+00
     43.967  0.1781E-03  0.1082E-03  0.2000E+00  0.2000E+00
     44.137  0.3841E-04 -0.4085E-05  0.2000E+00  0.2000E+00
     44.306 -0.7979E-05 -0.3249E-05  0.2000E+00  0.2000E+00
     44.476 -0.9224E-06 -0.1170E-06  0.2000E+00  0.2000E+00
     44.646 -0.1527E-07 -0.7929E-09  0.2000E+00  0.2000E+00
     44.816 -0.5168E-10 -0.1157E-11  0.2000E+00  0.2000E+00
     44.986 -0.3861E-13 -0.3797E-15  0.2000E+00  0.2000E+00
     45.156 -0.6539E-17 -0.3099E-19  0.2000E+00  0.2000E+00
     45.325  0.0000E+00  0.0000E+00  0.2000E+00  0.2000E+00
     45.495  0.0000E+00  0.0000E+00  0.2000E+00  0.2000E+00
     45.665  0.0000E+00  0.0000E+00  0.2000E+00  0.2000E+00
     45.835  0.0000E+00  0.0000E+00  0.2000E+00  0.2000E+00
     46.005  0.0000E+00  0.0000E+00  0.2000E+00  0.2000E+00
     46.175  0.0000E+00  0.0000E+00  0.2000E+00  0.2000E+00
     46.17453168     -4.77261631  301      6.17987425      1.00000000
     -4.773  0.0000E+00  0.0000E+00  0.0000E+00  0.0000E+00  0.0000E+00  0.0000E+00  0.0000E+00  0.0000E+00  0.0000E+00  0.0000E+00  0.0000E+00  0.0000E+00  0.0000E+00  0.0000E+00  0.0000E+00  0.0000E+00  0.0000E+00  0.0000E+00
     -4.603  0.0000E+00  0.0000E+00  0.0000E+00  0.0000E+00  0.0000E+00  0.0000E+00  0.0000E+00  0.0000E+00  0.0000E+00  0.0000E+00  0.0000E+00  0.0000E+00  0.0000E+00  0.0000E+00  0.0000E+00  0.0000E+00  0.0000E+00  0.0000E+00
     -4.433  0.0000E+00  0.0000E+00  0.0000E+00  0.0000E+00  0.0000E+00  0.0000E+00  0.0000E+00  0.0000E+00  0.0000E+00  0.0000E+00  0.0000E+00  0.0000E+00  0.0000E+00  0.0000E+00  0.0000E+00  0.0000E+00  0.0000E+00  0.0000E+00
     -4.263  0.0000E+00  0.0000E+00  0.0000E+00  0.0000E+00  0.0000E+00  0.0000E+00  0.0000E+00  0.0000E+00  0.0000E+00  0.0000E+00  0.0000E+00  0.0000E+00  0.0000E+00  0.0000E+00  0.0000E+00  0.0000E+00  0.0000E+00  0.0000E+00
     -4.093 -0.1286E-31  0.0000E+00 -0.8508E-37  0.0000E+00 -0.8508E-37  0.0000E+00 -0.8508E-37  0.0000E+00 -0.1531E-46  0.0000E+00 -0.1531E-46  0.0000E+00 -0.9678E-39  0.0000E+00 -0.1531E-46  0.0000E+00 -0.9678E-39  0.0000E+00
     -3.923 -0.6089E-26 -0.1686E-31 -0.9063E-31 -0.1099E-36 -0.9063E-31 -0.1099E-36 -0.9063E-31 -0.1099E-36 -0.3067E-35 -0.1810E-46 -0.3067E-35 -0.1810E-46 -0.1030E-32 -0.9218E-39 -0.3067E-35 -0.1810E-46 -0.1030E-32 -0.9218E-39
     -3.754 -0.6748E-21 -0.7760E-26 -0.2257E-25 -0.1142E-30 -0.2257E-25 -0.1142E-30 -0.2257E-25 -0.1142E-30 -0.1706E-29 -0.2790E-35 -0.1706E-29 -0.2790E-35 -0.2561E-27 -0.9567E-33 -0.1706E-29 -0.2790E-35 -0.2561E-27 -0.9567E-33
     -3.584 -0.1699E-16 -0.8357E-21 -0.1314E-20 -0.2773E-25 -0.1314E-20 -0.2773E-25 -0.1314E-20 -0.2773E-25 -0.2218E-24 -0.1521E-29 -0.2218E-24 -0.1521E-29 -0.1486E-22 -0.2320E-27 -0.2218E-24 -0.1521E-29 -0.1486E-22 -0.2320E-27
     -3.414 -0.1023E-12 -0.2045E-16 -0.1723E-16 -0.1574E-20 -0.1723E-16 -0.1574E-20 -0.1723E-16 -0.1574E-20 -0.6509E-20 -0.1936E-24 -0.6509E-20 -0.1936E-24 -0.1936E-18 -0.1313E-22 -0.6509E-20 -0.1936E-24 -0.1936E-18 -0.1313E-22
     -3.244 -0.1453E-09 -0.1195E-12 -0.5402E-13 -0.2012E-16 -0.5402E-13 -0.2012E-16 -0.5402E-13 -0.2012E-16 -0.4537E-16 -0.5557E-20 -0.4537E-16 -0.5557E-20 -0.5982E-15 -0.1667E-18 -0.4537E-16 -0.5557E-20 -0.5982E-15 -0.1667E-18
     -3.074 -0.4956E-07 -0.1650E-09 -0.3952E-10 -0.6148E-13 -0.3952E-10 -0.6148E-13 -0.3952E-10 -0.6148E-13 -0.7269E-13 -0.3797E-16 -0.7269E-13 -0.3797E-16 -0.4235E-12 -0.5015E-15 -0.7269E-13 -0.3797E-16 -0.4235E-12 -0.5015E-15
     -2.905 -0.4168E-05 -0.5466E-07 -0.6780E-08 -0.4383E-10 -0.6780E-08 -0.4383E-10 -0.6780E-08 -0.4383E-10 -0.2652E-10 -0.5954E-13 -0.2652E-10 -0.5954E-13 -0.6766E-10 -0.3454E-12 -0.2652E-10 -0.5954E-13 -0.6766E-10 -0.3454E-12
     -2.735 -0.8481E-04 -0.4464E-05 -0.2685E-06 -0.7323E-08 -0.2685E-06 -0.7323E-08 -0.2685E-06 -0.7323E-08 -0.2142E-08 -0.2125E-10 -0.2142E-08 -0.2125E-10 -0.2319E-08 -0.5351E-10 -0.2142E-08 -0.2125E-10 -0.2319E-08 -0.5351E-10
     -2.565 -0.2227E-03 -0.8804E-04 -0.1987E-05 -0.2822E-06 -0.1987E-05 -0.2822E-06 -0.1987E-05 -0.2822E-06 -0.3384E-07 -0.1675E-08 -0.3384E-07 -0.1675E-08 -0.1437E-07 -0.1765E-08 -0.3384E-07 -0.1675E-08 -0.1437E-07 -0.1765E-08
     -2.395  0.2349E-02 -0.2137E-03  0.4964E-05 -0.2009E-05  0.4964E-05 -0.2009E-05  0.4964E-05 -0.2009E-05 -0.2513E-07 -0.2564E-07 -0.2513E-07 -0.2564E-07 -0.3164E-07 -0.1013E-07 -0.2513E-07 -0.2564E-07 -0.3164E-07 -0.1013E-07
     -2.225  0.8476E-02  0.2442E-02  0.4257E-04  0.5408E-05  0.4257E-04  0.5408E-05  0.4257E-04  0.5408E-05  0.4655E-06 -0.1278E-07  0.4655E-06 -0.1278E-07  0.5833E-07 -0.1818E-07  0.4655E-06 -0.1278E-07  0.5833E-07 -0.1818E-07
     -2.055  0.1292E-01  0.8533E-02  0.1437E-03  0.4342E-04  0.1437E-03  0.4342E-04  0.1437E-03  0.4342E-04  0.2902E-05  0.3690E-06  0.2902E-05  0.3690E-06  0.3410E-05  0.5222E-07  0.2902E-05  0.3690E-06  0.3410E-05  0.5222E-07
     -1.886  0.1913E-01  0.1284E-01  0.3065E-03  0.1443E-03  0.3065E-03  0.1443E-03  0.3065E-03  0.1443E-03  0.1018E-04  0.2118E-05  0.1018E-04  0.2118E-05  0.7281E-05  0.2406E-05  0.1018E-04  0.2118E-05  0.7281E-05  0.2406E-05
     -1.716  0.1602E-01  0.1907E-01  0.3447E-03  0.3079E-03  0.3447E-03  0.3079E-03  0.3447E-03  0.3079E-03  0.1983E-04  0.7313E-05  0.1983E-04  0.7313E-05  0.8978E-05  0.5118E-05  0.1983E-04  0.7313E-05  0.8978E-05  0.5118E-05
     -1.546  0.2384E-01  0.1568E-01  0.6961E-03  0.3378E-03  0.6961E-03  0.3378E-03  0.6961E-03  0.3378E-03  0.3900E-04  0.1370E-04  0.3900E-04  0.1370E-04  0.4087E-04  0.5748E-05  0.3900E-04  0.1370E-04  0.4087E-04  0.5748E-05
     -1.376  0.2539E-01  0.2338E-01  0.8574E-03  0.6867E-03  0.8574E-03  0.6867E-03  0.8574E-03  0.6867E-03  0.5959E-04  0.2707E-04  0.5959E-04  0.2707E-04  0.6049E-04  0.2654E-04  0.5959E-04  0.2707E-04  0.6049E-04  0.2654E-04
     -1.206  0.2657E-01  0.2495E-01  0.1081E-02  0.8423E-03  0.1081E-02  0.8423E-03  0.1081E-02  0.8423E-03  0.1311E-03  0.3833E-04  0.1311E-03  0.3833E-04  0.6294E-04  0.3973E-04  0.1311E-03  0.3833E-04  0.6294E-04  0.3973E-04
     -1.036  0.2335E-01  0.2594E-01  0.1078E-02  0.1066E-02  0.1078E-02  0.1066E-02  0.1078E-02  0.1066E-02  0.1258E-03  0.8582E-04  0.1258E-03  0.8582E-04  0.9475E-04  0.3981E-04  0.1258E-03  0.8582E-04  0.9475E-04  0.3981E-04
     -0.867  0.3219E-01  0.2299E-01  0.1789E-02  0.1054E-02  0.1789E-02  0.1054E-02  0.1789E-02  0.1054E-02  0.2223E-03  0.8449E-04  0.2223E-03  0.8449E-04  0.2504E-03  0.5311E-04  0.2223E-03  0.8449E-04  0.2504E-03  0.5311E-04
     -0.697  0.3792E-01  0.2919E-01  0.2281E-02  0.1629E-02  0.2281E-02  0.1629E-02  0.2281E-02  0.1629E-02  0.3856E-03  0.1263E-03  0.3856E-03  0.1263E-03  0.3376E-03  0.1411E-03  0.3856E-03  0.1263E-03  0.3376E-03  0.1411E-03
     -0.527  0.3075E-01  0.3690E-01  0.2031E-02  0.2228E-02  0.2031E-02  0.2228E-02  0.2031E-02  0.2228E-02  0.4344E-03  0.2293E-03  0.4344E-03  0.2293E-03  0.2617E-03  0.1990E-03  0.4344E-03  0.2293E-03  0.2617E-03  0.1990E-03
     -0.357  0.2843E-01  0.3234E-01  0.2133E-02  0.2157E-02  0.2133E-02  0.2157E-02  0.2133E-02  0.2157E-02  0.6026E-03  0.2778E-03  0.6026E-03  0.2778E-03  0.3720E-03  0.1771E-03  0.6026E-03  0.2778E-03  0.3720E-03  0.1771E-03
     -0.187  0.4227E-01  0.2356E-01  0.3504E-02  0.1741E-02  0.3504E-02  0.1741E-02  0.3504E-02  0.1741E-02  0.8913E-03  0.2891E-03  0.8913E-03  0.2891E-03  0.9519E-03  0.1316E-03  0.8913E-03  0.2891E-03  0.9519E-03  0.1316E-03
     -0.018  0.4446E-01  0.3720E-01  0.4041E-02  0.3101E-02  0.4041E-02  0.3101E-02  0.4041E-02  0.3101E-02  0.1148E-02  0.4996E-03  0.1148E-02  0.4996E-03  0.1175E-02  0.4388E-03  0.1148E-02  0.4996E-03  0.1175E-02  0.4388E-03
      0.152  0.4068E-01  0.4224E-01  0.3879E-02  0.3806E-02  0.3879E-02  0.3806E-02  0.3879E-02  0.3806E-02  0.1661E-02  0.5864E-03  0.1661E-02  0.5864E-03  0.1287E-02  0.6094E-03  0.1661E-02  0.5864E-03  0.1287E-02  0.6094E-03
      0.322  0.3914E-01  0.3972E-01  0.4021E-02  0.3865E-02  0.4021E-02  0.3865E-02  0.4021E-02  0.3865E-02  0.2279E-02  0.7353E-03  0.2279E-02  0.7353E-03  0.1439E-02  0.6336E-03  0.2279E-02  0.7353E-03  0.1439E-02  0.6336E-03
      0.492  0.4597E-01  0.3260E-01  0.5255E-02  0.3376E-02  0.5255E-02  0.3376E-02  0.5255E-02  0.3376E-02  0.2895E-02  0.9417E-03  0.2895E-02  0.9417E-03  0.2563E-02  0.5990E-03  0.2895E-02  0.9417E-03  0.2563E-02  0.5990E-03
      0.662  0.5474E-01  0.4079E-01  0.6740E-02  0.4557E-02  0.6740E-02  0.4557E-02  0.6740E-02  0.4557E-02  0.4120E-02  0.1436E-02  0.4120E-02  0.1436E-02  0.4608E-02  0.7910E-03  0.4120E-02  0.1436E-02  0.4608E-02  0.7910E-03
      0.832  0.5813E-01  0.3882E-01  0.7507E-02  0.4790E-02  0.7507E-02  0.4790E-02  0.7507E-02  0.4790E-02  0.6333E-02  0.1224E-02  0.6333E-02  0.1224E-02  0.4978E-02  0.1211E-02  0.6333E-02  0.1224E-02  0.4978E-02  0.1211E-02
      1.001  0.6182E-01  0.4679E-01  0.7430E-02  0.6189E-02  0.7430E-02  0.6189E-02  0.7430E-02  0.6189E-02  0.1396E-01  0.1920E-02  0.1396E-01  0.1920E-02  0.9624E-02  0.2073E-02  0.1396E-01  0.1920E-02  0.9624E-02  0.2073E-02
      1.171  0.8165E-01  0.5058E-01  0.9411E-02  0.6977E-02  0.9411E-02  0.6977E-02  0.9411E-02  0.6977E-02  0.3505E-01  0.2784E-02  0.3505E-01  0.2784E-02  0.3970E-01  0.2175E-02  0.3505E-01  0.2784E-02  0.3970E-01  0.2175E-02
      1.341  0.1077E+00  0.4483E-01  0.1384E-01  0.6494E-02  0.1384E-01  0.6494E-02  0.1384E-01  0.6494E-02  0.5414E-01  0.3171E-02  0.5414E-01  0.3171E-02  0.8596E-01  0.2106E-02  0.5414E-01  0.3171E-02  0.8596E-01  0.2106E-02
      1.511  0.8299E-01  0.3781E-01  0.1216E-01  0.5664E-02  0.1216E-01  0.5664E-02  0.1216E-01  0.5664E-02  0.5408E-01  0.3696E-02  0.5408E-01  0.3696E-02  0.1124E+00  0.2491E-02  0.5408E-01  0.3696E-02  0.1124E+00  0.2491E-02
      1.681  0.8341E-01  0.5471E-01  0.1713E-01  0.9137E-02  0.1713E-01  0.9137E-02  0.1713E-01  0.9137E-02  0.6230E-01  0.5555E-02  0.6230E-01  0.5555E-02  0.1621E+00  0.4643E-02  0.6230E-01  0.5555E-02  0.1621E+00  0.4643E-02
      1.851  0.7856E-01  0.5861E-01  0.2204E-01  0.1028E-01  0.2204E-01  0.1028E-01  0.2204E-01  0.1028E-01  0.6558E-01  0.6893E-02  0.6558E-01  0.6893E-02  0.2284E+00  0.6639E-02  0.6558E-01  0.6893E-02  0.2284E+00  0.6639E-02
      2.020  0.5955E-01  0.5485E-01  0.2084E-01  0.9713E-02  0.2084E-01  0.9713E-02  0.2084E-01  0.9713E-02  0.6979E-01  0.9069E-02  0.6979E-01  0.9069E-02  0.2063E+00  0.7666E-02  0.6979E-01  0.9069E-02  0.2063E+00  0.7666E-02
      2.190  0.3606E-01  0.6454E-01  0.1355E-01  0.1103E-01  0.1355E-01  0.1103E-01  0.1355E-01  0.1103E-01  0.7145E-01  0.1668E-01  0.7145E-01  0.1668E-01  0.1334E+00  0.1099E-01  0.7145E-01  0.1668E-01  0.1334E+00  0.1099E-01
      2.360  0.1723E-01  0.6783E-01  0.9059E-02  0.1036E-01  0.9059E-02  0.1036E-01  0.9059E-02  0.1036E-01  0.5850E-01  0.2633E-01  0.5850E-01  0.2633E-01  0.9202E-01  0.1934E-01  0.5850E-01  0.2633E-01  0.9202E-01  0.1934E-01
      2.530  0.8787E-02  0.8094E-01  0.9504E-02  0.1394E-01  0.9504E-02  0.1394E-01  0.9504E-02  0.1394E-01  0.5829E-01  0.3694E-01  0.5829E-01  0.3694E-01  0.9265E-01  0.3118E-01  0.5829E-01  0.3694E-01  0.9265E-01  0.3118E-01
      2.700  0.2756E-02  0.8287E-01  0.1787E-01  0.1537E-01  0.1787E-01  0.1537E-01  0.1787E-01  0.1537E-01  0.2213E+00  0.4184E-01  0.2213E+00  0.4184E-01  0.1183E+00  0.3382E-01  0.2213E+00  0.4184E-01  0.1183E+00  0.3382E-01
      2.869  0.3641E-02  0.6111E-01  0.2274E-01  0.1208E-01  0.2274E-01  0.1208E-01  0.2274E-01  0.1208E-01  0.3323E+00  0.4003E-01  0.3323E+00  0.4003E-01  0.1575E+00  0.3236E-01  0.3323E+00  0.4003E-01  0.1575E+00  0.3236E-01
      3.039  0.6176E-02  0.6137E-01  0.1576E-01  0.1564E-01  0.1576E-01  0.1564E-01  0.1576E-01  0.1564E-01  0.2483E+00  0.4260E-01  0.2483E+00  0.4260E-01  0.1163E+00  0.6188E-01  0.2483E+00  0.4260E-01  0.1163E+00  0.6188E-01
      3.209  0.9561E-02  0.5680E-01  0.1848E-01  0.1855E-01  0.1848E-01  0.1855E-01  0.1848E-01  0.1855E-01  0.2124E+00  0.4428E-01  0.2124E+00  0.4428E-01  0.9846E-01  0.1044E+00  0.2124E+00  0.4428E-01  0.9846E-01  0.1044E+00
      3.379  0.1316E-01  0.4912E-01  0.2681E-01  0.2087E-01  0.2681E-01  0.2087E-01  0.2681E-01  0.2087E-01  0.2350E+00  0.5012E-01  0.2350E+00  0.5012E-01  0.1006E+00  0.1468E+00  0.2350E+00  0.5012E-01  0.1006E+00  0.1468E+00
      3.549  0.1928E-01  0.3623E-01  0.3528E-01  0.1826E-01  0.3528E-01  0.1826E-01  0.3528E-01  0.1826E-01  0.2985E+00  0.4947E-01  0.2985E+00  0.4947E-01  0.1242E+00  0.1424E+00  0.2985E+00  0.4947E-01  0.1242E+00  0.1424E+00
      3.719  0.1894E-01  0.2337E-01  0.3179E-01  0.1354E-01  0.3179E-01  0.1354E-01  0.3179E-01  0.1354E-01  0.2903E+00  0.5361E-01  0.2903E+00  0.5361E-01  0.1228E+00  0.1003E+00  0.2903E+00  0.5361E-01  0.1228E+00  0.1003E+00