    2    2  100    2
  0.1173411E+02  0.2863035E-09  0.2863035E-09  0.2863035E-09  0.5000000E-15
  1.000000000000000E-004
  CAR 
 unknown system                          
     16    120     20
 
  0.0000000E+00  0.0000000E+00  0.0000000E+00  0.2962963E-03
    1       -2.456837     -2.290331   1.000000   1.000000
    2        1.118892      2.900782   1.000000   1.000000
    3        1.118892      2.900924   1.000000   1.000000
    4        3.822321      5.670323   1.000000   1.000933
    5        3.822322      5.670458   1.000000   1.000936
    6        3.822322      5.670469   1.000000   1.000936
    7        5.086887      7.792516   1.000000  -0.000000
    8        5.086888      7.792681   1.000000  -0.000000
    9        6.332263      8.454917   0.020339  -0.000000
   10        6.332265      8.455039   0.020336  -0.000000
   11        6.332265      8.455051   0.020336  -0.000000
   12       16.348590     16.613237   0.000000   0.000000
   13       16.348590     16.613237   0.000000   0.000000
   14       16.348591     16.613240   0.000000   0.000000
   15       22.184845     23.237465   0.000000   0.000000
   16       22.184847     23.237477   0.000000   0.000000
   17       27.681114     28.775977   0.000000   0.000000
   18       31.530995     31.287325   0.000000   0.000000
   19       31.530995     31.287325   0.000000   0.000000
   20       31.530995     31.287325   0.000000   0.000000
 
  0.6666667E-01  0.1540744E-32  0.0000000E+00  0.1777778E-02
    1       -2.362023     -2.195119   1.000000   1.000000
    2        1.160031      2.936868   1.000000   1.000000
    3        1.162389      2.949227   1.000000   1.000000
    4        3.810303      5.656316   1.000000   1.000673
    5        3.810304      5.656461   1.000000   1.000676
    6        3.847282      5.698616   1.000000   1.001742
    7        5.042116      7.735615   1.000000  -0.000000
    8        5.096911      7.807594   1.000000  -0.000000
    9        6.249910      8.347656   0.222837  -0.000000
   10        6.249912      8.347789   0.222831  -0.000000
   11        6.303361      8.422732   0.072315  -0.000000
   12       15.671733     16.052024   0.000000   0.000000
   13       16.530199     16.820347   0.000000   0.000000
   14       16.530199     16.820349   0.000000   0.000000
   15       22.210961     23.255557   0.000000   0.000000
   16       22.697814     23.651811   0.000000   0.000000
   17       27.981028     29.061836   0.000000   0.000000
   18       30.915912     30.747958   0.000000   0.000000
   19       31.473234     31.262564   0.000000   0.000000
   20       31.473234     31.262565   0.000000   0.000000
 
  0.1333333E+00  0.0000000E+00  0.0000000E+00  0.1777778E-02
    1       -2.081417     -1.912672   1.000000   1.000000
    2        1.282353      3.033904   1.000000   1.000000
    3        1.286539      3.093121   1.000000   1.000000
    4        3.799369      5.637262   1.000000   1.000424
    5        3.799370      5.637406   1.000000   1.000426
    6        3.920865      5.780784   1.000000   1.008113
    7        4.902166      7.559712   1.000000  -0.000000
    8        5.147028      7.868891   1.000000  -0.000000
    9        6.027773      8.063577   0.979242  -0.000000
   10        6.027775      8.063709   0.979240  -0.000000
   11        6.217997      8.327361   0.341894  -0.000000
   12       14.183852     14.765078   0.000000   0.000000
   13       17.054244     17.407699   0.000000   0.000000
   14       17.054244     17.407702   0.000000   0.000000
   15       22.294613     23.314499   0.000000   0.000000
   16       23.619565     24.435391   0.000000   0.000000
   17       28.984505     29.616390   0.000000   0.000000
   18       29.659623     30.012305   0.000000   0.000000
   19       31.169492     31.085188   0.000000   0.000000
   20       31.169493     31.085191   0.000000   0.000000
 
  0.2000000E+00 -0.6162976E-32  0.0000000E+00  0.1777778E-02
    1       -1.627468     -1.453185   1.000000   1.000000
    2        1.463944      3.152684   1.000000   1.000000
    3        1.482578      3.329125   1.000000   1.000000
    4        3.806127      5.630476   1.000000   1.000358
    5        3.806128      5.630619   1.000000   1.000359
    6        4.048742      5.921063   1.000000   1.034785
    7        4.691191      7.289107   1.000000  -0.000000
    8        5.229468      7.672592   1.000000  -0.000000
    9        5.709335      7.672723   1.002180  -0.000000
   10        5.709337      7.964641   1.002180  -0.000000
   11        6.080407      8.173765   0.868632  -0.000000
   12       12.468796     13.259281   0.000000   0.000000
   13       17.868797     18.296907   0.000000   0.000000
   14       17.868797     18.296910   0.000000   0.000000
   15       22.449649     23.426071   0.000000   0.000000
   16       24.287196     25.019498   0.000000   0.000000
   17       28.333495     28.409526   0.000000   0.000000
   18       30.400409     30.539727   0.000000   0.000000
   19       30.400409     30.539732   0.000000   0.000000
   20       30.758304     31.698541   0.000000   0.000000
 
  0.2666667E+00  0.0000000E+00  0.0000000E+00  0.1777778E-02
    1       -1.024102     -0.835298   1.000000   1.000000
    2        1.655524      3.229869   1.000000   1.000000
    3        1.749842      3.647467   1.000000   1.000000
    4        3.831919      5.641624   1.000000   1.000472
    5        3.831920      5.641765   1.000000   1.000474
    6        4.201542      6.092772   1.000000   0.832652
    7        4.405633      6.925096   1.000000  -0.000001
    8        5.336510      7.242795   1.000000  -0.000000
    9        5.344365      7.242925   1.000000  -0.000000
   10        5.344367      7.969501   1.000000  -0.000000
   11        5.897208      8.078830   1.031275  -0.000000
   12       10.771228     11.804090  -0.000000   0.000000
   13       18.913296     19.409245   0.000000   0.000000
   14       18.913296     19.409249   0.000000   0.000000
   15       22.649999     23.571046   0.000000   0.000000
   16       24.724280     25.388387   0.000000   0.000000
   17       27.105394     27.302231   0.000000   0.000000
   18       29.154864     29.510656   0.000000   0.000000
   19       29.154865     29.510662   0.000000   0.000000
   20       30.974550     31.393044   0.000000   0.000000
 
  0.3333333E+00  0.0000000E+00  0.0000000E+00  0.1777778E-02
    1       -0.312316     -0.088257   1.000000   1.000000
    2        1.799409      3.173742   1.000000   1.000000
    3        2.076478      4.039108   1.000000   1.000000
    4        3.892499      5.688585   1.000000   1.001404
    5        3.892500      5.688724   1.000000   1.001408
    6        4.064254      6.321681   1.000000   0.037012
    7        4.409462      6.491788   1.000000  -0.024937
    8        4.983176      6.831244   1.000000  -0.000021
    9        4.983177      6.831374   1.000000  -0.000021
   10        5.490550      7.724639   1.000006  -0.000000
   11        5.677271      8.212666   1.001092  -0.000000
   12        9.207999     10.551562  -0.000000  -0.000000
   13       20.137178     20.685929   0.000000   0.000000
   14       20.137179     20.685932   0.000000   0.000000
   15       22.929143     23.779153   0.000000   0.000000
   16       25.108404     25.700790   0.000000   0.000000
   17       26.037893     26.355300   0.000000   0.000000
   18       27.664913     28.157464   0.000000   0.000000
   19       27.664914     28.157470   0.000000   0.000000
   20       29.446197     29.853304   0.000000   0.000000
 
  0.4000000E+00  0.0000000E+00  0.0000000E+00  0.1777778E-02
    1        0.437970      0.742184   1.000000   1.000000
    2        1.811601      2.889480   1.000000   1.000000
    3        2.449429      4.490014   1.000000   1.000000
    4        3.679505      5.787977   1.000000   1.009093
    5        4.001541      5.788114   1.000000   1.009112
    6        4.001542      6.007496   1.000000   1.004231
    7        4.649912      6.468852   1.000000  -0.030023
    8        4.655546      6.468984   1.000000  -0.029996
    9        4.655547      6.586024   1.000000  -0.007229
   10        5.430952      7.450884   1.000001  -0.000000
   11        5.732912      8.375758   1.003484  -0.000000
   12        7.869714      9.602203  -0.000000  -0.000000
   13       21.500000     22.083879   0.000000   0.000000
   14       21.500001     22.083880   0.000000   0.000000
   15       23.300780     24.064940   0.000000   0.000000
   16       25.133715     25.571802   0.000000   0.000000
   17       25.571973     26.093782   0.000000   0.000000
   18       26.101662     26.665007   0.000000   0.000000
   19       26.101663     26.665012   0.000000   0.000000
   20       28.124586     28.530675   0.000000   0.000000
 
  0.4666667E+00 -0.1232595E-31  0.0000000E+00  0.1777778E-02
    1        1.117006      1.585164   1.000000   1.000000
    2        1.596438      2.338722   1.000000   1.000000
    3        2.852975      4.982667   1.000000   1.000000
    4        3.269366      5.496273   1.000000   1.000007
    5        4.160392      5.945070   1.000000   1.035033
    6        4.160393      5.945205   1.000000   1.035022
    7        4.379128      6.171808   1.000000   0.534103
    8        4.379129      6.171941   1.000000   0.533540
    9        4.905551      6.868543   1.000000  -0.000006
   10        5.169881      7.161172   1.000000  -0.000000
   11        6.144232      8.603179   0.648193  -0.000000
   12        6.837283      8.976778  -0.000017  -0.000000
   13       22.969874     23.570839   0.000000   0.000000
   14       22.969875     23.570839   0.000000   0.000000
   15       23.780415     24.445575   0.000000   0.000000
   16       24.385876     24.941191   0.000000   0.000000
   17       24.513742     25.109652   0.000000   0.000000
   18       24.513743     25.109655   0.000000   0.000000
   19       26.192827     26.655905   0.000000   0.000000
   20       27.038283     27.461902   0.000000   0.000000
 
  0.6666667E-01  0.6666667E-01  0.0000000E+00  0.3555556E-02
    1       -2.267948     -2.100532   1.000000   1.000000
    2        1.201357      2.980953   1.000000   1.000000
    3        1.206024      2.989422   1.000000   1.000000
    4        3.765628      5.603493   1.000000   1.000178
    5        3.804466      5.647660   1.000000   1.000547
    6        3.906012      5.766264   1.000000   1.006377
    7        5.027468      7.717149   1.000000  -0.000000
    8        5.083823      7.790922   1.000000  -0.000000
    9        6.103407      8.171755   0.798831  -0.000000
   10        6.173358      8.246048   0.527557  -0.000000
   11        6.344418      8.468507   0.004366  -0.000000
   12       15.689058     16.109607   0.000000   0.000000
   13       15.998259     16.388571   0.000000   0.000000
   14       16.706107     17.018295   0.000000   0.000000
   15       22.484182     23.473270   0.000000   0.000000
   16       23.017315     23.914930   0.000000   0.000000
   17       28.257377     29.327591   0.000000   0.000000
   18       30.384835     30.310161   0.000000   0.000000
   19       31.271089     31.081377   0.000000   0.000000
   20       31.443395     31.255738   0.000000   0.000000
 
  0.1333333E+00  0.6666667E-01  0.0000000E+00  0.7111111E-02
    1       -1.989707     -1.820070   1.000000   1.000000
    2        1.317907      3.080890   1.000000   1.000000
    3        1.332339      3.126981   1.000000   1.000000
    4        3.711338      5.539687   1.000000   1.000029
    5        3.789667      5.624388   1.000000   1.000307
    6        4.023527      5.893722   1.000000   1.030595
    7        4.917606      7.574011   1.000000  -0.000000
    8        5.121276      7.837580   1.000000  -0.000000
    9        5.840228      7.850069   1.018625  -0.000000
   10        5.946447      7.959943   1.034905  -0.000000
   11        6.315368      8.433766   0.048239  -0.000000
   12       14.303556     14.908732   0.000000   0.000000
   13       16.371827     16.838522   0.000000   0.000000
   14       17.215447     17.583308   0.000000   0.000000
   15       22.652672     23.602348   0.000000   0.000000
   16       23.948572     24.717170   0.000000   0.000000
   17       29.118370     29.179300   0.000000   0.000000
   18       29.195757     30.221722   0.000000   0.000000
   19       30.857081     30.777709   0.000000   0.000000
   20       31.206431     31.125814   0.000000   0.000000
 
  0.2000000E+00  0.6666667E-01  0.0000000E+00  0.7111111E-02
    1       -1.540236     -1.364196   1.000000   1.000000
    2        1.498348      3.200698   1.000000   1.000000
    3        1.524516      3.355856   1.000000   1.000000
    4        3.690093      5.504836   1.000000   1.000010
    5        3.782663      5.605187   1.000000   1.000186
    6        4.176586      6.059844   1.000000   0.920083
    7        4.730039      7.325558   1.000000  -0.000000
    8        5.204496      7.452989   1.000000  -0.000000
    9        5.508580      7.576709   1.000011  -0.000000
   10        5.630062      7.935295   1.000354  -0.000000
   11        6.210513      8.313341   0.372030  -0.000000
   12       12.586885     13.394452   0.000000   0.000000
   13       17.117883     17.661585   0.000000   0.000000
   14       18.011251     18.446401   0.000000   0.000000
   15       22.837777     23.739805   0.000000   0.000000
   16       24.711418     25.395657   0.000000   0.000000
   17       27.723524     27.911790   0.000000   0.000000
   18       30.023440     30.128064   0.000000   0.000000
   19       30.491875     30.628824   0.000000   0.000000
   20       30.900615     31.844430   0.000000   0.000000
 
  0.2666667E+00  0.6666667E-01  0.0000000E+00  0.7111111E-02
    1       -0.944172     -0.751836   1.000000   1.000000
    2        1.692335      3.276493   1.000000   1.000000
    3        1.781826      3.664618   1.000000   1.000000
    4        3.697578      5.498332   1.000000   1.000008
    5        3.778260      5.593944   1.000000   1.000138
    6        4.363483      6.263561   1.000000   0.177927
    7        4.485670      6.993801   1.000000  -0.000000
    8        5.144941      7.030299   1.000000  -0.000000
    9        5.280288      7.173645   1.000000  -0.000000
   10        5.320614      8.058750   1.000000  -0.000000
   11        6.045862      8.127247   0.948983  -0.000000
   12       10.882285     11.923061  -0.000000   0.000000
   13       18.064919     18.677205   0.000000   0.000000
   14       19.037160     19.535025   0.000000   0.000000
   15       23.087470     23.927288   0.000000   0.000000
   16       25.236956     25.857611   0.000000   0.000000
   17       26.382298     26.700000   0.000000   0.000000
   18       28.822382     29.082608   0.000000   0.000000
   19       29.257467     29.615871   0.000000   0.000000
   20       32.068415     32.465741   0.000000   0.000000
 
  0.3333333E+00  0.6666667E-01  0.0000000E+00  0.7111111E-02
    1       -0.243704     -0.012779   1.000000   1.000000
    2        1.833633      3.215955   1.000000   1.000000
    3        2.096897      4.040685   1.000000   1.000000
    4        3.745125      5.533175   1.000000   1.000024
    5        3.747358      5.597891   1.000000   1.000153
    6        4.253763      6.505407   1.000000  -0.021791
    7        4.585201      6.618396   1.000000  -0.004087
    8        4.789924      6.628690   1.000000  -0.003362
    9        4.942720      6.805564   1.000000  -0.000045
   10        5.477083      7.893513   1.000004  -0.000000
   11        5.837531      8.196490   1.018040  -0.000000
   12        9.306896     10.644749  -0.000000  -0.000000
   13       19.145659     19.809361   0.000000   0.000000
   14       20.244848     20.792602   0.000000   0.000000
   15       23.429099     24.190885   0.000000   0.000000
   16       25.124007     25.571811   0.000000   0.000000
   17       25.713843     26.271152   0.000000   0.000000
   18       27.535565     27.883531   0.000000   0.000000
   19       27.763508     28.257905   0.000000   0.000000
   20       30.562603     30.978682   0.000000   0.000000
 
  0.4000000E+00  0.6666667E-01  0.0000000E+00  0.7111111E-02
    1        0.490777      0.806926   1.000000   1.000000
    2        1.840823      2.927909   1.000000   1.000000
    3        2.455119      4.467056   1.000000   1.000000
    4        3.558666      5.561633   1.000000   1.000056
    5        3.840391      5.620075   1.000000   1.000275
    6        4.177545      6.276933   1.000000   0.138086
    7        4.471233      6.279712   1.000000   0.130347
    8        4.657086      6.507568   1.000000  -0.021297
    9        4.827018      6.771280   1.000000  -0.000119
   10        5.598609      7.626825   1.000156  -0.000000
   11        5.726913      8.364780   1.003102  -0.000000
   12        7.951035      9.663849  -0.000000  -0.000000
   13       20.312197     21.004046   0.000000   0.000000
   14       21.597077     22.178827   0.000000   0.000000
   15       23.893513     24.480725   0.000000   0.000000
   16       23.914142     24.563026   0.000000   0.000000
   17       26.174977     26.740100   0.000000   0.000000
   18       26.286650     26.742276   0.000000   0.000000
   19       26.333363     26.785220   0.000000   0.000000
   20       29.187664     29.612241   0.000000   0.000000
 
  0.4666667E+00  0.6666667E-01  0.0000000E+00  0.7111111E-02
    1        1.152580      1.637308   1.000000   1.000000
    2        1.622406      2.380096   1.000000   1.000000
    3        2.837854      4.915857   1.000000   1.000000
    4        3.221046      5.328415   1.000000   1.000000
    5        3.992321      5.770464   1.000000   1.006847
    6        4.201554      5.988009   1.000000   1.020375
    7        4.267157      6.167423   1.000000   0.552575
    8        4.431029      6.283083   1.000000   0.121217
    9        5.082039      7.053091   1.000000  -0.000000
   10        5.341858      7.341267   1.000000  -0.000000
   11        6.157337      8.602258   0.594694  -0.000000
   12        6.882437      8.998105  -0.000004  -0.000000
   13       21.511782     22.202936   0.000000   0.000000
   14       22.717578     23.368676   0.000000   0.000000
   15       23.055636     23.654379   0.000000   0.000000
   16       24.508317     25.079833   0.000000   0.000000
   17       24.595761     25.190667   0.000000   0.000000
   18       25.317330     25.797187   0.000000   0.000000
   19       27.029246     27.486624   0.000000   0.000000
   20       28.001017     28.435132   0.000000   0.000000
 
  0.1333333E+00  0.1333333E+00  0.0000000E+00  0.3555556E-02
    1       -1.719121     -1.545877   1.000000   1.000000
    2        1.417908      3.215320   1.000000   1.000000
    3        1.467825      3.221149   1.000000   1.000000
    4        3.608410      5.419786   1.000000   1.000001
    5        3.763566      5.588379   1.000000   1.000118
    6        4.201691      6.087878   1.000000   0.847331
    7        4.922332      7.474741   1.000000  -0.000000
    8        5.093179      7.562856   1.000000  -0.000000
    9        5.520192      7.688957   1.000016  -0.000000
   10        5.726751      7.803045   1.003092  -0.000000
   11        6.383099      8.510553  -0.026721  -0.000000
   12       14.283879     14.952933   0.000000   0.000000
   13       15.298324     15.944982   0.000000   0.000000
   14       17.686128     18.092043   0.000000   0.000000
   15       23.004236     23.886416   0.000000   0.000000
   16       24.960099     25.610093   0.000000   0.000000
   17       27.833938     28.051272   0.000000   0.000000
   18       29.936014     30.282204   0.000000   0.000000
   19       30.324976     30.944680   0.000000   0.000000
   20       31.213060     31.165030   0.000000   0.000000
 
  0.2000000E+00  0.1333333E+00  0.0000000E+00  0.7111111E-02
    1       -1.284204     -1.101423   1.000000   1.000000
    2        1.571574      3.326934   1.000000   1.000000
    3        1.672338      3.439387   1.000000   1.000000
    4        3.527565      5.322086   1.000000   1.000000
    5        3.726165      5.536348   1.000000   1.000026
    6        4.408165      6.312556   1.000000   0.053556
    7        4.815073      7.053078   1.000000  -0.000000
    8        5.152066      7.342277   1.000000  -0.000000
    9        5.156235      7.405941   1.000000  -0.000000
   10        5.429264      7.870933   1.000001  -0.000000
   11        6.363544      8.486485  -0.014448  -0.000000
   12       12.852621     13.692312   0.000000   0.000000
   13       15.664365     16.391343   0.000000   0.000000
   14       18.431266     18.886242   0.000000   0.000000
   15       23.233958     24.059526   0.000000   0.000000
   16       25.984318     26.546890   0.000000   0.000000
   17       26.338049     26.686408   0.000000   0.000000
   18       29.529770     29.585538   0.000000   0.000000
   19       30.741007     30.863712   0.000000   0.000000
   20       31.395000     32.345799   0.000000   0.000000
 
  0.2666667E+00  0.1333333E+00  0.0000000E+00  0.7111111E-02
    1       -0.712442     -0.506803   1.000000   1.000000
    2        1.743684      3.387349   1.000000   1.000000
    3        1.925127      3.728031   1.000000   1.000000
    4        3.487054      5.265292   1.000000   1.000000
    5        3.689101      5.488676   1.000000   1.000006
    6        4.640226      6.564565   1.000000  -0.010157
    7        4.656530      6.628195   1.000000  -0.003394
    8        4.781978      7.008406   1.000000  -0.000000
    9        5.116032      7.159302   1.000000  -0.000000
   10        5.267270      7.996863   1.000000  -0.000000
   11        6.264584      8.372090   0.174731  -0.000000
   12       11.161957     12.212524  -0.000000   0.000000
   13       16.477023     17.254225   0.000000   0.000000
   14       19.405355     19.909418   0.000000   0.000000
   15       23.473919     24.234044   0.000000   0.000000
   16       24.867669     25.331789   0.000000   0.000000
   17       26.747121     27.260947   0.000000   0.000000
   18       28.482184     28.642045   0.000000   0.000000
   19       29.552973     29.918075   0.000000   0.000000
   20       33.513468     34.288220   0.000000   0.000000
 
  0.3333333E+00  0.1333333E+00  0.0000000E+00  0.7111111E-02
    1       -0.050519      0.206127   1.000000   1.000000
    2        1.871962      3.307608   1.000000   1.000000
    3        2.215295      4.071317   1.000000   1.000000
    4        3.493150      5.258258   1.000000   1.000000
    5        3.616131      5.433135   1.000000   1.000001
    6        4.432497      6.238404   1.000000   0.263707
    7        4.513361      6.758340   1.000000  -0.000168
    8        4.848801      6.832431   1.000000  -0.000020
    9        4.885009      6.880154   1.000000  -0.000004
   10        5.426745      8.141904   1.000001  -0.000000
   11        6.106925      8.191638   0.787090  -0.000000
   12        9.566169     10.881386  -0.000000  -0.000000
   13       17.444741     18.248130   0.000000   0.000000
   14       20.567462     21.112941   0.000000   0.000000
   15       23.453747     24.024024   0.000000   0.000000
   16       23.789889     24.469724   0.000000   0.000000
   17       27.360466     27.605909   0.000000   0.000000
   18       27.412321     27.887518   0.000000   0.000000
   19       28.017449     28.521922   0.000000   0.000000
   20       32.506138     32.908645   0.000000   0.000000
 
  0.4000000E+00  0.1333333E+00  0.0000000E+00  0.7111111E-02
    1        0.628707      0.990091   1.000000   1.000000
    2        1.865872      3.009593   1.000000   1.000000
    3        2.535287      4.445484   1.000000   1.000000
    4        3.452731      5.312192   1.000000   1.000000
    5        3.555741      5.335268   1.000000   1.000000
    6        4.124874      5.902216   1.000000   1.032192
    7        4.464140      6.611030   1.000000  -0.004681
    8        4.664987      6.647523   1.000000  -0.002313
    9        5.142660      7.115632   1.000000  -0.000000
   10        5.696598      7.957842   1.001669  -0.000000
   11        5.899944      8.322754   1.031785  -0.000000
   12        8.158773      9.813702  -0.000000  -0.000000
   13       18.508126     19.311870   0.000000   0.000000
   14       21.881909     22.457514   0.000000   0.000000
   15       22.112848     22.773343   0.000000   0.000000
   16       24.203792     24.793309   0.000000   0.000000
   17       26.328927     26.651343   0.000000   0.000000
   18       26.411530     26.979359   0.000000   0.000000
   19       28.133842     28.575193   0.000000   0.000000
   20       31.193196     31.595276   0.000000   0.000000
 
  0.4666667E+00  0.1333333E+00  0.0000000E+00  0.7111111E-02
    1        1.227842      1.777156   1.000000   1.000000
    2        1.656046      2.480334   1.000000   1.000000
    3        2.868313      4.816733   1.000000   1.000000
    4        3.188234      5.131932   1.000000   1.000000
    5        3.680216      5.434742   1.000000   1.000001
    6        3.872544      5.633161   1.000000   1.000383
    7        4.494355      6.532187   1.000000  -0.015952
    8        4.557268      6.536088   1.000000  -0.015170
    9        5.404913      7.405416   1.000000  -0.000000
   10        5.661703      7.690845   1.000764  -0.000000
   11        6.190309      8.592636   0.455912  -0.000000
   12        7.013187      9.059006  -0.000000  -0.000000
   13       19.643711     20.422854   0.000000   0.000000
   14       20.842170     21.573068   0.000000   0.000000
   15       23.313360     23.905700   0.000000   0.000000
   16       24.746065     25.242104   0.000000   0.000000
   17       24.826962     25.419157   0.000000   0.000000
   18       25.451180     25.856456   0.000000   0.000000
   19       28.989504     29.407327   0.000000   0.000000
   20       30.008392     30.414485   0.000000   0.000000
 
  0.2000000E+00  0.2000000E+00  0.0000000E+00  0.3555556E-02
    1       -0.877414     -0.677759   1.000000   1.000000
    2        1.673542      3.439068   1.000000   1.000000
    3        1.899551      3.619830   1.000000   1.000000
    4        3.394511      5.167315   1.000000   1.000000
    5        3.677739      5.458284   1.000000   1.000002
    6        4.666620      6.594513   1.000000  -0.006266
    7        4.773058      6.619719   1.000000  -0.003987
    8        4.878029      7.065114   1.000000  -0.000000
    9        5.119859      7.445372   1.000000  -0.000000
   10        5.169006      7.835918   1.000000  -0.000000
   11        6.436509      8.569370  -0.034972  -0.000000
   12       12.684513     13.562568   0.000000   0.000000
   13       14.675024     15.572808   0.000000   0.000000
   14       19.106805     19.589757   0.000000   0.000000
   15       23.456696     24.219905   0.000000   0.000000
   16       24.778183     25.245729   0.000000   0.000000
   17       27.441439     27.892050   0.000000   0.000000
   18       28.890941     28.956053   0.000000   0.000000
   19       30.946144     31.054054   0.000000   0.000000
   20       32.563664     33.337712   0.000000   0.000000
 
  0.2666667E+00  0.2000000E+00  0.0000000E+00  0.7111111E-02
    1       -0.354577     -0.116804   1.000000   1.000000
    2        1.776452      3.457815   1.000000   1.000000
    3        2.179044      3.894614   1.000000   1.000000
    4        3.294980      5.049661   1.000000   1.000000
    5        3.641782      5.379686   1.000000   1.000000
    6        4.394994      6.197981   1.000000   0.423732
    7        4.824588      6.846267   1.000000  -0.000013
    8        4.925762      6.886360   1.000000  -0.000004
    9        4.932737      7.335869   1.000000  -0.000000
   10        5.194377      7.916856   1.000000  -0.000000
   11        6.421621      8.551130  -0.035418  -0.000000
   12       11.403853     12.441168  -0.000000   0.000000
   13       14.990975     15.938887   0.000000   0.000000
   14       20.005779     20.520033   0.000000   0.000000
   15       23.212185     23.784838   0.000000   0.000000
   16       23.668122     24.359490   0.000000   0.000000
   17       28.042597     28.153360   0.000000   0.000000
   18       28.611860     29.005265   0.000000   0.000000
   19       30.007911     30.383652   0.000000   0.000000
   20       32.353991     32.914722   0.000000   0.000000
 
  0.3333333E+00  0.2000000E+00  0.0000000E+00  0.7111111E-02
    1        0.228853      0.545806   1.000000   1.000000
    2        1.832270      3.338342   1.000000   1.000000
    3        2.481993      4.211676   1.000000   1.000000
    4        3.254797      4.994007   1.000000   1.000000
    5        3.611200      5.314183   1.000000   1.000000
    6        4.050944      5.819543   1.000000   1.014368
    7        4.757467      6.746112   1.000000  -0.000233
    8        4.758496      7.161114   1.000000  -0.000000
    9        5.204780      7.185563   1.000000  -0.000000
   10        5.347379      8.060121   1.000000  -0.000000
   11        6.330269      8.445399   0.023280  -0.000000
   12        9.860819     11.127097  -0.000000  -0.000000
   13       15.796674     16.745271   0.000000   0.000000
   14       21.096113     21.639840   0.000000   0.000000
   15       21.730342     22.396083   0.000000   0.000000
   16       23.933390     24.540382   0.000000   0.000000
   17       27.099781     27.271324   0.000000   0.000000
   18       28.414796     28.940457   0.000000   0.000000
   19       29.520257     29.894440   0.000000   0.000000
   20       33.010129     33.460434   0.000000   0.000000
 
  0.4000000E+00  0.2000000E+00  0.0000000E+00  0.7111111E-02
    1        0.796109      1.258926   1.000000   1.000000
    2        1.787053      3.041780   1.000000   1.000000
    3        2.787300      4.539252   1.000000   1.000000
    4        3.279251      5.007810   1.000000   1.000000
    5        3.521582      5.231141   1.000000   1.000000
    6        3.759845      5.503900   1.000000   1.000010