 vasp.6.2.0 18Jan21 (build Aug 12 2022 13:00:08) complex                        
  
 executed on             LinuxIFC date 2024.11.04  06:45:40
 running on    4 total cores
 distrk:  each k-point on    4 cores,    1 groups
 distr:  one band on NCORE=   1 cores,    4 groups


--------------------------------------------------------------------------------------------------------


 INCAR:
   ISTART = 0            (Read existing wavefunction, if there)
   ISPIN = 2            (Non-Spin polarised DFT)
   MAGMOM = 5 5          (Set this parameters manually)
   GGA_COMPAT = .FALSE.   (Apply spherical cutoff on gradient field)
   VOSKOWN = 1        (Enhances the magnetic moments and the magnetic energies)
   LMAXMIX = 4        (For d elements increase LMAXMIX to 4, f: LMAXMIX \= 6)
   LREAL = .FALSE.       (Projection operators: automatic)
   ENCUT = 250          (Cut-off energy for plane wave basis set, in eV)
   LORBIT = 11           (Write orbital decomposed charge densities and magnetic moments)
   ADDGRID = .TRUE.        (Increase grid, helps GGA convergence)
   LASPH = .TRUE.        (Give more accurate total energies and band structure calculations)
   PREC = Accurate      (Accurate strictly avoids any aliasing or wrap around errors)
   ISMEAR = 1            (Gaussian smearing, metals:1)
   SIGMA = 0.2          (Smearing value in eV, metals:0.2)
   NELM = 90           (Max electronic SCF steps)
   NELMIN = 6            (Min electronic SCF steps)
   EDIFF = 1E-06        (SCF energy convergence, in eV)
   NSW = 100          (Max ionic steps)
   IBRION = 2            (Algorithm: 0-MD, 1-Quasi-New, 2-CG)
   ISIF = 3            (Stress/relaxation: 2-Ions, 3-Shape/Ions/V, 4-Shape/Ions)
   EDIFFG = -2E-03        (Ionic convergence, eV/AA)
   ISYM = 2              (Symmetry: 0\=none, 2\=GGA, 3\=hybrids)

 POTCAR:    PAW_PBE Fe 06Sep2000                  
 POTCAR:    PAW_PBE Fe 06Sep2000                  
   VRHFIN =Fe:  d7 s1                                                                               
   LEXCH  = PE                                                                                      
   EATOM  =   594.3153 eV,   43.6809 Ry                                                             
                                                                                                    
   TITEL  = PAW_PBE Fe 06Sep2000                                                                    
   LULTRA =        F    use ultrasoft PP ?                                                          
   IUNSCR =        1    unscreen: 0-lin 1-nonlin 2-no                                               
   RPACOR =    2.000    partial core radius                                                         
   POMASS =   55.847; ZVAL   =    8.000    mass and valenz                                          
   RCORE  =    2.300    outmost cutoff radius                                                       
   RWIGS  =    2.460; RWIGS  =    1.302    wigner-seitz radius (au A)                               
   ENMAX  =  267.882; ENMIN  =  200.911 eV                                                          
   RCLOC  =    1.701    cutoff for local pot                                                        
   LCOR   =        T    correct aug charges                                                         
   LPAW   =        T    paw PP                                                                      
   EAUG   =  511.368                                                                                
   DEXC   =    0.000                                                                                
   RMAX   =    2.356    core radius for proj-oper                                                   
   RAUG   =    1.300    factor for augmentation sphere                                              
   RDEP   =    2.442    radius for radial grids                                                     
   RDEPT  =    1.890    core radius for aug-charge                                                  
                                                                                                    
   Atomic configuration                                                                             
    9 entries                                                                                       
     n  l   j            E        occ.                                                              
     1  0  0.50     -6993.8440   2.0000                                                             
     2  0  0.50      -814.6047   2.0000                                                             
     2  1  1.50      -693.3689   6.0000                                                             
     3  0  0.50       -89.4732   2.0000                                                             
     3  1  1.50       -55.6373   6.0000                                                             
     3  2  2.50        -3.8151   7.0000                                                             
     4  0  0.50        -4.2551   1.0000                                                             
     4  1  1.50        -3.4015   0.0000                                                             
     4  3  2.50        -1.3606   0.0000                                                             
   Description                                                                                      
     l       E           TYP  RCUT    TYP  RCUT                                                     
     2     -3.8151135     23  2.300                                                                 
     2     -5.1756961     23  2.300                                                                 
     0     -4.2550963     23  2.300                                                                 
     0      7.2035603     23  2.300                                                                 
     1     -2.7211652     23  2.300                                                                 
     1     18.4316424     23  2.300                                                                 
  local pseudopotential read in
  partial core-charges read in
  partial kinetic energy density read in
  atomic valenz-charges read in
  non local Contribution for L=           2  read in
    real space projection operators read in
  non local Contribution for L=           2  read in
    real space projection operators read in
  non local Contribution for L=           0  read in
    real space projection operators read in
  non local Contribution for L=           0  read in
    real space projection operators read in
  non local Contribution for L=           1  read in
    real space projection operators read in
  non local Contribution for L=           1  read in
    real space projection operators read in
    PAW grid and wavefunctions read in
 
   number of l-projection  operators is LMAX  =           6
   number of lm-projection operators is LMMAX =          18
 
  PAW_PBE Fe 06Sep2000                  :
 energy of atom  1       EATOM= -594.3153
 kinetic energy error for atom=    0.0658 (will be added to EATOM!!)
 
 
 POSCAR: Fe2
  positions in direct lattice
  No initial velocities read in
 exchange correlation table for  LEXCH =        8
   RHO(1)=    0.500       N(1)  =     2000
   RHO(2)=  100.500       N(2)  =     4000
 


--------------------------------------------------------------------------------------------------------


 ion  position               nearest neighbor table
   1  0.000  0.000  0.000-   2 2.48   2 2.48   2 2.48   2 2.48   2 2.48   2 2.48   2 2.48   2 2.48

   2  0.500  0.500  0.500-   1 2.48   1 2.48   1 2.48   1 2.48   1 2.48   1 2.48   1 2.48   1 2.48

 
  LATTYP: Found a simple cubic cell.
 ALAT       =     2.8630354989
  
  Lattice vectors:
  
 A1 = (   2.8630354989,   0.0000000000,   0.0000000000)
 A2 = (   0.0000000000,   2.8630354989,   0.0000000000)
 A3 = (   0.0000000000,   0.0000000000,   2.8630354989)


Analysis of symmetry for initial positions (statically):
=====================================================================
 Subroutine PRICEL returns following result:
 
  LATTYP: Found a body centered cubic cell.
 ALAT       =     2.8630354989
  
  Lattice vectors:
  
 A1 = (   1.4315177495,   1.4315177495,  -1.4315177495)
 A2 = (  -1.4315177495,   1.4315177495,   1.4315177495)
 A3 = (   1.4315177495,  -1.4315177495,   1.4315177495)
 
   2 primitive cells build up your supercell.
 

 Routine SETGRP: Setting up the symmetry group for a 
 simple cubic supercell.


 Subroutine GETGRP returns: Found 48 space group operations
 (whereof 48 operations were pure point group operations)
 out of a pool of 48 trial point group operations.


The static configuration has the point symmetry O_h .


Analysis of symmetry for dynamics (positions and initial velocities):
=====================================================================
 Subroutine PRICEL returns following result:
 
  LATTYP: Found a body centered cubic cell.
 ALAT       =     2.8630354989
  
  Lattice vectors:
  
 A1 = (   1.4315177495,   1.4315177495,  -1.4315177495)
 A2 = (  -1.4315177495,   1.4315177495,   1.4315177495)
 A3 = (   1.4315177495,  -1.4315177495,   1.4315177495)
 
   2 primitive cells build up your supercell.
 

 Routine SETGRP: Setting up the symmetry group for a 
 simple cubic supercell.


 Subroutine GETGRP returns: Found 48 space group operations
 (whereof 48 operations were pure point group operations)
 out of a pool of 48 trial point group operations.


The dynamic configuration has the point symmetry O_h .


Analysis of structural, dynamic, and magnetic symmetry:
=====================================================================
 Subroutine PRICEL returns following result:
 
  LATTYP: Found a body centered cubic cell.
 ALAT       =     2.8630354989
  
  Lattice vectors:
  
 A1 = (   1.4315177495,   1.4315177495,  -1.4315177495)
 A2 = (  -1.4315177495,   1.4315177495,   1.4315177495)
 A3 = (   1.4315177495,  -1.4315177495,   1.4315177495)
 
   2 primitive cells build up your supercell.
 

 Routine SETGRP: Setting up the symmetry group for a 
 simple cubic supercell.


 Subroutine GETGRP returns: Found 48 space group operations
 (whereof 48 operations were pure point group operations)
 out of a pool of 48 trial point group operations.


The overall configuration has the point symmetry O_h .


 Subroutine INISYM returns: Found 48 space group operations
 (whereof 48 operations are pure point group operations),
 and found     2 'primitive' translations


----------------------------------------------------------------------------------------

                                     Primitive cell                                     

  volume of cell :      11.7341

  direct lattice vectors                    reciprocal lattice vectors
     1.431517749  1.431517749 -1.431517749     0.349279637  0.349279637  0.000000000
    -1.431517749  1.431517749  1.431517749     0.000000000  0.349279637  0.349279637
     1.431517749 -1.431517749  1.431517749     0.349279637 -0.000000000  0.349279637

  length of vectors
     2.479461474  2.479461474  2.479461474     0.493956000  0.493956000  0.493956000

  position of ions in fractional coordinates (direct lattice)
     0.000000000  0.000000000  0.000000000

  ion indices of the primitive-cell ions
   primitive index   ion index
                 1           1

----------------------------------------------------------------------------------------

 
 
 KPOINTS: Automatic                               

Automatic generation of k-mesh.
 Grid dimensions read from file:
 generate k-points for:   15   15   15

 Generating k-lattice:

  Cartesian coordinates                     Fractional coordinates (reciprocal lattice)
     0.023285309 -0.000000000  0.000000000     0.066666667  0.000000000  0.000000000
     0.000000000  0.023285309  0.000000000     0.000000000  0.066666667  0.000000000
    -0.000000000 -0.000000000  0.023285309     0.000000000  0.000000000  0.066666667

  Length of vectors
     0.023285309  0.023285309  0.023285309

  Shift w.r.t. Gamma in fractional coordinates (k-lattice)
     0.000000000  0.000000000  0.000000000

 
 Subroutine IBZKPT returns following result:
 ===========================================
 
 Found    120 irreducible k-points:
 
 Following reciprocal coordinates:
            Coordinates               Weight
  0.000000  0.000000  0.000000      1.000000
  0.066667  0.000000  0.000000      6.000000
  0.133333  0.000000  0.000000      6.000000
  0.200000 -0.000000  0.000000      6.000000
  0.266667  0.000000  0.000000      6.000000
  0.333333  0.000000  0.000000      6.000000
  0.400000  0.000000  0.000000      6.000000
  0.466667 -0.000000  0.000000      6.000000
  0.066667  0.066667  0.000000     12.000000
  0.133333  0.066667  0.000000     24.000000
  0.200000  0.066667  0.000000     24.000000
  0.266667  0.066667  0.000000     24.000000
  0.333333  0.066667  0.000000     24.000000
  0.400000  0.066667  0.000000     24.000000
  0.466667  0.066667  0.000000     24.000000
  0.133333  0.133333  0.000000     12.000000
  0.200000  0.133333  0.000000     24.000000
  0.266667  0.133333  0.000000     24.000000
  0.333333  0.133333  0.000000     24.000000
  0.400000  0.133333  0.000000     24.000000
  0.466667  0.133333  0.000000     24.000000
  0.200000  0.200000  0.000000     12.000000
  0.266667  0.200000  0.000000     24.000000
  0.333333  0.200000  0.000000     24.000000
  0.400000  0.200000  0.000000     24.000000
  0.466667  0.200000  0.000000     24.000000
  0.266667  0.266667  0.000000     12.000000
  0.333333  0.266667  0.000000     24.000000
  0.400000  0.266667  0.000000     24.000000
  0.466667  0.266667  0.000000     24.000000
  0.333333  0.333333  0.000000     12.000000
  0.400000  0.333333  0.000000     24.000000
  0.466667  0.333333  0.000000     24.000000
  0.400000  0.400000  0.000000     12.000000
  0.466667  0.400000  0.000000     24.000000
  0.466667  0.466667  0.000000     12.000000
  0.066667  0.066667  0.066667      8.000000
  0.133333  0.066667  0.066667     24.000000
  0.200000  0.066667  0.066667     24.000000
  0.266667  0.066667  0.066667     24.000000
  0.333333  0.066667  0.066667     24.000000
  0.400000  0.066667  0.066667     24.000000
  0.466667  0.066667  0.066667     24.000000
  0.133333  0.133333  0.066667     24.000000
  0.200000  0.133333  0.066667     48.000000
  0.266667  0.133333  0.066667     48.000000
  0.333333  0.133333  0.066667     48.000000
  0.400000  0.133333  0.066667     48.000000
  0.466667  0.133333  0.066667     48.000000
  0.200000  0.200000  0.066667     24.000000
  0.266667  0.200000  0.066667     48.000000
  0.333333  0.200000  0.066667     48.000000
  0.400000  0.200000  0.066667     48.000000
  0.466667  0.200000  0.066667     48.000000
  0.266667  0.266667  0.066667     24.000000
  0.333333  0.266667  0.066667     48.000000
  0.400000  0.266667  0.066667     48.000000
  0.466667  0.266667  0.066667     48.000000
  0.333333  0.333333  0.066667     24.000000
  0.400000  0.333333  0.066667     48.000000
  0.466667  0.333333  0.066667     48.000000
  0.400000  0.400000  0.066667     24.000000
  0.466667  0.400000  0.066667     48.000000
  0.466667  0.466667  0.066667     24.000000
  0.133333  0.133333  0.133333      8.000000
  0.200000  0.133333  0.133333     24.000000
  0.266667  0.133333  0.133333     24.000000
  0.333333  0.133333  0.133333     24.000000
  0.400000  0.133333  0.133333     24.000000
  0.466667  0.133333  0.133333     24.000000
  0.200000  0.200000  0.133333     24.000000
  0.266667  0.200000  0.133333     48.000000
  0.333333  0.200000  0.133333     48.000000
  0.400000  0.200000  0.133333     48.000000
  0.466667  0.200000  0.133333     48.000000
  0.266667  0.266667  0.133333     24.000000
  0.333333  0.266667  0.133333     48.000000
  0.400000  0.266667  0.133333     48.000000
  0.466667  0.266667  0.133333     48.000000
  0.333333  0.333333  0.133333     24.000000
  0.400000  0.333333  0.133333     48.000000
  0.466667  0.333333  0.133333     48.000000
  0.400000  0.400000  0.133333     24.000000
  0.466667  0.400000  0.133333     48.000000
  0.466667  0.466667  0.133333     24.000000
  0.200000  0.200000  0.200000      8.000000
  0.266667  0.200000  0.200000     24.000000
  0.333333  0.200000  0.200000     24.000000
  0.400000  0.200000  0.200000     24.000000
  0.466667  0.200000  0.200000     24.000000
  0.266667  0.266667  0.200000     24.000000
  0.333333  0.266667  0.200000     48.000000
  0.400000  0.266667  0.200000     48.000000
  0.466667  0.266667  0.200000     48.000000
  0.333333  0.333333  0.200000     24.000000
  0.400000  0.333333  0.200000     48.000000
  0.466667  0.333333  0.200000     48.000000
  0.400000  0.400000  0.200000     24.000000
  0.466667  0.400000  0.200000     48.000000
  0.466667  0.466667  0.200000     24.000000
  0.266667  0.266667  0.266667      8.000000
  0.333333  0.266667  0.266667     24.000000
  0.400000  0.266667  0.266667     24.000000
  0.466667  0.266667  0.266667     24.000000
  0.333333  0.333333  0.266667     24.000000
  0.400000  0.333333  0.266667     48.000000
  0.466667  0.333333  0.266667     48.000000
  0.400000  0.400000  0.266667     24.000000
  0.466667  0.400000  0.266667     48.000000
  0.466667  0.466667  0.266667     24.000000
  0.333333  0.333333  0.333333      8.000000
  0.400000  0.333333  0.333333     24.000000
  0.466667  0.333333  0.333333     24.000000
  0.400000  0.400000  0.333333     24.000000
  0.466667  0.400000  0.333333     48.000000
  0.466667  0.466667  0.333333     24.000000
  0.400000  0.400000  0.400000      8.000000
  0.466667  0.400000  0.400000     24.000000
  0.466667  0.466667  0.400000     24.000000
  0.466667  0.466667  0.466667      8.000000
 
 Following cartesian coordinates:
            Coordinates               Weight
  0.000000  0.000000  0.000000      1.000000
  0.023285 -0.000000  0.000000      6.000000
  0.046571 -0.000000  0.000000      6.000000
  0.069856 -0.000000  0.000000      6.000000
  0.093141 -0.000000  0.000000      6.000000
  0.116427 -0.000000  0.000000      6.000000
  0.139712 -0.000000  0.000000      6.000000
  0.162997 -0.000000  0.000000      6.000000
  0.023285  0.023285  0.000000     12.000000
  0.046571  0.023285  0.000000     24.000000
  0.069856  0.023285  0.000000     24.000000
  0.093141  0.023285  0.000000     24.000000
  0.116427  0.023285  0.000000     24.000000
  0.139712  0.023285  0.000000     24.000000
  0.162997  0.023285  0.000000     24.000000
  0.046571  0.046571  0.000000     12.000000
  0.069856  0.046571  0.000000     24.000000
  0.093141  0.046571  0.000000     24.000000
  0.116427  0.046571  0.000000     24.000000
  0.139712  0.046571  0.000000     24.000000
  0.162997  0.046571  0.000000     24.000000
  0.069856  0.069856  0.000000     12.000000
  0.093141  0.069856  0.000000     24.000000
  0.116427  0.069856  0.000000     24.000000
  0.139712  0.069856  0.000000     24.000000
  0.162997  0.069856  0.000000     24.000000
  0.093141  0.093141  0.000000     12.000000
  0.116427  0.093141  0.000000     24.000000
  0.139712  0.093141  0.000000     24.000000
  0.162997  0.093141  0.000000     24.000000
  0.116427  0.116427  0.000000     12.000000
  0.139712  0.116427  0.000000     24.000000
  0.162997  0.116427  0.000000     24.000000
  0.139712  0.139712  0.000000     12.000000
  0.162997  0.139712  0.000000     24.000000
  0.162997  0.162997  0.000000     12.000000
  0.023285  0.023285  0.023285      8.000000
  0.046571  0.023285  0.023285     24.000000
  0.069856  0.023285  0.023285     24.000000
  0.093141  0.023285  0.023285     24.000000
  0.116427  0.023285  0.023285     24.000000
  0.139712  0.023285  0.023285     24.000000
  0.162997  0.023285  0.023285     24.000000
  0.046571  0.046571  0.023285     24.000000
  0.069856  0.046571  0.023285     48.000000
  0.093141  0.046571  0.023285     48.000000
  0.116427  0.046571  0.023285     48.000000
  0.139712  0.046571  0.023285     48.000000
  0.162997  0.046571  0.023285     48.000000
  0.069856  0.069856  0.023285     24.000000
  0.093141  0.069856  0.023285     48.000000
  0.116427  0.069856  0.023285     48.000000
  0.139712  0.069856  0.023285     48.000000
  0.162997  0.069856  0.023285     48.000000
  0.093141  0.093141  0.023285     24.000000
  0.116427  0.093141  0.023285     48.000000
  0.139712  0.093141  0.023285     48.000000
  0.162997  0.093141  0.023285     48.000000
  0.116427  0.116427  0.023285     24.000000
  0.139712  0.116427  0.023285     48.000000
  0.162997  0.116427  0.023285     48.000000
  0.139712  0.139712  0.023285     24.000000
  0.162997  0.139712  0.023285     48.000000
  0.162997  0.162997  0.023285     24.000000
  0.046571  0.046571  0.046571      8.000000
  0.069856  0.046571  0.046571     24.000000
  0.093141  0.046571  0.046571     24.000000
  0.116427  0.046571  0.046571     24.000000
  0.139712  0.046571  0.046571     24.000000
  0.162997  0.046571  0.046571     24.000000
  0.069856  0.069856  0.046571     24.000000
  0.093141  0.069856  0.046571     48.000000
  0.116427  0.069856  0.046571     48.000000
  0.139712  0.069856  0.046571     48.000000
  0.162997  0.069856  0.046571     48.000000
  0.093141  0.093141  0.046571     24.000000
  0.116427  0.093141  0.046571     48.000000
  0.139712  0.093141  0.046571     48.000000
  0.162997  0.093141  0.046571     48.000000
  0.116427  0.116427  0.046571     24.000000
  0.139712  0.116427  0.046571     48.000000
  0.162997  0.116427  0.046571     48.000000
  0.139712  0.139712  0.046571     24.000000
  0.162997  0.139712  0.046571     48.000000
  0.162997  0.162997  0.046571     24.000000
  0.069856  0.069856  0.069856      8.000000
  0.093141  0.069856  0.069856     24.000000
  0.116427  0.069856  0.069856     24.000000
  0.139712  0.069856  0.069856     24.000000
  0.162997  0.069856  0.069856     24.000000
  0.093141  0.093141  0.069856     24.000000
  0.116427  0.093141  0.069856     48.000000
  0.139712  0.093141  0.069856     48.000000
  0.162997  0.093141  0.069856     48.000000
  0.116427  0.116427  0.069856     24.000000
  0.139712  0.116427  0.069856     48.000000
  0.162997  0.116427  0.069856     48.000000
  0.139712  0.139712  0.069856     24.000000
  0.162997  0.139712  0.069856     48.000000
  0.162997  0.162997  0.069856     24.000000
  0.093141  0.093141  0.093141      8.000000
  0.116427  0.093141  0.093141     24.000000
  0.139712  0.093141  0.093141     24.000000
  0.162997  0.093141  0.093141     24.000000
  0.116427  0.116427  0.093141     24.000000
  0.139712  0.116427  0.093141     48.000000
  0.162997  0.116427  0.093141     48.000000
  0.139712  0.139712  0.093141     24.000000
  0.162997  0.139712  0.093141     48.000000
  0.162997  0.162997  0.093141     24.000000
  0.116427  0.116427  0.116427      8.000000
  0.139712  0.116427  0.116427     24.000000
  0.162997  0.116427  0.116427     24.000000
  0.139712  0.139712  0.116427     24.000000
  0.162997  0.139712  0.116427     48.000000
  0.162997  0.162997  0.116427     24.000000
  0.139712  0.139712  0.139712      8.000000
  0.162997  0.139712  0.139712     24.000000
  0.162997  0.162997  0.139712     24.000000
  0.162997  0.162997  0.162997      8.000000
 


--------------------------------------------------------------------------------------------------------




 Dimension of arrays:
   k-points           NKPTS =    120   k-points in BZ     NKDIM =    120   number of bands    NBANDS=     20
   number of dos      NEDOS =    301   number of ions     NIONS =      2
   non local maximal  LDIM  =      6   non local SUM 2l+1 LMDIM =     18
   total plane-waves  NPLWV =   4096
   max r-space proj   IRMAX =      1   max aug-charges    IRDMAX=  49932
   dimension x,y,z NGX =    16 NGY =   16 NGZ =   16
   dimension x,y,z NGXF=    32 NGYF=   32 NGZF=   32
   support grid    NGXF=    64 NGYF=   64 NGZF=   64
   ions per type =               2
   NGX,Y,Z   is equivalent  to a cutoff of   9.29,  9.29,  9.29 a.u.
   NGXF,Y,Z  is equivalent  to a cutoff of  18.58, 18.58, 18.58 a.u.

 SYSTEM =  unknown system                          
 POSCAR =  Fe2                                     

 Startparameter for this run:
   NWRITE =      2    write-flag & timer
   PREC   = accura    normal or accurate (medium, high low for compatibility)
   ISTART =      0    job   : 0-new  1-cont  2-samecut
   ICHARG =      2    charge: 1-file 2-atom 10-const
   ISPIN  =      2    spin polarized calculation?
   LNONCOLLINEAR =      F non collinear calculations
   LSORBIT =      F    spin-orbit coupling
   INIWAV =      1    electr: 0-lowe 1-rand  2-diag
   LASPH  =      T    aspherical Exc in radial PAW
   METAGGA=      F    non-selfconsistent MetaGGA calc.

 Electronic Relaxation 1
   ENCUT  =  250.0 eV  18.37 Ry    4.29 a.u.   3.69  3.69  3.69*2*pi/ulx,y,z
   ENINI  =  250.0     initial cutoff
   ENAUG  =  511.4 eV  augmentation charge cutoff
   NELM   =     90;   NELMIN=  6; NELMDL= -5     # of ELM steps 
   EDIFF  = 0.1E-05   stopping-criterion for ELM
   LREAL  =      F    real-space projection
   NLSPLINE    = F    spline interpolate recip. space projectors
   LCOMPAT=      F    compatible to vasp.4.4
   GGA_COMPAT  = F    GGA compatible to vasp.4.4-vasp.4.6
   LMAXPAW     = -100 max onsite density
   LMAXMIX     =    4 max onsite mixed and CHGCAR
   VOSKOWN=      1    Vosko Wilk Nusair interpolation
   ROPT   =    0.00000
 Ionic relaxation
   EDIFFG = -.2E-02   stopping-criterion for IOM
   NSW    =    100    number of steps for IOM
   NBLOCK =      1;   KBLOCK =    100    inner block; outer block 
   IBRION =      2    ionic relax: 0-MD 1-quasi-New 2-CG
   NFREE  =      1    steps in history (QN), initial steepest desc. (CG)
   ISIF   =      3    stress and relaxation
   IWAVPR =     11    prediction:  0-non 1-charg 2-wave 3-comb
   ISYM   =      2    0-nonsym 1-usesym 2-fastsym
   LCORR  =      T    Harris-Foulkes like correction to forces

   POTIM  = 0.5000    time-step for ionic-motion
   TEIN   =    0.0    initial temperature
   TEBEG  =    0.0;   TEEND  =   0.0 temperature during run
   SMASS  =  -3.00    Nose mass-parameter (am)
   estimated Nose-frequenzy (Omega)   =  0.10E-29 period in steps = 0.13E+47 mass=  -0.187E-27a.u.
   SCALEE = 1.0000    scale energy and forces
   NPACO  =    256;   APACO  = 16.0  distance and # of slots for P.C.
   PSTRESS=    0.0 pullay stress

  Mass of Ions in am
   POMASS =  55.85
  Ionic Valenz
   ZVAL   =   8.00
  Atomic Wigner-Seitz radii
   RWIGS  =  -1.00
  virtual crystal weights 
   VCA    =   1.00
   NELECT =      16.0000    total number of electrons
   NUPDOWN=      -1.0000    fix difference up-down

 DOS related values:
   EMIN   =  10.00;   EMAX   =-10.00  energy-range for DOS
   EFERMI =   0.00
   ISMEAR =     1;   SIGMA  =   0.20  broadening in eV -4-tet -1-fermi 0-gaus

 Electronic relaxation 2 (details)
   IALGO  =     38    algorithm
   LDIAG  =      T    sub-space diagonalisation (order eigenvalues)
   LSUBROT=      F    optimize rotation matrix (better conditioning)
   TURBO    =      0    0=normal 1=particle mesh
   IRESTART =      0    0=no restart 2=restart with 2 vectors
   NREBOOT  =      0    no. of reboots
   NMIN     =      0    reboot dimension
   EREF     =   0.00    reference energy to select bands
   IMIX   =      4    mixing-type and parameters
     AMIX     =   0.40;   BMIX     =  1.00
     AMIX_MAG =   1.60;   BMIX_MAG =  1.00
     AMIN     =   0.10
     WC   =   100.;   INIMIX=   1;  MIXPRE=   1;  MAXMIX= -45

 Intra band minimization:
   WEIMIN = 0.0010     energy-eigenvalue tresh-hold
   EBREAK =  0.12E-07  absolut break condition
   DEPER  =   0.30     relativ break condition  

   TIME   =   0.40     timestep for ELM

  volume/ion in A,a.u.               =      11.73        79.19
  Fermi-wavevector in a.u.,A,eV,Ry     =   1.440859  2.722828 28.246703  2.076074
  Thomas-Fermi vector in A             =   2.559556
 
 Write flags
   LWAVE        =      T    write WAVECAR
   LDOWNSAMPLE  =      F    k-point downsampling of WAVECAR
   LCHARG       =      T    write CHGCAR
   LVTOT        =      F    write LOCPOT, total local potential
   LVHAR        =      F    write LOCPOT, Hartree potential only
   LELF         =      F    write electronic localiz. function (ELF)
   LORBIT       =     11    0 simple, 1 ext, 2 COOP (PROOUT), +10 PAW based schemes


 Dipole corrections
   LMONO  =      F    monopole corrections only (constant potential shift)
   LDIPOL =      F    correct potential (dipole corrections)
   IDIPOL =      0    1-x, 2-y, 3-z, 4-all directions 
   EPSILON=  1.0000000 bulk dielectric constant

 Exchange correlation treatment:
   GGA     =    --    GGA type
   LEXCH   =     8    internal setting for exchange type
   VOSKOWN=      1    Vosko Wilk Nusair interpolation
   LHFCALC =     F    Hartree Fock is set to
   LHFONE  =     F    Hartree Fock one center treatment
   AEXX    =    0.0000 exact exchange contribution

 Linear response parameters
   LEPSILON=     F    determine dielectric tensor
   LRPA    =     F    only Hartree local field effects (RPA)
   LNABLA  =     F    use nabla operator in PAW spheres
   LVEL    =     F    velocity operator in full k-point grid
   LINTERFAST=   F  fast interpolation
   KINTER  =     0    interpolate to denser k-point grid
   CSHIFT  =0.1000    complex shift for real part using Kramers Kronig
   OMEGAMAX=  -1.0    maximum frequency
   DEG_THRESHOLD= 0.2000000E-02 threshold for treating states as degnerate
   RTIME   =   -0.100 relaxation time in fs
  (WPLASMAI=    0.000 imaginary part of plasma frequency in eV, 0.658/RTIME)
   DFIELD  = 0.0000000 0.0000000 0.0000000 field for delta impulse in time
 
 Orbital magnetization related:
   ORBITALMAG=     F  switch on orbital magnetization
   LCHIMAG   =     F  perturbation theory with respect to B field
   DQ        =  0.001000  dq finite difference perturbation B field
   LLRAUG    =     F  two centre corrections for induced B field



--------------------------------------------------------------------------------------------------------


 conjugate gradient relaxation of ions
 charge density and potential will be updated during run
 spin polarized calculation
 Variant of blocked Davidson
 Davidson routine will perform the subspace rotation
 perform sub-space diagonalisation
    after iterative eigenvector-optimisation
 modified Broyden-mixing scheme, WC =      100.0
 initial mixing is a Kerker type mixing with AMIX =  0.4000 and BMIX =      1.0000
 Hartree-type preconditioning will be used
 using additional bands           12
 reciprocal scheme for non local part
 use partial core corrections
 calculate Harris-corrections to forces 
   (improved forces if not selfconsistent)
 use gradient corrections 
 use of overlap-Matrix (Vanderbilt PP)
 Methfessel and Paxton  Order N= 1 SIGMA  =   0.20


--------------------------------------------------------------------------------------------------------


  energy-cutoff  :      250.00
  volume of cell :       23.47
      direct lattice vectors                 reciprocal lattice vectors
     2.863035499  0.000000000  0.000000000     0.349279637 -0.000000000  0.000000000
     0.000000000  2.863035499  0.000000000     0.000000000  0.349279637  0.000000000
     0.000000000  0.000000000  2.863035499    -0.000000000 -0.000000000  0.349279637

  length of vectors
     2.863035499  2.863035499  2.863035499     0.349279637  0.349279637  0.349279637


 
 k-points in units of 2pi/SCALE and weight: Automatic                               
   0.00000000  0.00000000  0.00000000       0.000
   0.02328531 -0.00000000  0.00000000       0.002
   0.04657062 -0.00000000  0.00000000       0.002
   0.06985593 -0.00000000  0.00000000       0.002
   0.09314124 -0.00000000  0.00000000       0.002
   0.11642655 -0.00000000  0.00000000       0.002
   0.13971185 -0.00000000  0.00000000       0.002
   0.16299716 -0.00000000  0.00000000       0.002
   0.02328531  0.02328531  0.00000000       0.004
   0.04657062  0.02328531  0.00000000       0.007
   0.06985593  0.02328531  0.00000000       0.007
   0.09314124  0.02328531  0.00000000       0.007
   0.11642655  0.02328531  0.00000000       0.007
   0.13971185  0.02328531  0.00000000       0.007
   0.16299716  0.02328531  0.00000000       0.007
   0.04657062  0.04657062  0.00000000       0.004
   0.06985593  0.04657062  0.00000000       0.007
   0.09314124  0.04657062  0.00000000       0.007
   0.11642655  0.04657062  0.00000000       0.007
   0.13971185  0.04657062  0.00000000       0.007
   0.16299716  0.04657062  0.00000000       0.007
   0.06985593  0.06985593  0.00000000       0.004
   0.09314124  0.06985593  0.00000000       0.007
   0.11642655  0.06985593  0.00000000       0.007
   0.13971185  0.06985593  0.00000000       0.007
   0.16299716  0.06985593  0.00000000       0.007
   0.09314124  0.09314124  0.00000000       0.004
   0.11642655  0.09314124  0.00000000       0.007
   0.13971185  0.09314124  0.00000000       0.007
   0.16299716  0.09314124  0.00000000       0.007
   0.11642655  0.11642655  0.00000000       0.004
   0.13971185  0.11642655  0.00000000       0.007
   0.16299716  0.11642655  0.00000000       0.007
   0.13971185  0.13971185  0.00000000       0.004
   0.16299716  0.13971185  0.00000000       0.007
   0.16299716  0.16299716  0.00000000       0.004
   0.02328531  0.02328531  0.02328531       0.002
   0.04657062  0.02328531  0.02328531       0.007
   0.06985593  0.02328531  0.02328531       0.007
   0.09314124  0.02328531  0.02328531       0.007
   0.11642655  0.02328531  0.02328531       0.007
   0.13971185  0.02328531  0.02328531       0.007
   0.16299716  0.02328531  0.02328531       0.007
   0.04657062  0.04657062  0.02328531       0.007
   0.06985593  0.04657062  0.02328531       0.014
   0.09314124  0.04657062  0.02328531       0.014
   0.11642655  0.04657062  0.02328531       0.014
   0.13971185  0.04657062  0.02328531       0.014
   0.16299716  0.04657062  0.02328531       0.014
   0.06985593  0.06985593  0.02328531       0.007
   0.09314124  0.06985593  0.02328531       0.014
   0.11642655  0.06985593  0.02328531       0.014
   0.13971185  0.06985593  0.02328531       0.014
   0.16299716  0.06985593  0.02328531       0.014
   0.09314124  0.09314124  0.02328531       0.007
   0.11642655  0.09314124  0.02328531       0.014
   0.13971185  0.09314124  0.02328531       0.014
   0.16299716  0.09314124  0.02328531       0.014
   0.11642655  0.11642655  0.02328531       0.007
   0.13971185  0.11642655  0.02328531       0.014
   0.16299716  0.11642655  0.02328531       0.014
   0.13971185  0.13971185  0.02328531       0.007
   0.16299716  0.13971185  0.02328531       0.014
   0.16299716  0.16299716  0.02328531       0.007
   0.04657062  0.04657062  0.04657062       0.002
   0.06985593  0.04657062  0.04657062       0.007
   0.09314124  0.04657062  0.04657062       0.007
   0.11642655  0.04657062  0.04657062       0.007
   0.13971185  0.04657062  0.04657062       0.007
   0.16299716  0.04657062  0.04657062       0.007
   0.06985593  0.06985593  0.04657062       0.007
   0.09314124  0.06985593  0.04657062       0.014
   0.11642655  0.06985593  0.04657062       0.014
   0.13971185  0.06985593  0.04657062       0.014
   0.16299716  0.06985593  0.04657062       0.014
   0.09314124  0.09314124  0.04657062       0.007
   0.11642655  0.09314124  0.04657062       0.014
   0.13971185  0.09314124  0.04657062       0.014
   0.16299716  0.09314124  0.04657062       0.014
   0.11642655  0.11642655  0.04657062       0.007
   0.13971185  0.11642655  0.04657062       0.014
   0.16299716  0.11642655  0.04657062       0.014
   0.13971185  0.13971185  0.04657062       0.007
   0.16299716  0.13971185  0.04657062       0.014
   0.16299716  0.16299716  0.04657062       0.007
   0.06985593  0.06985593  0.06985593       0.002
   0.09314124  0.06985593  0.06985593       0.007
   0.11642655  0.06985593  0.06985593       0.007
   0.13971185  0.06985593  0.06985593       0.007
   0.16299716  0.06985593  0.06985593       0.007
   0.09314124  0.09314124  0.06985593       0.007
   0.11642655  0.09314124  0.06985593       0.014
   0.13971185  0.09314124  0.06985593       0.014
   0.16299716  0.09314124  0.06985593       0.014
   0.11642655  0.11642655  0.06985593       0.007
   0.13971185  0.11642655  0.06985593       0.014
   0.16299716  0.11642655  0.06985593       0.014
   0.13971185  0.13971185  0.06985593       0.007
   0.16299716  0.13971185  0.06985593       0.014
   0.16299716  0.16299716  0.06985593       0.007
   0.09314124  0.09314124  0.09314124       0.002
   0.11642655  0.09314124  0.09314124       0.007
   0.13971185  0.09314124  0.09314124       0.007
   0.16299716  0.09314124  0.09314124       0.007
   0.11642655  0.11642655  0.09314124       0.007
   0.13971185  0.11642655  0.09314124       0.014
   0.16299716  0.11642655  0.09314124       0.014
   0.13971185  0.13971185  0.09314124       0.007
   0.16299716  0.13971185  0.09314124       0.014
   0.16299716  0.16299716  0.09314124       0.007
   0.11642655  0.11642655  0.11642655       0.002
   0.13971185  0.11642655  0.11642655       0.007
   0.16299716  0.11642655  0.11642655       0.007
   0.13971185  0.13971185  0.11642655       0.007
   0.16299716  0.13971185  0.11642655       0.014
   0.16299716  0.16299716  0.11642655       0.007
   0.13971185  0.13971185  0.13971185       0.002
   0.16299716  0.13971185  0.13971185       0.007
   0.16299716  0.16299716  0.13971185       0.007
   0.16299716  0.16299716  0.16299716       0.002
 
 k-points in reciprocal lattice and weights: Automatic                               
   0.00000000  0.00000000  0.00000000       0.000
   0.06666667  0.00000000  0.00000000       0.002
   0.13333333  0.00000000  0.00000000       0.002
   0.20000000 -0.00000000  0.00000000       0.002
   0.26666667  0.00000000  0.00000000       0.002
   0.33333333  0.00000000  0.00000000       0.002
   0.40000000  0.00000000  0.00000000       0.002
   0.46666667 -0.00000000  0.00000000       0.002
   0.06666667  0.06666667  0.00000000       0.004
   0.13333333  0.06666667  0.00000000       0.007
   0.20000000  0.06666667  0.00000000       0.007
   0.26666667  0.06666667  0.00000000       0.007
   0.33333333  0.06666667  0.00000000       0.007
   0.40000000  0.06666667  0.00000000       0.007
   0.46666667  0.06666667  0.00000000       0.007
   0.13333333  0.13333333  0.00000000       0.004
   0.20000000  0.13333333  0.00000000       0.007
   0.26666667  0.13333333  0.00000000       0.007
   0.33333333  0.13333333  0.00000000       0.007
   0.40000000  0.13333333  0.00000000       0.007
   0.46666667  0.13333333  0.00000000       0.007
   0.20000000  0.20000000  0.00000000       0.004
   0.26666667  0.20000000  0.00000000       0.007
   0.33333333  0.20000000  0.00000000       0.007
   0.40000000  0.20000000  0.00000000       0.007
   0.46666667  0.20000000  0.00000000       0.007
   0.26666667  0.26666667  0.00000000       0.004
   0.33333333  0.26666667  0.00000000       0.007
   0.40000000  0.26666667  0.00000000       0.007
   0.46666667  0.26666667  0.00000000       0.007
   0.33333333  0.33333333  0.00000000       0.004
   0.40000000  0.33333333  0.00000000       0.007
   0.46666667  0.33333333  0.00000000       0.007
   0.40000000  0.40000000  0.00000000       0.004
   0.46666667  0.40000000  0.00000000       0.007
   0.46666667  0.46666667  0.00000000       0.004
   0.06666667  0.06666667  0.06666667       0.002
   0.13333333  0.06666667  0.06666667       0.007
   0.20000000  0.06666667  0.06666667       0.007
   0.26666667  0.06666667  0.06666667       0.007
   0.33333333  0.06666667  0.06666667       0.007
   0.40000000  0.06666667  0.06666667       0.007
   0.46666667  0.06666667  0.06666667       0.007
   0.13333333  0.13333333  0.06666667       0.007
   0.20000000  0.13333333  0.06666667       0.014
   0.26666667  0.13333333  0.06666667       0.014
   0.33333333  0.13333333  0.06666667       0.014
   0.40000000  0.13333333  0.06666667       0.014
   0.46666667  0.13333333  0.06666667       0.014
   0.20000000  0.20000000  0.06666667       0.007
   0.26666667  0.20000000  0.06666667       0.014
   0.33333333  0.20000000  0.06666667       0.014
   0.40000000  0.20000000  0.06666667       0.014
   0.46666667  0.20000000  0.06666667       0.014
   0.26666667  0.26666667  0.06666667       0.007
   0.33333333  0.26666667  0.06666667       0.014
   0.40000000  0.26666667  0.06666667       0.014
   0.46666667  0.26666667  0.06666667       0.014
   0.33333333  0.33333333  0.06666667       0.007
   0.40000000  0.33333333  0.06666667       0.014
   0.46666667  0.33333333  0.06666667       0.014
   0.40000000  0.40000000  0.06666667       0.007
   0.46666667  0.40000000  0.06666667       0.014
   0.46666667  0.46666667  0.06666667       0.007
   0.13333333  0.13333333  0.13333333       0.002
   0.20000000  0.13333333  0.13333333       0.007
   0.26666667  0.13333333  0.13333333       0.007
   0.33333333  0.13333333  0.13333333       0.007
   0.40000000  0.13333333  0.13333333       0.007
   0.46666667  0.13333333  0.13333333       0.007
   0.20000000  0.20000000  0.13333333       0.007
   0.26666667  0.20000000  0.13333333       0.014
   0.33333333  0.20000000  0.13333333       0.014
   0.40000000  0.20000000  0.13333333       0.014
   0.46666667  0.20000000  0.13333333       0.014
   0.26666667  0.26666667  0.13333333       0.007
   0.33333333  0.26666667  0.13333333       0.014
   0.40000000  0.26666667  0.13333333       0.014
   0.46666667  0.26666667  0.13333333       0.014
   0.33333333  0.33333333  0.13333333       0.007
   0.40000000  0.33333333  0.13333333       0.014
   0.46666667  0.33333333  0.13333333       0.014
   0.40000000  0.40000000  0.13333333       0.007
   0.46666667  0.40000000  0.13333333       0.014
   0.46666667  0.46666667  0.13333333       0.007
   0.20000000  0.20000000  0.20000000       0.002
   0.26666667  0.20000000  0.20000000       0.007
   0.33333333  0.20000000  0.20000000       0.007
   0.40000000  0.20000000  0.20000000       0.007
   0.46666667  0.20000000  0.20000000       0.007
   0.26666667  0.26666667  0.20000000       0.007
   0.33333333  0.26666667  0.20000000       0.014
   0.40000000  0.26666667  0.20000000       0.014
   0.46666667  0.26666667  0.20000000       0.014
   0.33333333  0.33333333  0.20000000       0.007
   0.40000000  0.33333333  0.20000000       0.014
   0.46666667  0.33333333  0.20000000       0.014
   0.40000000  0.40000000  0.20000000       0.007
   0.46666667  0.40000000  0.20000000       0.014
   0.46666667  0.46666667  0.20000000       0.007
   0.26666667  0.26666667  0.26666667       0.002
   0.33333333  0.26666667  0.26666667       0.007
   0.40000000  0.26666667  0.26666667       0.007
   0.46666667  0.26666667  0.26666667       0.007
   0.33333333  0.33333333  0.26666667       0.007
   0.40000000  0.33333333  0.26666667       0.014
   0.46666667  0.33333333  0.26666667       0.014
   0.40000000  0.40000000  0.26666667       0.007
   0.46666667  0.40000000  0.26666667       0.014
   0.46666667  0.46666667  0.26666667       0.007
   0.33333333  0.33333333  0.33333333       0.002
   0.40000000  0.33333333  0.33333333       0.007
   0.46666667  0.33333333  0.33333333       0.007
   0.40000000  0.40000000  0.33333333       0.007
   0.46666667  0.40000000  0.33333333       0.014
   0.46666667  0.46666667  0.33333333       0.007
   0.40000000  0.40000000  0.40000000       0.002
   0.46666667  0.40000000  0.40000000       0.007
   0.46666667  0.46666667  0.40000000       0.007
   0.46666667  0.46666667  0.46666667       0.002
 
 position of ions in fractional coordinates (direct lattice) 
   0.00000000  0.00000000  0.00000000
   0.50000000  0.50000000  0.50000000
 
 position of ions in cartesian coordinates  (Angst):
   0.00000000  0.00000000  0.00000000
   1.43151775  1.43151775  1.43151775
 


--------------------------------------------------------------------------------------------------------


 k-point   1 :   0.0000 0.0000 0.0000  plane waves:     203
 k-point   2 :   0.0667 0.0000 0.0000  plane waves:     211
 k-point   3 :   0.1333 0.0000 0.0000  plane waves:     215
 k-point   4 :   0.2000-0.0000 0.0000  plane waves:     211
 k-point   5 :   0.2667 0.0000 0.0000  plane waves:     219
 k-point   6 :   0.3333 0.0000 0.0000  plane waves:     220
 k-point   7 :   0.4000 0.0000 0.0000  plane waves:     216
 k-point   8 :   0.4667-0.0000 0.0000  plane waves:     216
 k-point   9 :   0.0667 0.0667 0.0000  plane waves:     213
 k-point  10 :   0.1333 0.0667 0.0000  plane waves:     217
 k-point  11 :   0.2000 0.0667 0.0000  plane waves:     214
 k-point  12 :   0.2667 0.0667 0.0000  plane waves:     215
 k-point  13 :   0.3333 0.0667 0.0000  plane waves:     214
 k-point  14 :   0.4000 0.0667 0.0000  plane waves:     212
 k-point  15 :   0.4667 0.0667 0.0000  plane waves:     214
 k-point  16 :   0.1333 0.1333 0.0000  plane waves:     213
 k-point  17 :   0.2000 0.1333 0.0000  plane waves:     212
 k-point  18 :   0.2667 0.1333 0.0000  plane waves:     210
 k-point  19 :   0.3333 0.1333 0.0000  plane waves:     210
 k-point  20 :   0.4000 0.1333 0.0000  plane waves:     208
 k-point  21 :   0.4667 0.1333 0.0000  plane waves:     209
 k-point  22 :   0.2000 0.2000 0.0000  plane waves:     207
 k-point  23 :   0.2667 0.2000 0.0000  plane waves:     210
 k-point  24 :   0.3333 0.2000 0.0000  plane waves:     211
 k-point  25 :   0.4000 0.2000 0.0000  plane waves:     208
 k-point  26 :   0.4667 0.2000 0.0000  plane waves:     209
 k-point  27 :   0.2667 0.2667 0.0000  plane waves:     213
 k-point  28 :   0.3333 0.2667 0.0000  plane waves:     209
 k-point  29 :   0.4000 0.2667 0.0000  plane waves:     208
 k-point  30 :   0.4667 0.2667 0.0000  plane waves:     212
 k-point  31 :   0.3333 0.3333 0.0000  plane waves:     211
 k-point  32 :   0.4000 0.3333 0.0000  plane waves:     210
 k-point  33 :   0.4667 0.3333 0.0000  plane waves:     214
 k-point  34 :   0.4000 0.4000 0.0000  plane waves:     218
 k-point  35 :   0.4667 0.4000 0.0000  plane waves:     212
 k-point  36 :   0.4667 0.4667 0.0000  plane waves:     216
 k-point  37 :   0.0667 0.0667 0.0667  plane waves:     209
 k-point  38 :   0.1333 0.0667 0.0667  plane waves:     209
 k-point  39 :   0.2000 0.0667 0.0667  plane waves:     213
 k-point  40 :   0.2667 0.0667 0.0667  plane waves:     212
 k-point  41 :   0.3333 0.0667 0.0667  plane waves:     215
 k-point  42 :   0.4000 0.0667 0.0667  plane waves:     212
 k-point  43 :   0.4667 0.0667 0.0667  plane waves:     211
 k-point  44 :   0.1333 0.1333 0.0667  plane waves:     211
 k-point  45 :   0.2000 0.1333 0.0667  plane waves:     213
 k-point  46 :   0.2667 0.1333 0.0667  plane waves:     210
 k-point  47 :   0.3333 0.1333 0.0667  plane waves:     211
 k-point  48 :   0.4000 0.1333 0.0667  plane waves:     210
 k-point  49 :   0.4667 0.1333 0.0667  plane waves:     209
 k-point  50 :   0.2000 0.2000 0.0667  plane waves:     214
 k-point  51 :   0.2667 0.2000 0.0667  plane waves:     210
 k-point  52 :   0.3333 0.2000 0.0667  plane waves:     211
 k-point  53 :   0.4000 0.2000 0.0667  plane waves:     210
 k-point  54 :   0.4667 0.2000 0.0667  plane waves:     209
 k-point  55 :   0.2667 0.2667 0.0667  plane waves:     209
 k-point  56 :   0.3333 0.2667 0.0667  plane waves:     210
 k-point  57 :   0.4000 0.2667 0.0667  plane waves:     210
 k-point  58 :   0.4667 0.2667 0.0667  plane waves:     208
 k-point  59 :   0.3333 0.3333 0.0667  plane waves:     207
 k-point  60 :   0.4000 0.3333 0.0667  plane waves:     210
 k-point  61 :   0.4667 0.3333 0.0667  plane waves:     213
 k-point  62 :   0.4000 0.4000 0.0667  plane waves:     214
 k-point  63 :   0.4667 0.4000 0.0667  plane waves:     214
 k-point  64 :   0.4667 0.4667 0.0667  plane waves:     214
 k-point  65 :   0.1333 0.1333 0.1333  plane waves:     214
 k-point  66 :   0.2000 0.1333 0.1333  plane waves:     210
 k-point  67 :   0.2667 0.1333 0.1333  plane waves:     214
 k-point  68 :   0.3333 0.1333 0.1333  plane waves:     212
 k-point  69 :   0.4000 0.1333 0.1333  plane waves:     208
 k-point  70 :   0.4667 0.1333 0.1333  plane waves:     213
 k-point  71 :   0.2000 0.2000 0.1333  plane waves:     210
 k-point  72 :   0.2667 0.2000 0.1333  plane waves:     213
 k-point  73 :   0.3333 0.2000 0.1333  plane waves:     211
 k-point  74 :   0.4000 0.2000 0.1333  plane waves:     213
 k-point  75 :   0.4667 0.2000 0.1333  plane waves:     211
 k-point  76 :   0.2667 0.2667 0.1333  plane waves:     209
 k-point  77 :   0.3333 0.2667 0.1333  plane waves:     210
 k-point  78 :   0.4000 0.2667 0.1333  plane waves:     211
 k-point  79 :   0.4667 0.2667 0.1333  plane waves:     210
 k-point  80 :   0.3333 0.3333 0.1333  plane waves:     209
 k-point  81 :   0.4000 0.3333 0.1333  plane waves:     212
 k-point  82 :   0.4667 0.3333 0.1333  plane waves:     209
 k-point  83 :   0.4000 0.4000 0.1333  plane waves:     212
 k-point  84 :   0.4667 0.4000 0.1333  plane waves:     213
 k-point  85 :   0.4667 0.4667 0.1333  plane waves:     217
 k-point  86 :   0.2000 0.2000 0.2000  plane waves:     214
 k-point  87 :   0.2667 0.2000 0.2000  plane waves:     212
 k-point  88 :   0.3333 0.2000 0.2000  plane waves:     213
 k-point  89 :   0.4000 0.2000 0.2000  plane waves:     205
 k-point  90 :   0.4667 0.2000 0.2000  plane waves:     209
 k-point  91 :   0.2667 0.2667 0.2000  plane waves:     208
 k-point  92 :   0.3333 0.2667 0.2000  plane waves:     213
 k-point  93 :   0.4000 0.2667 0.2000  plane waves:     212
 k-point  94 :   0.4667 0.2667 0.2000  plane waves:     210
 k-point  95 :   0.3333 0.3333 0.2000  plane waves:     211
 k-point  96 :   0.4000 0.3333 0.2000  plane waves:     209
 k-point  97 :   0.4667 0.3333 0.2000  plane waves:     211
 k-point  98 :   0.4000 0.4000 0.2000  plane waves:     212
 k-point  99 :   0.4667 0.4000 0.2000  plane waves:     211
 k-point 100 :   0.4667 0.4667 0.2000  plane waves:     213
 k-point 101 :   0.2667 0.2667 0.2667  plane waves:     208
 k-point 102 :   0.3333 0.2667 0.2667  plane waves:     211
 k-point 103 :   0.4000 0.2667 0.2667  plane waves:     209
 k-point 104 :   0.4667 0.2667 0.2667  plane waves:     208
 k-point 105 :   0.3333 0.3333 0.2667  plane waves:     209
 k-point 106 :   0.4000 0.3333 0.2667  plane waves:     209
 k-point 107 :   0.4667 0.3333 0.2667  plane waves:     208
 k-point 108 :   0.4000 0.4000 0.2667  plane waves:     214
 k-point 109 :   0.4667 0.4000 0.2667  plane waves:     210
 k-point 110 :   0.4667 0.4667 0.2667  plane waves:     208
 k-point 111 :   0.3333 0.3333 0.3333  plane waves:     205
 k-point 112 :   0.4000 0.3333 0.3333  plane waves:     207
 k-point 113 :   0.4667 0.3333 0.3333  plane waves:     204
 k-point 114 :   0.4000 0.4000 0.3333  plane waves:     205
 k-point 115 :   0.4667 0.4000 0.3333  plane waves:     210
 k-point 116 :   0.4667 0.4667 0.3333  plane waves:     204
 k-point 117 :   0.4000 0.4000 0.4000  plane waves:     202
 k-point 118 :   0.4667 0.4000 0.4000  plane waves:     206
 k-point 119 :   0.4667 0.4667 0.4000  plane waves:     208
 k-point 120 :   0.4667 0.4667 0.4667  plane waves:     208

 maximum and minimum number of plane-waves per node :       220      202

 maximum number of plane-waves:       220
 maximum index in each direction: 
   IXMAX=    3   IYMAX=    3   IZMAX=    3
   IXMIN=   -4   IYMIN=   -4   IZMIN=   -4


 serial   3D FFT for wavefunctions
 parallel 3D FFT for charge:
    minimum data exchange during FFTs selected (reduces bandwidth)


 total amount of memory used by VASP MPI-rank0    40985. kBytes
=======================================================================

   base      :      30000. kBytes
   nonl-proj :       3808. kBytes
   fftplans  :       1246. kBytes
   grid      :        954. kBytes
   one-center:         62. kBytes
   wavefun   :       4915. kBytes
 
     INWAV:  cpu time    0.0000: real time    0.0008
 Broyden mixing: mesh for mixing (old mesh)
   NGX =  7   NGY =  7   NGZ =  7
  (NGX  = 32   NGY  = 32   NGZ  = 32)
  gives a total of    343 points

 initial charge density was supplied:
 charge density of overlapping atoms calculated
 number of electron      16.0000000 magnetization      10.0000000
 keeping initial charge density in first step


--------------------------------------------------------------------------------------------------------


 Maximum index for augmentation-charges        12135 (set IRDMAX)


--------------------------------------------------------------------------------------------------------


 First call to EWALD:  gamma=   0.619
 Maximum number of real-space cells 3x 3x 3
 Maximum number of reciprocal cells 3x 3x 3

    FEWALD:  cpu time    0.0030: real time    0.0035


--------------------------------------- Iteration      1(   1)  ---------------------------------------


    POTLOK:  cpu time    0.0240: real time    0.0273
    SETDIJ:  cpu time    1.5858: real time    1.5857
     EDDAV:  cpu time    2.4096: real time    2.4126
       DOS:  cpu time    0.0100: real time    0.0102
    --------------------------------------------
      LOOP:  cpu time    4.0294: real time    4.0361

 eigenvalue-minimisations  : 10768
 total energy-change (2. order) : 0.4678594E+02  (-0.4950246E+03)
 number of electron      16.0000000 magnetization      10.0000000
 augmentation part       16.0000000 magnetization      10.0000000

 Free energy of the ion-electron system (eV)
  ---------------------------------------------------
  alpha Z        PSCENC =       117.79976220
  Ewald energy   TEWEN  =     -1171.43779597
  -Hartree energ DENC   =      -228.04061711
  -exchange      EXHF   =         0.00000000
  -V(xc)+E(xc)   XCENC  =        14.27157264
  PAW double counting   =      1103.49540010    -1119.11610375
  entropy T*S    EENTRO =        -0.00148899
  eigenvalues    EBANDS =       141.31624053
  atomic energy  EATOM  =      1188.49897307
  Solvation  Ediel_sol  =         0.00000000
  ---------------------------------------------------
  free energy    TOTEN  =        46.78594272 eV

  energy without entropy =       46.78743171  energy(sigma->0) =       46.78643905


--------------------------------------------------------------------------------------------------------




--------------------------------------- Iteration      1(   2)  ---------------------------------------


     EDDAV:  cpu time    2.2497: real time    2.2710
       DOS:  cpu time    0.0110: real time    0.0107
    --------------------------------------------
      LOOP:  cpu time    2.2607: real time    2.2817

 eigenvalue-minimisations  :  9944
 total energy-change (2. order) :-0.6125634E+02  (-0.5424008E+02)
 number of electron      16.0000000 magnetization      10.0000000
 augmentation part       16.0000000 magnetization      10.0000000

 Free energy of the ion-electron system (eV)
  ---------------------------------------------------
  alpha Z        PSCENC =       117.79976220
  Ewald energy   TEWEN  =     -1171.43779597
  -Hartree energ DENC   =      -228.04061711
  -exchange      EXHF   =         0.00000000
  -V(xc)+E(xc)   XCENC  =        14.27157264
  PAW double counting   =      1103.49540010    -1119.11610375
  entropy T*S    EENTRO =         0.00104640
  eigenvalues    EBANDS =        80.05736799
  atomic energy  EATOM  =      1188.49897307
  Solvation  Ediel_sol  =         0.00000000
  ---------------------------------------------------
  free energy    TOTEN  =       -14.47039443 eV

  energy without entropy =      -14.47144083  energy(sigma->0) =      -14.47074323


--------------------------------------------------------------------------------------------------------




--------------------------------------- Iteration      1(   3)  ---------------------------------------


     EDDAV:  cpu time    2.3876: real time    2.4075
       DOS:  cpu time    0.0110: real time    0.0110
    --------------------------------------------
      LOOP:  cpu time    2.3986: real time    2.4186

 eigenvalue-minimisations  : 10860
 total energy-change (2. order) :-0.1619641E+01  (-0.1601505E+01)
 number of electron      16.0000000 magnetization      10.0000000
 augmentation part       16.0000000 magnetization      10.0000000

 Free energy of the ion-electron system (eV)
  ---------------------------------------------------
  alpha Z        PSCENC =       117.79976220
  Ewald energy   TEWEN  =     -1171.43779597
  -Hartree energ DENC   =      -228.04061711
  -exchange      EXHF   =         0.00000000
  -V(xc)+E(xc)   XCENC  =        14.27157264
  PAW double counting   =      1103.49540010    -1119.11610375
  entropy T*S    EENTRO =         0.00133034
  eigenvalues    EBANDS =        78.43744344
  atomic energy  EATOM  =      1188.49897307
  Solvation  Ediel_sol  =         0.00000000
  ---------------------------------------------------
  free energy    TOTEN  =       -16.09003503 eV

  energy without entropy =      -16.09136537  energy(sigma->0) =      -16.09047848


--------------------------------------------------------------------------------------------------------




--------------------------------------- Iteration      1(   4)  ---------------------------------------


     EDDAV:  cpu time    2.2877: real time    2.3065
       DOS:  cpu time    0.0090: real time    0.0106
    --------------------------------------------
      LOOP:  cpu time    2.2976: real time    2.3171

 eigenvalue-minimisations  : 10284
 total energy-change (2. order) :-0.8546654E-02  (-0.8545631E-02)
 number of electron      16.0000000 magnetization      10.0000000
 augmentation part       16.0000000 magnetization      10.0000000

 Free energy of the ion-electron system (eV)
  ---------------------------------------------------
  alpha Z        PSCENC =       117.79976220
  Ewald energy   TEWEN  =     -1171.43779597
  -Hartree energ DENC   =      -228.04061711
  -exchange      EXHF   =         0.00000000
  -V(xc)+E(xc)   XCENC  =        14.27157264
  PAW double counting   =      1103.49540010    -1119.11610375
  entropy T*S    EENTRO =         0.00133278
  eigenvalues    EBANDS =        78.42889435
  atomic energy  EATOM  =      1188.49897307
  Solvation  Ediel_sol  =         0.00000000
  ---------------------------------------------------
  free energy    TOTEN  =       -16.09858169 eV

  energy without entropy =      -16.09991447  energy(sigma->0) =      -16.09902595


--------------------------------------------------------------------------------------------------------




--------------------------------------- Iteration      1(   5)  ---------------------------------------


     EDDAV:  cpu time    2.3526: real time    2.3721
       DOS:  cpu time    0.0110: real time    0.0112
    CHARGE:  cpu time    0.0960: real time    0.0967
    MIXING:  cpu time    0.0010: real time    0.0009
    --------------------------------------------
      LOOP:  cpu time    2.4606: real time    2.4809

 eigenvalue-minimisations  : 10668
 total energy-change (2. order) :-0.7706198E-04  (-0.7706129E-04)
 number of electron      15.9999999 magnetization       4.3693136
 augmentation part        7.3627860 magnetization       2.6931538

 Broyden mixing:
  rms(total) = 0.19509E+01    rms(broyden)= 0.19505E+01
  rms(prec ) = 0.35500E+01
  weight for this iteration     100.00

 Free energy of the ion-electron system (eV)
  ---------------------------------------------------
  alpha Z        PSCENC =       117.79976220
  Ewald energy   TEWEN  =     -1171.43779597
  -Hartree energ DENC   =      -228.04061711
  -exchange      EXHF   =         0.00000000
  -V(xc)+E(xc)   XCENC  =        14.27157264
  PAW double counting   =      1103.49540010    -1119.11610375
  entropy T*S    EENTRO =         0.00133281
  eigenvalues    EBANDS =        78.42881725
  atomic energy  EATOM  =      1188.49897307
  Solvation  Ediel_sol  =         0.00000000
  ---------------------------------------------------
  free energy    TOTEN  =       -16.09865875 eV

  energy without entropy =      -16.09999156  energy(sigma->0) =      -16.09910302


--------------------------------------------------------------------------------------------------------




--------------------------------------- Iteration      1(   6)  ---------------------------------------


    POTLOK:  cpu time    0.0250: real time    0.0419
    SETDIJ:  cpu time    1.5848: real time    1.5858
     EDDAV:  cpu time    2.3446: real time    2.3466
       DOS:  cpu time    0.0110: real time    0.0116
    CHARGE:  cpu time    0.0860: real time    0.0854
    MIXING:  cpu time    0.0000: real time    0.0009
    --------------------------------------------
      LOOP:  cpu time    4.0514: real time    4.0722

 eigenvalue-minimisations  : 10512
 total energy-change (2. order) :-0.3953755E+00  (-0.5078114E+00)
 number of electron      15.9999999 magnetization       4.6396624
 augmentation part        8.4712188 magnetization       3.7933621

 Broyden mixing:
  rms(total) = 0.53085E+00    rms(broyden)= 0.52814E+00
  rms(prec ) = 0.60868E+00
  weight for this iteration     100.00

 eigenvalues of (default mixing * dielectric matrix)
  average eigenvalue GAMMA=   0.8822
  0.8822

 Free energy of the ion-electron system (eV)
  ---------------------------------------------------
  alpha Z        PSCENC =       117.79976220
  Ewald energy   TEWEN  =     -1171.43779597
  -Hartree energ DENC   =      -196.72964991
  -exchange      EXHF   =         0.00000000
  -V(xc)+E(xc)   XCENC  =         8.20451686
  PAW double counting   =      1214.69720643    -1226.78050826
  entropy T*S    EENTRO =         0.00002333
  eigenvalues    EBANDS =        49.25343800
  atomic energy  EATOM  =      1188.49897307
  Solvation  Ediel_sol  =         0.00000000
  ---------------------------------------------------
  free energy    TOTEN  =       -16.49403425 eV

  energy without entropy =      -16.49405758  energy(sigma->0) =      -16.49404202


--------------------------------------------------------------------------------------------------------




--------------------------------------- Iteration      1(   7)  ---------------------------------------


    POTLOK:  cpu time    0.0240: real time    0.0409
    SETDIJ:  cpu time    1.5788: real time    1.5796
     EDDAV:  cpu time    2.4156: real time    2.4196
       DOS:  cpu time    0.0110: real time    0.0116
    CHARGE:  cpu time    0.0850: real time    0.0852
    MIXING:  cpu time    0.0010: real time    0.0009
    --------------------------------------------
      LOOP:  cpu time    4.1144: real time    4.1378

 eigenvalue-minimisations  : 10960
 total energy-change (2. order) : 0.5070878E-01  (-0.3271406E-01)
 number of electron      15.9999999 magnetization       4.5104809
 augmentation part        8.2479146 magnetization       3.7117939

 Broyden mixing:
  rms(total) = 0.38288E+00    rms(broyden)= 0.38243E+00
  rms(prec ) = 0.46320E+00
  weight for this iteration     100.00

 eigenvalues of (default mixing * dielectric matrix)
  average eigenvalue GAMMA=   0.7736
  1.0219  0.5254

 Free energy of the ion-electron system (eV)
  ---------------------------------------------------
  alpha Z        PSCENC =       117.79976220
  Ewald energy   TEWEN  =     -1171.43779597
  -Hartree energ DENC   =      -199.24732341
  -exchange      EXHF   =         0.00000000
  -V(xc)+E(xc)   XCENC  =         8.86073626
  PAW double counting   =      1289.50333725    -1304.42044938
  entropy T*S    EENTRO =        -0.00219969
  eigenvalues    EBANDS =        54.00163420
  atomic energy  EATOM  =      1188.49897307
  Solvation  Ediel_sol  =         0.00000000
  ---------------------------------------------------
  free energy    TOTEN  =       -16.44332547 eV

  energy without entropy =      -16.44112578  energy(sigma->0) =      -16.44259224


--------------------------------------------------------------------------------------------------------




--------------------------------------- Iteration      1(   8)  ---------------------------------------


    POTLOK:  cpu time    0.0250: real time    0.0413
    SETDIJ:  cpu time    1.5778: real time    1.5788
     EDDAV:  cpu time    2.4996: real time    2.5021
       DOS:  cpu time    0.0110: real time    0.0113
    CHARGE:  cpu time    0.0850: real time    0.0850
    MIXING:  cpu time    0.0010: real time    0.0009
    --------------------------------------------
      LOOP:  cpu time    4.1994: real time    4.2194

 eigenvalue-minimisations  : 11396
 total energy-change (2. order) : 0.1524153E-01  (-0.9057773E-03)
 number of electron      15.9999999 magnetization       4.4373063
 augmentation part        8.2745714 magnetization       3.6394482

 Broyden mixing:
  rms(total) = 0.14612E+00    rms(broyden)= 0.14599E+00
  rms(prec ) = 0.20985E+00
  weight for this iteration     100.00

 eigenvalues of (default mixing * dielectric matrix)
  average eigenvalue GAMMA=   1.1042
  1.8625  0.8722  0.5777

 Free energy of the ion-electron system (eV)
  ---------------------------------------------------
  alpha Z        PSCENC =       117.79976220
  Ewald energy   TEWEN  =     -1171.43779597
  -Hartree energ DENC   =      -197.60596644
  -exchange      EXHF   =         0.00000000
  -V(xc)+E(xc)   XCENC  =         8.62766682
  PAW double counting   =      1327.33758770    -1343.01582019
  entropy T*S    EENTRO =        -0.00245198
  eigenvalues    EBANDS =        53.36996084
  atomic energy  EATOM  =      1188.49897307
  Solvation  Ediel_sol  =         0.00000000
  ---------------------------------------------------
  free energy    TOTEN  =       -16.42808394 eV

  energy without entropy =      -16.42563195  energy(sigma->0) =      -16.42726661


--------------------------------------------------------------------------------------------------------




--------------------------------------- Iteration      1(   9)  ---------------------------------------


    POTLOK:  cpu time    0.0240: real time    0.0405
    SETDIJ:  cpu time    1.5768: real time    1.5786
     EDDAV:  cpu time    2.9146: real time    2.9195
       DOS:  cpu time    0.0110: real time    0.0113
    CHARGE:  cpu time    0.0850: real time    0.0850
    MIXING:  cpu time    0.0010: real time    0.0010
    --------------------------------------------
      LOOP:  cpu time    4.6123: real time    4.6358

 eigenvalue-minimisations  : 13616
 total energy-change (2. order) : 0.1060928E-01  (-0.2582217E-03)
 number of electron      15.9999999 magnetization       4.4790504
 augmentation part        8.3124058 magnetization       3.6793612

 Broyden mixing:
  rms(total) = 0.38976E-01    rms(broyden)= 0.38875E-01
  rms(prec ) = 0.47148E-01
  weight for this iteration     100.00

 eigenvalues of (default mixing * dielectric matrix)
  average eigenvalue GAMMA=   1.1963
  2.3631  1.0553  0.7013  0.6654

 Free energy of the ion-electron system (eV)
  ---------------------------------------------------
  alpha Z        PSCENC =       117.79976220
  Ewald energy   TEWEN  =     -1171.43779597
  -Hartree energ DENC   =      -195.32120018
  -exchange      EXHF   =         0.00000000
  -V(xc)+E(xc)   XCENC  =         8.47901928
  PAW double counting   =      1387.96664147    -1404.94188606
  entropy T*S    EENTRO =        -0.00273076
  eigenvalues    EBANDS =        52.54174229
  atomic energy  EATOM  =      1188.49897307
  Solvation  Ediel_sol  =         0.00000000
  ---------------------------------------------------
  free energy    TOTEN  =       -16.41747465 eV

  energy without entropy =      -16.41474390  energy(sigma->0) =      -16.41656440


--------------------------------------------------------------------------------------------------------




--------------------------------------- Iteration      1(  10)  ---------------------------------------


    POTLOK:  cpu time    0.0240: real time    0.0409
    SETDIJ:  cpu time    1.5778: real time    1.5779
     EDDAV:  cpu time    2.3156: real time    2.3173
       DOS:  cpu time    0.0100: real time    0.0117
    CHARGE:  cpu time    0.0860: real time    0.0852
    MIXING:  cpu time    0.0010: real time    0.0010
    --------------------------------------------
      LOOP:  cpu time    4.0144: real time    4.0339

 eigenvalue-minimisations  : 10408
 total energy-change (2. order) : 0.2471001E-03  (-0.1840375E-03)
 number of electron      15.9999999 magnetization       4.4895762
 augmentation part        8.2985932 magnetization       3.6841727

 Broyden mixing:
  rms(total) = 0.64190E-02    rms(broyden)= 0.64147E-02
  rms(prec ) = 0.86146E-02
  weight for this iteration     100.00

 eigenvalues of (default mixing * dielectric matrix)
  average eigenvalue GAMMA=   1.1297
  2.4268  1.0958  0.6283  0.7488  0.7488

 Free energy of the ion-electron system (eV)
  ---------------------------------------------------
  alpha Z        PSCENC =       117.79976220
  Ewald energy   TEWEN  =     -1171.43779597
  -Hartree energ DENC   =      -195.23801296
  -exchange      EXHF   =         0.00000000
  -V(xc)+E(xc)   XCENC  =         8.51450112
  PAW double counting   =      1405.22122651    -1422.64977344
  entropy T*S    EENTRO =        -0.00263788
  eigenvalues    EBANDS =        52.87652979
  atomic energy  EATOM  =      1188.49897307
  Solvation  Ediel_sol  =         0.00000000
  ---------------------------------------------------
  free energy    TOTEN  =       -16.41722755 eV

  energy without entropy =      -16.41458968  energy(sigma->0) =      -16.41634826


--------------------------------------------------------------------------------------------------------




--------------------------------------- Iteration      1(  11)  ---------------------------------------


    POTLOK:  cpu time    0.0230: real time    0.0408
    SETDIJ:  cpu time    1.5768: real time    1.5770
     EDDAV:  cpu time    2.3646: real time    2.3664
       DOS:  cpu time    0.0100: real time    0.0117
    CHARGE:  cpu time    0.0860: real time    0.0852
    MIXING:  cpu time    0.0010: real time    0.0010
    --------------------------------------------
      LOOP:  cpu time    4.0614: real time    4.0820

 eigenvalue-minimisations  : 10656
 total energy-change (2. order) :-0.2078558E-04  (-0.4831092E-05)
 number of electron      15.9999999 magnetization       4.4884643
 augmentation part        8.3001222 magnetization       3.6831843

 Broyden mixing:
  rms(total) = 0.40854E-02    rms(broyden)= 0.40848E-02
  rms(prec ) = 0.46107E-02
  weight for this iteration     100.00

 eigenvalues of (default mixing * dielectric matrix)
  average eigenvalue GAMMA=   1.1210
  2.4225  1.2925  1.0082  0.6902  0.6902  0.6223

 Free energy of the ion-electron system (eV)
  ---------------------------------------------------
  alpha Z        PSCENC =       117.79976220
  Ewald energy   TEWEN  =     -1171.43779597
  -Hartree energ DENC   =      -195.19822653
  -exchange      EXHF   =         0.00000000
  -V(xc)+E(xc)   XCENC  =         8.52595122
  PAW double counting   =      1406.99223087    -1424.43614282
  entropy T*S    EENTRO =        -0.00264026
  eigenvalues    EBANDS =        52.84063986
  atomic energy  EATOM  =      1188.49897307
  Solvation  Ediel_sol  =         0.00000000
  ---------------------------------------------------
  free energy    TOTEN  =       -16.41724834 eV

  energy without entropy =      -16.41460808  energy(sigma->0) =      -16.41636825


--------------------------------------------------------------------------------------------------------




--------------------------------------- Iteration      1(  12)  ---------------------------------------


    POTLOK:  cpu time    0.0240: real time    0.0411
    SETDIJ:  cpu time    1.5768: real time    1.5771
     EDDAV:  cpu time    2.3766: real time    2.3796
       DOS:  cpu time    0.0110: real time    0.0117
    CHARGE:  cpu time    0.0850: real time    0.0851
    MIXING:  cpu time    0.0010: real time    0.0010
    --------------------------------------------
      LOOP:  cpu time    4.0754: real time    4.0956

 eigenvalue-minimisations  : 10776
 total energy-change (2. order) : 0.4064634E-05  (-0.5286947E-06)
 number of electron      15.9999999 magnetization       4.4867401
 augmentation part        8.3004884 magnetization       3.6815454

 Broyden mixing:
  rms(total) = 0.17427E-02    rms(broyden)= 0.17418E-02
  rms(prec ) = 0.21103E-02
  weight for this iteration     100.00

 eigenvalues of (default mixing * dielectric matrix)
  average eigenvalue GAMMA=   1.2466
  2.4880  2.3345  1.0794  0.8194  0.7030  0.6511  0.6511

 Free energy of the ion-electron system (eV)
  ---------------------------------------------------
  alpha Z        PSCENC =       117.79976220
  Ewald energy   TEWEN  =     -1171.43779597
  -Hartree energ DENC   =      -195.20694638
  -exchange      EXHF   =         0.00000000
  -V(xc)+E(xc)   XCENC  =         8.52538946
  PAW double counting   =      1407.30581584    -1424.72927272
  entropy T*S    EENTRO =        -0.00263438
  eigenvalues    EBANDS =        52.82946461
  atomic energy  EATOM  =      1188.49897307
  Solvation  Ediel_sol  =         0.00000000
  ---------------------------------------------------
  free energy    TOTEN  =       -16.41724427 eV

  energy without entropy =      -16.41460990  energy(sigma->0) =      -16.41636615


--------------------------------------------------------------------------------------------------------




--------------------------------------- Iteration      1(  13)  ---------------------------------------


    POTLOK:  cpu time    0.0250: real time    0.0416
    SETDIJ:  cpu time    1.5768: real time    1.5771
     EDDAV:  cpu time    2.0047: real time    2.0070
       DOS:  cpu time    0.0100: real time    0.0115
    --------------------------------------------
      LOOP:  cpu time    3.6165: real time    3.6373

 eigenvalue-minimisations  :  8372
 total energy-change (2. order) :-0.3470627E-06  (-0.1260307E-06)
 number of electron      15.9999999 magnetization       4.4867401
 augmentation part        8.3004884 magnetization       3.6815454

 Free energy of the ion-electron system (eV)
  ---------------------------------------------------
  alpha Z        PSCENC =       117.79976220
  Ewald energy   TEWEN  =     -1171.43779597
  -Hartree energ DENC   =      -195.21560008
  -exchange      EXHF   =         0.00000000
  -V(xc)+E(xc)   XCENC  =         8.52502153
  PAW double counting   =      1407.66497784    -1425.07461449
  entropy T*S    EENTRO =        -0.00263700
  eigenvalues    EBANDS =        52.82466828
  atomic energy  EATOM  =      1188.49897307
  Solvation  Ediel_sol  =         0.00000000
  ---------------------------------------------------
  free energy    TOTEN  =       -16.41724462 eV

  energy without entropy =      -16.41460762  energy(sigma->0) =      -16.41636562


--------------------------------------------------------------------------------------------------------




 average (electrostatic) potential at core
  the test charge radii are     1.0103
  (the norm of the test charge is              1.0000)
       1 -43.6516       2 -43.6516
 
 
 
 E-fermi :   5.4424     XC(G=0): -12.9297     alpha+bet :-13.2097

 Fermi energy:         5.4424455084

 spin component 1

 k-point     1 :       0.0000    0.0000    0.0000
  band No.  band energies     occupation 
      1      -2.7444      1.00000
      2       0.8108      1.00000
      3       0.8108      1.00000
      4       3.2704      1.00000
      5       3.2704      1.00000
      6       3.2704      1.00000
      7       4.3972      1.00000
      8       4.3972      1.00000
      9       5.5064      0.24425
     10       5.5064      0.24425
     11       5.5064      0.24425
     12      15.2071      0.00000
     13      15.2071      0.00000
     14      15.2071      0.00000
     15      20.8298      0.00000
     16      20.8298      0.00000
     17      25.5190      0.00000
     18      30.2193      0.00000
     19      30.2193      0.00000
     20      30.2193      0.00000

 k-point     2 :       0.0667    0.0000    0.0000
  band No.  band energies     occupation 
      1      -2.6544      1.00000
      2       0.8484      1.00000
      3       0.8498      1.00000
      4       3.2477      1.00000
      5       3.2477      1.00000
      6       3.2911      1.00000
      7       4.3564      1.00000
      8       4.3993      1.00000
      9       5.4332      0.53905
     10       5.4332      0.53905
     11       5.4805      0.34227
     12      14.5409      0.00000
     13      15.3757      0.00000
     14      15.3757      0.00000
     15      20.8574      0.00000
     16      21.3323      0.00000
     17      25.8207      0.00000
     18      29.5979      0.00000
     19      30.1440      0.00000
     20      30.1440      0.00000

 k-point     3 :       0.1333    0.0000    0.0000
  band No.  band energies     occupation 
      1      -2.3876      1.00000
      2       0.9604      1.00000
      3       0.9628      1.00000
      4       3.2278      1.00000
      5       3.2278      1.00000
      6       3.3525      1.00000
      7       4.2230      1.00000
      8       4.4433      1.00000
      9       5.2392      1.02673
     10       5.2392      1.02673
     11       5.4041      0.65900
     12      13.0877      0.00000
     13      15.8639      0.00000
     14      15.8639      0.00000
     15      20.9462      0.00000
     16      22.2061      0.00000
     17      26.8470      0.00000
     18      28.3458      0.00000
     19      29.7651      0.00000
     20      29.7651      0.00000

 k-point     4 :       0.2000   -0.0000    0.0000
  band No.  band energies     occupation 
      1      -1.9552      1.00000
      2       1.1203      1.00000
      3       1.1449      1.00000
      4       3.2330      1.00000
      5       3.2330      1.00000
      6       3.4686      1.00000
      7       4.0348      1.00000
      8       4.5169      1.00000
      9       4.9576      1.00161
     10       4.9576      1.00161
     11       5.2809      0.99205
     12      11.4215      0.00000
     13      16.6266      0.00000
     14      16.6266      0.00000
     15      21.1120      0.00000
     16      22.7999      0.00000
     17      27.0327      0.00000
     18      28.6514      0.00000
     19      28.8765      0.00000
     20      28.8765      0.00000

 k-point     5 :       0.2667    0.0000    0.0000
  band No.  band energies     occupation 
      1      -1.3783      1.00000
      2       1.2889      1.00000
      3       1.3876      1.00000
      4       3.2547      1.00000
      5       3.2547      1.00000
      6       3.5890      1.00000
      7       3.7772      1.00000
      8       4.6064      1.00000
      9       4.6283      1.00000
     10       4.6283      1.00000
     11       5.1167      1.02175
     12       9.7784     -0.00000
     13      17.6092      0.00000
     14      17.6092      0.00000
     15      21.3205      0.00000
     16      23.1896      0.00000
     17      25.8145      0.00000
     18      27.5480      0.00000
     19      27.5480      0.00000
     20      29.2347      0.00000

 k-point     6 :       0.3333    0.0000    0.0000
  band No.  band energies     occupation 
      1      -0.6941      1.00000
      2       1.4109      1.00000
      3       1.6838      1.00000
      4       3.3100      1.00000
      5       3.3100      1.00000
      6       3.4724      1.00000
      7       3.7765      1.00000
      8       4.3019      1.00000
      9       4.3019      1.00000
     10       4.7412      1.00000
     11       4.9194      1.00068
     12       8.2698     -0.00000
     13      18.7667      0.00000
     14      18.7667      0.00000
     15      21.6095      0.00000
     16      23.5527      0.00000
     17      24.7526      0.00000
     18      26.0394      0.00000
     19      26.0394      0.00000
[...]

 k-point   114 :       0.4000    0.4000    0.3333
  band No.  band energies     occupation 
      1       3.6067      1.00000
      2       3.6821      1.00000
      3       4.1438      1.00000
      4       4.2676      1.00000
      5       4.3273      1.00000
      6       4.5960      1.00000
      7       7.8903     -0.00000
      8       7.9413     -0.00000
      9       8.0044     -0.00000
     10       8.0332     -0.00000
     11      11.2499     -0.00000
     12      13.3950      0.00000
     13      15.0877      0.00000
     14      17.3030      0.00000
     15      17.9246      0.00000
     16      19.6372      0.00000
     17      20.8203      0.00000
     18      23.4632      0.00000
     19      37.2255      0.00000
     20      38.7647      0.00000

 k-point   115 :       0.4667    0.4000    0.3333
  band No.  band energies     occupation 
      1       3.6447      1.00000
      2       3.6488      1.00000
      3       4.1317      1.00000
      4       4.1778      1.00000
      5       4.5199      1.00000
      6       4.6312      1.00000
      7       7.9145     -0.00000
      8       7.9373     -0.00000
      9       8.0545     -0.00000
     10       8.0670     -0.00000
     11      11.9545      0.00000
     12      12.7386      0.00000
     13      15.7536      0.00000
     14      16.7647      0.00000
     15      17.9546      0.00000
     16      18.8714      0.00000
     17      21.2164      0.00000
     18      22.2191      0.00000
     19      38.0286      0.00000
     20      38.6409      0.00000

 k-point   116 :       0.4667    0.4667    0.3333
  band No.  band energies     occupation 
      1       3.6514      1.00000
      2       3.6570      1.00000
      3       4.0839      1.00000
      4       4.1049      1.00000
      5       4.6727      1.00000
      6       4.7145      1.00000
      7       7.9596     -0.00000
      8       7.9669     -0.00000
      9       8.0839     -0.00000
     10       8.0868     -0.00000
     11      12.5691      0.00000
     12      12.9463      0.00000
     13      15.3918      0.00000
     14      15.8394      0.00000
     15      18.6783      0.00000
     16      19.3126      0.00000
     17      20.3628      0.00000
     18      21.0261      0.00000
     19      38.7957      0.00000
     20      39.0554      0.00000

 k-point   117 :       0.4000    0.4000    0.4000
  band No.  band energies     occupation 
      1       3.7693      1.00000
      2       3.9902      1.00000
      3       4.1180      1.00000
      4       4.1181      1.00000
      5       4.3787      1.00000
      6       4.3788      1.00000
      7       8.0006     -0.00000
      8       8.0007     -0.00000
      9       8.0324     -0.00000
     10       8.0326     -0.00000
     11      11.9927      0.00000
     12      14.5239      0.00000
     13      14.5239      0.00000
     14      16.9243      0.00000
     15      18.2892      0.00000
     16      18.2893      0.00000
     17      19.7339      0.00000
     18      22.0738      0.00000
     19      39.4170      0.00000
     20      39.4170      0.00000

 k-point   118 :       0.4667    0.4000    0.4000
  band No.  band energies     occupation 
      1       3.8199      1.00000
      2       3.9093      1.00000
      3       4.1391      1.00000
      4       4.2253      1.00000
      5       4.3241      1.00000
      6       4.4341      1.00000
      7       8.0069     -0.00000
      8       8.0178     -0.00000
      9       8.0654     -0.00000
     10       8.0740     -0.00000
     11      12.7785      0.00000
     12      13.6481      0.00000
     13      15.7163      0.00000
     14      16.9707      0.00000
     15      17.2392      0.00000
     16      17.8879      0.00000
     17      19.9005      0.00000
     18      20.8575      0.00000
     19      40.0933      0.00000
     20      40.6560      0.00000

 k-point   119 :       0.4667    0.4667    0.4000
  band No.  band energies     occupation 
      1       3.9044      1.00000
      2       3.9800      1.00000
      3       4.0729      1.00000
      4       4.1450      1.00000
      5       4.3945      1.00000
      6       4.4351      1.00000
      7       8.0431     -0.00000
      8       8.0471     -0.00000
      9       8.0886     -0.00000
     10       8.0918     -0.00000
     11      13.5752      0.00000
     12      14.1115      0.00000
     13      15.5254      0.00000
     14      16.2066      0.00000
     15      17.4858      0.00000
     16      17.9438      0.00000
     17      19.1177      0.00000
     18      19.6945      0.00000
     19      41.2678      0.00000
     20      41.5548      0.00000

 k-point   120 :       0.4667    0.4667    0.4667
  band No.  band energies     occupation 
      1       4.0264      1.00000
      2       4.1205      1.00000
      3       4.1206      1.00000
      4       4.2383      1.00000
      5       4.2384      1.00000
      6       4.2491      1.00000
      7       8.0928     -0.00000
      8       8.0929     -0.00000
      9       8.0940     -0.00000
     10       8.0942     -0.00000
     11      14.5480      0.00000
     12      15.3371      0.00000
     13      15.3371      0.00000
     14      16.6169      0.00000
     15      16.6170      0.00000
     16      16.8252      0.00000
     17      18.4044      0.00000
     18      18.6781      0.00000
     19      43.7627      0.00000
     20      43.7646      0.00000


--------------------------------------------------------------------------------------------------------


 soft charge-density along one line, spin component           1
         0         1         2         3         4         5         6         7         8         9
 total charge-density along one line
 
 soft charge-density along one line, spin component           2
         0         1         2         3         4         5         6         7         8         9
 total charge-density along one line
 
 pseudopotential strength for first ion, spin component:           1
 -5.401  -0.000  -0.000  -0.000  -0.000  -5.937  -0.000  -0.000
 -0.000  -5.401   0.000   0.000   0.000  -0.000  -5.937   0.000
 -0.000   0.000  -5.613   0.000   0.000  -0.000   0.000  -6.142
 -0.000   0.000   0.000  -5.401  -0.000  -0.000   0.000   0.000
 -0.000   0.000   0.000  -0.000  -5.613  -0.000   0.000   0.000
 -5.937  -0.000  -0.000  -0.000  -0.000  -6.431  -0.000  -0.000
 -0.000  -5.937   0.000   0.000   0.000  -0.000  -6.431   0.000
 -0.000   0.000  -6.142   0.000   0.000  -0.000   0.000  -6.629
 -0.000   0.000   0.000  -5.937  -0.000  -0.000   0.000   0.000
 -0.000   0.000   0.000  -0.000  -6.142  -0.000   0.000   0.000
 -0.000   0.000   0.000   0.000  -0.000  -0.000   0.000   0.000
 -0.000   0.000   0.000   0.000  -0.000  -0.000   0.000   0.000
  0.000  -0.000   0.000   0.000   0.000   0.000  -0.000   0.000
  0.000  -0.000  -0.000  -0.000  -0.000   0.000  -0.000  -0.000
 -0.000   0.000  -0.000  -0.000  -0.000  -0.000   0.000  -0.000
  0.000  -0.000   0.000   0.000   0.000   0.000  -0.000   0.000
  0.000  -0.000  -0.000  -0.000  -0.000   0.000  -0.000  -0.000
 -0.000   0.000  -0.000  -0.000  -0.000  -0.000   0.000  -0.000
 pseudopotential strength for first ion, spin component:           2
 -4.004   0.000  -0.000   0.000  -0.000  -4.583   0.000  -0.000
  0.000  -4.004  -0.000  -0.000  -0.000   0.000  -4.583  -0.000
 -0.000  -0.000  -3.749  -0.000  -0.000  -0.000  -0.000  -4.337
  0.000  -0.000  -0.000  -4.004   0.000   0.000  -0.000  -0.000
 -0.000  -0.000  -0.000   0.000  -3.749  -0.000  -0.000  -0.000
 -4.583   0.000  -0.000   0.000  -0.000  -5.119   0.000  -0.000
  0.000  -4.583  -0.000  -0.000  -0.000   0.000  -5.118  -0.000
 -0.000  -0.000  -4.337  -0.000  -0.000  -0.000  -0.000  -4.881
  0.000  -0.000  -0.000  -4.583   0.000   0.000  -0.000  -0.000
 -0.000  -0.000  -0.000   0.000  -4.336  -0.000  -0.000  -0.000
 -0.000  -0.000  -0.000  -0.000   0.000  -0.000  -0.000  -0.000
 -0.000  -0.000  -0.000  -0.000   0.000  -0.000  -0.000  -0.000
  0.000  -0.000   0.000  -0.000   0.000   0.000  -0.000   0.000
 -0.000  -0.000   0.000  -0.000  -0.000  -0.000  -0.000   0.000
 -0.000  -0.000  -0.000  -0.000  -0.000  -0.000  -0.000  -0.000
  0.000  -0.000   0.000  -0.000   0.000   0.000  -0.000   0.000
 -0.000  -0.000   0.000  -0.000  -0.000  -0.000  -0.000   0.000
 -0.000  -0.000  -0.000  -0.000  -0.000  -0.000  -0.000  -0.000
 total augmentation occupancy for first ion, spin component:           1
  2.158   0.000  -0.000   0.000  -0.000  -1.265  -0.000   0.000  -0.000   0.000  -0.000   0.000   0.000   0.000   0.000   0.000
  0.000   2.158   0.000   0.000  -0.000  -0.000  -1.265  -0.000  -0.000   0.000   0.000  -0.000   0.000  -0.000   0.000  -0.000
 -0.000   0.000   3.560   0.000   0.000   0.000  -0.000  -2.367  -0.000   0.000   0.000  -0.000  -0.000  -0.000  -0.000   0.000
  0.000   0.000   0.000   2.158   0.000  -0.000  -0.000  -0.000  -1.265  -0.000   0.000   0.000   0.000  -0.000   0.000  -0.000
 -0.000  -0.000   0.000   0.000   3.560   0.000   0.000   0.000  -0.000  -2.367   0.000   0.000   0.000   0.000   0.000   0.000
 -1.265  -0.000   0.000  -0.000   0.000   1.770   0.000  -0.000   0.000  -0.000   0.000   0.000   0.000   0.000   0.000   0.000
 -0.000  -1.265   0.000  -0.000   0.000   0.000   1.770   0.000   0.000  -0.000  -0.000  -0.000   0.000   0.000   0.000  -0.000
  0.000   0.000  -2.367   0.000   0.000  -0.000   0.000   2.438   0.000   0.000   0.000   0.000   0.000  -0.000  -0.000  -0.000
 -0.000  -0.000  -0.000  -1.265  -0.000   0.000   0.000   0.000   1.770   0.000   0.000  -0.000   0.000   0.000  -0.000   0.000
  0.000   0.000   0.000  -0.000  -2.367  -0.000  -0.000   0.000   0.000   2.438  -0.000  -0.000   0.000  -0.000   0.000   0.000
 -0.000   0.000   0.000  -0.000  -0.000   0.000  -0.000   0.000   0.000   0.000   2.510  -0.296   0.000   0.000   0.000  -0.000
  0.000  -0.000  -0.000   0.000   0.000   0.000  -0.000   0.000  -0.000  -0.000  -0.296   0.041   0.000   0.000   0.000   0.000
 -0.000   0.000   0.000   0.000   0.000   0.000   0.000   0.000  -0.000   0.000   0.000   0.000   0.311   0.000   0.000  -0.027
  0.000  -0.000   0.000   0.000  -0.000   0.000   0.000   0.000  -0.000   0.000   0.000   0.000   0.000   0.311   0.000  -0.000
  0.000   0.000   0.000  -0.000  -0.000  -0.000   0.000   0.000  -0.000   0.000   0.000   0.000   0.000   0.000   0.311  -0.000
  0.000  -0.000   0.000  -0.000   0.000   0.000  -0.000   0.000   0.000   0.000   0.000   0.000  -0.027  -0.000  -0.000   0.003
  0.000  -0.000   0.000   0.000   0.000   0.000  -0.000   0.000  -0.000   0.000   0.000   0.000  -0.000  -0.027  -0.000   0.000
  0.000   0.000   0.000  -0.000   0.000   0.000   0.000  -0.000   0.000   0.000   0.000   0.000  -0.000  -0.000  -0.027   0.000
 total augmentation occupancy for first ion, spin component:           2
  1.740   0.000  -0.000   0.000  -0.000  -0.697  -0.000   0.000  -0.000   0.000  -0.000  -0.000   0.000   0.000   0.000   0.000
  0.000   1.740   0.000   0.000  -0.000  -0.000  -0.697   0.000  -0.000   0.000   0.000   0.000   0.000  -0.000   0.000   0.000
 -0.000   0.000   2.924   0.000  -0.000   0.000   0.000  -1.253   0.000  -0.000  -0.000   0.000  -0.000  -0.000   0.000   0.000
  0.000   0.000   0.000   1.740   0.000  -0.000  -0.000   0.000  -0.697  -0.000   0.000  -0.000   0.000   0.000  -0.000   0.000
 -0.000  -0.000   0.000   0.000   2.924   0.000   0.000   0.000  -0.000  -1.253  -0.000   0.000   0.000   0.000   0.000   0.000
 -0.697  -0.000   0.000  -0.000   0.000   0.038   0.000  -0.000  -0.000  -0.000  -0.000  -0.000  -0.000   0.000  -0.000  -0.000
 -0.000  -0.697  -0.000  -0.000   0.000   0.000   0.038  -0.000   0.000  -0.000   0.000   0.000   0.000  -0.000   0.000  -0.000
  0.000  -0.000  -1.253  -0.000   0.000  -0.000  -0.000   0.290  -0.000   0.000  -0.000   0.000   0.000  -0.000  -0.000   0.000
 -0.000  -0.000   0.000  -0.697  -0.000  -0.000   0.000  -0.000   0.038   0.000   0.000   0.000   0.000   0.000   0.000   0.000
  0.000   0.000  -0.000  -0.000  -1.253  -0.000  -0.000  -0.000   0.000   0.290  -0.000   0.000   0.000   0.000   0.000   0.000
 -0.000   0.000  -0.000   0.000   0.000   0.000  -0.000   0.000  -0.000   0.000  -0.334   0.101   0.000   0.000   0.000   0.000
  0.000   0.000   0.000  -0.000   0.000  -0.000   0.000   0.000   0.000   0.000   0.101  -0.018   0.000   0.000   0.000   0.000
  0.000   0.000  -0.000  -0.000  -0.000   0.000   0.000  -0.000   0.000  -0.000   0.000   0.000  -0.038  -0.000  -0.000   0.006
  0.000   0.000   0.000  -0.000   0.000   0.000   0.000   0.000   0.000  -0.000   0.000   0.000  -0.000  -0.038  -0.000   0.000
 -0.000   0.000   0.000   0.000   0.000  -0.000   0.000  -0.000   0.000   0.000   0.000   0.000  -0.000  -0.000  -0.038   0.000
  0.000   0.000   0.000   0.000   0.000  -0.000  -0.000   0.000   0.000  -0.000   0.000   0.000   0.006   0.000   0.000  -0.001
  0.000   0.000   0.000   0.000  -0.000   0.000  -0.000   0.000   0.000   0.000   0.000   0.000   0.000   0.006   0.000  -0.000
 -0.000   0.000   0.000  -0.000   0.000   0.000   0.000   0.000  -0.000  -0.000   0.000   0.000   0.000   0.000   0.006  -0.000


------------------------ aborting loop because EDIFF is reached ----------------------------------------





 total charge

# of ion       s       p       d       tot
------------------------------------------
    1        0.502   0.571   6.277   7.350
    2        0.502   0.571   6.277   7.350
--------------------------------------------------
tot          1.003   1.143  12.555  14.701



 magnetization (x)

# of ion       s       p       d       tot
------------------------------------------
    1       -0.013  -0.058   2.204   2.132
    2       -0.013  -0.058   2.204   2.132
--------------------------------------------------
tot         -0.027  -0.116   4.408   4.265
 
    CHARGE:  cpu time    0.0890: real time    0.0896
    FORLOC:  cpu time    0.0000: real time    0.0005
    FORNL :  cpu time    0.2740: real time    0.2742
    STRESS:  cpu time    0.9619: real time    0.9635
    FORCOR:  cpu time    0.0240: real time    0.0233
    FORHAR:  cpu time    0.0010: real time    0.0019
    MIXING:  cpu time    0.0000: real time    0.0007
    OFIELD:  cpu time    0.0010: real time    0.0001

  FORCE on cell =-STRESS in cart. coord.  units (eV):
  Direction    XX          YY          ZZ          XY          YZ          ZX
  --------------------------------------------------------------------------------------
  Alpha Z   125.77522   125.77522   125.77522
  Ewald    -399.09980  -399.09980  -399.09980    -0.00000    -0.00000    -0.00000
  Hartree    61.68135    61.68135    61.68135    -0.00000    -0.00000    -0.00000
  E(xc)     -79.65936   -79.65936   -79.65936    -0.00000    -0.00000     0.00000
  Local     119.59927   119.59927   119.59927     0.00000     0.00000    -0.00000
  n-local   -55.72775   -52.46745   -49.60245     2.49218    -0.90147     0.68857
  augment    77.25026    77.25026    77.25027    -0.00000     0.00000     0.00000
  Kinetic   149.41279   146.68246   145.06734     3.07435    -0.52080     0.15872
  Fock        0.00000     0.00000     0.00000     0.00000     0.00000     0.00000
  -------------------------------------------------------------------------------------
  Total       0.00193     0.00193     0.00193     0.00000     0.00000    -0.00000
  in kB       0.14082     0.14082     0.14082     0.00000     0.00000    -0.00000
  external pressure =        0.14 kB  Pullay stress =        0.00 kB


 VOLUME and BASIS-vectors are now :
 -----------------------------------------------------------------------------
  energy-cutoff  :      250.00
  volume of cell :       21.98
      direct lattice vectors                 reciprocal lattice vectors
     2.801193891 -0.000000000  0.000000000     0.356990640 -0.000000000  0.000000000
     0.000000000  2.801193891  0.000000000     0.000000000  0.356990640  0.000000000
    -0.000000000 -0.000000000  2.801193891    -0.000000000 -0.000000000  0.356990640

  length of vectors
     2.801193891  2.801193891  2.801193891     0.356990640  0.356990640  0.356990640


 FORCES acting on ions
    electron-ion (+dipol)            ewald-force                    non-local-force                 convergence-correction
 -----------------------------------------------------------------------------------------------
   -.734E-14 -.184E-14 0.973E-14   0.415E-14 -.114E-14 -.243E-14   0.108E-25 0.642E-26 0.145E-25   -.417E-14 -.600E-14 0.296E-14
   0.490E-13 0.737E-12 0.150E-12   -.540E-14 0.112E-14 0.405E-14   0.660E-26 -.655E-26 0.323E-26   0.820E-14 -.481E-14 0.132E-14
 -----------------------------------------------------------------------------------------------
   0.417E-13 0.735E-12 0.160E-12   -.124E-14 -.219E-16 0.161E-14   0.174E-25 -.129E-27 0.178E-25   0.403E-14 -.108E-13 0.429E-14
 
 
 POSITION                                       TOTAL-FORCE (eV/Angst)
 -----------------------------------------------------------------------------------
      0.00000      0.00000     -0.00000        -0.000000      0.000000      0.000000
      1.40060      1.40060      1.40060         0.000000     -0.000000     -0.000000
 -----------------------------------------------------------------------------------
    total drift:                                0.000000      0.000000      0.000000


--------------------------------------------------------------------------------------------------------



  FREE ENERGIE OF THE ION-ELECTRON SYSTEM (eV)
  ---------------------------------------------------
  free  energy   TOTEN  =       -16.49982820 eV

  energy  without entropy=      -16.49719248  energy(sigma->0) =      -16.49894963
 
 d Force = 0.0000000E+00[ 0.000E+00, 0.000E+00]  d Energy = 0.9655175E-06-0.966E-06
 d Force = 0.0000000E+00[ 0.000E+00, 0.000E+00]  d Ewald  = 0.9405934E-01-0.941E-01


--------------------------------------------------------------------------------------------------------


    POTLOK:  cpu time    1.5498: real time    1.5580


--------------------------------------------------------------------------------------------------------




--------------------------------------------------------------------------------------------------------


  
 reached required accuracy - stopping structural energy minimisation
 writing wavefunctions
     LOOP+:  cpu time   25.9731: real time   26.8830
    4ORBIT:  cpu time    0.0000: real time    0.0000



 total charge

# of ion       s       p       d       tot
------------------------------------------
    1        0.502   0.571   6.277   7.350
    2        0.502   0.571   6.277   7.350
--------------------------------------------------
tot          1.003   1.143  12.555  14.701



 magnetization (x)

# of ion       s       p       d       tot
------------------------------------------
    1       -0.013  -0.058   2.204   2.132
    2       -0.013  -0.058   2.204   2.132
--------------------------------------------------
tot         -0.027  -0.116   4.408   4.265
 

 total amount of memory used by VASP MPI-rank0    40985. kBytes
=======================================================================

   base      :      30000. kBytes
   nonl-proj :       3808. kBytes
   fftplans  :       1246. kBytes
   grid      :        954. kBytes
   one-center:         62. kBytes
   wavefun   :       4915. kBytes
 
  
  
 General timing and accounting informations for this job:
 ========================================================
  
                  Total CPU time used (sec):      194.886
                            User time (sec):      191.606
                          System time (sec):        3.281
                         Elapsed time (sec):      204.472
  
                   Maximum memory used (kb):       71812.
                   Average memory used (kb):          N/A
  
                          Minor page faults:        11634
                          Major page faults:            1
                 Voluntary context switches:       258112
