PROCAR lm decomposed
# of k-points:  120         # of bands:   20         # of ions:    2

 k-point     1 :    0.00000000 0.00000000 0.00000000     weight = 0.00029630

band     1 # energy   -2.45683686 # occ.  1.00000000
 
ion      s     py     pz     px    dxy    dyz    dz2    dxz  x2-y2    tot
    1  0.380  0.000  0.000  0.000  0.000  0.000  0.000  0.000  0.000  0.380
    2  0.380  0.000  0.000  0.000  0.000  0.000  0.000  0.000  0.000  0.380
tot    0.761  0.000  0.000  0.000  0.000  0.000  0.000  0.000  0.000  0.761
 
band     2 # energy    1.11889216 # occ.  1.00000000
 
ion      s     py     pz     px    dxy    dyz    dz2    dxz  x2-y2    tot
    1  0.000  0.000  0.000  0.000  0.000  0.000  0.335  0.000  0.106  0.441
    2  0.000  0.000  0.000  0.000  0.000  0.000  0.335  0.000  0.106  0.441
tot    0.000  0.000  0.000  0.000  0.000  0.000  0.670  0.000  0.211  0.881
 
band     3 # energy    1.11889234 # occ.  1.00000000
 
ion      s     py     pz     px    dxy    dyz    dz2    dxz  x2-y2    tot
    1  0.000  0.000  0.000  0.000  0.000  0.000  0.106  0.000  0.335  0.441
    2  0.000  0.000  0.000  0.000  0.000  0.000  0.106  0.000  0.335  0.441
tot    0.000  0.000  0.000  0.000  0.000  0.000  0.211  0.000  0.670  0.881
 
band     4 # energy    3.82232132 # occ.  1.00000000
 
ion      s     py     pz     px    dxy    dyz    dz2    dxz  x2-y2    tot
    1  0.000  0.000  0.000  0.000  0.497  0.000  0.000  0.000  0.000  0.497
    2  0.000  0.000  0.000  0.000  0.497  0.000  0.000  0.000  0.000  0.497
tot    0.000  0.000  0.000  0.000  0.994  0.000  0.000  0.000  0.000  0.994
 
band     5 # energy    3.82232228 # occ.  1.00000000
 
ion      s     py     pz     px    dxy    dyz    dz2    dxz  x2-y2    tot
    1  0.000  0.000  0.000  0.000  0.000  0.000  0.000  0.497  0.000  0.497
    2  0.000  0.000  0.000  0.000  0.000  0.000  0.000  0.497  0.000  0.497
tot    0.000  0.000  0.000  0.000  0.000  0.000  0.000  0.994  0.000  0.994
 
band     6 # energy    3.82232230 # occ.  1.00000000
 
ion      s     py     pz     px    dxy    dyz    dz2    dxz  x2-y2    tot
    1  0.000  0.000  0.000  0.000  0.000  0.497  0.000  0.000  0.000  0.497
    2  0.000  0.000  0.000  0.000  0.000  0.497  0.000  0.000  0.000  0.497
tot    0.000  0.000  0.000  0.000  0.000  0.994  0.000  0.000  0.000  0.994
 
band     7 # energy    5.08688680 # occ.  1.00000000
 
ion      s     py     pz     px    dxy    dyz    dz2    dxz  x2-y2    tot
    1  0.000  0.000  0.000  0.000  0.000  0.000  0.485  0.000  0.003  0.487
    2  0.000  0.000  0.000  0.000  0.000  0.000  0.485  0.000  0.003  0.487
tot    0.000  0.000  0.000  0.000  0.000  0.000  0.970  0.000  0.005  0.975
 
band     8 # energy    5.08688805 # occ.  1.00000000
 
ion      s     py     pz     px    dxy    dyz    dz2    dxz  x2-y2    tot
    1  0.000  0.000  0.000  0.000  0.000  0.000  0.003  0.000  0.485  0.487
    2  0.000  0.000  0.000  0.000  0.000  0.000  0.003  0.000  0.485  0.487
tot    0.000  0.000  0.000  0.000  0.000  0.000  0.005  0.000  0.970  0.975
 
band     9 # energy    6.33226321 # occ.  0.02033915
 
ion      s     py     pz     px    dxy    dyz    dz2    dxz  x2-y2    tot
    1  0.000  0.000  0.000  0.000  0.494  0.000  0.000  0.000  0.000  0.494
    2  0.000  0.000  0.000  0.000  0.494  0.000  0.000  0.000  0.000  0.494
tot    0.000  0.000  0.000  0.000  0.988  0.000  0.000  0.000  0.000  0.988
 
band    10 # energy    6.33226509 # occ.  0.02033642
 
ion      s     py     pz     px    dxy    dyz    dz2    dxz  x2-y2    tot
    1  0.000  0.000  0.000  0.000  0.000  0.000  0.000  0.494  0.000  0.494
    2  0.000  0.000  0.000  0.000  0.000  0.000  0.000  0.494  0.000  0.494
tot    0.000  0.000  0.000  0.000  0.000  0.000  0.000  0.988  0.000  0.988
 
band    11 # energy    6.33226511 # occ.  0.02033639
 
ion      s     py     pz     px    dxy    dyz    dz2    dxz  x2-y2    tot
    1  0.000  0.000  0.000  0.000  0.000  0.494  0.000  0.000  0.000  0.494
    2  0.000  0.000  0.000  0.000  0.000  0.494  0.000  0.000  0.000  0.494
tot    0.000  0.000  0.000  0.000  0.000  0.988  0.000  0.000  0.000  0.988
 
band    12 # energy   16.34859029 # occ.  0.00000000
 
ion      s     py     pz     px    dxy    dyz    dz2    dxz  x2-y2    tot
    1  0.000  0.000  0.000  0.386  0.000  0.000  0.000  0.000  0.000  0.386
    2  0.000  0.000  0.000  0.386  0.000  0.000  0.000  0.000  0.000  0.386
tot    0.000  0.000  0.000  0.772  0.000  0.000  0.000  0.000  0.000  0.772
 
band    13 # energy   16.34859040 # occ.  0.00000000
 
ion      s     py     pz     px    dxy    dyz    dz2    dxz  x2-y2    tot
    1  0.000  0.386  0.000  0.000  0.000  0.000  0.000  0.000  0.000  0.386
    2  0.000  0.386  0.000  0.000  0.000  0.000  0.000  0.000  0.000  0.386
tot    0.000  0.772  0.000  0.000  0.000  0.000  0.000  0.000  0.000  0.772
 
band    14 # energy   16.34859053 # occ.  0.00000000
 
ion      s     py     pz     px    dxy    dyz    dz2    dxz  x2-y2    tot
    1  0.000  0.000  0.386  0.000  0.000  0.000  0.000  0.000  0.000  0.386
    2  0.000  0.000  0.386  0.000  0.000  0.000  0.000  0.000  0.000  0.386
tot    0.000  0.000  0.771  0.000  0.000  0.000  0.000  0.000  0.000  0.772
 
band    15 # energy   22.18484522 # occ.  0.00000000
 
ion      s     py     pz     px    dxy    dyz    dz2    dxz  x2-y2    tot
    1  0.000  0.000  0.000  0.000  0.000  0.000  0.488  0.000  0.000  0.488
    2  0.000  0.000  0.000  0.000  0.000  0.000  0.488  0.000  0.000  0.488
tot    0.000  0.000  0.000  0.000  0.000  0.000  0.976  0.000  0.000  0.977
 
band    16 # energy   22.18484719 # occ.  0.00000000
 
ion      s     py     pz     px    dxy    dyz    dz2    dxz  x2-y2    tot
    1  0.000  0.000  0.000  0.000  0.000  0.000  0.000  0.000  0.488  0.488
    2  0.000  0.000  0.000  0.000  0.000  0.000  0.000  0.000  0.488  0.488
tot    0.000  0.000  0.000  0.000  0.000  0.000  0.000  0.000  0.976  0.977
 
band    17 # energy   27.68111435 # occ.  0.00000000
 
ion      s     py     pz     px    dxy    dyz    dz2    dxz  x2-y2    tot
    1  0.390  0.000  0.000  0.000  0.000  0.000  0.000  0.000  0.000  0.390
    2  0.390  0.000  0.000  0.000  0.000  0.000  0.000  0.000  0.000  0.390
tot    0.779  0.000  0.000  0.000  0.000  0.000  0.000  0.000  0.000  0.779
 
band    18 # energy   31.53099547 # occ.  0.00000000
 
ion      s     py     pz     px    dxy    dyz    dz2    dxz  x2-y2    tot
    1  0.000  0.000  0.000  0.000  0.000  0.000  0.000  0.000  0.000  0.000
    2  0.000  0.000  0.000  0.000  0.000  0.000  0.000  0.000  0.000  0.000
tot    0.000  0.000  0.000  0.000  0.000  0.000  0.000  0.000  0.000  0.000
 
band    19 # energy   31.53099547 # occ.  0.00000000
 
ion      s     py     pz     px    dxy    dyz    dz2    dxz  x2-y2    tot
    1  0.000  0.000  0.000  0.000  0.000  0.000  0.000  0.000  0.000  0.000
    2  0.000  0.000  0.000  0.000  0.000  0.000  0.000  0.000  0.000  0.000
tot    0.000  0.000  0.000  0.000  0.000  0.000  0.000  0.000  0.000  0.000
 
band    20 # energy   31.53099547 # occ.  0.00000000
 
ion      s     py     pz     px    dxy    dyz    dz2    dxz  x2-y2    tot
    1  0.000  0.000  0.000  0.000  0.000  0.000  0.000  0.000  0.000  0.000
    2  0.000  0.000  0.000  0.000  0.000  0.000  0.000  0.000  0.000  0.000
tot    0.000  0.000  0.000  0.000  0.000  0.000  0.000  0.000  0.000  0.000
 

 k-point     2 :    0.06666667 0.00000000 0.00000000     weight = 0.00177778

band     1 # energy   -2.36202256 # occ.  1.00000000
 
ion      s     py     pz     px    dxy    dyz    dz2    dxz  x2-y2    tot
    1  0.377  0.000  0.000  0.003  0.000  0.000  0.000  0.000  0.000  0.380
    2  0.377  0.000  0.000  0.003  0.000  0.000  0.000  0.000  0.000  0.380
tot    0.754  0.000  0.000  0.007  0.000  0.000  0.000  0.000  0.000  0.761
 
band     2 # energy    1.16003081 # occ.  1.00000000
 
ion      s     py     pz     px    dxy    dyz    dz2    dxz  x2-y2    tot
    1  0.000  0.000  0.000  0.000  0.000  0.000  0.331  0.000  0.110  0.441
    2  0.000  0.000  0.000  0.000  0.000  0.000  0.331  0.000  0.110  0.441
tot    0.000  0.000  0.000  0.000  0.000  0.000  0.661  0.000  0.220  0.881
 
band     3 # energy    1.16238863 # occ.  1.00000000
 
ion      s     py     pz     px    dxy    dyz    dz2    dxz  x2-y2    tot
    1  0.000  0.000  0.000  0.003  0.000  0.000  0.109  0.000  0.328  0.441
    2  0.000  0.000  0.000  0.003  0.000  0.000  0.109  0.000  0.328  0.441
tot    0.000  0.000  0.000  0.005  0.000  0.000  0.219  0.000  0.657  0.881
 
band     4 # energy    3.81030271 # occ.  1.00000000
 
ion      s     py     pz     px    dxy    dyz    dz2    dxz  x2-y2    tot
    1  0.000  0.000  0.000  0.000  0.494  0.000  0.000  0.000  0.000  0.495
    2  0.000  0.000  0.000  0.000  0.494  0.000  0.000  0.000  0.000  0.495
tot    0.000  0.001  0.000  0.000  0.988  0.000  0.000  0.000  0.000  0.989
 
band     5 # energy    3.81030370 # occ.  1.00000000
 
ion      s     py     pz     px    dxy    dyz    dz2    dxz  x2-y2    tot
    1  0.000  0.000  0.000  0.000  0.000  0.000  0.000  0.494  0.000  0.495
    2  0.000  0.000  0.000  0.000  0.000  0.000  0.000  0.494  0.000  0.495
tot    0.000  0.000  0.001  0.000  0.000  0.000  0.000  0.988  0.000  0.989
 
band     6 # energy    3.84728183 # occ.  1.00000000
 
ion      s     py     pz     px    dxy    dyz    dz2    dxz  x2-y2    tot
    1  0.000  0.000  0.000  0.000  0.000  0.497  0.000  0.000  0.000  0.497
    2  0.000  0.000  0.000  0.000  0.000  0.497  0.000  0.000  0.000  0.497
tot    0.000  0.000  0.000  0.000  0.000  0.993  0.000  0.000  0.000  0.993
 
band     7 # energy    5.04211578 # occ.  1.00000000
 
ion      s     py     pz     px    dxy    dyz    dz2    dxz  x2-y2    tot
    1  0.000  0.000  0.000  0.000  0.000  0.000  0.365  0.000  0.122  0.486
    2  0.000  0.000  0.000  0.000  0.000  0.000  0.365  0.000  0.122  0.486
tot    0.000  0.000  0.000  0.000  0.000  0.000  0.730  0.000  0.243  0.973
 
band     8 # energy    5.09691122 # occ.  1.00000000
 
ion      s     py     pz     px    dxy    dyz    dz2    dxz  x2-y2    tot
    1  0.000  0.000  0.000  0.000  0.000  0.000  0.122  0.000  0.365  0.487
    2  0.000  0.000  0.000  0.000  0.000  0.000  0.122  0.000  0.365  0.487
tot    0.000  0.000  0.000  0.000  0.000  0.000  0.243  0.000  0.730  0.974
 
band     9 # energy    6.24990967 # occ.  0.22283739
 
ion      s     py     pz     px    dxy    dyz    dz2    dxz  x2-y2    tot
    1  0.000  0.002  0.000  0.000  0.490  0.000  0.000  0.000  0.000  0.493
    2  0.000  0.002  0.000  0.000  0.490  0.000  0.000  0.000  0.000  0.493
tot    0.000  0.005  0.000  0.000  0.981  0.000  0.000  0.000  0.000  0.986
 
band    10 # energy    6.24991151 # occ.  0.22283106
 
ion      s     py     pz     px    dxy    dyz    dz2    dxz  x2-y2    tot
    1  0.000  0.000  0.002  0.000  0.000  0.000  0.000  0.490  0.000  0.493
    2  0.000  0.000  0.002  0.000  0.000  0.000  0.000  0.490  0.000  0.493
tot    0.000  0.000  0.005  0.000  0.000  0.000  0.000  0.981  0.000  0.986
 
band    11 # energy    6.30336146 # occ.  0.07231493
 
ion      s     py     pz     px    dxy    dyz    dz2    dxz  x2-y2    tot
    1  0.000  0.000  0.000  0.000  0.000  0.494  0.000  0.000  0.000  0.494
    2  0.000  0.000  0.000  0.000  0.000  0.494  0.000  0.000  0.000  0.494
tot    0.000  0.000  0.000  0.000  0.000  0.987  0.000  0.000  0.000  0.987
 
band    12 # energy   15.67173260 # occ.  0.00000000
 
ion      s     py     pz     px    dxy    dyz    dz2    dxz  x2-y2    tot
    1  0.016  0.000  0.000  0.350  0.000  0.000  0.008  0.000  0.023  0.396
    2  0.016  0.000  0.000  0.350  0.000  0.000  0.008  0.000  0.023  0.396
tot    0.032  0.000  0.000  0.700  0.000  0.000  0.015  0.000  0.045  0.792
 
band    13 # energy   16.53019859 # occ.  0.00000000
 
ion      s     py     pz     px    dxy    dyz    dz2    dxz  x2-y2    tot
    1  0.000  0.381  0.000  0.000  0.007  0.000  0.000  0.000  0.000  0.389
    2  0.000  0.381  0.000  0.000  0.007  0.000  0.000  0.000  0.000  0.389
tot    0.000  0.763  0.000  0.000  0.015  0.000  0.000  0.000  0.000  0.778
 
band    14 # energy   16.53019876 # occ.  0.00000000
 
ion      s     py     pz     px    dxy    dyz    dz2    dxz  x2-y2    tot
    1  0.000  0.000  0.381  0.000  0.000  0.000  0.000  0.007  0.000  0.389
    2  0.000  0.000  0.381  0.000  0.000  0.000  0.000  0.007  0.000  0.389
tot    0.000  0.000  0.763  0.000  0.000  0.000  0.000  0.015  0.000  0.778
 
band    15 # energy   22.21096057 # occ.  0.00000000
 
ion      s     py     pz     px    dxy    dyz    dz2    dxz  x2-y2    tot
    1  0.000  0.000  0.000  0.000  0.000  0.000  0.365  0.000  0.122  0.486
    2  0.000  0.000  0.000  0.000  0.000  0.000  0.365  0.000  0.122  0.486
tot    0.000  0.000  0.000  0.000  0.000  0.000  0.729  0.000  0.243  0.972
 
band    16 # energy   22.69781362 # occ.  0.00000000
 
ion      s     py     pz     px    dxy    dyz    dz2    dxz  x2-y2    tot
    1  0.005  0.000  0.000  0.014  0.000  0.000  0.113  0.000  0.340  0.473
    2  0.005  0.000  0.000  0.014  0.000  0.000  0.113  0.000  0.340  0.473
tot    0.009  0.000  0.000  0.029  0.000  0.000  0.227  0.000  0.680  0.945
 
band    17 # energy   27.98102787 # occ.  0.00000000
 
ion      s     py     pz     px    dxy    dyz    dz2    dxz  x2-y2    tot
    1  0.368  0.000  0.000  0.020  0.000  0.000  0.001  0.000  0.002  0.391
    2  0.368  0.000  0.000  0.020  0.000  0.000  0.001  0.000  0.002  0.391
tot    0.737  0.000  0.000  0.040  0.000  0.000  0.001  0.000  0.003  0.781
 
band    18 # energy   30.91591172 # occ.  0.00000000
 
ion      s     py     pz     px    dxy    dyz    dz2    dxz  x2-y2    tot
    1  0.000  0.000  0.000  0.000  0.000  0.000  0.042  0.000  0.014  0.056
    2  0.000  0.000  0.000  0.000  0.000  0.000  0.042  0.000  0.014  0.056
tot    0.000  0.000  0.000  0.000  0.000  0.000  0.083  0.000  0.028  0.111
 
band    19 # energy   31.47323397 # occ.  0.00000000
 
ion      s     py     pz     px    dxy    dyz    dz2    dxz  x2-y2    tot
    1  0.000  0.001  0.000  0.000  0.030  0.000  0.000  0.000  0.000  0.031
    2  0.000  0.001  0.000  0.000  0.030  0.000  0.000  0.000  0.000  0.031
tot    0.000  0.002  0.000  0.000  0.060  0.000  0.000  0.000  0.000  0.061
 
band    20 # energy   31.47323404 # occ.  0.00000000
 
ion      s     py     pz     px    dxy    dyz    dz2    dxz  x2-y2    tot
    1  0.000  0.000  0.001  0.000  0.000  0.000  0.000  0.030  0.000  0.031
    2  0.000  0.000  0.001  0.000  0.000  0.000  0.000  0.030  0.000  0.031
tot    0.000  0.000  0.002  0.000  0.000  0.000  0.000  0.060  0.000  0.061
 

 k-point     3 :    0.13333333 0.00000000 0.00000000     weight = 0.00177778

band     1 # energy   -2.08141742 # occ.  1.00000000
 
ion      s     py     pz     px    dxy    dyz    dz2    dxz  x2-y2    tot
    1  0.366  0.000  0.000  0.014  0.000  0.000  0.000  0.000  0.000  0.381
    2  0.366  0.000  0.000  0.014  0.000  0.000  0.000  0.000  0.000  0.381
tot    0.733  0.000  0.000  0.028  0.000  0.000  0.000  0.000  0.001  0.761
 
band     2 # energy    1.28235281 # occ.  1.00000000
 
ion      s     py     pz     px    dxy    dyz    dz2    dxz  x2-y2    tot
    1  0.000  0.000  0.000  0.000  0.000  0.000  0.331  0.000  0.110  0.441
    2  0.000  0.000  0.000  0.000  0.000  0.000  0.331  0.000  0.110  0.441
tot    0.000  0.000  0.000  0.000  0.000  0.000  0.662  0.000  0.221  0.883
 
band     3 # energy    1.28653896 # occ.  1.00000000
 
ion      s     py     pz     px    dxy    dyz    dz2    dxz  x2-y2    tot
    1  0.001  0.000  0.000  0.010  0.000  0.000  0.107  0.000  0.323  0.441
    2  0.001  0.000  0.000  0.010  0.000  0.000  0.107  0.000  0.323  0.441
tot    0.001  0.000  0.000  0.020  0.000  0.000  0.215  0.000  0.645  0.882
 
band     4 # energy    3.79936871 # occ.  1.00000000
 
ion      s     py     pz     px    dxy    dyz    dz2    dxz  x2-y2    tot
    1  0.000  0.001  0.000  0.000  0.490  0.000  0.000  0.000  0.000  0.491
    2  0.000  0.001  0.000  0.000  0.490  0.000  0.000  0.000  0.000  0.491
tot    0.000  0.003  0.000  0.000  0.980  0.000  0.000  0.000  0.000  0.983
 
band     5 # energy    3.79936972 # occ.  1.00000000
 
ion      s     py     pz     px    dxy    dyz    dz2    dxz  x2-y2    tot
    1  0.000  0.000  0.001  0.000  0.000  0.000  0.000  0.490  0.000  0.491
    2  0.000  0.000  0.001  0.000  0.000  0.000  0.000  0.490  0.000  0.491
tot    0.000  0.000  0.003  0.000  0.000  0.000  0.000  0.980  0.000  0.983
 
band     6 # energy    3.92086524 # occ.  1.00000000
 
ion      s     py     pz     px    dxy    dyz    dz2    dxz  x2-y2    tot
    1  0.000  0.000  0.000  0.000  0.000  0.495  0.000  0.000  0.000  0.495
    2  0.000  0.000  0.000  0.000  0.000  0.495  0.000  0.000  0.000  0.495
tot    0.000  0.000  0.000  0.000  0.000  0.990  0.000  0.000  0.000  0.990
 
band     7 # energy    4.90216603 # occ.  1.00000000
 
ion      s     py     pz     px    dxy    dyz    dz2    dxz  x2-y2    tot
    1  0.000  0.000  0.000  0.000  0.000  0.000  0.362  0.000  0.121  0.483
    2  0.000  0.000  0.000  0.000  0.000  0.000  0.362  0.000  0.121  0.483
tot    0.000  0.000  0.000  0.000  0.000  0.000  0.724  0.000  0.241  0.966
 
band     8 # energy    5.14702775 # occ.  1.00000000
 
ion      s     py     pz     px    dxy    dyz    dz2    dxz  x2-y2    tot
    1  0.000  0.000  0.000  0.000  0.000  0.000  0.122  0.000  0.366  0.488
    2  0.000  0.000  0.000  0.000  0.000  0.000  0.122  0.000  0.366  0.488
tot    0.001  0.000  0.000  0.000  0.000  0.000  0.244  0.000  0.731  0.976
 
band     9 # energy    6.02777307 # occ.  0.97924222
 
ion      s     py     pz     px    dxy    dyz    dz2    dxz  x2-y2    tot
    1  0.000  0.008  0.000  0.000  0.482  0.000  0.000  0.000  0.000  0.490
    2  0.000  0.008  0.000  0.000  0.482  0.000  0.000  0.000  0.000  0.490
tot    0.000  0.016  0.000  0.000  0.965  0.000  0.000  0.000  0.000  0.980
 
band    10 # energy    6.02777479 # occ.  0.97923970
 
ion      s     py     pz     px    dxy    dyz    dz2    dxz  x2-y2    tot
    1  0.000  0.000  0.008  0.000  0.000  0.000  0.000  0.482  0.000  0.490
    2  0.000  0.000  0.008  0.000  0.000  0.000  0.000  0.482  0.000  0.490
tot    0.000  0.000  0.016  0.000  0.000  0.000  0.000  0.965  0.000  0.980
 
band    11 # energy    6.21799700 # occ.  0.34189361
 
ion      s     py     pz     px    dxy    dyz    dz2    dxz  x2-y2    tot
    1  0.000  0.000  0.000  0.000  0.000  0.493  0.000  0.000  0.000  0.493
    2  0.000  0.000  0.000  0.000  0.000  0.493  0.000  0.000  0.000  0.493
tot    0.000  0.000  0.000  0.000  0.000  0.986  0.000  0.000  0.000  0.986
 
band    12 # energy   14.18385200 # occ.  0.00000000
 
ion      s     py     pz     px    dxy    dyz    dz2    dxz  x2-y2    tot
    1  0.046  0.000  0.000  0.296  0.000  0.000  0.017  0.000  0.051  0.410
    2  0.046  0.000  0.000  0.296  0.000  0.000  0.017  0.000  0.051  0.410
tot    0.091  0.000  0.000  0.593  0.000  0.000  0.034  0.000  0.101  0.819
 
band    13 # energy   17.05424385 # occ.  0.00000000
 
ion      s     py     pz     px    dxy    dyz    dz2    dxz  x2-y2    tot
    1  0.000  0.369  0.000  0.000  0.027  0.000  0.000  0.000  0.000  0.396
    2  0.000  0.369  0.000  0.000  0.027  0.000  0.000  0.000  0.000  0.396
tot    0.000  0.739  0.000  0.000  0.053  0.000  0.000  0.000  0.000  0.793
 
band    14 # energy   17.05424413 # occ.  0.00000000
 
ion      s     py     pz     px    dxy    dyz    dz2    dxz  x2-y2    tot
    1  0.000  0.000  0.369  0.000  0.000  0.000  0.000  0.027  0.000  0.396
    2  0.000  0.000  0.369  0.000  0.000  0.000  0.000  0.027  0.000  0.396
tot    0.000  0.000  0.739  0.000  0.000  0.000  0.000  0.053  0.000  0.793
 
band    15 # energy   22.29461330 # occ.  0.00000000
 
ion      s     py     pz     px    dxy    dyz    dz2    dxz  x2-y2    tot
    1  0.000  0.000  0.000  0.000  0.000  0.000  0.359  0.000  0.120  0.479
    2  0.000  0.000  0.000  0.000  0.000  0.000  0.359  0.000  0.120  0.479
tot    0.000  0.000  0.000  0.000  0.000  0.000  0.719  0.000  0.240  0.958
 
band    16 # energy   23.61956469 # occ.  0.00000000
 
ion      s     py     pz     px    dxy    dyz    dz2    dxz  x2-y2    tot
    1  0.043  0.000  0.000  0.012  0.000  0.000  0.095  0.000  0.285  0.435
    2  0.043  0.000  0.000  0.012  0.000  0.000  0.095  0.000  0.285  0.435
tot    0.085  0.000  0.000  0.023  0.000  0.000  0.190  0.000  0.571  0.869
 
band    17 # energy   28.98450539 # occ.  0.00000000
 
ion      s     py     pz     px    dxy    dyz    dz2    dxz  x2-y2    tot
    1  0.298  0.000  0.000  0.071  0.000  0.000  0.007  0.000  0.021  0.397
    2  0.298  0.000  0.000  0.071  0.000  0.000  0.007  0.000  0.021  0.397
tot    0.597  0.000  0.000  0.142  0.000  0.000  0.014  0.000  0.042  0.795
 
band    18 # energy   29.65962269 # occ.  0.00000000
 
ion      s     py     pz     px    dxy    dyz    dz2    dxz  x2-y2    tot
    1  0.000  0.000  0.000  0.000  0.000  0.000  0.101  0.000  0.034  0.134
    2  0.000  0.000  0.000  0.000  0.000  0.000  0.101  0.000  0.034  0.134
tot    0.000  0.000  0.000  0.000  0.000  0.000  0.201  0.000  0.067  0.268
 
band    19 # energy   31.16949236 # occ.  0.00000000
 
ion      s     py     pz     px    dxy    dyz    dz2    dxz  x2-y2    tot
    1  0.000  0.013  0.000  0.000  0.127  0.000  0.000  0.000  0.000  0.141
    2  0.000  0.013  0.000  0.000  0.127  0.000  0.000  0.000  0.000  0.141
tot    0.000  0.027  0.000  0.000  0.254  0.000  0.000  0.000  0.000  0.281
 
band    20 # energy   31.16949267 # occ.  0.00000000
 
ion      s     py     pz     px    dxy    dyz    dz2    dxz  x2-y2    tot
    1  0.000  0.000  0.013  0.000  0.000  0.000  0.000  0.127  0.000  0.141
    2  0.000  0.000  0.013  0.000  0.000  0.000  0.000  0.127  0.000  0.141
tot    0.000  0.000  0.027  0.000  0.000  0.000  0.000  0.254  0.000  0.281
 

 k-point     4 :    0.20000000-0.00000000 0.00000000     weight = 0.00177778

band     1 # energy   -1.62746801 # occ.  1.00000000
 
ion      s     py     pz     px    dxy    dyz    dz2    dxz  x2-y2    tot
    1  0.349  0.000  0.000  0.030  0.000  0.000  0.001  0.000  0.002  0.381
    2  0.349  0.000  0.000  0.030  0.000  0.000  0.001  0.000  0.002  0.381
tot    0.697  0.000  0.000  0.060  0.000  0.000  0.001  0.000  0.003  0.762
 
band     2 # energy    1.46394384 # occ.  1.00000000
 
ion      s     py     pz     px    dxy    dyz    dz2    dxz  x2-y2    tot
    1  0.003  0.000  0.000  0.023  0.000  0.000  0.104  0.000  0.311  0.440
    2  0.003  0.000  0.000  0.023  0.000  0.000  0.104  0.000  0.311  0.440
tot    0.006  0.000  0.000  0.045  0.000  0.000  0.207  0.000  0.621  0.880
 
band     3 # energy    1.48257770 # occ.  1.00000000
 
ion      s     py     pz     px    dxy    dyz    dz2    dxz  x2-y2    tot
    1  0.000  0.000  0.000  0.000  0.000  0.000  0.332  0.000  0.111  0.443
    2  0.000  0.000  0.000  0.000  0.000  0.000  0.332  0.000  0.111  0.443
tot    0.000  0.000  0.000  0.000  0.000  0.000  0.664  0.000  0.221  0.885
 
band     4 # energy    3.80612679 # occ.  1.00000000
 
ion      s     py     pz     px    dxy    dyz    dz2    dxz  x2-y2    tot
    1  0.000  0.003  0.000  0.000  0.486  0.000  0.000  0.000  0.000  0.490
    2  0.000  0.003  0.000  0.000  0.486  0.000  0.000  0.000  0.000  0.490
tot    0.000  0.006  0.000  0.000  0.973  0.000  0.000  0.000  0.000  0.979
 
band     5 # energy    3.80612781 # occ.  1.00000000
 
ion      s     py     pz     px    dxy    dyz    dz2    dxz  x2-y2    tot
    1  0.000  0.000  0.003  0.000  0.000  0.000  0.000  0.486  0.000  0.490
    2  0.000  0.000  0.003  0.000  0.000  0.000  0.000  0.486  0.000  0.490
tot    0.000  0.000  0.006  0.000  0.000  0.000  0.000  0.973  0.000  0.979
 
band     6 # energy    4.04874151 # occ.  1.00000000
 
ion      s     py     pz     px    dxy    dyz    dz2    dxz  x2-y2    tot
    1  0.000  0.000  0.000  0.000  0.000  0.494  0.000  0.000  0.000  0.494
    2  0.000  0.000  0.000  0.000  0.000  0.494  0.000  0.000  0.000  0.494
tot    0.000  0.000  0.000  0.000  0.000  0.988  0.000  0.000  0.000  0.988
 
band     7 # energy    4.69119053 # occ.  1.00000000
 
ion      s     py     pz     px    dxy    dyz    dz2    dxz  x2-y2    tot
    1  0.000  0.000  0.000  0.000  0.000  0.000  0.359  0.000  0.120  0.479
    2  0.000  0.000  0.000  0.000  0.000  0.000  0.359  0.000  0.120  0.479
tot    0.000  0.000  0.000  0.000  0.000  0.000  0.718  0.000  0.239  0.957
 
band     8 # energy    5.22946849 # occ.  1.00000000
 
ion      s     py     pz     px    dxy    dyz    dz2    dxz  x2-y2    tot
    1  0.002  0.000  0.000  0.000  0.000  0.000  0.122  0.000  0.366  0.489
    2  0.002  0.000  0.000  0.000  0.000  0.000  0.122  0.000  0.366  0.489
tot    0.003  0.000  0.000  0.001  0.000  0.000  0.244  0.000  0.731  0.979
 
band     9 # energy    5.70933536 # occ.  1.00217999
 
ion      s     py     pz     px    dxy    dyz    dz2    dxz  x2-y2    tot
    1  0.000  0.014  0.000  0.000  0.474  0.000  0.000  0.000  0.000  0.487
    2  0.000  0.014  0.000  0.000  0.474  0.000  0.000  0.000  0.000  0.487
tot    0.000  0.027  0.000  0.000  0.947  0.000  0.000  0.000  0.000  0.975
 
band    10 # energy    5.70933695 # occ.  1.00218006
 
ion      s     py     pz     px    dxy    dyz    dz2    dxz  x2-y2    tot
    1  0.000  0.000  0.014  0.000  0.000  0.000  0.000  0.474  0.000  0.487
    2  0.000  0.000  0.014  0.000  0.000  0.000  0.000  0.474  0.000  0.487
tot    0.000  0.000  0.027  0.000  0.000  0.000  0.000  0.947  0.000  0.975
 
band    11 # energy    6.08040680 # occ.  0.86863178
 
ion      s     py     pz     px    dxy    dyz    dz2    dxz  x2-y2    tot
    1  0.000  0.000  0.000  0.000  0.000  0.492  0.000  0.000  0.000  0.492
    2  0.000  0.000  0.000  0.000  0.000  0.492  0.000  0.000  0.000  0.492
tot    0.000  0.000  0.000  0.000  0.000  0.984  0.000  0.000  0.000  0.984
 
band    12 # energy   12.46879609 # occ.  0.00000000
 
ion      s     py     pz     px    dxy    dyz    dz2    dxz  x2-y2    tot
    1  0.075  0.000  0.000  0.249  0.000  0.000  0.024  0.000  0.071  0.419
    2  0.075  0.000  0.000  0.249  0.000  0.000  0.024  0.000  0.071  0.419
tot    0.150  0.000  0.000  0.499  0.000  0.000  0.047  0.000  0.142  0.838
 
band    13 # energy   17.86879687 # occ.  0.00000000
 
ion      s     py     pz     px    dxy    dyz    dz2    dxz  x2-y2    tot
    1  0.000  0.353  0.000  0.000  0.054  0.000  0.000  0.000  0.000  0.407
    2  0.000  0.353  0.000  0.000  0.054  0.000  0.000  0.000  0.000  0.407
tot    0.000  0.706  0.000  0.000  0.108  0.000  0.000  0.000  0.000  0.814
 
band    14 # energy   17.86879729 # occ.  0.00000000
 
ion      s     py     pz     px    dxy    dyz    dz2    dxz  x2-y2    tot
    1  0.000  0.000  0.353  0.000  0.000  0.000  0.000  0.054  0.000  0.407
    2  0.000  0.000  0.353  0.000  0.000  0.000  0.000  0.054  0.000  0.407
tot    0.000  0.000  0.706  0.000  0.000  0.000  0.000  0.108  0.000  0.814
 
band    15 # energy   22.44964949 # occ.  0.00000000
 
ion      s     py     pz     px    dxy    dyz    dz2    dxz  x2-y2    tot
    1  0.000  0.000  0.000  0.000  0.000  0.000  0.348  0.000  0.116  0.465
    2  0.000  0.000  0.000  0.000  0.000  0.000  0.348  0.000  0.116  0.465
tot    0.000  0.000  0.000  0.000  0.000  0.000  0.697  0.000  0.232  0.929
 
band    16 # energy   24.28719626 # occ.  0.00000000
 
ion      s     py     pz     px    dxy    dyz    dz2    dxz  x2-y2    tot
    1  0.100  0.000  0.000  0.001  0.000  0.000  0.074  0.000  0.221  0.394
    2  0.100  0.000  0.000  0.001  0.000  0.000  0.074  0.000  0.221  0.394
tot    0.200  0.000  0.000  0.001  0.000  0.000  0.147  0.000  0.441  0.789
 
band    17 # energy   28.33349472 # occ.  0.00000000
 
ion      s     py     pz     px    dxy    dyz    dz2    dxz  x2-y2    tot
    1  0.000  0.000  0.000  0.000  0.000  0.000  0.145  0.000  0.048  0.194
    2  0.000  0.000  0.000  0.000  0.000  0.000  0.145  0.000  0.048  0.194
tot    0.000  0.000  0.000  0.000  0.000  0.000  0.291  0.000  0.097  0.387
 
band    18 # energy   30.40040865 # occ.  0.00000000
 
ion      s     py     pz     px    dxy    dyz    dz2    dxz  x2-y2    tot
    1  0.000  0.055  0.000  0.000  0.241  0.000  0.000  0.000  0.000  0.296
    2  0.000  0.055  0.000  0.000  0.241  0.000  0.000  0.000  0.000  0.296
tot    0.000  0.111  0.000  0.000  0.482  0.000  0.000  0.000  0.000  0.593
 
band    19 # energy   30.40040928 # occ.  0.00000000
 
ion      s     py     pz     px    dxy    dyz    dz2    dxz  x2-y2    tot
    1  0.000  0.000  0.055  0.000  0.000  0.000  0.000  0.241  0.000  0.296
    2  0.000  0.000  0.055  0.000  0.000  0.000  0.000  0.241  0.000  0.296
tot    0.000  0.000  0.111  0.000  0.000  0.000  0.000  0.482  0.000  0.593
 
band    20 # energy   30.75830416 # occ.  0.00000000
 
ion      s     py     pz     px    dxy    dyz    dz2    dxz  x2-y2    tot
    1  0.206  0.000  0.000  0.120  0.000  0.000  0.021  0.000  0.062  0.409
    2  0.206  0.000  0.000  0.120  0.000  0.000  0.021  0.000  0.062  0.409
tot    0.413  0.000  0.000  0.239  0.000  0.000  0.041  0.000  0.124  0.818
 

 k-point     5 :    0.26666667 0.00000000 0.00000000     weight = 0.00177778

band     1 # energy   -1.02410208 # occ.  1.00000000
 
ion      s     py     pz     px    dxy    dyz    dz2    dxz  x2-y2    tot
    1  0.323  0.000  0.000  0.051  0.000  0.000  0.002  0.000  0.006  0.382
    2  0.323  0.000  0.000  0.051  0.000  0.000  0.002  0.000  0.006  0.382
tot    0.645  0.000  0.000  0.103  0.000  0.000  0.004  0.000  0.012  0.764
 
band     2 # energy    1.65552402 # occ.  1.00000000
 
ion      s     py     pz     px    dxy    dyz    dz2    dxz  x2-y2    tot
    1  0.010  0.000  0.000  0.039  0.000  0.000  0.097  0.000  0.291  0.438
    2  0.010  0.000  0.000  0.039  0.000  0.000  0.097  0.000  0.291  0.438
tot    0.019  0.000  0.000  0.079  0.000  0.000  0.194  0.000  0.583  0.875
 
band     3 # energy    1.74984242 # occ.  1.00000000
 