<?xml version="1.0" encoding="ISO-8859-1"?>
<modeling>
 <generator>
  <i name="program" type="string">vasp </i>
  <i name="version" type="string">6.2.0  </i>
  <i name="subversion" type="string">18Jan21 (build Aug 12 2022 13:00:08) complex                          parallel </i>
  <i name="platform" type="string">LinuxIFC </i>
  <i name="date" type="string">2024 11 04 </i>
  <i name="time" type="string">06:45:40 </i>
 </generator>
 <incar>
  <i type="int" name="ISTART">     0</i>
  <i type="string" name="PREC">Accurate      (Accurate strictly avoids</i>
  <i type="logical" name="ADDGRID"> T  </i>
  <i type="int" name="ISPIN">     2</i>
  <i type="int" name="NELM">    90</i>
  <i type="int" name="NELMIN">     6</i>
  <i type="int" name="IBRION">     2</i>
  <i name="EDIFF">      0.00000100</i>
  <i name="EDIFFG">     -0.00200000</i>
  <i type="int" name="NSW">   100</i>
  <i type="int" name="ISIF">     3</i>
  <i type="int" name="ISYM">     2</i>
  <i name="ENCUT">    250.00000000</i>
  <v name="MAGMOM">      5.00000000      5.00000000</v>
  <i type="logical" name="LREAL"> F  </i>
  <i type="int" name="ISMEAR">     1</i>
  <i name="SIGMA">      0.20000000</i>
  <i type="int" name="LMAXMIX">     4</i>
  <i type="int" name="LORBIT">    11</i>
  <i type="logical" name="LASPH"> T  </i>
  <i type="logical" name="GGA_COMPAT"> F  </i>
  <i type="int" name="VOSKOWN">     1</i>
 </incar>
 <primitive_cell>
  <structure name="primitive_cell" >
   <crystal>
    <varray name="basis" >
     <v>       1.43151775       1.43151775      -1.43151775 </v>
     <v>      -1.43151775       1.43151775       1.43151775 </v>
     <v>       1.43151775      -1.43151775       1.43151775 </v>
    </varray>
    <i name="volume">     11.73411129 </i>
    <varray name="rec_basis" >
     <v>       0.34927964       0.34927964       0.00000000 </v>
     <v>       0.00000000       0.34927964       0.34927964 </v>
     <v>       0.34927964      -0.00000000       0.34927964 </v>
    </varray>
   </crystal>
   <varray name="positions" >
    <v>       0.00000000       0.00000000       0.00000000 </v>
   </varray>
  </structure>
  <varray name="primitive_index" >
   <v type="int" >        1 </v>
  </varray>
 </primitive_cell>
 <kpoints>
  <generation param="Monkhorst-Pack">
   <v type="int" name="divisions">      15       15       15 </v>
   <v name="usershift">      0.00000000       0.00000000       0.00000000 </v>
   <v name="genvec1">      0.06666667       0.00000000       0.00000000 </v>
   <v name="genvec2">      0.00000000       0.06666667       0.00000000 </v>
   <v name="genvec3">      0.00000000       0.00000000       0.06666667 </v>
   <v name="shift">      0.00000000       0.00000000       0.00000000 </v>
  </generation>
  <varray name="kpointlist" >
   <v>       0.00000000       0.00000000       0.00000000 </v>
   <v>       0.06666667       0.00000000       0.00000000 </v>
   <v>       0.13333333       0.00000000       0.00000000 </v>
   <v>       0.20000000      -0.00000000       0.00000000 </v>
   <v>       0.26666667       0.00000000       0.00000000 </v>
   <v>       0.33333333       0.00000000       0.00000000 </v>
   <v>       0.40000000       0.00000000       0.00000000 </v>
   <v>       0.46666667      -0.00000000       0.00000000 </v>
   <v>       0.06666667       0.06666667       0.00000000 </v>
   <v>       0.13333333       0.06666667       0.00000000 </v>
   <v>       0.20000000       0.06666667       0.00000000 </v>
   <v>       0.26666667       0.06666667       0.00000000 </v>
   <v>       0.33333333       0.06666667       0.00000000 </v>
   <v>       0.40000000       0.06666667       0.00000000 </v>
   <v>       0.46666667       0.06666667       0.00000000 </v>
   <v>       0.13333333       0.13333333       0.00000000 </v>
   <v>       0.20000000       0.13333333       0.00000000 </v>
   <v>       0.26666667       0.13333333       0.00000000 </v>
   <v>       0.33333333       0.13333333       0.00000000 </v>
   <v>       0.40000000       0.13333333       0.00000000 </v>
   <v>       0.46666667       0.13333333       0.00000000 </v>
   <v>       0.20000000       0.20000000       0.00000000 </v>
   <v>       0.26666667       0.20000000       0.00000000 </v>
   <v>       0.33333333       0.20000000       0.00000000 </v>
   <v>       0.40000000       0.20000000       0.00000000 </v>
   <v>       0.46666667       0.20000000       0.00000000 </v>
   <v>       0.26666667       0.26666667       0.00000000 </v>
   <v>       0.33333333       0.26666667       0.00000000 </v>
   <v>       0.40000000       0.26666667       0.00000000 </v>
   <v>       0.46666667       0.26666667       0.00000000 </v>
   <v>       0.33333333       0.33333333       0.00000000 </v>
   <v>       0.40000000       0.33333333       0.00000000 </v>
   <v>       0.46666667       0.33333333       0.00000000 </v>
   <v>       0.40000000       0.40000000       0.00000000 </v>
   <v>       0.46666667       0.40000000       0.00000000 </v>
   <v>       0.46666667       0.46666667       0.00000000 </v>
   <v>       0.06666667       0.06666667       0.06666667 </v>
   <v>       0.13333333       0.06666667       0.06666667 </v>
   <v>       0.20000000       0.06666667       0.06666667 </v>
   <v>       0.26666667       0.06666667       0.06666667 </v>
   <v>       0.33333333       0.06666667       0.06666667 </v>
   <v>       0.40000000       0.06666667       0.06666667 </v>
   <v>       0.46666667       0.06666667       0.06666667 </v>
   <v>       0.13333333       0.13333333       0.06666667 </v>
   <v>       0.20000000       0.13333333       0.06666667 </v>
   <v>       0.26666667       0.13333333       0.06666667 </v>
   <v>       0.33333333       0.13333333       0.06666667 </v>
   <v>       0.40000000       0.13333333       0.06666667 </v>
   <v>       0.46666667       0.13333333       0.06666667 </v>
   <v>       0.20000000       0.20000000       0.06666667 </v>
   <v>       0.26666667       0.20000000       0.06666667 </v>
   <v>       0.33333333       0.20000000       0.06666667 </v>
   <v>       0.40000000       0.20000000       0.06666667 </v>
   <v>       0.46666667       0.20000000       0.06666667 </v>
   <v>       0.26666667       0.26666667       0.06666667 </v>
   <v>       0.33333333       0.26666667       0.06666667 </v>
   <v>       0.40000000       0.26666667       0.06666667 </v>
   <v>       0.46666667       0.26666667       0.06666667 </v>
   <v>       0.33333333       0.33333333       0.06666667 </v>
   <v>       0.40000000       0.33333333       0.06666667 </v>
   <v>       0.46666667       0.33333333       0.06666667 </v>
   <v>       0.40000000       0.40000000       0.06666667 </v>
   <v>       0.46666667       0.40000000       0.06666667 </v>
   <v>       0.46666667       0.46666667       0.06666667 </v>
   <v>       0.13333333       0.13333333       0.13333333 </v>
   <v>       0.20000000       0.13333333       0.13333333 </v>
   <v>       0.26666667       0.13333333       0.13333333 </v>
   <v>       0.33333333       0.13333333       0.13333333 </v>
   <v>       0.40000000       0.13333333       0.13333333 </v>
   <v>       0.46666667       0.13333333       0.13333333 </v>
   <v>       0.20000000       0.20000000       0.13333333 </v>
   <v>       0.26666667       0.20000000       0.13333333 </v>
   <v>       0.33333333       0.20000000       0.13333333 </v>
   <v>       0.40000000       0.20000000       0.13333333 </v>
   <v>       0.46666667       0.20000000       0.13333333 </v>
   <v>       0.26666667       0.26666667       0.13333333 </v>
   <v>       0.33333333       0.26666667       0.13333333 </v>
   <v>       0.40000000       0.26666667       0.13333333 </v>
   <v>       0.46666667       0.26666667       0.13333333 </v>
   <v>       0.33333333       0.33333333       0.13333333 </v>
   <v>       0.40000000       0.33333333       0.13333333 </v>
   <v>       0.46666667       0.33333333       0.13333333 </v>
   <v>       0.40000000       0.40000000       0.13333333 </v>
   <v>       0.46666667       0.40000000       0.13333333 </v>
   <v>       0.46666667       0.46666667       0.13333333 </v>
   <v>       0.20000000       0.20000000       0.20000000 </v>
   <v>       0.26666667       0.20000000       0.20000000 </v>
   <v>       0.33333333       0.20000000       0.20000000 </v>
   <v>       0.40000000       0.20000000       0.20000000 </v>
   <v>       0.46666667       0.20000000       0.20000000 </v>
   <v>       0.26666667       0.26666667       0.20000000 </v>
   <v>       0.33333333       0.26666667       0.20000000 </v>
   <v>       0.40000000       0.26666667       0.20000000 </v>
   <v>       0.46666667       0.26666667       0.20000000 </v>
   <v>       0.33333333       0.33333333       0.20000000 </v>
   <v>       0.40000000       0.33333333       0.20000000 </v>
   <v>       0.46666667       0.33333333       0.20000000 </v>
   <v>       0.40000000       0.40000000       0.20000000 </v>
   <v>       0.46666667       0.40000000       0.20000000 </v>
   <v>       0.46666667       0.46666667       0.20000000 </v>
   <v>       0.26666667       0.26666667       0.26666667 </v>
   <v>       0.33333333       0.26666667       0.26666667 </v>
   <v>       0.40000000       0.26666667       0.26666667 </v>
   <v>       0.46666667       0.26666667       0.26666667 </v>
   <v>       0.33333333       0.33333333       0.26666667 </v>
   <v>       0.40000000       0.33333333       0.26666667 </v>
   <v>       0.46666667       0.33333333       0.26666667 </v>
   <v>       0.40000000       0.40000000       0.26666667 </v>
   <v>       0.46666667       0.40000000       0.26666667 </v>
   <v>       0.46666667       0.46666667       0.26666667 </v>
   <v>       0.33333333       0.33333333       0.33333333 </v>
   <v>       0.40000000       0.33333333       0.33333333 </v>
   <v>       0.46666667       0.33333333       0.33333333 </v>
   <v>       0.40000000       0.40000000       0.33333333 </v>
   <v>       0.46666667       0.40000000       0.33333333 </v>
   <v>       0.46666667       0.46666667       0.33333333 </v>
   <v>       0.40000000       0.40000000       0.40000000 </v>
   <v>       0.46666667       0.40000000       0.40000000 </v>
   <v>       0.46666667       0.46666667       0.40000000 </v>
   <v>       0.46666667       0.46666667       0.46666667 </v>
  </varray>
  <varray name="weights" >
   <v>       0.00029630 </v>
   <v>       0.00177778 </v>
   <v>       0.00177778 </v>
   <v>       0.00177778 </v>
   <v>       0.00177778 </v>
   <v>       0.00177778 </v>
   <v>       0.00177778 </v>
   <v>       0.00177778 </v>
   <v>       0.00355556 </v>
   <v>       0.00711111 </v>
   <v>       0.00711111 </v>
   <v>       0.00711111 </v>
   <v>       0.00711111 </v>
   <v>       0.00711111 </v>
   <v>       0.00711111 </v>
   <v>       0.00355556 </v>
   <v>       0.00711111 </v>
   <v>       0.00711111 </v>
   <v>       0.00711111 </v>
   <v>       0.00711111 </v>
   <v>       0.00711111 </v>
   <v>       0.00355556 </v>
   <v>       0.00711111 </v>
   <v>       0.00711111 </v>
   <v>       0.00711111 </v>
   <v>       0.00711111 </v>
   <v>       0.00355556 </v>
   <v>       0.00711111 </v>
   <v>       0.00711111 </v>
   <v>       0.00711111 </v>
   <v>       0.00355556 </v>
   <v>       0.00711111 </v>
   <v>       0.00711111 </v>
   <v>       0.00355556 </v>
   <v>       0.00711111 </v>
   <v>       0.00355556 </v>
   <v>       0.00237037 </v>
   <v>       0.00711111 </v>
   <v>       0.00711111 </v>
   <v>       0.00711111 </v>
   <v>       0.00711111 </v>
   <v>       0.00711111 </v>
   <v>       0.00711111 </v>
   <v>       0.00711111 </v>
   <v>       0.01422222 </v>
   <v>       0.01422222 </v>
   <v>       0.01422222 </v>
   <v>       0.01422222 </v>
   <v>       0.01422222 </v>
   <v>       0.00711111 </v>
   <v>       0.01422222 </v>
   <v>       0.01422222 </v>
   <v>       0.01422222 </v>
   <v>       0.01422222 </v>
   <v>       0.00711111 </v>
   <v>       0.01422222 </v>
   <v>       0.01422222 </v>
   <v>       0.01422222 </v>
   <v>       0.00711111 </v>
   <v>       0.01422222 </v>
   <v>       0.01422222 </v>
   <v>       0.00711111 </v>
   <v>       0.01422222 </v>
   <v>       0.00711111 </v>
   <v>       0.00237037 </v>
   <v>       0.00711111 </v>
   <v>       0.00711111 </v>
   <v>       0.00711111 </v>
   <v>       0.00711111 </v>
   <v>       0.00711111 </v>
   <v>       0.00711111 </v>
   <v>       0.01422222 </v>
   <v>       0.01422222 </v>
   <v>       0.01422222 </v>
   <v>       0.01422222 </v>
   <v>       0.00711111 </v>
   <v>       0.01422222 </v>
   <v>       0.01422222 </v>
   <v>       0.01422222 </v>
   <v>       0.00711111 </v>
   <v>       0.01422222 </v>
   <v>       0.01422222 </v>
   <v>       0.00711111 </v>
   <v>       0.01422222 </v>
   <v>       0.00711111 </v>
   <v>       0.00237037 </v>
   <v>       0.00711111 </v>
   <v>       0.00711111 </v>
   <v>       0.00711111 </v>
   <v>       0.00711111 </v>
   <v>       0.00711111 </v>
   <v>       0.01422222 </v>
   <v>       0.01422222 </v>
   <v>       0.01422222 </v>
   <v>       0.00711111 </v>
   <v>       0.01422222 </v>
   <v>       0.01422222 </v>
   <v>       0.00711111 </v>
   <v>       0.01422222 </v>
   <v>       0.00711111 </v>
   <v>       0.00237037 </v>
   <v>       0.00711111 </v>
   <v>       0.00711111 </v>
   <v>       0.00711111 </v>
   <v>       0.00711111 </v>
   <v>       0.01422222 </v>
   <v>       0.01422222 </v>
   <v>       0.00711111 </v>
   <v>       0.01422222 </v>
   <v>       0.00711111 </v>
   <v>       0.00237037 </v>
   <v>       0.00711111 </v>
   <v>       0.00711111 </v>
   <v>       0.00711111 </v>
   <v>       0.01422222 </v>
   <v>       0.00711111 </v>
   <v>       0.00237037 </v>
   <v>       0.00711111 </v>
   <v>       0.00711111 </v>
   <v>       0.00237037 </v>
  </varray>
 </kpoints>
 <parameters>
  <separator name="general" >
   <i type="string" name="SYSTEM">unknown system</i>
   <i type="logical" name="LCOMPAT"> F  </i>
  </separator>
  <separator name="electronic" >
   <i type="string" name="PREC">accura</i>
   <i name="ENMAX">    250.00000000</i>
   <i name="ENAUG">    511.36800000</i>
   <i name="EDIFF">      0.00000100</i>
   <i type="int" name="IALGO">    38</i>
   <i type="int" name="IWAVPR">    11</i>
   <i type="int" name="NBANDS">    20</i>
   <i type="int" name="NBANDSLOW">    -1</i>
   <i type="int" name="NBANDSHIGH">    -1</i>
   <i name="NELECT">     16.00000000</i>
   <i type="int" name="TURBO">     0</i>
   <i type="int" name="IRESTART">     0</i>
   <i type="int" name="NREBOOT">     0</i>
   <i type="int" name="NMIN">     0</i>
   <i name="EREF">      0.00000000</i>
   <separator name="electronic smearing" >
    <i type="int" name="ISMEAR">     1</i>
    <i name="SIGMA">      0.20000000</i>
    <i name="KSPACING">      0.50000000</i>
    <i type="logical" name="KGAMMA"> T  </i>
    <i type="logical" name="KBLOWUP"> T  </i>
   </separator>
   <separator name="electronic projectors" >
    <i type="logical" name="LREAL"> F  </i>
    <v name="ROPT">      0.00000000</v>
    <i type="int" name="LMAXPAW">  -100</i>
    <i type="int" name="LMAXMIX">     4</i>
    <i type="logical" name="NLSPLINE"> F  </i>
   </separator>
   <separator name="electronic startup" >
    <i type="int" name="ISTART">     0</i>
    <i type="int" name="ICHARG">     2</i>
    <i type="int" name="INIWAV">     1</i>
   </separator>
   <separator name="electronic spin" >
    <i type="int" name="ISPIN">     2</i>
    <i type="logical" name="LNONCOLLINEAR"> F  </i>
    <v name="MAGMOM">      5.00000000      5.00000000</v>
    <i name="NUPDOWN">     -1.00000000</i>
    <i type="logical" name="LSORBIT"> F  </i>
    <v name="SAXIS">      0.00000000      0.00000000      1.00000000</v>
    <i type="logical" name="LSPIRAL"> F  </i>
    <v name="QSPIRAL">      0.00000000      0.00000000      0.00000000</v>
    <i type="logical" name="LZEROZ"> F  </i>
   </separator>
   <separator name="electronic exchange-correlation" >
    <i type="logical" name="LASPH"> T  </i>
    <i type="logical" name="LMETAGGA"> F  </i>
   </separator>
   <separator name="electronic convergence" >
    <i type="int" name="NELM">    90</i>
    <i type="int" name="NELMDL">    -5</i>
    <i type="int" name="NELMIN">     6</i>
    <i name="ENINI">    250.00000000</i>
    <separator name="electronic convergence detail" >
     <i type="logical" name="LDIAG"> T  </i>
     <i type="logical" name="LSUBROT"> F  </i>
     <i name="WEIMIN">      0.00100000</i>
     <i name="EBREAK">      0.00000001</i>
     <i name="DEPER">      0.30000000</i>
     <i type="int" name="NRMM">     4</i>
     <i name="TIME">      0.40000000</i>
    </separator>
   </separator>
   <separator name="electronic mixer" >
    <i name="AMIX">      0.40000000</i>
    <i name="BMIX">      1.00000000</i>
    <i name="AMIN">      0.10000000</i>
    <i name="AMIX_MAG">      1.60000000</i>
    <i name="BMIX_MAG">      1.00000000</i>
    <separator name="electronic mixer details" >
     <i type="int" name="IMIX">     4</i>
     <i type="logical" name="MIXFIRST"> F  </i>
     <i type="int" name="MAXMIX">   -45</i>
     <i name="WC">    100.00000000</i>
     <i type="int" name="INIMIX">     1</i>
     <i type="int" name="MIXPRE">     1</i>
     <i type="int" name="MREMOVE">     5</i>
    </separator>
   </separator>
   <separator name="electronic dipolcorrection" >
    <i type="logical" name="LDIPOL"> F  </i>
    <i type="logical" name="LMONO"> F  </i>
    <i type="int" name="IDIPOL">     0</i>
    <i name="EPSILON">      1.00000000</i>
    <v name="DIPOL">   -100.00000000   -100.00000000   -100.00000000</v>
    <i name="EFIELD">      0.00000000</i>
   </separator>
  </separator>
  <separator name="grids" >
   <i type="int" name="NGX">    16</i>
   <i type="int" name="NGY">    16</i>
   <i type="int" name="NGZ">    16</i>
   <i type="int" name="NGXF">    32</i>
   <i type="int" name="NGYF">    32</i>
   <i type="int" name="NGZF">    32</i>
   <i type="logical" name="ADDGRID"> T  </i>
  </separator>
  <separator name="ionic" >
   <i type="int" name="NSW">   100</i>
   <i type="int" name="IBRION">     2</i>
   <i type="int" name="MDALGO">     0</i>
   <i type="int" name="ISIF">     3</i>
   <i name="PSTRESS">      0.00000000</i>
   <i name="EDIFFG">     -0.00200000</i>
   <i type="int" name="NFREE">     1</i>
   <i name="POTIM">      0.50000000</i>
   <i name="SMASS">     -3.00000000</i>
   <i name="SCALEE">      1.00000000</i>
  </separator>
  <separator name="ionic md" >
   <i name="TEBEG">      0.00010000</i>
   <i name="TEEND">      0.00010000</i>
   <i type="int" name="NBLOCK">     1</i>
   <i type="int" name="KBLOCK">   100</i>
   <i type="int" name="NPACO">   256</i>
   <i name="APACO">     16.00000000</i>
  </separator>
  <separator name="symmetry" >
   <i type="int" name="ISYM">     2</i>
   <i name="SYMPREC">      0.00001000</i>
  </separator>
  <separator name="dos" >
   <i type="int" name="LORBIT">    11</i>
   <v name="RWIGS">     -1.00000000</v>
   <i type="int" name="NEDOS">   301</i>
   <i name="EMIN">     10.00000000</i>
   <i name="EMAX">    -10.00000000</i>
   <i name="EFERMI">      0.00000000</i>
  </separator>
  <separator name="writing" >
   <i type="int" name="NWRITE">     2</i>
   <i type="logical" name="LWAVE"> T  </i>
   <i type="logical" name="LDOWNSAMPLE"> F  </i>
   <i type="logical" name="LCHARG"> T  </i>
   <i type="logical" name="LPARD"> F  </i>
   <i type="logical" name="LVTOT"> F  </i>
   <i type="logical" name="LVHAR"> F  </i>
   <i type="logical" name="LELF"> F  </i>
   <i type="logical" name="LOPTICS"> F  </i>
   <v name="STM">      0.00000000      0.00000000      0.00000000      0.00000000      0.00000000      0.00000000      0.00000000</v>
  </separator>
  <separator name="performance" >
   <i type="int" name="NPAR">     4</i>
   <i type="int" name="NSIM">     4</i>
   <i type="int" name="NBLK">    -1</i>
   <i type="logical" name="LPLANE"> T  </i>
   <i type="logical" name="LSCALAPACK"> T  </i>
   <i type="logical" name="LSCAAWARE"> F  </i>
   <i type="logical" name="LSCALU"> F  </i>
   <i type="logical" name="LASYNC"> F  </i>
   <i type="logical" name="LORBITALREAL"> F  </i>
  </separator>
  <separator name="miscellaneous" >
   <i type="int" name="IDIOT">     3</i>
   <i type="int" name="PHON_NSTRUCT">    -1</i>
   <i type="logical" name="LMUSIC"> F  </i>
   <v name="POMASS">     55.84700000</v>
   <v name="DARWINR">      0.00000000</v>
   <v name="DARWINV">      1.00000000</v>
   <i type="logical" name="LCORR"> T  </i>
  </separator>
  <i type="logical" name="GGA_COMPAT"> F  </i>
  <i type="logical" name="LBERRY"> F  </i>
  <i type="int" name="ICORELEVEL">     0</i>
  <i type="logical" name="LDAU"> F  </i>
  <i type="int" name="I_CONSTRAINED_M">     0</i>
  <separator name="electronic exchange-correlation" >
   <i type="string" name="GGA">--</i>
   <i type="int" name="VOSKOWN">     1</i>
   <i type="logical" name="LHFCALC"> F  </i>
   <i type="string" name="PRECFOCK"></i>
   <i type="logical" name="LSYMGRAD"> F  </i>
   <i type="logical" name="LHFONE"> F  </i>
   <i type="logical" name="LRHFCALC"> F  </i>
   <i type="logical" name="LTHOMAS"> F  </i>
   <i type="logical" name="LMODELHF"> F  </i>
   <i type="logical" name="LFOCKACE"> F  </i>
   <i name="ENCUT4O">     -1.00000000</i>
   <i type="int" name="EXXOEP">     0</i>
   <i type="int" name="FOURORBIT">     0</i>
   <i name="AEXX">      0.00000000</i>
   <i name="HFALPHA">      0.00000000</i>
   <i name="MCALPHA">      0.00000000</i>
   <i name="ALDAX">      1.00000000</i>
   <i name="AGGAX">      1.00000000</i>
   <i name="ALDAC">      1.00000000</i>
   <i name="AGGAC">      1.00000000</i>
   <i type="int" name="NKREDX">     1</i>
   <i type="int" name="NKREDY">     1</i>
   <i type="int" name="NKREDZ">     1</i>
   <i type="logical" name="SHIFTRED"> F  </i>
   <i type="logical" name="ODDONLY"> F  </i>
   <i type="logical" name="EVENONLY"> F  </i>
   <i type="int" name="LMAXFOCK">     0</i>
   <i type="int" name="NMAXFOCKAE">     0</i>
   <i type="logical" name="LFOCKAEDFT"> F  </i>
   <i name="HFSCREEN">      0.00000000</i>
   <i name="HFSCREENC">      0.00000000</i>
   <i type="int" name="NBANDSGWLOW">     0</i>
  </separator>
  <separator name="vdW DFT" >
   <i type="logical" name="LUSE_VDW"> F  </i>
   <i name="Zab_VDW">     -0.84910000</i>
   <i name="PARAM1">      0.12340000</i>
   <i name="PARAM2">      1.00000000</i>
   <i name="PARAM3">      0.00000000</i>
  </separator>
  <separator name="model GW" >
   <i type="int" name="MODEL_GW">     0</i>
   <i name="MODEL_EPS0">      7.04046678</i>
   <i name="MODEL_ALPHA">      1.00000000</i>
  </separator>
  <separator name="linear response parameters" >
   <i type="logical" name="LEPSILON"> F  </i>
   <i type="logical" name="LRPA"> F  </i>
   <i type="logical" name="LNABLA"> F  </i>
   <i type="logical" name="LVEL"> F  </i>
   <i type="int" name="KINTER">     0</i>
   <i name="CSHIFT">      0.10000000</i>
   <i name="OMEGAMAX">     -1.00000000</i>
   <i name="DEG_THRESHOLD">      0.00200000</i>
   <i name="RTIME">     -0.10000000</i>
   <i name="WPLASMAI">      0.00000000</i>
   <v name="DFIELD">      0.00000000      0.00000000      0.00000000</v>
   <v name="WPLASMA">      0.00000000      0.00000000      0.00000000      0.00000000      0.00000000      0.00000000      0.00000000      0.00000000      0.00000000</v>
  </separator>
  <separator name="orbital magnetization" >
   <i type="logical" name="NUCIND"> F  </i>
   <v name="MAGPOS">      0.00000000      0.00000000      0.00000000</v>
   <i type="logical" name="LNICSALL"> T  </i>
   <i type="logical" name="ORBITALMAG"> F  </i>
   <i type="logical" name="LMAGBLOCH"> F  </i>
   <i type="logical" name="LCHIMAG"> F  </i>
   <i type="logical" name="LGAUGE"> T  </i>
   <i type="int" name="MAGATOM">     0</i>
   <v name="MAGDIPOL">      0.00000000      0.00000000      0.00000000</v>
   <v name="AVECCONST">      0.00000000      0.00000000      0.00000000</v>
  </separator>
  <separator name="response functions" >
   <i type="logical" name="LFINITE_TEMPERATURE"> F  </i>
   <i type="logical" name="LADDER"> F  </i>
   <i type="logical" name="LRPAFORCE"> F  </i>
   <i type="logical" name="LFXC"> F  </i>
   <i type="logical" name="LHARTREE"> T  </i>
   <i type="int" name="IBSE">     0</i>
   <v type="int" name="KPOINT">    -1     0     0     0</v>
   <i type="logical" name="LTCTC"> F  </i>
   <i type="logical" name="LTCTE"> F  </i>
   <i type="logical" name="LTETE"> F  </i>
   <i type="logical" name="LTRIPLET"> F  </i>
   <i type="logical" name="LFXCEPS"> F  </i>
   <i type="logical" name="LFXHEG"> F  </i>
   <i type="int" name="NATURALO">     2</i>
   <i type="logical" name="LHOLEGF"> F  </i>
   <i type="logical" name="L2ORDER"> F  </i>
   <i type="logical" name="LDMP1"> F  </i>
   <i type="logical" name="LMP2LT"> F  </i>
   <i type="logical" name="LSMP2LT"> F  </i>
   <i type="logical" name="LGWLF"> F  </i>
   <i name="ENCUTGW">     -2.00000000</i>
   <i name="ENCUTGWSOFT">     -2.00000000</i>
   <i name="ENCUTLF">     -1.00000000</i>
   <i type="logical" name="LESF_SPLINES"> F  </i>
   <i type="int" name="LMAXMP2">    -1</i>
   <i name="SCISSOR">      0.00000000</i>
   <i type="int" name="NOMEGA">     0</i>
   <i type="int" name="NOMEGAR">     0</i>
   <i type="int" name="NBANDSGW">    -1</i>
   <i type="int" name="NBANDSO">    -1</i>
   <i type="int" name="NBANDSV">    -1</i>
   <i type="int" name="NELM">    90</i>
   <i type="int" name="NELMHF">     1</i>
   <i type="int" name="DIM">     3</i>
   <i type="int" name="IESPILON">     4</i>
   <i type="int" name="ANTIRES">     0</i>
   <i name="OMEGAMAX">    -30.00000000</i>
   <i name="OMEGAMIN">    -30.00000000</i>
   <i name="OMEGATL">   -200.00000000</i>
   <i type="int" name="OMEGAGRID">     0</i>
   <i name="CSHIFT">     -0.10000000</i>
   <i type="logical" name="LSELFENERGY"> F  </i>
   <i type="logical" name="LSPECTRAL"> F  </i>
   <i type="logical" name="LSPECTRALGW"> F  </i>
   <i type="logical" name="LSINGLES"> F  </i>
   <i type="logical" name="LFERMIGW"> F  </i>
   <i type="logical" name="ODDONLYGW"> F  </i>
   <i type="logical" name="EVENONLYGW"> F  </i>
   <i type="int" name="NKREDLFX">     1</i>
   <i type="int" name="NKREDLFY">     1</i>
   <i type="int" name="NKREDLFZ">     1</i>
   <i type="int" name="MAXMEM">  2800</i>
   <i type="int" name="TELESCOPE">     0</i>
   <i type="int" name="NTAUPAR">    -1</i>
   <i type="int" name="NOMEGAPAR">    -1</i>
   <i name="DAMP_NEWTON">      0.80000001</i>
   <i name="LAMBDA">      1.00000000</i>
  </separator>
  <separator name="External order field" >
   <i name="OFIELD_KAPPA">      0.00000000</i>
   <v name="OFIELD_K">      0.00000000      0.00000000      0.00000000</v>
   <i name="OFIELD_Q6_NEAR">      0.00000000</i>
   <i name="OFIELD_Q6_FAR">      0.00000000</i>
   <i name="OFIELD_A">      0.00000000</i>
  </separator>
 </parameters>
 <atominfo>
  <atoms>       2 </atoms>
  <types>       1 </types>
  <array name="atoms" >
   <dimension dim="1">ion</dimension>
   <field type="string">element</field>
   <field type="int">atomtype</field>
   <set>
    <rc><c>Fe</c><c>   1</c></rc>
    <rc><c>Fe</c><c>   1</c></rc>
   </set>
  </array>
  <array name="atomtypes" >
   <dimension dim="1">type</dimension>
   <field type="int">atomspertype</field>
   <field type="string">element</field>
   <field>mass</field>
   <field>valence</field>
   <field type="string">pseudopotential</field>
   <set>
    <rc><c>   2</c><c>Fe</c><c>     55.84700000</c><c>      8.00000000</c><c>  PAW_PBE Fe 06Sep2000                  </c></rc>
   </set>
  </array>
 </atominfo>
 <structure name="initialpos" >
  <crystal>
   <varray name="basis" >
    <v>       2.86303550       0.00000000       0.00000000 </v>
    <v>       0.00000000       2.86303550       0.00000000 </v>
    <v>       0.00000000       0.00000000       2.86303550 </v>
   </varray>
   <i name="volume">     23.46822259 </i>
   <varray name="rec_basis" >
    <v>       0.34927964      -0.00000000       0.00000000 </v>
    <v>       0.00000000       0.34927964       0.00000000 </v>
    <v>      -0.00000000      -0.00000000       0.34927964 </v>
   </varray>
  </crystal>
  <varray name="positions" >
   <v>       0.00000000       0.00000000       0.00000000 </v>
   <v>       0.50000000       0.50000000       0.50000000 </v>
  </varray>
 </structure>
 <calculation>
  <scstep>
   <time name="dav">    2.41    2.41</time>
   <time name="total">    4.03    4.04</time>
   <energy>
    <i name="alphaZ">    117.79976220 </i>
    <i name="ewald">  -1171.43779597 </i>
    <i name="hartreedc">   -228.04061711 </i>
    <i name="XCdc">     14.27157264 </i>
    <i name="pawpsdc">   1103.49540010 </i>
    <i name="pawaedc">  -1119.11610375 </i>
    <i name="eentropy">     -0.00148899 </i>
    <i name="bandstr">    141.31624053 </i>
    <i name="atom">   1188.49897307 </i>
    <i name="e_fr_energy">     46.78594272 </i>
    <i name="e_wo_entrp">     46.78743171 </i>
    <i name="e_0_energy">     46.78643905 </i>
   </energy>
  </scstep>
  <scstep>
   <time name="dav">    2.25    2.27</time>
   <time name="total">    2.26    2.28</time>
   <energy>
    <i name="e_fr_energy">    -14.47039443 </i>
    <i name="e_wo_entrp">    -14.47144083 </i>
    <i name="e_0_energy">    -14.47074323 </i>
   </energy>
  </scstep>
  <scstep>
   <time name="dav">    2.39    2.41</time>
   <time name="total">    2.40    2.42</time>
   <energy>
    <i name="e_fr_energy">    -16.09003503 </i>
    <i name="e_wo_entrp">    -16.09136537 </i>
    <i name="e_0_energy">    -16.09047848 </i>
   </energy>
  </scstep>
  <scstep>
   <time name="dav">    2.29    2.31</time>
   <time name="total">    2.30    2.32</time>
   <energy>
    <i name="e_fr_energy">    -16.09858169 </i>
    <i name="e_wo_entrp">    -16.09991447 </i>
    <i name="e_0_energy">    -16.09902595 </i>
   </energy>
  </scstep>
  <scstep>
   <time name="dav">    2.35    2.37</time>
   <time name="total">    2.46    2.48</time>
   <energy>
    <i name="e_fr_energy">    -16.09865875 </i>
    <i name="e_wo_entrp">    -16.09999156 </i>
    <i name="e_0_energy">    -16.09910302 </i>
   </energy>
  </scstep>
  <scstep>
   <time name="dav">    2.34    2.35</time>
   <time name="total">    4.05    4.07</time>
   <energy>
    <i name="e_fr_energy">    -16.49403425 </i>
    <i name="e_wo_entrp">    -16.49405758 </i>
    <i name="e_0_energy">    -16.49404202 </i>
   </energy>
  </scstep>
  <scstep>
   <time name="dav">    2.42    2.42</time>
   <time name="total">    4.11    4.14</time>
   <energy>
    <i name="e_fr_energy">    -16.44332547 </i>
    <i name="e_wo_entrp">    -16.44112578 </i>
    <i name="e_0_energy">    -16.44259224 </i>
   </energy>
  </scstep>
  <scstep>
   <time name="dav">    2.50    2.50</time>
   <time name="total">    4.20    4.22</time>
   <energy>
    <i name="e_fr_energy">    -16.42808394 </i>
    <i name="e_wo_entrp">    -16.42563195 </i>
    <i name="e_0_energy">    -16.42726661 </i>
   </energy>
  </scstep>
  <scstep>
   <time name="dav">    2.91    2.92</time>
   <time name="total">    4.61    4.64</time>
   <energy>
    <i name="e_fr_energy">    -16.41747465 </i>
    <i name="e_wo_entrp">    -16.41474390 </i>
    <i name="e_0_energy">    -16.41656440 </i>
   </energy>
  </scstep>
  <scstep>
   <time name="dav">    2.32    2.32</time>
   <time name="total">    4.01    4.03</time>
   <energy>
    <i name="e_fr_energy">    -16.41722755 </i>
    <i name="e_wo_entrp">    -16.41458968 </i>
    <i name="e_0_energy">    -16.41634826 </i>
   </energy>
  </scstep>
  <scstep>
   <time name="dav">    2.36    2.37</time>
   <time name="total">    4.06    4.08</time>
   <energy>
    <i name="e_fr_energy">    -16.41724834 </i>
    <i name="e_wo_entrp">    -16.41460808 </i>
    <i name="e_0_energy">    -16.41636825 </i>
   </energy>
  </scstep>
  <scstep>
   <time name="dav">    2.38    2.38</time>
   <time name="total">    4.08    4.10</time>
   <energy>
    <i name="e_fr_energy">    -16.41724427 </i>
    <i name="e_wo_entrp">    -16.41460990 </i>
    <i name="e_0_energy">    -16.41636615 </i>
   </energy>
  </scstep>
  <scstep>
   <time name="dav">    2.00    2.01</time>
   <time name="total">    3.62    3.64</time>
   <energy>
    <i name="alphaZ">    117.79976220 </i>
    <i name="ewald">  -1171.43779597 </i>
    <i name="hartreedc">   -195.21560008 </i>
    <i name="XCdc">      8.52502153 </i>
    <i name="pawpsdc">   1407.66497784 </i>
    <i name="pawaedc">  -1425.07461449 </i>
    <i name="eentropy">     -0.00263700 </i>
    <i name="bandstr">     52.82466828 </i>
    <i name="atom">   1188.49897307 </i>
    <i name="e_fr_energy">    -16.41724462 </i>
    <i name="e_wo_entrp">    -16.41460762 </i>
    <i name="e_0_energy">    -16.41636562 </i>
   </energy>
  </scstep>
  <structure>
   <crystal>
    <varray name="basis" >
     <v>       2.86303550       0.00000000       0.00000000 </v>
     <v>       0.00000000       2.86303550       0.00000000 </v>
     <v>       0.00000000       0.00000000       2.86303550 </v>
    </varray>
    <i name="volume">     23.46822259 </i>
    <varray name="rec_basis" >
     <v>       0.34927964      -0.00000000       0.00000000 </v>
     <v>       0.00000000       0.34927964       0.00000000 </v>
     <v>      -0.00000000      -0.00000000       0.34927964 </v>
    </varray>
   </crystal>
   <varray name="positions" >
    <v>       0.00000000       0.00000000       0.00000000 </v>
    <v>       0.50000000       0.50000000       0.50000000 </v>
   </varray>
  </structure>
  <varray name="forces" >
   <v>       0.00000000       0.00000000      -0.00000000 </v>
   <v>      -0.00000000      -0.00000000       0.00000000 </v>
  </varray>
  <varray name="stress" >
   <v>    -170.39068871      -0.00000000      -0.00000000 </v>
   <v>      -0.00000000    -170.39068871      -0.00000000 </v>
   <v>      -0.00000000      -0.00000000    -170.39068871 </v>
  </varray>
  <energy>
   <i name="e_fr_energy">    -16.41724462 </i>
   <i name="e_wo_entrp">    -16.41460762 </i>
   <i name="e_0_energy">    -16.41636562 </i>
  </energy>
  <time name="totalsc">   51.15   52.21</time>
 </calculation>
 <calculation>
  <scstep>
   <time name="dav">    2.34    2.34</time>
   <time name="total">    4.05    4.06</time>
   <energy>
    <i name="alphaZ">    141.91946648 </i>
    <i name="ewald">  -1246.47933908 </i>
    <i name="hartreedc">   -207.72537253 </i>
    <i name="XCdc">     12.25628628 </i>
    <i name="pawpsdc">   1407.65701526 </i>
    <i name="pawaedc">  -1425.06580985 </i>
    <i name="eentropy">     -0.00157890 </i>
    <i name="bandstr">    108.01763521 </i>
    <i name="atom">   1188.49897307 </i>
    <i name="e_fr_energy">    -20.92272406 </i>
    <i name="e_wo_entrp">    -20.92114516 </i>
    <i name="e_0_energy">    -20.92219776 </i>
   </energy>
  </scstep>
  <scstep>
   <time name="dav">    2.34    2.34</time>
   <time name="total">    4.05    4.07</time>
   <energy>
    <i name="e_fr_energy">    -16.37756163 </i>
    <i name="e_wo_entrp">    -16.38040393 </i>
    <i name="e_0_energy">    -16.37850906 </i>
   </energy>
  </scstep>
  <scstep>
   <time name="dav">    2.37    2.38</time>
   <time name="total">    4.08    4.10</time>
   <energy>
    <i name="e_fr_energy">    -16.29631995 </i>
    <i name="e_wo_entrp">    -16.29746557 </i>
    <i name="e_0_energy">    -16.29670182 </i>
   </energy>
  </scstep>
  <scstep>
   <time name="dav">    2.41    2.41</time>
   <time name="total">    4.12    4.13</time>
   <energy>
    <i name="e_fr_energy">    -16.24659553 </i>
    <i name="e_wo_entrp">    -16.24744695 </i>
    <i name="e_0_energy">    -16.24687934 </i>
   </energy>
  </scstep>
  <scstep>
   <time name="dav">    2.46    2.46</time>
   <time name="total">    4.16    4.18</time>
   <energy>
    <i name="e_fr_energy">    -16.20909429 </i>
    <i name="e_wo_entrp">    -16.21011126 </i>
    <i name="e_0_energy">    -16.20943328 </i>
   </energy>
  </scstep>
  <scstep>
   <time name="dav">    2.38    2.38</time>
   <time name="total">    4.09    4.11</time>
   <energy>
    <i name="e_fr_energy">    -16.20999786 </i>
    <i name="e_wo_entrp">    -16.21106718 </i>
    <i name="e_0_energy">    -16.21035430 </i>
   </energy>
  </scstep>
  <scstep>
   <time name="dav">    2.42    2.42</time>
   <time name="total">    4.13    4.15</time>
   <energy>
    <i name="e_fr_energy">    -16.21015422 </i>
    <i name="e_wo_entrp">    -16.21130342 </i>
    <i name="e_0_energy">    -16.21053729 </i>
   </energy>
  </scstep>
  <scstep>
   <time name="dav">    2.48    2.49</time>
   <time name="total">    4.20    4.22</time>
   <energy>
    <i name="e_fr_energy">    -16.21017260 </i>
    <i name="e_wo_entrp">    -16.21131449 </i>
    <i name="e_0_energy">    -16.21055323 </i>
   </energy>
  </scstep>
  <scstep>
   <time name="dav">    2.50    2.50</time>
   <time name="total">    4.20    4.22</time>
   <energy>
    <i name="e_fr_energy">    -16.21016148 </i>
    <i name="e_wo_entrp">    -16.21128989 </i>
    <i name="e_0_energy">    -16.21053762 </i>
   </energy>
  </scstep>
  <scstep>
   <time name="dav">    1.68    1.69</time>
   <time name="total">    3.30    3.32</time>
   <energy>
    <i name="alphaZ">    141.91946648 </i>
    <i name="ewald">  -1246.47933908 </i>
    <i name="hartreedc">   -167.35667477 </i>
    <i name="XCdc">      9.04901829 </i>
    <i name="pawpsdc">   1609.21314287 </i>
    <i name="pawaedc">  -1628.56834436 </i>
    <i name="eentropy">      0.00112792 </i>
    <i name="bandstr">     77.51246755 </i>
    <i name="atom">   1188.49897307 </i>
    <i name="e_fr_energy">    -16.21016203 </i>
    <i name="e_wo_entrp">    -16.21128995 </i>
    <i name="e_0_energy">    -16.21053800 </i>
   </energy>
  </scstep>
  <structure>
   <crystal>
    <varray name="basis" >
     <v>       2.69067275      -0.00000000       0.00000000 </v>
     <v>       0.00000000       2.69067275       0.00000000 </v>
     <v>      -0.00000000      -0.00000000       2.69067275 </v>
    </varray>
    <i name="volume">     19.47971697 </i>
    <varray name="rec_basis" >
     <v>       0.37165426      -0.00000000       0.00000000 </v>
     <v>       0.00000000       0.37165426       0.00000000 </v>
     <v>      -0.00000000      -0.00000000       0.37165426 </v>
    </varray>
   </crystal>
   <varray name="positions" >
    <v>       0.00000000       0.00000000      -0.00000000 </v>
    <v>       0.50000000       0.50000000       0.50000000 </v>
   </varray>
  </structure>
  <varray name="forces" >
   <v>       0.00000000      -0.00000000      -0.00000000 </v>
   <v>      -0.00000000       0.00000000       0.00000000 </v>
  </varray>
  <varray name="stress" >
   <v>     404.60703985       0.00000000       0.00000000 </v>
   <v>       0.00000000     404.60703985       0.00000000 </v>
   <v>       0.00000000       0.00000000     404.60703985 </v>
  </varray>
  <energy>
   <i name="e_fr_energy">    -16.21016203 </i>
   <i name="e_wo_entrp">    -16.21128995 </i>
   <i name="e_0_energy">    -16.21053800 </i>
  </energy>
  <time name="totalsc">   45.13   45.70</time>
 </calculation>
 <calculation>
  <scstep>
   <time name="dav">    2.31    2.31</time>
   <time name="total">    4.04    4.04</time>
   <energy>
    <i name="alphaZ">    125.53800894 </i>
    <i name="ewald">  -1196.54629530 </i>
    <i name="hartreedc">   -160.65318405 </i>
    <i name="XCdc">      6.77927989 </i>
    <i name="pawpsdc">   1609.23140661 </i>
    <i name="pawaedc">  -1628.58558687 </i>
    <i name="eentropy">      0.00015035 </i>
    <i name="bandstr">     37.04967084 </i>
    <i name="atom">   1188.49897307 </i>
    <i name="e_fr_energy">    -18.68757651 </i>
    <i name="e_wo_entrp">    -18.68772687 </i>
    <i name="e_0_energy">    -18.68762663 </i>
   </energy>
  </scstep>
  <scstep>
   <time name="dav">    2.34    2.35</time>
   <time name="total">    4.05    4.07</time>
   <energy>
    <i name="e_fr_energy">    -16.70776977 </i>
    <i name="e_wo_entrp">    -16.70569578 </i>
    <i name="e_0_energy">    -16.70707844 </i>
   </energy>
  </scstep>
  <scstep>
   <time name="dav">    2.48    2.48</time>
   <time name="total">    4.18    4.20</time>
   <energy>
    <i name="e_fr_energy">    -16.54580060 </i>
    <i name="e_wo_entrp">    -16.54337719 </i>
    <i name="e_0_energy">    -16.54499280 </i>
   </energy>
  </scstep>
  <scstep>
   <time name="dav">    2.59    2.60</time>
   <time name="total">    4.30    4.32</time>
   <energy>
    <i name="e_fr_energy">    -16.52028824 </i>
    <i name="e_wo_entrp">    -16.51758236 </i>
    <i name="e_0_energy">    -16.51938628 </i>
   </energy>
  </scstep>
  <scstep>
   <time name="dav">    2.27    2.28</time>
   <time name="total">    3.98    4.00</time>
   <energy>
    <i name="e_fr_energy">    -16.49960530 </i>
    <i name="e_wo_entrp">    -16.49699921 </i>
    <i name="e_0_energy">    -16.49873660 </i>
   </energy>
  </scstep>
  <scstep>
   <time name="dav">    2.25    2.25</time>
   <time name="total">    3.95    3.97</time>
   <energy>
    <i name="e_fr_energy">    -16.49969141 </i>
    <i name="e_wo_entrp">    -16.49709620 </i>
    <i name="e_0_energy">    -16.49882634 </i>
   </energy>
  </scstep>
  <scstep>
   <time name="dav">    2.22    2.23</time>
   <time name="total">    3.92    3.95</time>
   <energy>
    <i name="e_fr_energy">    -16.49973389 </i>
    <i name="e_wo_entrp">    -16.49712837 </i>
    <i name="e_0_energy">    -16.49886538 </i>
   </energy>
  </scstep>
  <scstep>
   <time name="dav">    2.31    2.31</time>
   <time name="total">    4.01    4.03</time>
   <energy>
    <i name="e_fr_energy">    -16.49975875 </i>
    <i name="e_wo_entrp">    -16.49714675 </i>
    <i name="e_0_energy">    -16.49888809 </i>
   </energy>
  </scstep>
  <scstep>
   <time name="dav">    1.92    1.92</time>
   <time name="total">    3.53    3.55</time>
   <energy>
    <i name="alphaZ">    125.53800894 </i>
    <i name="ewald">  -1196.54629530 </i>
    <i name="hartreedc">   -185.33357157 </i>
    <i name="XCdc">      8.67833202 </i>
    <i name="pawpsdc">   1466.62343006 </i>
    <i name="pawaedc">  -1484.68636526 </i>
    <i name="eentropy">     -0.00261193 </i>
    <i name="bandstr">     60.73034114 </i>
    <i name="atom">   1188.49897307 </i>
    <i name="e_fr_energy">    -16.49975882 </i>
    <i name="e_wo_entrp">    -16.49714689 </i>
    <i name="e_0_energy">    -16.49888818 </i>
   </energy>
  </scstep>
  <structure>
   <crystal>
    <varray name="basis" >
     <v>       2.80295715      -0.00000000       0.00000000 </v>
     <v>       0.00000000       2.80295715       0.00000000 </v>
     <v>      -0.00000000      -0.00000000       2.80295715 </v>
    </varray>
    <i name="volume">     22.02162567 </i>
    <varray name="rec_basis" >
     <v>       0.35676607      -0.00000000       0.00000000 </v>
     <v>       0.00000000       0.35676607       0.00000000 </v>
     <v>      -0.00000000      -0.00000000       0.35676607 </v>
    </varray>
   </crystal>
   <varray name="positions" >
    <v>       0.00000000       0.00000000      -0.00000000 </v>
    <v>       0.50000000       0.50000000       0.50000000 </v>
   </varray>
  </structure>
  <varray name="forces" >
   <v>       0.00000000      -0.00000000       0.00000000 </v>
   <v>      -0.00000000       0.00000000      -0.00000000 </v>
  </varray>
  <varray name="stress" >
   <v>      -4.98740294       0.00000000       0.00000000 </v>
   <v>      -0.00000000      -4.98740294      -0.00000000 </v>
   <v>       0.00000000       0.00000000      -4.98740294 </v>
  </varray>
  <energy>
   <i name="e_fr_energy">    -16.49975882 </i>
   <i name="e_wo_entrp">    -16.49714689 </i>
   <i name="e_0_energy">    -16.49888818 </i>
  </energy>
  <time name="totalsc">   40.96   41.53</time>
 </calculation>
 <calculation>
  <scstep>
   <time name="dav">    2.31    2.31</time>
   <time name="total">    4.01    4.02</time>
   <energy>
    <i name="alphaZ">    125.74558414 </i>
    <i name="ewald">  -1197.20542254 </i>
    <i name="hartreedc">   -185.43353204 </i>
    <i name="XCdc">      8.70992543 </i>
    <i name="pawpsdc">   1466.67298724 </i>
    <i name="pawaedc">  -1484.73773826 </i>
    <i name="eentropy">     -0.00257696 </i>
    <i name="bandstr">     61.25155631 </i>
    <i name="atom">   1188.49897307 </i>
    <i name="e_fr_energy">    -16.50024362 </i>
    <i name="e_wo_entrp">    -16.49766666 </i>
    <i name="e_0_energy">    -16.49938463 </i>
   </energy>
  </scstep>
  <scstep>
   <time name="dav">    2.33    2.33</time>
   <time name="total">    4.03    4.05</time>
   <energy>
    <i name="e_fr_energy">    -16.49986538 </i>
    <i name="e_wo_entrp">    -16.49719741 </i>
    <i name="e_0_energy">    -16.49897606 </i>
   </energy>
  </scstep>
  <scstep>
   <time name="dav">    2.44    2.44</time>
   <time name="total">    4.15    4.17</time>
   <energy>
    <i name="e_fr_energy">    -16.49983428 </i>
    <i name="e_wo_entrp">    -16.49719549 </i>
    <i name="e_0_energy">    -16.49895468 </i>
   </energy>
  </scstep>
  <scstep>
   <time name="dav">    2.39    2.39</time>
   <time name="total">    4.09    4.11</time>
   <energy>
    <i name="e_fr_energy">    -16.49983039 </i>
    <i name="e_wo_entrp">    -16.49719629 </i>
    <i name="e_0_energy">    -16.49895236 </i>
   </energy>
  </scstep>
  <scstep>
   <time name="dav">    2.19    2.19</time>
   <time name="total">    3.89    3.91</time>
   <energy>
    <i name="e_fr_energy">    -16.49982732 </i>
    <i name="e_wo_entrp">    -16.49719502 </i>
    <i name="e_0_energy">    -16.49894988 </i>
   </energy>
  </scstep>
  <scstep>
   <time name="dav">    1.49    1.49</time>
   <time name="total">    3.10    3.12</time>
   <energy>
    <i name="alphaZ">    125.74558414 </i>
    <i name="ewald">  -1197.20542254 </i>
    <i name="hartreedc">   -185.07795988 </i>
    <i name="XCdc">      8.68262977 </i>
    <i name="pawpsdc">   1468.27904980 </i>
    <i name="pawaedc">  -1486.36285784 </i>
    <i name="eentropy">     -0.00263284 </i>
    <i name="bandstr">     60.94280908 </i>
    <i name="atom">   1188.49897307 </i>
    <i name="e_fr_energy">    -16.49982723 </i>
    <i name="e_wo_entrp">    -16.49719440 </i>
    <i name="e_0_energy">    -16.49894962 </i>
   </energy>
  </scstep>
  <structure>
   <crystal>
    <varray name="basis" >
     <v>       2.80141397      -0.00000000       0.00000000 </v>
     <v>       0.00000000       2.80141397       0.00000000 </v>
     <v>      -0.00000000      -0.00000000       2.80141397 </v>
    </varray>
    <i name="volume">     21.98527335 </i>
    <varray name="rec_basis" >
     <v>       0.35696259      -0.00000000       0.00000000 </v>
     <v>       0.00000000       0.35696259       0.00000000 </v>
     <v>      -0.00000000      -0.00000000       0.35696259 </v>
    </varray>
   </crystal>
   <varray name="positions" >
    <v>       0.00000000       0.00000000      -0.00000000 </v>
    <v>       0.50000000       0.50000000       0.50000000 </v>
   </varray>
  </structure>
  <varray name="forces" >
   <v>      -0.00000000      -0.00000000      -0.00000000 </v>
   <v>       0.00000000       0.00000000       0.00000000 </v>
  </varray>
  <varray name="stress" >
   <v>      -0.62447290       0.00000000       0.00000000 </v>
   <v>      -0.00000000      -0.62447290      -0.00000000 </v>
   <v>       0.00000000      -0.00000000      -0.62447290 </v>
  </varray>
  <energy>
   <i name="e_fr_energy">    -16.49982723 </i>
   <i name="e_wo_entrp">    -16.49719440 </i>
   <i name="e_0_energy">    -16.49894962 </i>
  </energy>
  <time name="totalsc">   27.97   28.47</time>
 </calculation>
 <calculation>
  <scstep>
   <time name="dav">    2.37    2.37</time>
   <time name="total">    4.06    4.07</time>
   <energy>
    <i name="alphaZ">    125.77522435 </i>
    <i name="ewald">  -1197.29948188 </i>
    <i name="hartreedc">   -185.09340772 </i>
    <i name="XCdc">      8.68708982 </i>
    <i name="pawpsdc">   1468.32446357 </i>
    <i name="pawaedc">  -1486.40739566 </i>
    <i name="eentropy">     -0.00262613 </i>
    <i name="bandstr">     61.01732454 </i>
    <i name="atom">   1188.49897307 </i>
    <i name="e_fr_energy">    -16.49983603 </i>
    <i name="e_wo_entrp">    -16.49720990 </i>
    <i name="e_0_energy">    -16.49896065 </i>
   </energy>
  </scstep>
  <scstep>
   <time name="dav">    2.33    2.33</time>
   <time name="total">    4.03    4.05</time>
   <energy>
    <i name="e_fr_energy">    -16.49982903 </i>
    <i name="e_wo_entrp">    -16.49718832 </i>
    <i name="e_0_energy">    -16.49894879 </i>
   </energy>
  </scstep>
  <scstep>
   <time name="dav">    1.78    1.78</time>
   <time name="total">    3.48    3.50</time>
   <energy>
    <i name="e_fr_energy">    -16.49982828 </i>
    <i name="e_wo_entrp">    -16.49719167 </i>
    <i name="e_0_energy">    -16.49894941 </i>
   </energy>
  </scstep>
  <scstep>
   <time name="dav">    1.48    1.49</time>
   <time name="total">    3.19    3.21</time>
   <energy>
    <i name="e_fr_energy">    -16.49982824 </i>
    <i name="e_wo_entrp">    -16.49719232 </i>
    <i name="e_0_energy">    -16.49894960 </i>
   </energy>
  </scstep>
  <scstep>
   <time name="dav">    1.48    1.48</time>
   <time name="total">    3.19    3.20</time>
   <energy>
    <i name="e_fr_energy">    -16.49982822 </i>
    <i name="e_wo_entrp">    -16.49719255 </i>
    <i name="e_0_energy">    -16.49894966 </i>
   </energy>
  </scstep>
  <scstep>
   <time name="dav">    1.49    1.49</time>
   <time name="total">    3.11    3.13</time>
   <energy>
    <i name="alphaZ">    125.77522435 </i>
    <i name="ewald">  -1197.29948188 </i>
    <i name="hartreedc">   -185.04390513 </i>
    <i name="XCdc">      8.68327058 </i>
    <i name="pawpsdc">   1468.56919817 </i>
    <i name="pawaedc">  -1486.65397933 </i>
    <i name="eentropy">     -0.00263572 </i>
    <i name="bandstr">     60.97350769 </i>
    <i name="atom">   1188.49897307 </i>
    <i name="e_fr_energy">    -16.49982820 </i>
    <i name="e_wo_entrp">    -16.49719248 </i>
    <i name="e_0_energy">    -16.49894963 </i>
   </energy>
  </scstep>
  <structure>
   <crystal>
    <varray name="basis" >
     <v>       2.80119389      -0.00000000       0.00000000 </v>
     <v>       0.00000000       2.80119389       0.00000000 </v>
     <v>      -0.00000000      -0.00000000       2.80119389 </v>
    </varray>
    <i name="volume">     21.98009230 </i>
    <varray name="rec_basis" >
     <v>       0.35699064      -0.00000000       0.00000000 </v>
     <v>       0.00000000       0.35699064       0.00000000 </v>
     <v>      -0.00000000      -0.00000000       0.35699064 </v>
    </varray>
   </crystal>
   <varray name="positions" >
    <v>       0.00000000       0.00000000      -0.00000000 </v>
    <v>       0.50000000       0.50000000       0.50000000 </v>
   </varray>
  </structure>
  <varray name="forces" >
   <v>      -0.00000000       0.00000000       0.00000000 </v>
   <v>       0.00000000      -0.00000000      -0.00000000 </v>
  </varray>
  <varray name="stress" >
   <v>       0.14081976       0.00000000      -0.00000000 </v>
   <v>       0.00000000       0.14081976      -0.00000000 </v>
   <v>       0.00000000       0.00000000       0.14081976 </v>
  </varray>
  <energy>
   <i name="e_fr_energy">    -16.49982820 </i>
   <i name="e_wo_entrp">    -16.49719248 </i>
   <i name="e_0_energy">    -16.49894963 </i>
  </energy>
  <time name="totalsc">   25.97   26.88</time>
  <eigenvalues>
   <array>
    <dimension dim="1">band</dimension>
    <dimension dim="2">kpoint</dimension>
    <dimension dim="3">spin</dimension>
    <field>eigene</field>
    <field>occ</field>
    <set>
     <set comment="spin 1">
      <set comment="kpoint 1">
       <r>   -2.4568    1.0000 </r>
       <r>    1.1189    1.0000 </r>
       <r>    1.1189    1.0000 </r>
       <r>    3.8223    1.0000 </r>
       <r>    3.8223    1.0000 </r>
       <r>    3.8223    1.0000 </r>
       <r>    5.0869    1.0000 </r>
       <r>    5.0869    1.0000 </r>
       <r>    6.3323    0.0203 </r>
       <r>    6.3323    0.0203 </r>
       <r>    6.3323    0.0203 </r>
       <r>   16.3486    0.0000 </r>
       <r>   16.3486    0.0000 </r>
       <r>   16.3486    0.0000 </r>
       <r>   22.1848    0.0000 </r>
       <r>   22.1848    0.0000 </r>
       <r>   27.6811    0.0000 </r>
       <r>   31.5310    0.0000 </r>
       <r>   31.5310    0.0000 </r>
       <r>   31.5310    0.0000 </r>
      </set>
      <set comment="kpoint 2">
       <r>   -2.3620    1.0000 </r>
       <r>    1.1600    1.0000 </r>
       <r>    1.1624    1.0000 </r>
       <r>    3.8103    1.0000 </r>
       <r>    3.8103    1.0000 </r>
       <r>    3.8473    1.0000 </r>
       <r>    5.0421    1.0000 </r>
       <r>    5.0969    1.0000 </r>
       <r>    6.2499    0.2228 </r>
       <r>    6.2499    0.2228 </r>
       <r>    6.3034    0.0723 </r>
       <r>   15.6717    0.0000 </r>
       <r>   16.5302    0.0000 </r>
       <r>   16.5302    0.0000 </r>
       <r>   22.2110    0.0000 </r>
       <r>   22.6978    0.0000 </r>
       <r>   27.9810    0.0000 </r>
       <r>   30.9159    0.0000 </r>
       <r>   31.4732    0.0000 </r>
       <r>   31.4732    0.0000 </r>
      </set>
      <set comment="kpoint 3">
       <r>   -2.0814    1.0000 </r>
       <r>    1.2824    1.0000 </r>
       <r>    1.2865    1.0000 </r>
       <r>    3.7994    1.0000 </r>
       <r>    3.7994    1.0000 </r>
       <r>    3.9209    1.0000 </r>
       <r>    4.9022    1.0000 </r>
       <r>    5.1470    1.0000 </r>
       <r>    6.0278    0.9792 </r>
       <r>    6.0278    0.9792 </r>
       <r>    6.2180    0.3419 </r>
       <r>   14.1839    0.0000 </r>
       <r>   17.0542    0.0000 </r>
       <r>   17.0542    0.0000 </r>
       <r>   22.2946    0.0000 </r>
       <r>   23.6196    0.0000 </r>
       <r>   28.9845    0.0000 </r>
       <r>   29.6596    0.0000 </r>
       <r>   31.1695    0.0000 </r>
       <r>   31.1695    0.0000 </r>
      </set>
      <set comment="kpoint 4">
       <r>   -1.6275    1.0000 </r>
       <r>    1.4639    1.0000 </r>
       <r>    1.4826    1.0000 </r>
       <r>    3.8061    1.0000 </r>
       <r>    3.8061    1.0000 </r>
       <r>    4.0487    1.0000 </r>
       <r>    4.6912    1.0000 </r>
       <r>    5.2295    1.0000 </r>
       <r>    5.7093    1.0022 </r>
       <r>    5.7093    1.0022 </r>
       <r>    6.0804    0.8686 </r>
       <r>   12.4688    0.0000 </r>
       <r>   17.8688    0.0000 </r>
       <r>   17.8688    0.0000 </r>
       <r>   22.4496    0.0000 </r>
       <r>   24.2872    0.0000 </r>
       <r>   28.3335    0.0000 </r>
       <r>   30.4004    0.0000 </r>
       <r>   30.4004    0.0000 </r>
       <r>   30.7583    0.0000 </r>
      </set>
      <set comment="kpoint 5">
       <r>   -1.0241    1.0000 </r>
       <r>    1.6555    1.0000 </r>
       <r>    1.7498    1.0000 </r>
       <r>    3.8319    1.0000 </r>
       <r>    3.8319    1.0000 </r>
       <r>    4.2015    1.0000 </r>
       <r>    4.4056    1.0000 </r>
       <r>    5.3365    1.0000 </r>
       <r>    5.3444    1.0000 </r>
       <r>    5.3444    1.0000 </r>
       <r>    5.8972    1.0313 </r>
       <r>   10.7712   -0.0000 </r>
       <r>   18.9133    0.0000 </r>
       <r>   18.9133    0.0000 </r>
       <r>   22.6500    0.0000 </r>
       <r>   24.7243    0.0000 </r>
       <r>   27.1054    0.0000 </r>
       <r>   29.1549    0.0000 </r>
       <r>   29.1549    0.0000 </r>
       <r>   30.9745    0.0000 </r>
      </set>
      <set comment="kpoint 6">
       <r>   -0.3123    1.0000 </r>
       <r>    1.7994    1.0000 </r>
       <r>    2.0765    1.0000 </r>
       <r>    3.8925    1.0000 </r>
       <r>    3.8925    1.0000 </r>
       <r>    4.0643    1.0000 </r>
       <r>    4.4095    1.0000 </r>
       <r>    4.9832    1.0000 </r>
       <r>    4.9832    1.0000 </r>
       <r>    5.4906    1.0000 </r>
       <r>    5.6773    1.0011 </r>
       <r>    9.2080   -0.0000 </r>
       <r>   20.1372    0.0000 </r>
       <r>   20.1372    0.0000 </r>
       <r>   22.9291    0.0000 </r>
       <r>   25.1084    0.0000 </r>
       <r>   26.0379    0.0000 </r>
       <r>   27.6649    0.0000 </r>
       <r>   27.6649    0.0000 </r>
       <r>   29.4462    0.0000 </r>
      </set>
      <set comment="kpoint 7">
       <r>    0.4380    1.0000 </r>
       <r>    1.8116    1.0000 </r>
       <r>    2.4494    1.0000 </r>
       <r>    3.6795    1.0000 </r>
       <r>    4.0015    1.0000 </r>
       <r>    4.0015    1.0000 </r>
       <r>    4.6499    1.0000 </r>
       <r>    4.6555    1.0000 </r>
       <r>    4.6555    1.0000 </r>
       <r>    5.4310    1.0000 </r>
       <r>    5.7329    1.0035 </r>
       <r>    7.8697   -0.0000 </r>
       <r>   21.5000    0.0000 </r>
       <r>   21.5000    0.0000 </r>
       <r>   23.3008    0.0000 </r>
       <r>   25.1337    0.0000 </r>
       <r>   25.5720    0.0000 </r>
       <r>   26.1017    0.0000 </r>
       <r>   26.1017    0.0000 </r>
       <r>   28.1246    0.0000 </r>
      </set>
      <set comment="kpoint 8">
       <r>    1.1170    1.0000 </r>
       <r>    1.5964    1.0000 </r>
       <r>    2.8530    1.0000 </r>
       <r>    3.2694    1.0000 </r>
       <r>    4.1604    1.0000 </r>
       <r>    4.1604    1.0000 </r>
       <r>    4.3791    1.0000 </r>
       <r>    4.3791    1.0000 </r>
       <r>    4.9056    1.0000 </r>
       <r>    5.1699    1.0000 </r>
       <r>    6.1442    0.6482 </r>
       <r>    6.8373   -0.0000 </r>
       <r>   22.9699    0.0000 </r>
       <r>   22.9699    0.0000 </r>
       <r>   23.7804    0.0000 </r>
       <r>   24.3859    0.0000 </r>
       <r>   24.5137    0.0000 </r>
       <r>   24.5137    0.0000 </r>
       <r>   26.1928    0.0000 </r>
       <r>   27.0383    0.0000 </r>
      </set>
      <set comment="kpoint 9">
       <r>   -2.2679    1.0000 </r>
       <r>    1.2014    1.0000 </r>
       <r>    1.2060    1.0000 </r>
       <r>    3.7656    1.0000 </r>
       <r>    3.8045    1.0000 </r>
       <r>    3.9060    1.0000 </r>
       <r>    5.0275    1.0000 </r>
       <r>    5.0838    1.0000 </r>
       <r>    6.1034    0.7988 </r>
       <r>    6.1734    0.5276 </r>
       <r>    6.3444    0.0044 </r>
       <r>   15.6891    0.0000 </r>
       <r>   15.9983    0.0000 </r>
       <r>   16.7061    0.0000 </r>
       <r>   22.4842    0.0000 </r>
       <r>   23.0173    0.0000 </r>
       <r>   28.2574    0.0000 </r>
       <r>   30.3848    0.0000 </r>
       <r>   31.2711    0.0000 </r>
       <r>   31.4434    0.0000 </r>
      </set>
      <set comment="kpoint 10">
       <r>   -1.9897    1.0000 </r>
       <r>    1.3179    1.0000 </r>
       <r>    1.3323    1.0000 </r>
       <r>    3.7113    1.0000 </r>
       <r>    3.7897    1.0000 </r>
       <r>    4.0235    1.0000 </r>
       <r>    4.9176    1.0000 </r>
       <r>    5.1213    1.0000 </r>
       <r>    5.8402    1.0186 </r>
       <r>    5.9464    1.0349 </r>
       <r>    6.3154    0.0482 </r>
       <r>   14.3036    0.0000 </r>
       <r>   16.3718    0.0000 </r>
       <r>   17.2154    0.0000 </r>
       <r>   22.6527    0.0000 </r>
       <r>   23.9486    0.0000 </r>
       <r>   29.1184    0.0000 </r>
       <r>   29.1958    0.0000 </r>
       <r>   30.8571    0.0000 </r>
       <r>   31.2064    0.0000 </r>
      </set>
      <set comment="kpoint 11">
       <r>   -1.5402    1.0000 </r>
       <r>    1.4983    1.0000 </r>
       <r>    1.5245    1.0000 </r>
       <r>    3.6901    1.0000 </r>
       <r>    3.7827    1.0000 </r>
       <r>    4.1766    1.0000 </r>
       <r>    4.7300    1.0000 </r>
       <r>    5.2045    1.0000 </r>
       <r>    5.5086    1.0000 </r>
       <r>    5.6301    1.0004 </r>
       <r>    6.2105    0.3720 </r>
       <r>   12.5869    0.0000 </r>
       <r>   17.1179    0.0000 </r>
       <r>   18.0113    0.0000 </r>
       <r>   22.8378    0.0000 </r>
       <r>   24.7114    0.0000 </r>
       <r>   27.7235    0.0000 </r>
       <r>   30.0234    0.0000 </r>
       <r>   30.4919    0.0000 </r>
       <r>   30.9006    0.0000 </r>
      </set>
      <set comment="kpoint 12">
       <r>   -0.9442    1.0000 </r>
       <r>    1.6923    1.0000 </r>
       <r>    1.7818    1.0000 </r>
       <r>    3.6976    1.0000 </r>
       <r>    3.7783    1.0000 </r>
       <r>    4.3635    1.0000 </r>
       <r>    4.4857    1.0000 </r>
       <r>    5.1449    1.0000 </r>
       <r>    5.2803    1.0000 </r>
       <r>    5.3206    1.0000 </r>
       <r>    6.0459    0.9490 </r>
       <r>   10.8823   -0.0000 </r>
       <r>   18.0649    0.0000 </r>
       <r>   19.0372    0.0000 </r>
       <r>   23.0875    0.0000 </r>
       <r>   25.2370    0.0000 </r>
       <r>   26.3823    0.0000 </r>
       <r>   28.8224    0.0000 </r>
       <r>   29.2575    0.0000 </r>
       <r>   32.0684    0.0000 </r>
      </set>
      <set comment="kpoint 13">
       <r>   -0.2437    1.0000 </r>
       <r>    1.8336    1.0000 </r>
       <r>    2.0969    1.0000 </r>
       <r>    3.7451    1.0000 </r>
       <r>    3.7474    1.0000 </r>
       <r>    4.2538    1.0000 </r>
       <r>    4.5852    1.0000 </r>
       <r>    4.7899    1.0000 </r>
       <r>    4.9427    1.0000 </r>
       <r>    5.4771    1.0000 </r>
       <r>    5.8375    1.0180 </r>
       <r>    9.3069   -0.0000 </r>
       <r>   19.1457    0.0000 </r>
       <r>   20.2448    0.0000 </r>
       <r>   23.4291    0.0000 </r>
       <r>   25.1240    0.0000 </r>
       <r>   25.7138    0.0000 </r>
       <r>   27.5356    0.0000 </r>
       <r>   27.7635    0.0000 </r>
       <r>   30.5626    0.0000 </r>
      </set>
      <set comment="kpoint 14">
       <r>    0.4908    1.0000 </r>
       <r>    1.8408    1.0000 </r>
       <r>    2.4551    1.0000 </r>
       <r>    3.5587    1.0000 </r>
       <r>    3.8404    1.0000 </r>
       <r>    4.1775    1.0000 </r>
       <r>    4.4712    1.0000 </r>
       <r>    4.6571    1.0000 </r>
       <r>    4.8270    1.0000 </r>
       <r>    5.5986    1.0002 </r>
       <r>    5.7269    1.0031 </r>
       <r>    7.9510   -0.0000 </r>
       <r>   20.3122    0.0000 </r>
       <r>   21.5971    0.0000 </r>
       <r>   23.8935    0.0000 </r>
       <r>   23.9141    0.0000 </r>
       <r>   26.1750    0.0000 </r>
       <r>   26.2866    0.0000 </r>
       <r>   26.3334    0.0000 </r>
       <r>   29.1877    0.0000 </r>
      </set>
      <set comment="kpoint 15">
       <r>    1.1526    1.0000 </r>
       <r>    1.6224    1.0000 </r>
       <r>    2.8379    1.0000 </r>
       <r>    3.2210    1.0000 </r>
       <r>    3.9923    1.0000 </r>
       <r>    4.2016    1.0000 </r>
       <r>    4.2672    1.0000 </r>
       <r>    4.4310    1.0000 </r>
       <r>    5.0820    1.0000 </r>
       <r>    5.3419    1.0000 </r>
       <r>    6.1573    0.5947 </r>
       <r>    6.8824   -0.0000 </r>
       <r>   21.5118    0.0000 </r>
       <r>   22.7176    0.0000 </r>
       <r>   23.0556    0.0000 </r>
       <r>   24.5083    0.0000 </r>
       <r>   24.5958    0.0000 </r>
       <r>   25.3173    0.0000 </r>
       <r>   27.0292    0.0000 </r>
       <r>   28.0010    0.0000 </r>
      </set>
      <set comment="kpoint 16">
       <r>   -1.7191    1.0000 </r>
       <r>    1.4179    1.0000 </r>
       <r>    1.4678    1.0000 </r>
       <r>    3.6084    1.0000 </r>
       <r>    3.7636    1.0000 </r>
       <r>    4.2017    1.0000 </r>
       <r>    4.9223    1.0000 </r>
       <r>    5.0932    1.0000 </r>
       <r>    5.5202    1.0000 </r>
       <r>    5.7268    1.0031 </r>
       <r>    6.3831   -0.0267 </r>
       <r>   14.2839    0.0000 </r>
       <r>   15.2983    0.0000 </r>
       <r>   17.6861    0.0000 </r>
       <r>   23.0042    0.0000 </r>
       <r>   24.9601    0.0000 </r>
       <r>   27.8339    0.0000 </r>
       <r>   29.9360    0.0000 </r>
       <r>   30.3250    0.0000 </r>
       <r>   31.2131    0.0000 </r>
      </set>
      <set comment="kpoint 17">
       <r>   -1.2842    1.0000 </r>
       <r>    1.5716    1.0000 </r>
       <r>    1.6723    1.0000 </r>
       <r>    3.5276    1.0000 </r>
       <r>    3.7262    1.0000 </r>
       <r>    4.4082    1.0000 </r>
       <r>    4.8151    1.0000 </r>
       <r>    5.1521    1.0000 </r>
       <r>    5.1562    1.0000 </r>
       <r>    5.4293    1.0000 </r>
       <r>    6.3635   -0.0144 </r>
       <r>   12.8526    0.0000 </r>
       <r>   15.6644    0.0000 </r>
       <r>   18.4313    0.0000 </r>
       <r>   23.2340    0.0000 </r>
       <r>   25.9843    0.0000 </r>
       <r>   26.3380    0.0000 </r>
       <r>   29.5298    0.0000 </r>
       <r>   30.7410    0.0000 </r>
       <r>   31.3950    0.0000 </r>
      </set>
      <set comment="kpoint 18">
       <r>   -0.7124    1.0000 </r>
       <r>    1.7437    1.0000 </r>
       <r>    1.9251    1.0000 </r>
       <r>    3.4871    1.0000 </r>
       <r>    3.6891    1.0000 </r>
       <r>    4.6402    1.0000 </r>
       <r>    4.6565    1.0000 </r>
       <r>    4.7820    1.0000 </r>
       <r>    5.1160    1.0000 </r>
       <r>    5.2673    1.0000 </r>
       <r>    6.2646    0.1747 </r>
       <r>   11.1620   -0.0000 </r>
       <r>   16.4770    0.0000 </r>
       <r>   19.4054    0.0000 </r>
       <r>   23.4739    0.0000 </r>
       <r>   24.8677    0.0000 </r>
       <r>   26.7471    0.0000 </r>
       <r>   28.4822    0.0000 </r>
       <r>   29.5530    0.0000 </r>
       <r>   33.5135    0.0000 </r>
      </set>
      <set comment="kpoint 19">
       <r>   -0.0505    1.0000 </r>
       <r>    1.8720    1.0000 </r>
       <r>    2.2153    1.0000 </r>
       <r>    3.4932    1.0000 </r>
       <r>    3.6161    1.0000 </r>
       <r>    4.4325    1.0000 </r>
       <r>    4.5134    1.0000 </r>
       <r>    4.8488    1.0000 </r>
       <r>    4.8850    1.0000 </r>
       <r>    5.4267    1.0000 </r>
       <r>    6.1069    0.7871 </r>
       <r>    9.5662   -0.0000 </r>
       <r>   17.4447    0.0000 </r>
       <r>   20.5675    0.0000 </r>
       <r>   23.4537    0.0000 </r>
       <r>   23.7899    0.0000 </r>
       <r>   27.3605    0.0000 </r>
       <r>   27.4123    0.0000 </r>
       <r>   28.0174    0.0000 </r>
       <r>   32.5061    0.0000 </r>
      </set>
      <set comment="kpoint 20">
       <r>    0.6287    1.0000 </r>
       <r>    1.8659    1.0000 </r>
       <r>    2.5353    1.0000 </r>
       <r>    3.4527    1.0000 </r>
       <r>    3.5557    1.0000 </r>
       <r>    4.1249    1.0000 </r>
       <r>    4.4641    1.0000 </r>
       <r>    4.6650    1.0000 </r>
       <r>    5.1427    1.0000 </r>
       <r>    5.6966    1.0017 </r>
       <r>    5.8999    1.0318 </r>
       <r>    8.1588   -0.0000 </r>
       <r>   18.5081    0.0000 </r>
       <r>   21.8819    0.0000 </r>
       <r>   22.1128    0.0000 </r>
       <r>   24.2038    0.0000 </r>
       <r>   26.3289    0.0000 </r>
       <r>   26.4115    0.0000 </r>
       <r>   28.1338    0.0000 </r>
       <r>   31.1932    0.0000 </r>
      </set>
      <set comment="kpoint 21">
       <r>    1.2278    1.0000 </r>
       <r>    1.6560    1.0000 </r>
       <r>    2.8683    1.0000 </r>
       <r>    3.1882    1.0000 </r>
       <r>    3.6802    1.0000 </r>
       <r>    3.8725    1.0000 </r>
       <r>    4.4944    1.0000 </r>
       <r>    4.5573    1.0000 </r>
       <r>    5.4049    1.0000 </r>
       <r>    5.6617    1.0008 </r>
       <r>    6.1903    0.4559 </r>
       <r>    7.0132   -0.0000 </r>
       <r>   19.6437    0.0000 </r>
       <r>   20.8422    0.0000 </r>
       <r>   23.3134    0.0000 </r>
       <r>   24.7461    0.0000 </r>
       <r>   24.8270    0.0000 </r>
       <r>   25.4512    0.0000 </r>
       <r>   28.9895    0.0000 </r>
       <r>   30.0084    0.0000 </r>
      </set>
      <set comment="kpoint 22">
       <r>   -0.8774    1.0000 </r>
       <r>    1.6735    1.0000 </r>
       <r>    1.8996    1.0000 </r>
       <r>    3.3945    1.0000 </r>
       <r>    3.6777    1.0000 </r>
       <r>    4.6666    1.0000 </r>
       <r>    4.7731    1.0000 </r>
       <r>    4.8780    1.0000 </r>
       <r>    5.1199    1.0000 </r>
       <r>    5.1690    1.0000 </r>
       <r>    6.4365   -0.0350 </r>
       <r>   12.6845    0.0000 </r>
       <r>   14.6750    0.0000 </r>
       <r>   19.1068    0.0000 </r>
       <r>   23.4567    0.0000 </r>
       <r>   24.7782    0.0000 </r>
       <r>   27.4414    0.0000 </r>
       <r>   28.8909    0.0000 </r>
       <r>   30.9461    0.0000 </r>
       <r>   32.5637    0.0000 </r>
      </set>
      <set comment="kpoint 23">
       <r>   -0.3546    1.0000 </r>
       <r>    1.7765    1.0000 </r>
       <r>    2.1790    1.0000 </r>
       <r>    3.2950    1.0000 </r>
       <r>    3.6418    1.0000 </r>
       <r>    4.3950    1.0000 </r>
       <r>    4.8246    1.0000 </r>
       <r>    4.9258    1.0000 </r>
       <r>    4.9327    1.0000 </r>
       <r>    5.1944    1.0000 </r>
       <r>    6.4216   -0.0354 </r>
       <r>   11.4039   -0.0000 </r>
       <r>   14.9910    0.0000 </r>
       <r>   20.0058    0.0000 </r>
       <r>   23.2122    0.0000 </r>
       <r>   23.6681    0.0000 </r>
       <r>   28.0426    0.0000 </r>
       <r>   28.6119    0.0000 </r>
       <r>   30.0079    0.0000 </r>
       <r>   32.3540    0.0000 </r>
      </set>
      <set comment="kpoint 24">
       <r>    0.2289    1.0000 </r>
       <r>    1.8323    1.0000 </r>
       <r>    2.4820    1.0000 </r>
       <r>    3.2548    1.0000 </r>
       <r>    3.6112    1.0000 </r>
       <r>    4.0509    1.0000 </r>
       <r>    4.7575    1.0000 </r>
       <r>    4.7585    1.0000 </r>
       <r>    5.2048    1.0000 </r>
       <r>    5.3474    1.0000 </r>
       <r>    6.3303    0.0233 </r>
       <r>    9.8608   -0.0000 </r>
       <r>   15.7967    0.0000 </r>
       <r>   21.0961    0.0000 </r>
       <r>   21.7303    0.0000 </r>
       <r>   23.9334    0.0000 </r>
       <r>   27.0998    0.0000 </r>
       <r>   28.4148    0.0000 </r>
       <r>   29.5203    0.0000 </r>
       <r>   33.0101    0.0000 </r>
      </set>
      <set comment="kpoint 25">
       <r>    0.7961    1.0000 </r>
       <r>    1.7871    1.0000 </r>
       <r>    2.7873    1.0000 </r>
       <r>    3.2793    1.0000 </r>
       <r>    3.5216    1.0000 </r>
       <r>    3.7598    1.0000 </r>
       <r>    4.6941    1.0000 </r>
       <r>    4.7452    1.0000 </r>
       <r>    5.4760    1.0000 </r>
       <r>    5.6465    1.0005 </r>
       <r>    6.1759    0.5166 </r>
       <r>    8.4163   -0.0000 </r>
       <r>   16.7742    0.0000 </r>
       <r>   20.3432    0.0000 </r>
       <r>   22.3491    0.0000 </r>
       <r>   24.2930    0.0000 </r>
       <r>   26.1987    0.0000 </r>
       <r>   26.7900    0.0000 </r>
       <r>   30.3607    0.0000 </r>
       <r>   33.2406    0.0000 </r>
      </set>
      <set comment="kpoint 26">
       <r>    1.2692    1.0000 </r>
       <r>    1.6043    1.0000 </r>
       <r>    3.0790    1.0000 </r>
       <r>    3.3353    1.0000 </r>
       <r>    3.3677    1.0000 </r>
       <r>    3.5313    1.0000 </r>
       <r>    4.7070    1.0000 </r>
       <r>    4.7355    1.0000 </r>
       <r>    5.7353    1.0036 </r>
       <r>    5.9733    1.0282 </r>
       <r>    6.2366    0.2704 </r>
       <r>    7.1834   -0.0000 </r>
       <r>   17.8690    0.0000 </r>
       <r>   19.0531    0.0000 </r>
       <r>   23.7328    0.0000 </r>
       <r>   24.7785    0.0000 </r>
       <r>   25.2129    0.0000 </r>
       <r>   25.4109    0.0000 </r>
       <r>   31.2519    0.0000 </r>
       <r>   32.2222    0.0000 </r>
      </set>
      <set comment="kpoint 27">
       <r>    0.0825    1.0000 </r>
       <r>    1.7813    1.0000 </r>
       <r>    2.5004    1.0000 </r>
       <r>    3.1462    1.0000 </r>
       <r>    3.6799    1.0000 </r>
       <r>    4.0236    1.0000 </r>
       <r>    4.7787    1.0000 </r>
       <r>    4.9284    1.0000 </r>
       <r>    5.1599    1.0000 </r>
       <r>    5.2290    1.0000 </r>
       <r>    6.4931   -0.0246 </r>
       <r>   11.0817   -0.0000 </r>
       <r>   14.2609    0.0000 </r>
       <r>   20.8182    0.0000 </r>
       <r>   21.5958    0.0000 </r>
       <r>   23.8393    0.0000 </r>
       <r>   27.4324    0.0000 </r>
       <r>   30.3215    0.0000 </r>
       <r>   30.5501    0.0000 </r>
       <r>   30.6410    0.0000 </r>
      </set>
      <set comment="kpoint 28">
       <r>    0.5320    1.0000 </r>
       <r>    1.7362    1.0000 </r>
       <r>    2.8501    1.0000 </r>
       <r>    3.0627    1.0000 </r>
       <r>    3.6959    1.0000 </r>
       <r>    3.7918    1.0000 </r>
       <r>    4.7235    1.0000 </r>
       <r>    4.9499    1.0000 </r>
       <r>    5.2539    1.0000 </r>
       <r>    5.5181    1.0000 </r>
       <r>    6.4811   -0.0274 </r>
       <r>    9.9680   -0.0000 </r>
       <r>   14.5349    0.0000 </r>
       <r>   20.0893    0.0000 </r>
       <r>   21.8226    0.0000 </r>
       <r>   24.0555    0.0000 </r>
       <r>   26.7063    0.0000 </r>
       <r>   28.8855    0.0000 </r>
       <r>   31.3943    0.0000 </r>
       <r>   31.6479    0.0000 </r>
      </set>
      <set comment="kpoint 29">
       <r>    0.9266    1.0000 </r>
       <r>    1.6322    1.0000 </r>
       <r>    3.0412    1.0000 </r>
       <r>    3.1912    1.0000 </r>
       <r>    3.4271    1.0000 </r>
       <r>    3.8430    1.0000 </r>
       <r>    4.7605    1.0000 </r>
       <r>    4.9675    1.0000 </r>
       <r>    5.5702    1.0001 </r>
       <r>    5.7900    1.0094 </r>
       <r>    6.3931   -0.0307 </r>
       <r>    8.6169   -0.0000 </r>
       <r>   15.3002    0.0000 </r>
       <r>   18.6917    0.0000 </r>
       <r>   22.9931    0.0000 </r>
       <r>   24.3558    0.0000 </r>
       <r>   25.9698    0.0000 </r>
       <r>   27.2572    0.0000 </r>
       <r>   32.2835    0.0000 </r>
       <r>   32.6680    0.0000 </r>
      </set>
      <set comment="kpoint 30">
       <r>    1.2361    1.0000 </r>
       <r>    1.4664    1.0000 </r>
       <r>    3.0927    1.0000 </r>
       <r>    3.2222    1.0000 </r>
       <r>    3.4919    1.0000 </r>
       <r>    3.7278    1.0000 </r>
       <r>    4.8491    1.0000 </r>
       <r>    4.9364    1.0000 </r>
       <r>    6.0344    0.9691 </r>
       <r>    6.2392    0.2608 </r>
       <r>    6.2834    0.1204 </r>
       <r>    7.3386   -0.0000 </r>
       <r>   16.2820    0.0000 </r>
       <r>   17.4210    0.0000 </r>
       <r>   24.2924    0.0000 </r>
       <r>   24.7673    0.0000 </r>
       <r>   25.3087    0.0000 </r>
       <r>   25.7199    0.0000 </r>
       <r>   33.2866    0.0000 </r>
       <r>   33.4992    0.0000 </r>
      </set>
      <set comment="kpoint 31">
       <r>    0.7957    1.0000 </r>
       <r>    1.6061    1.0000 </r>
       <r>    2.9257    1.0000 </r>
       <r>    3.2642    1.0000 </r>
       <r>    3.3898    1.0000 </r>
       <r>    4.1559    1.0000 </r>
       <r>    4.7594    1.0000 </r>
       <r>    5.0603    1.0000 </r>
       <r>    5.2028    1.0000 </r>
       <r>    5.8099    1.0126 </r>
       <r>    6.5490   -0.0127 </r>
       <r>    9.5456   -0.0000 </r>
       <r>   14.0202    0.0000 </r>
       <r>   18.5656    0.0000 </r>
       <r>   22.7295    0.0000 </r>
       <r>   24.2130    0.0000 </r>
       <r>   26.2039    0.0000 </r>
       <r>   28.8771    0.0000 </r>
       <r>   30.4438    0.0000 </r>
       <r>   33.5512    0.0000 </r>
      </set>
      <set comment="kpoint 32">
       <r>    0.9995    1.0000 </r>
       <r>    1.4590    1.0000 </r>
       <r>    2.8662    1.0000 </r>
       <r>    3.1435    1.0000 </r>
       <r>    3.6701    1.0000 </r>
       <r>    4.4170    1.0000 </r>
       <r>    4.8490    1.0000 </r>
       <r>    5.1197    1.0000 </r>
       <r>    5.4679    1.0000 </r>
       <r>    6.0690    0.8986 </r>
       <r>    6.5338   -0.0156 </r>
       <r>    8.5738   -0.0000 </r>
       <r>   14.2786    0.0000 </r>
       <r>   17.2036    0.0000 </r>
       <r>   23.7881    0.0000 </r>
       <r>   24.4328    0.0000 </r>
       <r>   25.6677    0.0000 </r>
       <r>   27.6962    0.0000 </r>
       <r>   30.9597    0.0000 </r>
       <r>   34.1664    0.0000 </r>
      </set>
      <set comment="kpoint 33">
       <r>    1.1613    1.0000 </r>
       <r>    1.3087    1.0000 </r>
       <r>    2.8784    1.0000 </r>
       <r>    2.9697    1.0000 </r>
       <r>    4.0274    1.0000 </r>
       <r>    4.3064    1.0000 </r>
       <r>    4.9682    1.0000 </r>
       <r>    5.0743    1.0000 </r>
       <r>    6.2835    0.1201 </r>
       <r>    6.3080    0.0627 </r>
       <r>    6.4410   -0.0346 </r>
       <r>    7.4059   -0.0000 </r>
       <r>   14.9993    0.0000 </r>
       <r>   16.0016    0.0000 </r>
       <r>   24.7479    0.0000 </r>
       <r>   24.9853    0.0000 </r>
       <r>   25.1667    0.0000 </r>
       <r>   26.3086    0.0000 </r>
       <r>   31.8692    0.0000 </r>
       <r>   32.9425    0.0000 </r>
      </set>
      <set comment="kpoint 34">
       <r>    1.0413    1.0000 </r>
       <r>    1.3008    1.0000 </r>
       <r>    2.7579    1.0000 </r>
       <r>    2.9270    1.0000 </r>
       <r>    4.1555    1.0000 </r>
       <r>    4.9532    1.0000 </r>
       <r>    4.9688    1.0000 </r>
       <r>    5.2477    1.0000 </r>
       <r>    5.4834    1.0000 </r>
       <r>    6.2990    0.0819 </r>
       <r>    6.5923   -0.0065 </r>
       <r>    8.1146   -0.0000 </r>
       <r>   13.8954    0.0000 </r>
       <r>   15.9030    0.0000 </r>
       <r>   24.5555    0.0000 </r>
       <r>   24.7239    0.0000 </r>
       <r>   25.3325    0.0000 </r>
       <r>   27.6586    0.0000 </r>
       <r>   30.3145    0.0000 </r>
       <r>   32.8352    0.0000 </r>
      </set>
      <set comment="kpoint 35">
       <r>    1.0951    1.0000 </r>
       <r>    1.1780    1.0000 </r>
       <r>    2.7359    1.0000 </r>
       <r>    2.7908    1.0000 </r>
       <r>    4.5913    1.0000 </r>
       <r>    4.9089    1.0000 </r>
       <r>    5.0619    1.0000 </r>
       <r>    5.1632    1.0000 </r>
       <r>    6.3173    0.0446 </r>
       <r>    6.4693   -0.0299 </r>
       <r>    6.5697   -0.0094 </r>
       <r>    7.2881   -0.0000 </r>
       <r>   14.1527    0.0000 </r>
       <r>   14.8742    0.0000 </r>
       <r>   24.7488    0.0000 </r>
       <r>   25.0142    0.0000 </r>
       <r>   25.7747    0.0000 </r>
       <r>   26.8494    0.0000 </r>
       <r>   30.7639    0.0000 </r>
       <r>   31.6842    0.0000 </r>
      </set>
      <set comment="kpoint 36">
       <r>    1.0665    1.0000 </r>
       <r>    1.0945    1.0000 </r>
       <r>    2.6678    1.0000 </r>
       <r>    2.6904    1.0000 </r>
       <r>    5.0672    1.0000 </r>
       <r>    5.1237    1.0000 </r>
       <r>    5.1306    1.0000 </r>
       <r>    5.2802    1.0000 </r>
       <r>    6.4990   -0.0233 </r>
       <r>    6.5827   -0.0076 </r>
       <r>    6.6171   -0.0042 </r>
       <r>    6.9357   -0.0000 </r>
       <r>   13.8507    0.0000 </r>
       <r>   14.1119    0.0000 </r>
       <r>   24.7909    0.0000 </r>
       <r>   24.8805    0.0000 </r>
       <r>   26.5461    0.0000 </r>
       <r>   27.0104    0.0000 </r>
       <r>   30.2524    0.0000 </r>
       <r>   30.7076    0.0000 </r>
      </set>
      <set comment="kpoint 37">
       <r>   -2.1745    1.0000 </r>
       <r>    1.2464    1.0000 </r>
       <r>    1.2464    1.0000 </r>
       <r>    3.7519    1.0000 </r>
       <r>    3.7519    1.0000 </r>
       <r>    3.9879    1.0000 </r>
       <r>    5.0476    1.0000 </r>
       <r>    5.0476    1.0000 </r>
       <r>    5.9148    1.0341 </r>
       <r>    6.2678    0.1649 </r>
       <r>    6.2678    0.1649 </r>
       <r>   15.8590    0.0000 </r>
       <r>   15.8590    0.0000 </r>
       <r>   16.3140    0.0000 </r>
       <r>   23.0708    0.0000 </r>
       <r>   23.0708    0.0000 </r>
       <r>   28.5145    0.0000 </r>
       <r>   30.2964    0.0000 </r>
[...]
       </set>
       <set comment="band 16">
        <r>  0.0000  0.0848  0.0000  0.0848  0.0000  0.1071  0.0000  0.1071  0.0014 </r>
        <r>  0.0000  0.0848  0.0000  0.0848  0.0000  0.1071  0.0000  0.1071  0.0014 </r>
       </set>
       <set comment="band 17">
        <r>  0.2287  0.0009  0.1399  0.0009  0.0225  0.0008  0.0074  0.0008  0.0000 </r>
        <r>  0.2287  0.0009  0.1399  0.0009  0.0225  0.0008  0.0074  0.0008  0.0000 </r>
       </set>
       <set comment="band 18">
        <r>  0.1426  0.0308  0.1037  0.0308  0.0231  0.0287  0.0039  0.0287  0.0000 </r>
        <r>  0.1426  0.0308  0.1037  0.0308  0.0231  0.0287  0.0039  0.0287  0.0000 </r>
       </set>
       <set comment="band 19">
        <r>  0.0005  0.0001  0.0044  0.0001  0.0032  0.0668  0.0217  0.0668  0.0000 </r>
        <r>  0.0005  0.0001  0.0044  0.0001  0.0032  0.0668  0.0217  0.0668  0.0000 </r>
       </set>
       <set comment="band 20">
        <r>  0.0000  0.0000  0.0000  0.0000  0.0000  0.0722  0.0000  0.0722  0.0010 </r>
        <r>  0.0000  0.0000  0.0000  0.0000  0.0000  0.0722  0.0000  0.0722  0.0010 </r>
       </set>
      </set>
      <set comment="kpoint 117">
       <set comment="band 1">
        <r>  0.0200  0.0079  0.0079  0.0079  0.1407  0.1407  0.0000  0.1407  0.0000 </r>
        <r>  0.0200  0.0079  0.0079  0.0079  0.1407  0.1407  0.0000  0.1407  0.0000 </r>
       </set>
       <set comment="band 2">
        <r>  0.0487  0.0436  0.0436  0.0436  0.0829  0.0827  0.0000  0.0827  0.0000 </r>
        <r>  0.0487  0.0436  0.0436  0.0436  0.0829  0.0827  0.0000  0.0827  0.0000 </r>
       </set>
       <set comment="band 3">
        <r>  0.0000  0.0074  0.0319  0.0086  0.2663  0.0720  0.0163  0.0615  0.0000 </r>
        <r>  0.0000  0.0074  0.0319  0.0086  0.2663  0.0720  0.0163  0.0615  0.0000 </r>
       </set>
       <set comment="band 4">
        <r>  0.0000  0.0246  0.0000  0.0233  0.0001  0.1946  0.0000  0.2050  0.0163 </r>
        <r>  0.0000  0.0246  0.0000  0.0233  0.0001  0.1946  0.0000  0.2050  0.0163 </r>
       </set>
       <set comment="band 5">
        <r>  0.0000  0.0167  0.0686  0.0176  0.2014  0.0518  0.0400  0.0490  0.0000 </r>
        <r>  0.0000  0.0167  0.0686  0.0176  0.2014  0.0518  0.0400  0.0490  0.0000 </r>
       </set>
       <set comment="band 6">
        <r>  0.0000  0.0519  0.0000  0.0510  0.0000  0.1497  0.0000  0.1525  0.0400 </r>
        <r>  0.0000  0.0519  0.0000  0.0510  0.0000  0.1497  0.0000  0.1525  0.0400 </r>
       </set>
       <set comment="band 7">
        <r>  0.0000  0.0001  0.0004  0.0001  0.0373  0.0070  0.4347  0.0120  0.0027 </r>
        <r>  0.0000  0.0001  0.0004  0.0001  0.0373  0.0070  0.4347  0.0120  0.0027 </r>
       </set>
       <set comment="band 8">
        <r>  0.0000  0.0002  0.0000  0.0003  0.0002  0.0306  0.0027  0.0255  0.4347 </r>
        <r>  0.0000  0.0002  0.0000  0.0003  0.0002  0.0306  0.0027  0.0255  0.4347 </r>
       </set>
       <set comment="band 9">
        <r>  0.0000  0.0000  0.0000  0.0000  0.0141  0.0026  0.4703  0.0046  0.0033 </r>
        <r>  0.0000  0.0000  0.0000  0.0000  0.0141  0.0026  0.4703  0.0046  0.0033 </r>
       </set>
       <set comment="band 10">
        <r>  0.0000  0.0000  0.0000  0.0000  0.0001  0.0117  0.0033  0.0096  0.4703 </r>
        <r>  0.0000  0.0000  0.0000  0.0000  0.0001  0.0117  0.0033  0.0096  0.4703 </r>
       </set>
       <set comment="band 11">
        <r>  0.0389  0.0379  0.0379  0.0379  0.0992  0.0992  0.0000  0.0992  0.0000 </r>
        <r>  0.0389  0.0379  0.0379  0.0379  0.0992  0.0992  0.0000  0.0992  0.0000 </r>
       </set>
       <set comment="band 12">
        <r>  0.0000  0.0306  0.1267  0.0327  0.1409  0.0364  0.0258  0.0341  0.0000 </r>
        <r>  0.0000  0.0306  0.1267  0.0327  0.1409  0.0364  0.0258  0.0341  0.0000 </r>
       </set>
       <set comment="band 13">
        <r>  0.0000  0.0961  0.0000  0.0940  0.0000  0.1045  0.0000  0.1068  0.0258 </r>
        <r>  0.0000  0.0961  0.0000  0.0940  0.0000  0.1045  0.0000  0.1068  0.0258 </r>
       </set>
       <set comment="band 14">
        <r>  0.2773  0.0036  0.0036  0.0036  0.0440  0.0440  0.0000  0.0440  0.0000 </r>
        <r>  0.2773  0.0036  0.0036  0.0036  0.0440  0.0440  0.0000  0.0440  0.0000 </r>
       </set>
       <set comment="band 15">
        <r>  0.0000  0.0265  0.1178  0.0326  0.1401  0.0387  0.0138  0.0315  0.0000 </r>
        <r>  0.0000  0.0265  0.1178  0.0326  0.1401  0.0387  0.0138  0.0315  0.0000 </r>
       </set>
       <set comment="band 16">
        <r>  0.0000  0.0915  0.0001  0.0854  0.0001  0.1015  0.0000  0.1087  0.0138 </r>
        <r>  0.0000  0.0915  0.0001  0.0854  0.0001  0.1015  0.0000  0.1087  0.0138 </r>
       </set>
       <set comment="band 17">
        <r>  0.3147  0.0305  0.0305  0.0305  0.0000  0.0000  0.0000  0.0000  0.0000 </r>
        <r>  0.3147  0.0305  0.0305  0.0305  0.0000  0.0000  0.0000  0.0000  0.0000 </r>
       </set>
       <set comment="band 18">
        <r>  0.0982  0.0594  0.0594  0.0594  0.0375  0.0375  0.0000  0.0375  0.0000 </r>
        <r>  0.0982  0.0594  0.0594  0.0594  0.0375  0.0375  0.0000  0.0375  0.0000 </r>
       </set>
       <set comment="band 19">
        <r>  0.0000  0.0106  0.0002  0.0079  0.0005  0.0213  0.0014  0.0286  0.0874 </r>
        <r>  0.0000  0.0106  0.0002  0.0079  0.0005  0.0213  0.0014  0.0286  0.0874 </r>
       </set>
       <set comment="band 20">
        <r>  0.0000  0.0019  0.0123  0.0046  0.0330  0.0123  0.0874  0.0050  0.0014 </r>
        <r>  0.0000  0.0019  0.0123  0.0046  0.0330  0.0123  0.0874  0.0050  0.0014 </r>
       </set>
      </set>
      <set comment="kpoint 118">
       <set comment="band 1">
        <r>  0.0168  0.0178  0.0179  0.0023  0.1574  0.0892  0.0009  0.1574  0.0026 </r>
        <r>  0.0168  0.0178  0.0179  0.0023  0.1574  0.0892  0.0009  0.1574  0.0026 </r>
       </set>
       <set comment="band 2">
        <r>  0.0180  0.0299  0.0300  0.0002  0.1580  0.0538  0.0019  0.1579  0.0057 </r>
        <r>  0.0180  0.0299  0.0300  0.0002  0.1580  0.0538  0.0019  0.1579  0.0057 </r>
       </set>
       <set comment="band 3">
        <r>  0.0000  0.0322  0.0321  0.0000  0.1854  0.0000  0.0165  0.1856  0.0055 </r>
        <r>  0.0000  0.0322  0.0321  0.0000  0.1854  0.0000  0.0165  0.1856  0.0055 </r>
       </set>
       <set comment="band 4">
        <r>  0.0000  0.0414  0.0414  0.0000  0.1695  0.0000  0.0222  0.1696  0.0074 </r>
        <r>  0.0000  0.0414  0.0414  0.0000  0.1695  0.0000  0.0222  0.1696  0.0074 </r>
       </set>
       <set comment="band 5">
        <r>  0.0112  0.0116  0.0116  0.0839  0.0071  0.3121  0.0000  0.0071  0.0001 </r>
        <r>  0.0112  0.0116  0.0116  0.0839  0.0071  0.3121  0.0000  0.0071  0.0001 </r>
       </set>
       <set comment="band 6">
        <r>  0.0023  0.0148  0.0148  0.0821  0.0216  0.2747  0.0032  0.0216  0.0095 </r>
        <r>  0.0023  0.0148  0.0148  0.0821  0.0216  0.2747  0.0032  0.0216  0.0095 </r>
       </set>
       <set comment="band 7">
        <r>  0.0000  0.0001  0.0001  0.0000  0.0204  0.0000  0.3404  0.0203  0.1129 </r>
        <r>  0.0000  0.0001  0.0001  0.0000  0.0204  0.0000  0.3404  0.0203  0.1129 </r>
       </set>
       <set comment="band 8">
        <r>  0.0000  0.0000  0.0000  0.0000  0.0148  0.0000  0.3489  0.0148  0.1157 </r>
        <r>  0.0000  0.0000  0.0000  0.0000  0.0148  0.0000  0.3489  0.0148  0.1157 </r>
       </set>
       <set comment="band 9">
        <r>  0.0001  0.0000  0.0000  0.0001  0.0074  0.0088  0.1174  0.0074  0.3538 </r>
        <r>  0.0001  0.0000  0.0000  0.0001  0.0074  0.0088  0.1174  0.0074  0.3538 </r>
       </set>
       <set comment="band 10">
        <r>  0.0001  0.0000  0.0000  0.0000  0.0052  0.0003  0.1206  0.0053  0.3637 </r>
        <r>  0.0001  0.0000  0.0000  0.0000  0.0052  0.0003  0.1206  0.0053  0.3637 </r>
       </set>
       <set comment="band 11">
        <r>  0.0344  0.0364  0.0364  0.0633  0.0802  0.1079  0.0006  0.0802  0.0017 </r>
        <r>  0.0344  0.0364  0.0364  0.0633  0.0802  0.1079  0.0006  0.0802  0.0017 </r>
       </set>
       <set comment="band 12">
        <r>  0.0177  0.0350  0.0350  0.0964  0.0602  0.1169  0.0026  0.0602  0.0079 </r>
        <r>  0.0177  0.0350  0.0350  0.0964  0.0602  0.1169  0.0026  0.0602  0.0079 </r>
       </set>
       <set comment="band 13">
        <r>  0.0000  0.0946  0.0946  0.0000  0.1059  0.0000  0.0154  0.1059  0.0051 </r>
        <r>  0.0000  0.0946  0.0946  0.0000  0.1059  0.0000  0.0154  0.1059  0.0051 </r>
       </set>
       <set comment="band 14">
        <r>  0.0000  0.0924  0.0924  0.0000  0.1061  0.0000  0.0126  0.1061  0.0042 </r>
        <r>  0.0000  0.0924  0.0924  0.0000  0.1061  0.0000  0.0126  0.1061  0.0042 </r>
       </set>
       <set comment="band 15">
        <r>  0.2313  0.0011  0.0011  0.0456  0.0318  0.0714  0.0000  0.0318  0.0000 </r>
        <r>  0.2313  0.0011  0.0011  0.0456  0.0318  0.0714  0.0000  0.0318  0.0000 </r>
       </set>
       <set comment="band 16">
        <r>  0.1320  0.0033  0.0033  0.1057  0.0319  0.0959  0.0006  0.0319  0.0017 </r>
        <r>  0.1320  0.0033  0.0033  0.1057  0.0319  0.0959  0.0006  0.0319  0.0017 </r>
       </set>
       <set comment="band 17">
        <r>  0.2077  0.0593  0.0593  0.0096  0.0148  0.0321  0.0005  0.0148  0.0016 </r>
        <r>  0.2077  0.0593  0.0593  0.0096  0.0148  0.0321  0.0005  0.0148  0.0016 </r>
       </set>
       <set comment="band 18">
        <r>  0.1329  0.0619  0.0619  0.0378  0.0288  0.0404  0.0002  0.0288  0.0005 </r>
        <r>  0.1329  0.0619  0.0619  0.0378  0.0288  0.0404  0.0002  0.0288  0.0005 </r>
       </set>
       <set comment="band 19">
        <r>  0.0000  0.0059  0.0059  0.0000  0.0296  0.0000  0.0426  0.0296  0.0142 </r>
        <r>  0.0000  0.0059  0.0059  0.0000  0.0296  0.0000  0.0426  0.0296  0.0142 </r>
       </set>
       <set comment="band 20">
        <r>  0.0000  0.0020  0.0020  0.0000  0.0227  0.0000  0.0153  0.0227  0.0051 </r>
        <r>  0.0000  0.0020  0.0020  0.0000  0.0227  0.0000  0.0153  0.0227  0.0051 </r>
       </set>
      </set>
      <set comment="kpoint 119">
       <set comment="band 1">
        <r>  0.0112  0.0065  0.0386  0.0065  0.2325  0.0785  0.0068  0.0785  0.0000 </r>
        <r>  0.0112  0.0065  0.0386  0.0065  0.2325  0.0785  0.0068  0.0785  0.0000 </r>
       </set>
       <set comment="band 2">
        <r>  0.0118  0.0003  0.0712  0.0003  0.3527  0.0002  0.0157  0.0002  0.0000 </r>
        <r>  0.0118  0.0003  0.0712  0.0003  0.3527  0.0002  0.0157  0.0002  0.0000 </r>
       </set>
       <set comment="band 3">
        <r>  0.0000  0.0256  0.0000  0.0256  0.0000  0.2050  0.0000  0.2050  0.0019 </r>
        <r>  0.0000  0.0256  0.0000  0.0256  0.0000  0.2050  0.0000  0.2050  0.0019 </r>
       </set>
       <set comment="band 4">
        <r>  0.0009  0.0193  0.0332  0.0193  0.1200  0.1256  0.0121  0.1256  0.0000 </r>
        <r>  0.0009  0.0193  0.0332  0.0193  0.1200  0.1256  0.0121  0.1256  0.0000 </r>
       </set>
       <set comment="band 5">
        <r>  0.0040  0.0560  0.0005  0.0559  0.0004  0.1636  0.0007  0.1636  0.0000 </r>
        <r>  0.0040  0.0560  0.0005  0.0559  0.0004  0.1636  0.0007  0.1636  0.0000 </r>
       </set>
       <set comment="band 6">
        <r>  0.0000  0.0562  0.0000  0.0562  0.0000  0.1641  0.0000  0.1641  0.0048 </r>
        <r>  0.0000  0.0562  0.0000  0.0562  0.0000  0.1641  0.0000  0.1641  0.0048 </r>
       </set>
       <set comment="band 7">
        <r>  0.0001  0.0000  0.0001  0.0000  0.0242  0.0010  0.4684  0.0010  0.0000 </r>
        <r>  0.0001  0.0000  0.0001  0.0000  0.0242  0.0010  0.4684  0.0010  0.0000 </r>
       </set>
       <set comment="band 8">
        <r>  0.0001  0.0000  0.0001  0.0000  0.0217  0.0004  0.4722  0.0004  0.0000 </r>
        <r>  0.0001  0.0000  0.0001  0.0000  0.0217  0.0004  0.4722  0.0004  0.0000 </r>
       </set>
       <set comment="band 9">
        <r>  0.0000  0.0000  0.0000  0.0000  0.0000  0.0035  0.0000  0.0035  0.4883 </r>
        <r>  0.0000  0.0000  0.0000  0.0000  0.0000  0.0035  0.0000  0.0035  0.4883 </r>
       </set>
       <set comment="band 10">
        <r>  0.0000  0.0000  0.0000  0.0000  0.0000  0.0013  0.0000  0.0013  0.4928 </r>
        <r>  0.0000  0.0000  0.0000  0.0000  0.0000  0.0013  0.0000  0.0013  0.4928 </r>
       </set>
       <set comment="band 11">
        <r>  0.0231  0.0687  0.0216  0.0687  0.0450  0.1023  0.0006  0.1023  0.0000 </r>
        <r>  0.0231  0.0687  0.0216  0.0687  0.0450  0.1023  0.0006  0.1023  0.0000 </r>
       </set>
       <set comment="band 12">
        <r>  0.0000  0.0931  0.0000  0.0931  0.0000  0.1180  0.0000  0.1180  0.0032 </r>
        <r>  0.0000  0.0931  0.0000  0.0931  0.0000  0.1180  0.0000  0.1180  0.0032 </r>
       </set>
       <set comment="band 13">
        <r>  0.0627  0.0073  0.1240  0.0073  0.2028  0.0050  0.0123  0.0050  0.0000 </r>
        <r>  0.0627  0.0073  0.1240  0.0073  0.2028  0.0050  0.0123  0.0050  0.0000 </r>
       </set>
       <set comment="band 14">
        <r>  0.0600  0.0228  0.0985  0.0228  0.1683  0.0191  0.0101  0.0191  0.0000 </r>
        <r>  0.0600  0.0228  0.0985  0.0228  0.1683  0.0191  0.0101  0.0191  0.0000 </r>
       </set>
       <set comment="band 15">
        <r>  0.1344  0.0522  0.0044  0.0522  0.0016  0.0820  0.0006  0.0820  0.0000 </r>
        <r>  0.1344  0.0522  0.0044  0.0522  0.0016  0.0820  0.0006  0.0820  0.0000 </r>
       </set>
       <set comment="band 16">
        <r>  0.0000  0.0895  0.0000  0.0895  0.0000  0.1110  0.0000  0.1110  0.0016 </r>
        <r>  0.0000  0.0895  0.0000  0.0895  0.0000  0.1110  0.0000  0.1110  0.0016 </r>
       </set>
       <set comment="band 17">
        <r>  0.3073  0.0019  0.0754  0.0019  0.0165  0.0003  0.0017  0.0003  0.0000 </r>
        <r>  0.3073  0.0019  0.0754  0.0019  0.0165  0.0003  0.0017  0.0003  0.0000 </r>
       </set>
       <set comment="band 18">
        <r>  0.1961  0.0307  0.0676  0.0307  0.0234  0.0252  0.0009  0.0252  0.0000 </r>
        <r>  0.1961  0.0307  0.0676  0.0307  0.0234  0.0252  0.0009  0.0252  0.0000 </r>
       </set>
       <set comment="band 19">
        <r>  0.0001  0.0006  0.0042  0.0006  0.0084  0.0356  0.0221  0.0356  0.0000 </r>
        <r>  0.0001  0.0006  0.0042  0.0006  0.0084  0.0356  0.0221  0.0356  0.0000 </r>
       </set>
       <set comment="band 20">
        <r>  0.0000  0.0003  0.0000  0.0003  0.0000  0.0371  0.0000  0.0371  0.0011 </r>
        <r>  0.0000  0.0003  0.0000  0.0003  0.0000  0.0371  0.0000  0.0371  0.0011 </r>
       </set>
      </set>
      <set comment="kpoint 120">
       <set comment="band 1">
        <r>  0.0034  0.0197  0.0198  0.0197  0.1324  0.1323  0.0000  0.1323  0.0000 </r>
        <r>  0.0034  0.0197  0.0198  0.0197  0.1324  0.1323  0.0000  0.1323  0.0000 </r>
       </set>
       <set comment="band 2">
        <r>  0.0000  0.0104  0.0461  0.0127  0.2571  0.0706  0.0026  0.0581  0.0000 </r>
        <r>  0.0000  0.0104  0.0461  0.0127  0.2571  0.0706  0.0026  0.0581  0.0000 </r>
       </set>
       <set comment="band 3">
        <r>  0.0000  0.0357  0.0000  0.0335  0.0002  0.1865  0.0000  0.1990  0.0026 </r>
        <r>  0.0000  0.0357  0.0000  0.0335  0.0002  0.1865  0.0000  0.1990  0.0026 </r>
       </set>
       <set comment="band 4">
        <r>  0.0000  0.0136  0.0597  0.0164  0.2388  0.0655  0.0035  0.0543  0.0000 </r>
        <r>  0.0000  0.0136  0.0597  0.0164  0.2388  0.0655  0.0035  0.0543  0.0000 </r>
       </set>
       <set comment="band 5">
        <r>  0.0000  0.0462  0.0000  0.0434  0.0002  0.1736  0.0000  0.1848  0.0035 </r>
        <r>  0.0000  0.0462  0.0000  0.0434  0.0002  0.1736  0.0000  0.1848  0.0035 </r>
       </set>
       <set comment="band 6">
        <r>  0.0046  0.0333  0.0333  0.0333  0.1143  0.1145  0.0000  0.1145  0.0000 </r>
        <r>  0.0046  0.0333  0.0333  0.0333  0.1143  0.1145  0.0000  0.1145  0.0000 </r>
       </set>
       <set comment="band 7">
        <r>  0.0000  0.0000  0.0000  0.0000  0.0032  0.0006  0.4869  0.0011  0.0036 </r>
        <r>  0.0000  0.0000  0.0000  0.0000  0.0032  0.0006  0.4869  0.0011  0.0036 </r>
       </set>
       <set comment="band 8">
        <r>  0.0000  0.0000  0.0000  0.0000  0.0000  0.0027  0.0036  0.0022  0.4869 </r>
        <r>  0.0000  0.0000  0.0000  0.0000  0.0000  0.0027  0.0036  0.0022  0.4869 </r>
       </set>
       <set comment="band 9">
        <r>  0.0000  0.0000  0.0000  0.0000  0.0023  0.0004  0.4882  0.0008  0.0037 </r>
        <r>  0.0000  0.0000  0.0000  0.0000  0.0023  0.0004  0.4882  0.0008  0.0037 </r>
       </set>
       <set comment="band 10">
        <r>  0.0000  0.0000  0.0000  0.0000  0.0000  0.0019  0.0037  0.0016  0.4882 </r>
        <r>  0.0000  0.0000  0.0000  0.0000  0.0000  0.0019  0.0037  0.0016  0.4882 </r>
       </set>
       <set comment="band 11">
        <r>  0.0199  0.0563  0.0563  0.0563  0.0790  0.0790  0.0000  0.0790  0.0000 </r>
        <r>  0.0199  0.0563  0.0563  0.0563  0.0790  0.0790  0.0000  0.0790  0.0000 </r>
       </set>
       <set comment="band 12">
        <r>  0.0000  0.0265  0.1249  0.0363  0.1528  0.0445  0.0025  0.0324  0.0000 </r>
        <r>  0.0000  0.0265  0.1249  0.0363  0.1528  0.0445  0.0025  0.0324  0.0000 </r>
       </set>
       <set comment="band 13">
        <r>  0.0000  0.0986  0.0003  0.0888  0.0003  0.1087  0.0000  0.1207  0.0025 </r>
        <r>  0.0000  0.0986  0.0003  0.0888  0.0003  0.1087  0.0000  0.1207  0.0025 </r>
       </set>
       <set comment="band 14">
        <r>  0.0000  0.0255  0.1230  0.0366  0.1501  0.0446  0.0020  0.0311  0.0000 </r>
        <r>  0.0000  0.0255  0.1230  0.0366  0.1501  0.0446  0.0020  0.0311  0.0000 </r>
       </set>
       <set comment="band 15">
        <r>  0.0000  0.0979  0.0003  0.0868  0.0004  0.1059  0.0000  0.1195  0.0020 </r>
        <r>  0.0000  0.0979  0.0003  0.0868  0.0004  0.1059  0.0000  0.1195  0.0020 </r>
       </set>
       <set comment="band 16">
        <r>  0.1065  0.0394  0.0394  0.0394  0.0633  0.0633  0.0000  0.0633  0.0000 </r>
        <r>  0.1065  0.0394  0.0394  0.0394  0.0633  0.0633  0.0000  0.0633  0.0000 </r>
       </set>
       <set comment="band 17">
        <r>  0.3849  0.0072  0.0072  0.0072  0.0008  0.0008  0.0000  0.0008  0.0000 </r>
        <r>  0.3849  0.0072  0.0072  0.0072  0.0008  0.0008  0.0000  0.0008  0.0000 </r>
       </set>
       <set comment="band 18">
        <r>  0.2993  0.0224  0.0224  0.0224  0.0131  0.0131  0.0000  0.0131  0.0000 </r>
        <r>  0.2993  0.0224  0.0224  0.0224  0.0131  0.0131  0.0000  0.0131  0.0000 </r>
       </set>
       <set comment="band 19">
        <r>  0.0000  0.0007  0.0005  0.0004  0.0027  0.0026  0.0015  0.0043  0.0020 </r>
        <r>  0.0000  0.0007  0.0005  0.0004  0.0027  0.0026  0.0015  0.0043  0.0020 </r>
       </set>
       <set comment="band 20">
        <r>  0.0000  0.0015  0.0027  0.0028  0.0165  0.0172  0.0090  0.0093  0.0066 </r>
        <r>  0.0000  0.0015  0.0027  0.0028  0.0165  0.0172  0.0090  0.0093  0.0066 </r>
       </set>
      </set>
     </set>
    </set>
   </array>
  </projected>
 </calculation>
 <structure name="finalpos" >
  <crystal>
   <varray name="basis" >
    <v>       2.80119389      -0.00000000       0.00000000 </v>
    <v>       0.00000000       2.80119389       0.00000000 </v>
    <v>      -0.00000000      -0.00000000       2.80119389 </v>
   </varray>
   <i name="volume">     21.98009230 </i>
   <varray name="rec_basis" >
    <v>       0.35699064      -0.00000000       0.00000000 </v>
    <v>       0.00000000       0.35699064       0.00000000 </v>
    <v>      -0.00000000      -0.00000000       0.35699064 </v>
   </varray>
  </crystal>
  <varray name="positions" >
   <v>       0.00000000       0.00000000      -0.00000000 </v>
   <v>       0.50000000       0.50000000       0.50000000 </v>
  </varray>
 </structure>
</modeling>
