unknown system                          
           1
     2.863035    0.000000    0.000000
     0.000000    2.863035    0.000000
     0.000000    0.000000    2.863035
   Fe
     2
Direct configuration=     1
   0.00000000  0.00000000  0.00000000
   0.50000000  0.50000000  0.50000000
unknown system                          
           1
     2.690673   -0.000000    0.000000
     0.000000    2.690673    0.000000
    -0.000000   -0.000000    2.690673
   Fe
     2
Direct configuration=     2
   0.00000000  0.00000000 -0.00000000
   0.50000000  0.50000000  0.50000000
unknown system                          
           1
     2.802957   -0.000000    0.000000
     0.000000    2.802957    0.000000
    -0.000000   -0.000000    2.802957
   Fe
     2
Direct configuration=     3
   0.00000000  0.00000000 -0.00000000
   0.50000000  0.50000000  0.50000000
unknown system                          
           1
     2.801414   -0.000000    0.000000
     0.000000    2.801414    0.000000
    -0.000000   -0.000000    2.801414
   Fe
     2
Direct configuration=     4
   0.00000000  0.00000000 -0.00000000
   0.50000000  0.50000000  0.50000000
unknown system                          
           1
     2.801194   -0.000000    0.000000
     0.000000    2.801194    0.000000
    -0.000000   -0.000000    2.801194
   Fe
     2
Direct configuration=     5
   0.00000000  0.00000000 -0.00000000
   0.50000000  0.50000000  0.50000000
