unknown system                          
   1.00000000000000     
     2.790826   -0.000000    0.000000
     0.000000    2.790826    0.000000
    -0.000000   -0.000000    2.790826
   Fe
     2
Direct
  0.000000  0.000000  0.000000
  0.500000  0.500000  0.500000
 
   36   36   36
  199.16      194.19      179.95      158.39      132.24      104.54      78.081      55.041      36.734      23.569    
  15.157      10.506      8.3300      7.2622      6.5017      5.9856      5.6686      5.5074      5.4557      5.5074    
  5.6686      5.9856      6.5017      7.2622      8.3300      10.506      15.157      23.569      36.734      55.041    
  78.081      104.54      132.24      158.39      179.95      194.19      194.19      189.36      175.53      154.57    
  129.12      102.12      76.310      53.813      35.939      23.096      14.909      10.400      8.2960      7.2467    
  6.4919      5.9822      5.6687      5.5099      5.4586      5.5099      5.6687      5.9822      6.4919      7.2467    
  8.2960      10.400      14.909      23.096      35.939      53.813      76.310      102.12      129.12      154.57    
  175.53      189.36      179.95      175.53      162.86      143.59      120.13      95.143      71.182      50.258    
  33.635      21.732      14.202      10.104      8.2001      7.1993      6.4631      5.9717      5.6691      5.5169    
  5.4671      5.5169      5.6691      5.9717      6.4631      7.1993      8.2001      10.104      14.202      21.732    
  33.635      50.258      71.182      95.143      120.13      143.59      162.86      175.53      158.39      154.57    
  143.59      126.84      106.33      84.387      63.246      44.746      30.078      19.649      13.142      9.6731    
  8.0557      7.1180      6.4162      5.9538      5.6697      5.5273      5.4805      5.5273      5.6697      5.9538    
  6.4162      7.1180      8.0557      9.6731      13.142      19.649      30.078      44.746      63.246      84.387    
  106.33      126.84      143.59      154.57      132.24      129.12      120.13      106.33      89.346      71.059    
  53.376      37.900      25.691      17.126      11.899      9.1883      7.8749      7.0015      6.3541      5.9282    
  5.6704      5.5389      5.4978      5.5389      5.6704      5.9282      6.3541      7.0015      7.8749      9.1883    
  11.899      17.126      25.691      37.900      53.376      71.059      89.346      106.33      120.13      129.12    
  104.54      102.12      95.143      84.387      71.059      56.649      42.689      30.521      21.033      14.522    
  10.673      8.7221      7.6576      6.8550      6.2788      5.8966      5.6703      5.5509      5.5164      5.5509    
  5.6703      5.8966      6.2788      6.8550      7.6576      8.7221      10.673      14.522      21.033      30.521    
  42.689      56.649      71.059      84.387      95.143      102.12      78.081      76.310      71.182      63.246    
  53.376      42.689      32.377      23.487      16.699      12.194      9.6345      8.3001      7.3985      6.6908    
  6.1927      5.8625      5.6667      5.5629      5.5327      5.5629      5.6667      5.8625      6.1927      6.6908    
  7.3985      8.3001      9.6345      12.194      16.699      23.487      32.377      42.689      53.376      63.246    
  71.182      76.310      55.041      53.813      50.258      44.746      37.900      30.521      23.487      17.551    
  13.176      10.395      8.8499      7.8887      7.1110      6.5206      6.1008      5.8274      5.6596      5.5733    
  5.5451      5.5733      5.6596      5.8274      6.1008      6.5206      7.1110      7.8887      8.8499      10.395    
  13.176      17.551      23.487      30.521      37.900      44.746      50.258      53.813      36.734      35.939    
  33.635      30.078      25.691      21.033      16.699      13.176      10.697      9.1823      8.2330      7.4590    
  6.8265      6.3498      6.0133      5.7893      5.6514      5.5773      5.5544      5.5773      5.6514      5.7893    
  6.0133      6.3498      6.8265      7.4590      8.2330      9.1823      10.697      13.176      16.699      21.033    
  25.691      30.078      33.635      35.939      23.569      23.096      21.732      19.649      17.126      14.522    
  12.194      10.395      9.1823      8.3581      7.6565      7.0464      6.5594      6.1919      5.9299      5.7517    
  5.6392      5.5771      5.5576      5.5771      5.6392      5.7517      5.9299      6.1919      6.5594      7.0464    
  7.6565      8.3581      9.1823      10.395      12.194      14.522      17.126      19.649      21.732      23.096    
  15.157      14.909      14.202      13.142      11.899      10.673      9.6345      8.8499      8.2330      7.6565    
  7.1267      6.6799      6.3226      6.0516      5.8536      5.7151      5.6235      5.5715      5.5544      5.5715    
  5.6235      5.7151      5.8536      6.0516      6.3226      6.6799      7.1267      7.6565      8.2330      8.8499    
  9.6345      10.673      11.899      13.142      14.202      14.909      10.506      10.400      10.104      9.6731    
  9.1883      8.7221      8.3001      7.8887      7.4590      7.0464      6.6799      6.3707      6.1229      5.9306    
  5.7848      5.6771      5.6031      5.5594      5.5451      5.5594      5.6031      5.6771      5.7848      5.9306    
  6.1229      6.3707      6.6799      7.0464      7.4590      7.8887      8.3001      8.7221      9.1883      9.6731    
  10.104      10.400      8.3300      8.2960      8.2001      8.0557      7.8749      7.6576      7.3985      7.1110    
  6.8265      6.5594      6.3226      6.1229      5.9593      5.8268      5.7209      5.6396      5.5808      5.5449    
  5.5327      5.5449      5.5808      5.6396      5.7209      5.8268      5.9593      6.1229      6.3226      6.5594    
  6.8265      7.1110      7.3985      7.6576      7.8749      8.0557      8.2001      8.2960      7.2622      7.2467    
  7.1993      7.1180      7.0015      6.8550      6.6908      6.5206      6.3498      6.1919      6.0516      5.9306    
  5.8268      5.7379      5.6639      5.6029      5.5564      5.5266      5.5164      5.5266      5.5564      5.6029    
  5.6639      5.7379      5.8268      5.9306      6.0516      6.1919      6.3498      6.5206      6.6908      6.8550    
  7.0015      7.1180      7.1993      7.2467      6.5017      6.4919      6.4631      6.4162      6.3541      6.2788    
  6.1927      6.1008      6.0133      5.9299      5.8536      5.7848      5.7209      5.6639      5.6121      5.5664    
  5.5297      5.5061      5.4978      5.5061      5.5297      5.5664      5.6121      5.6639      5.7209      5.7848    
  5.8536      5.9299      6.0133      6.1008      6.1927      6.2788      6.3541      6.4162      6.4631      6.4919    
  5.9856      5.9822      5.9717      5.9538      5.9282      5.8966      5.8625      5.8274      5.7893      5.7517    
  5.7151      5.6771      5.6396      5.6029      5.5664      5.5323      5.5047      5.4868      5.4805      5.4868    
  5.5047      5.5323      5.5664      5.6029      5.6396      5.6771      5.7151      5.7517      5.7893      5.8274    
  5.8625      5.8966      5.9282      5.9538      5.9717      5.9822      5.6686      5.6687      5.6691      5.6697    
  5.6704      5.6703      5.6667      5.6596      5.6514      5.6392      5.6235      5.6031      5.5808      5.5564    
  5.5297      5.5047      5.4845      5.4716      5.4671      5.4716      5.4845      5.5047      5.5297      5.5564    
  5.5808      5.6031      5.6235      5.6392      5.6514      5.6596      5.6667      5.6703      5.6704      5.6697    
  5.6691      5.6687      5.5074      5.5099      5.5169      5.5273      5.5389      5.5509      5.5629      5.5733    
  5.5773      5.5771      5.5715      5.5594      5.5449      5.5266      5.5061      5.4868      5.4716      5.4619    
  5.4586      5.4619      5.4716      5.4868      5.5061      5.5266      5.5449      5.5594      5.5715      5.5771    
  5.5773      5.5733      5.5629      5.5509      5.5389      5.5273      5.5169      5.5099      5.4557      5.4586    
  5.4671      5.4805      5.4978      5.5164      5.5327      5.5451      5.5544      5.5576      5.5544      5.5451    
  5.5327      5.5164      5.4978      5.4805      5.4671      5.4586      5.4557      5.4586      5.4671      5.4805    
  5.4978      5.5164      5.5327      5.5451      5.5544      5.5576      5.5544      5.5451      5.5327      5.5164    
  5.4978      5.4805      5.4671      5.4586      5.5074      5.5099      5.5169      5.5273      5.5389      5.5509    
  5.5629      5.5733      5.5773      5.5771      5.5715      5.5594      5.5449      5.5266      5.5061      5.4868    
  5.4716      5.4619      5.4586      5.4619      5.4716      5.4868      5.5061      5.5266      5.5449      5.5594    
  5.5715      5.5771      5.5773      5.5733      5.5629      5.5509      5.5389      5.5273      5.5169      5.5099    
  5.6686      5.6687      5.6691      5.6697      5.6704      5.6703      5.6667      5.6596      5.6514      5.6392    
  5.6235      5.6031      5.5808      5.5564      5.5297      5.5047      5.4845      5.4716      5.4671      5.4716    
  5.4845      5.5047      5.5297      5.5564      5.5808      5.6031      5.6235      5.6392      5.6514      5.6596    
  5.6667      5.6703      5.6704      5.6697      5.6691      5.6687      5.9856      5.9822      5.9717      5.9538    
  5.9282      5.8966      5.8625      5.8274      5.7893      5.7517      5.7151      5.6771      5.6396      5.6029    
  5.5664      5.5323      5.5047      5.4868      5.4805      5.4868      5.5047      5.5323      5.5664      5.6029    
  5.6396      5.6771      5.7151      5.7517      5.7893      5.8274      5.8625      5.8966      5.9282      5.9538    
  5.9717      5.9822      6.5017      6.4919      6.4631      6.4162      6.3541      6.2788      6.1927      6.1008    
  6.0133      5.9299      5.8536      5.7848      5.7209      5.6639      5.6121      5.5664      5.5297      5.5061    
  5.4978      5.5061      5.5297      5.5664      5.6121      5.6639      5.7209      5.7848      5.8536      5.9299    
  6.0133      6.1008      6.1927      6.2788      6.3541      6.4162      6.4631      6.4919      7.2622      7.2467    
  7.1993      7.1180      7.0015      6.8550      6.6908      6.5206      6.3498      6.1919      6.0516      5.9306    
  5.8268      5.7379      5.6639      5.6029      5.5564      5.5266      5.5164      5.5266      5.5564      5.6029    
  5.6639      5.7379      5.8268      5.9306      6.0516      6.1919      6.3498      6.5206      6.6908      6.8550    
  7.0015      7.1180      7.1993      7.2467      8.3300      8.2960      8.2001      8.0557      7.8749      7.6576    
  7.3985      7.1110      6.8265      6.5594      6.3226      6.1229      5.9593      5.8268      5.7209      5.6396    
  5.5808      5.5449      5.5327      5.5449      5.5808      5.6396      5.7209      5.8268      5.9593      6.1229    
  6.3226      6.5594      6.8265      7.1110      7.3985      7.6576      7.8749      8.0557      8.2001      8.2960    
  10.506      10.400      10.104      9.6731      9.1883      8.7221      8.3001      7.8887      7.4590      7.0464    
  6.6799      6.3707      6.1229      5.9306      5.7848      5.6771      5.6031      5.5594      5.5451      5.5594    
  5.6031      5.6771      5.7848      5.9306      6.1229      6.3707      6.6799      7.0464      7.4590      7.8887    
  8.3001      8.7221      9.1883      9.6731      10.104      10.400      15.157      14.909      14.202      13.142    
  11.899      10.673      9.6345      8.8499      8.2330      7.6565      7.1267      6.6799      6.3226      6.0516    
  5.8536      5.7151      5.6235      5.5715      5.5544      5.5715      5.6235      5.7151      5.8536      6.0516    
  6.3226      6.6799      7.1267      7.6565      8.2330      8.8499      9.6345      10.673      11.899      13.142    
  14.202      14.909      23.569      23.096      21.732      19.649      17.126      14.522      12.194      10.395    
  9.1823      8.3581      7.6565      7.0464      6.5594      6.1919      5.9299      5.7517      5.6392      5.5771    
  5.5576      5.5771      5.6392      5.7517      5.9299      6.1919      6.5594      7.0464      7.6565      8.3581    
  9.1823      10.395      12.194      14.522      17.126      19.649      21.732      23.096      36.734      35.939    
  33.635      30.078      25.691      21.033      16.699      13.176      10.697      9.1823      8.2330      7.4590    
  6.8265      6.3498      6.0133      5.7893      5.6514      5.5773      5.5544      5.5773      5.6514      5.7893    
  6.0133      6.3498      6.8265      7.4590      8.2330      9.1823      10.697      13.176      16.699      21.033    
  25.691      30.078      33.635      35.939      55.041      53.813      50.258      44.746      37.900      30.521    
  23.487      17.551      13.176      10.395      8.8499      7.8887      7.1110      6.5206      6.1008      5.8274    
  5.6596      5.5733      5.5451      5.5733      5.6596      5.8274      6.1008      6.5206      7.1110      7.8887    
  8.8499      10.395      13.176      17.551      23.487      30.521      37.900      44.746      50.258      53.813    
  78.081      76.310      71.182      63.246      53.376      42.689      32.377      23.487      16.699      12.194    
  9.6345      8.3001      7.3985      6.6908      6.1927      5.8625      5.6667      5.5629      5.5327      5.5629    
  5.6667      5.8625      6.1927      6.6908      7.3985      8.3001      9.6345      12.194      16.699      23.487    
  32.377      42.689      53.376      63.246      71.182      76.310      104.54      102.12      95.143      84.387    
  71.059      56.649      42.689      30.521      21.033      14.522      10.673      8.7221      7.6576      6.8550    
  6.2788      5.8966      5.6703      5.5509      5.5164      5.5509      5.6703      5.8966      6.2788      6.8550    
  7.6576      8.7221      10.673      14.522      21.033      30.521      42.689      56.649      71.059      84.387    
  95.143      102.12      132.24      129.12      120.13      106.33      89.346      71.059      53.376      37.900    
  25.691      17.126      11.899      9.1883      7.8749      7.0015      6.3541      5.9282      5.6704      5.5389    
  5.4978      5.5389      5.6704      5.9282      6.3541      7.0015      7.8749      9.1883      11.899      17.126    
  25.691      37.900      53.376      71.059      89.346      106.33      120.13      129.12      158.39      154.57    
  143.59      126.84      106.33      84.387      63.246      44.746      30.078      19.649      13.142      9.6731    
  8.0557      7.1180      6.4162      5.9538      5.6697      5.5273      5.4805      5.5273      5.6697      5.9538    
  6.4162      7.1180      8.0557      9.6731      13.142      19.649      30.078      44.746      63.246      84.387    
  106.33      126.84      143.59      154.57      179.95      175.53      162.86      143.59      120.13      95.143    
  71.182      50.258      33.635      21.732      14.202      10.104      8.2001      7.1993      6.4631      5.9717    
  5.6691      5.5169      5.4671      5.5169      5.6691      5.9717      6.4631      7.1993      8.2001      10.104    
  14.202      21.732      33.635      50.258      71.182      95.143      120.13      143.59      162.86      175.53    
  194.19      189.36      175.53      154.57      129.12      102.12      76.310      53.813      35.939      23.096    
  14.909      10.400      8.2960      7.2467      6.4919      5.9822      5.6687      5.5099      5.4586      5.5099    
  5.6687      5.9822      6.4919      7.2467      8.2960      10.400      14.909      23.096      35.939      53.813    
  76.310      102.12      129.12      154.57      175.53      189.36      194.19      189.36      175.53      154.57    
  129.12      102.12      76.310      53.813      35.939      23.096      14.909      10.400      8.2960      7.2467    
  6.4919      5.9822      5.6687      5.5099      5.4586      5.5099      5.6687      5.9822      6.4919      7.2467    
  8.2960      10.400      14.909      23.096      35.939      53.813      76.310      102.12      129.12      154.57    
  175.53      189.36      189.36      184.66      171.23      150.85      126.08      99.763      74.578      52.612    
  35.161      22.634      14.668      10.299      8.2638      7.2316      6.4828      5.9792      5.6693      5.5128    
  5.4619      5.5128      5.6693      5.9792      6.4828      7.2316      8.2638      10.299      14.668      22.634    
  35.161      52.612      74.578      99.763      126.08      150.85      171.23      184.66      175.53      171.23    
  158.91      140.17      117.31      92.948      69.563      49.132      32.907      21.303      13.982      10.014    
  8.1725      7.1856      6.4556      5.9701      5.6710      5.5209      5.4716      5.5209      5.6710      5.9701    
  6.4556      7.1856      8.1725      10.014      13.982      21.303      32.907      49.132      69.563      92.948    
  117.31      140.17      158.91      171.23      154.57      150.85      140.17      123.85      103.86      82.442    
  61.802      43.741      29.430      19.273      12.957      9.6024      8.0343      7.1062      6.4116      5.9542    
  5.6737      5.5327      5.4868      5.5327      5.6737      5.9542      6.4116      7.1062      8.0343      9.6024    
  12.957      19.273      29.430      43.741      61.802      82.442      103.86      123.85      140.17      150.85    
  129.12      126.08      117.31      103.86      87.277      69.422      52.154      37.051      25.149      16.821    
  11.757      9.1390      7.8593      6.9928      6.3526      5.9311      5.6768      5.5464      5.5061      5.5464    
  5.6768      5.9311      6.3526      6.9928      7.8593      9.1390      11.757      16.821      25.149      37.051    
  52.154      69.422      87.277      103.86      117.31      126.08      102.12      99.763      92.948      82.442    
  69.422      55.345      41.716      29.850      20.614      14.297      10.576      8.6925      7.6460      6.8502    
  6.2807      5.9026      5.6788      5.5606      5.5266      5.5606      5.6788      5.9026      6.2807      6.8502    
  7.6460      8.6925      10.576      14.297      20.614      29.850      41.716      55.345      69.422      82.442    
  92.948      99.763      76.310      74.578      69.563      61.802      52.154      41.716      31.656      22.998    
  16.406      12.048      9.5799      8.2835      7.3906      6.6906      6.1978      5.8716      5.6776      5.5751    
  5.5449      5.5751      5.6776      5.8716      6.1978      6.6906      7.3906      8.2835      9.5799      12.048    
  16.406      22.998      31.656      41.716      52.154      61.802      69.563      74.578      53.813      52.612    
  49.132      43.741      37.051      29.850      22.998      17.232      12.998      10.316      8.8246      7.8783    
  7.1081      6.5247      6.1098      5.8394      5.6730      5.5874      5.5594      5.5874      5.6730      5.8394    
  6.1098      6.5247      7.1081      7.8783      8.8246      10.316      12.998      17.232      22.998      29.850    
  37.051      43.741      49.132      52.612      35.939      35.161      32.907      29.430      25.149      20.614    
  16.406      12.998      10.608      9.1497      8.2205      7.4539      6.8292      6.3582      6.0256      5.8040    
  5.6676      5.5942      5.5715      5.5942      5.6676      5.8040      6.0256      6.3582      6.8292      7.4539    
  8.2205      9.1497      10.608      12.998      16.406      20.614      25.149      29.430      32.907      35.161    
  23.096      22.634      21.303      19.273      16.821      14.297      12.048      10.316      9.1497      8.3445    
  7.6502      7.0479      6.5671      6.2044      5.9460      5.7700      5.6583      5.5966      5.5771      5.5966    
  5.6583      5.7700      5.9460      6.2044      6.5671      7.0479      7.6502      8.3445      9.1497      10.316    
  12.048      14.297      16.821      19.273      21.303      22.634      14.909      14.668      13.982      12.957    
  11.757      10.576      9.5799      8.8246      8.2205      7.6502      7.1277      6.6872      6.3353      6.0687    
  5.8730      5.7359      5.6453      5.5942      5.5773      5.5942      5.6453      5.7359      5.8730      6.0687    
  6.3353      6.6872      7.1277      7.6502      8.2205      8.8246      9.5799      10.576      11.757      12.957    
  13.982      14.668      10.400      10.299      10.014      9.6024      9.1390      8.6925      8.2835      7.8783    
  7.4539      7.0479      6.6872      6.3835      6.1403      5.9506      5.8076      5.7028      5.6305      5.5874    
  5.5733      5.5874      5.6305      5.7028      5.8076      5.9506      6.1403      6.3835      6.6872      7.0479    
  7.4539      7.8783      8.2835      8.6925      9.1390      9.6024      10.014      10.299      8.2960      8.2638    
  8.1725      8.0343      7.8593      7.6460      7.3906      7.1081      6.8292      6.5671      6.3353      6.1403    
  5.9796      5.8512      5.7490      5.6692      5.6108      5.5751      5.5629      5.5751      5.6108      5.6692    
  5.7490      5.8512      5.9796      6.1403      6.3353      6.5671      6.8292      7.1081      7.3906      7.6460    
  7.8593      8.0343      8.1725      8.2638      7.2467      7.2316      7.1856      7.1062      6.9928      6.8502    
  6.6906      6.5247      6.3582      6.2044      6.0687      5.9506      5.8512      5.7667      5.6941      5.6342    
  5.5890      5.5606      5.5509      5.5606      5.5890      5.6342      5.6941      5.7667      5.8512      5.9506    
  6.0687      6.2044      6.3582      6.5247      6.6906      6.8502      6.9928      7.1062      7.1856      7.2316    
  6.4919      6.4828      6.4556      6.4116      6.3526      6.2807      6.1978      6.1098      6.0256      5.9460    
  5.8730      5.8076      5.7490      5.6941      5.6441      5.6014      5.5680      5.5464      5.5389      5.5464    
  5.5680      5.6014      5.6441      5.6941      5.7490      5.8076      5.8730      5.9460      6.0256      6.1098    
  6.1978      6.2807      6.3526      6.4116      6.4556      6.4828      5.9822      5.9792      5.9701      5.9542    
  5.9311      5.9026      5.8716      5.8394      5.8040      5.7700      5.7359      5.7028      5.6692      5.6342    
  5.6014      5.5721      5.5485      5.5327      5.5273      5.5327      5.5485      5.5721      5.6014      5.6342    
  5.6692      5.7028      5.7359      5.7700      5.8040      5.8394      5.8716      5.9026      5.9311      5.9542    
  5.9701      5.9792      5.6687      5.6693      5.6710      5.6737      5.6768      5.6788      5.6776      5.6730    
  5.6676      5.6583      5.6453      5.6305      5.6108      5.5890      5.5680      5.5485      5.5320      5.5209    
  5.5169      5.5209      5.5320      5.5485      5.5680      5.5890      5.6108      5.6305      5.6453      5.6583    
  5.6676      5.6730      5.6776      5.6788      5.6768      5.6737      5.6710      5.6693      5.5099      5.5128    
  5.5209      5.5327      5.5464      5.5606      5.5751      5.5874      5.5942      5.5966      5.5942      5.5874    
  5.5751      5.5606      5.5464      5.5327      5.5209      5.5128      5.5099      5.5128      5.5209      5.5327    
  5.5464      5.5606      5.5751      5.5874      5.5942      5.5966      5.5942      5.5874      5.5751      5.5606    
  5.5464      5.5327      5.5209      5.5128      5.4586      5.4619      5.4716      5.4868      5.5061      5.5266    
  5.5449      5.5594      5.5715      5.5771      5.5773      5.5733      5.5629      5.5509      5.5389      5.5273    
  5.5169      5.5099      5.5074      5.5099      5.5169      5.5273      5.5389      5.5509      5.5629      5.5733    
  5.5773      5.5771      5.5715      5.5594      5.5449      5.5266      5.5061      5.4868      5.4716      5.4619    
  5.5099      5.5128      5.5209      5.5327      5.5464      5.5606      5.5751      5.5874      5.5942      5.5966    
  5.5942      5.5874      5.5751      5.5606      5.5464      5.5327      5.5209      5.5128      5.5099      5.5128    
  5.5209      5.5327      5.5464      5.5606      5.5751      5.5874      5.5942      5.5966      5.5942      5.5874    
  5.5751      5.5606      5.5464      5.5327      5.5209      5.5128      5.6687      5.6693      5.6710      5.6737    
  5.6768      5.6788      5.6776      5.6730      5.6676      5.6583      5.6453      5.6305      5.6108      5.5890    
  5.5680      5.5485      5.5320      5.5209      5.5169      5.5209      5.5320      5.5485      5.5680      5.5890    
  5.6108      5.6305      5.6453      5.6583      5.6676      5.6730      5.6776      5.6788      5.6768      5.6737    
  5.6710      5.6693      5.9822      5.9792      5.9701      5.9542      5.9311      5.9026      5.8716      5.8394    
  5.8040      5.7700      5.7359      5.7028      5.6692      5.6342      5.6014      5.5721      5.5485      5.5327    
  5.5273      5.5327      5.5485      5.5721      5.6014      5.6342      5.6692      5.7028      5.7359      5.7700    
  5.8040      5.8394      5.8716      5.9026      5.9311      5.9542      5.9701      5.9792      6.4919      6.4828    
  6.4556      6.4116      6.3526      6.2807      6.1978      6.1098      6.0256      5.9460      5.8730      5.8076    
  5.7490      5.6941      5.6441      5.6014      5.5680      5.5464      5.5389      5.5464      5.5680      5.6014    
  5.6441      5.6941      5.7490      5.8076      5.8730      5.9460      6.0256      6.1098      6.1978      6.2807    
  6.3526      6.4116      6.4556      6.4828      7.2467      7.2316      7.1856      7.1062      6.9928      6.8502    
  6.6906      6.5247      6.3582      6.2044      6.0687      5.9506      5.8512      5.7667      5.6941      5.6342    
  5.5890      5.5606      5.5509      5.5606      5.5890      5.6342      5.6941      5.7667      5.8512      5.9506    
  6.0687      6.2044      6.3582      6.5247      6.6906      6.8502      6.9928      7.1062      7.1856      7.2316    
  8.2960      8.2638      8.1725      8.0343      7.8593      7.6460      7.3906      7.1081      6.8292      6.5671    
  6.3353      6.1403      5.9796      5.8512      5.7490      5.6692      5.6108      5.5751      5.5629      5.5751    
  5.6108      5.6692      5.7490      5.8512      5.9796      6.1403      6.3353      6.5671      6.8292      7.1081    
  7.3906      7.6460      7.8593      8.0343      8.1725      8.2638      10.400      10.299      10.014      9.6024    
  9.1390      8.6925      8.2835      7.8783      7.4539      7.0479      6.6872      6.3835      6.1403      5.9506    
  5.8076      5.7028      5.6305      5.5874      5.5733      5.5874      5.6305      5.7028      5.8076      5.9506    
  6.1403      6.3835      6.6872      7.0479      7.4539      7.8783      8.2835      8.6925      9.1390      9.6024    
  10.014      10.299      14.909      14.668      13.982      12.957      11.757      10.576      9.5799      8.8246    
  8.2205      7.6502      7.1277      6.6872      6.3353      6.0687      5.8730      5.7359      5.6453      5.5942    
  5.5773      5.5942      5.6453      5.7359      5.8730      6.0687      6.3353      6.6872      7.1277      7.6502    
  8.2205      8.8246      9.5799      10.576      11.757      12.957      13.982      14.668      23.096      22.634    
  21.303      19.273      16.821      14.297      12.048      10.316      9.1497      8.3445      7.6502      7.0479    
  6.5671      6.2044      5.9460      5.7700      5.6583      5.5966      5.5771      5.5966      5.6583      5.7700    
  5.9460      6.2044      6.5671      7.0479      7.6502      8.3445      9.1497      10.316      12.048      14.297    
  16.821      19.273      21.303      22.634      35.939      35.161      32.907      29.430      25.149      20.614    
  16.406      12.998      10.608      9.1497      8.2205      7.4539      6.8292      6.3582      6.0256      5.8040    
  5.6676      5.5942      5.5715      5.5942      5.6676      5.8040      6.0256      6.3582      6.8292      7.4539    
  8.2205      9.1497      10.608      12.998      16.406      20.614      25.149      29.430      32.907      35.161    
  53.813      52.612      49.132      43.741      37.051      29.850      22.998      17.232      12.998      10.316    
  8.8246      7.8783      7.1081      6.5247      6.1098      5.8394      5.6730      5.5874      5.5594      5.5874    
  5.6730      5.8394      6.1098      6.5247      7.1081      7.8783      8.8246      10.316      12.998      17.232    
  22.998      29.850      37.051      43.741      49.132      52.612      76.310      74.578      69.563      61.802    
  52.154      41.716      31.656      22.998      16.406      12.048      9.5799      8.2835      7.3906      6.6906    
  6.1978      5.8716      5.6776      5.5751      5.5449      5.5751      5.6776      5.8716      6.1978      6.6906    
  7.3906      8.2835      9.5799      12.048      16.406      22.998      31.656      41.716      52.154      61.802    
  69.563      74.578      102.12      99.763      92.948      82.442      69.422      55.345      41.716      29.850    
  20.614      14.297      10.576      8.6925      7.6460      6.8502      6.2807      5.9026      5.6788      5.5606    
  5.5266      5.5606      5.6788      5.9026      6.2807      6.8502      7.6460      8.6925      10.576      14.297    
  20.614      29.850      41.716      55.345      69.422      82.442      92.948      99.763      129.12      126.08    