PROCAR lm decomposed
# of k-points:   20         # of bands:   20         # of ions:    2

 k-point     1 :    0.00000000 0.00000000 0.00000000     weight = 0.00462963

band     1 # energy   -2.53259305 # occ.  1.00000000
 
ion      s     py     pz     px    dxy    dyz    dz2    dxz  x2-y2    tot
    1  0.371  0.000  0.000  0.000  0.000  0.000  0.000  0.000  0.000  0.371
    2  0.371  0.000  0.000  0.000  0.000  0.000  0.000  0.000  0.000  0.371
tot    0.743  0.000  0.000  0.000  0.000  0.000  0.000  0.000  0.000  0.743
 
band     2 # energy    1.06803684 # occ.  1.00000000
 
ion      s     py     pz     px    dxy    dyz    dz2    dxz  x2-y2    tot
    1  0.000  0.000  0.000  0.000  0.000  0.000  0.017  0.000  0.423  0.439
    2  0.000  0.000  0.000  0.000  0.000  0.000  0.017  0.000  0.423  0.439
tot    0.000  0.000  0.000  0.000  0.000  0.000  0.033  0.000  0.845  0.878
 
band     3 # energy    1.06803731 # occ.  1.00000000
 
ion      s     py     pz     px    dxy    dyz    dz2    dxz  x2-y2    tot
    1  0.000  0.000  0.000  0.000  0.000  0.000  0.423  0.000  0.017  0.439
    2  0.000  0.000  0.000  0.000  0.000  0.000  0.423  0.000  0.017  0.439
tot    0.000  0.000  0.000  0.000  0.000  0.000  0.845  0.000  0.033  0.878
 
band     4 # energy    3.67940269 # occ.  1.00000000
 
ion      s     py     pz     px    dxy    dyz    dz2    dxz  x2-y2    tot
    1  0.000  0.000  0.000  0.000  0.490  0.000  0.000  0.000  0.000  0.490
    2  0.000  0.000  0.000  0.000  0.490  0.000  0.000  0.000  0.000  0.490
tot    0.000  0.000  0.000  0.000  0.980  0.000  0.000  0.000  0.000  0.980
 
band     5 # energy    3.67940316 # occ.  1.00000000
 
ion      s     py     pz     px    dxy    dyz    dz2    dxz  x2-y2    tot
    1  0.000  0.000  0.000  0.000  0.000  0.007  0.000  0.483  0.000  0.490
    2  0.000  0.000  0.000  0.000  0.000  0.007  0.000  0.483  0.000  0.490
tot    0.000  0.000  0.000  0.000  0.000  0.014  0.000  0.966  0.000  0.980
 
band     6 # energy    3.67940318 # occ.  1.00000000
 
ion      s     py     pz     px    dxy    dyz    dz2    dxz  x2-y2    tot
    1  0.000  0.000  0.000  0.000  0.000  0.483  0.000  0.007  0.000  0.490
    2  0.000  0.000  0.000  0.000  0.000  0.483  0.000  0.007  0.000  0.490
tot    0.000  0.000  0.000  0.000  0.000  0.966  0.000  0.014  0.000  0.980
 
band     7 # energy    4.90650929 # occ.  1.00000000
 
ion      s     py     pz     px    dxy    dyz    dz2    dxz  x2-y2    tot
    1  0.000  0.000  0.000  0.000  0.000  0.000  0.468  0.000  0.017  0.485
    2  0.000  0.000  0.000  0.000  0.000  0.000  0.468  0.000  0.017  0.485
tot    0.000  0.000  0.000  0.000  0.000  0.000  0.936  0.000  0.035  0.970
 
band     8 # energy    4.90650980 # occ.  1.00000000
 
ion      s     py     pz     px    dxy    dyz    dz2    dxz  x2-y2    tot
    1  0.000  0.000  0.000  0.000  0.000  0.000  0.017  0.000  0.468  0.485
    2  0.000  0.000  0.000  0.000  0.000  0.000  0.017  0.000  0.468  0.485
tot    0.000  0.000  0.000  0.000  0.000  0.000  0.035  0.000  0.936  0.970
 
band     9 # energy    6.14894381 # occ.  0.03333611
 
ion      s     py     pz     px    dxy    dyz    dz2    dxz  x2-y2    tot
    1  0.000  0.000  0.000  0.000  0.494  0.000  0.000  0.000  0.000  0.494
    2  0.000  0.000  0.000  0.000  0.494  0.000  0.000  0.000  0.000  0.494
tot    0.000  0.000  0.000  0.000  0.988  0.000  0.000  0.000  0.000  0.988
 
band    10 # energy    6.14894498 # occ.  0.03333419
 
ion      s     py     pz     px    dxy    dyz    dz2    dxz  x2-y2    tot
    1  0.000  0.000  0.000  0.000  0.000  0.071  0.000  0.423  0.000  0.494
    2  0.000  0.000  0.000  0.000  0.000  0.071  0.000  0.423  0.000  0.494
tot    0.000  0.000  0.000  0.000  0.000  0.141  0.000  0.847  0.000  0.988
 
band    11 # energy    6.14894501 # occ.  0.03333414
 
ion      s     py     pz     px    dxy    dyz    dz2    dxz  x2-y2    tot
    1  0.000  0.000  0.000  0.000  0.000  0.423  0.000  0.071  0.000  0.494
    2  0.000  0.000  0.000  0.000  0.000  0.423  0.000  0.071  0.000  0.494
tot    0.000  0.000  0.000  0.000  0.000  0.847  0.000  0.141  0.000  0.988
 
band    12 # energy   16.00599457 # occ.  0.00000000
 
ion      s     py     pz     px    dxy    dyz    dz2    dxz  x2-y2    tot
    1  0.000  0.036  0.001  0.342  0.000  0.000  0.000  0.000  0.000  0.379
    2  0.000  0.036  0.001  0.342  0.000  0.000  0.000  0.000  0.000  0.379
tot    0.000  0.073  0.002  0.684  0.000  0.000  0.000  0.000  0.000  0.759
 
band    13 # energy   16.00599471 # occ.  0.00000000
 
ion      s     py     pz     px    dxy    dyz    dz2    dxz  x2-y2    tot
    1  0.000  0.343  0.001  0.036  0.000  0.000  0.000  0.000  0.000  0.379
    2  0.000  0.343  0.001  0.036  0.000  0.000  0.000  0.000  0.000  0.379
tot    0.000  0.685  0.001  0.072  0.000  0.000  0.000  0.000  0.000  0.759
 
band    14 # energy   16.00599481 # occ.  0.00000000
 
ion      s     py     pz     px    dxy    dyz    dz2    dxz  x2-y2    tot
    1  0.000  0.000  0.378  0.001  0.000  0.000  0.000  0.000  0.000  0.379
    2  0.000  0.000  0.378  0.001  0.000  0.000  0.000  0.000  0.000  0.379
tot    0.000  0.001  0.756  0.003  0.000  0.000  0.000  0.000  0.000  0.759
 
band    15 # energy   21.76534353 # occ.  0.00000000
 
ion      s     py     pz     px    dxy    dyz    dz2    dxz  x2-y2    tot
    1  0.000  0.000  0.000  0.000  0.000  0.000  0.482  0.000  0.000  0.482
    2  0.000  0.000  0.000  0.000  0.000  0.000  0.482  0.000  0.000  0.482
tot    0.000  0.000  0.000  0.000  0.000  0.000  0.965  0.000  0.000  0.965
 
band    16 # energy   21.76534510 # occ.  0.00000000
 
ion      s     py     pz     px    dxy    dyz    dz2    dxz  x2-y2    tot
    1  0.000  0.000  0.000  0.000  0.000  0.000  0.000  0.000  0.482  0.482
    2  0.000  0.000  0.000  0.000  0.000  0.000  0.000  0.000  0.482  0.482
tot    0.000  0.000  0.000  0.000  0.000  0.000  0.000  0.000  0.965  0.965
 
band    17 # energy   27.02427744 # occ.  0.00000000
 
ion      s     py     pz     px    dxy    dyz    dz2    dxz  x2-y2    tot
    1  0.391  0.000  0.000  0.000  0.000  0.000  0.000  0.000  0.000  0.391
    2  0.391  0.000  0.000  0.000  0.000  0.000  0.000  0.000  0.000  0.391
tot    0.781  0.000  0.000  0.000  0.000  0.000  0.000  0.000  0.000  0.781
 
band    18 # energy   31.12241021 # occ.  0.00000000
 
ion      s     py     pz     px    dxy    dyz    dz2    dxz  x2-y2    tot
    1  0.000  0.000  0.000  0.000  0.000  0.000  0.000  0.000  0.000  0.000
    2  0.000  0.000  0.000  0.000  0.000  0.000  0.000  0.000  0.000  0.000
tot    0.000  0.000  0.000  0.000  0.000  0.000  0.000  0.000  0.000  0.000
 
band    19 # energy   31.12241021 # occ.  0.00000000
 
ion      s     py     pz     px    dxy    dyz    dz2    dxz  x2-y2    tot
    1  0.000  0.000  0.000  0.000  0.000  0.000  0.000  0.000  0.000  0.000
    2  0.000  0.000  0.000  0.000  0.000  0.000  0.000  0.000  0.000  0.000
tot    0.000  0.000  0.000  0.000  0.000  0.000  0.000  0.000  0.000  0.000
 
band    20 # energy   31.12241025 # occ.  0.00000000
 
ion      s     py     pz     px    dxy    dyz    dz2    dxz  x2-y2    tot
    1  0.000  0.000  0.000  0.000  0.000  0.000  0.000  0.000  0.000  0.000
    2  0.000  0.000  0.000  0.000  0.000  0.000  0.000  0.000  0.000  0.000
tot    0.000  0.000  0.000  0.000  0.000  0.000  0.000  0.000  0.000  0.000
 

 k-point     2 :    0.16666667 0.00000000 0.00000000     weight = 0.02777778

band     1 # energy   -1.95959629 # occ.  1.00000000
 
ion      s     py     pz     px    dxy    dyz    dz2    dxz  x2-y2    tot
    1  0.350  0.000  0.000  0.021  0.000  0.000  0.000  0.000  0.001  0.372
    2  0.350  0.000  0.000  0.021  0.000  0.000  0.000  0.000  0.001  0.372
tot    0.700  0.000  0.000  0.041  0.000  0.000  0.001  0.000  0.002  0.744
 
band     2 # energy    1.30934586 # occ.  1.00000000
 
ion      s     py     pz     px    dxy    dyz    dz2    dxz  x2-y2    tot
    1  0.001  0.000  0.000  0.015  0.000  0.000  0.105  0.000  0.316  0.438
    2  0.001  0.000  0.000  0.015  0.000  0.000  0.105  0.000  0.316  0.438
tot    0.003  0.000  0.000  0.031  0.000  0.000  0.211  0.000  0.632  0.876
 
band     3 # energy    1.31522775 # occ.  1.00000000
 
ion      s     py     pz     px    dxy    dyz    dz2    dxz  x2-y2    tot
    1  0.000  0.000  0.000  0.000  0.000  0.000  0.330  0.000  0.110  0.440
    2  0.000  0.000  0.000  0.000  0.000  0.000  0.330  0.000  0.110  0.440
tot    0.000  0.000  0.000  0.000  0.000  0.000  0.660  0.000  0.220  0.880
 
band     4 # energy    3.68114278 # occ.  1.00000000
 
ion      s     py     pz     px    dxy    dyz    dz2    dxz  x2-y2    tot
    1  0.000  0.002  0.000  0.000  0.486  0.000  0.000  0.000  0.000  0.488
    2  0.000  0.002  0.000  0.000  0.486  0.000  0.000  0.000  0.000  0.488
tot    0.000  0.004  0.000  0.000  0.971  0.000  0.000  0.000  0.000  0.976
 
band     5 # energy    3.68114325 # occ.  1.00000000
 
ion      s     py     pz     px    dxy    dyz    dz2    dxz  x2-y2    tot
    1  0.000  0.000  0.002  0.000  0.000  0.000  0.000  0.486  0.000  0.488
    2  0.000  0.000  0.002  0.000  0.000  0.000  0.000  0.486  0.000  0.488
tot    0.000  0.000  0.004  0.000  0.000  0.000  0.000  0.971  0.000  0.976
 
band     6 # energy    3.83794125 # occ.  1.00000000
 
ion      s     py     pz     px    dxy    dyz    dz2    dxz  x2-y2    tot
    1  0.000  0.000  0.000  0.000  0.000  0.489  0.000  0.000  0.000  0.489
    2  0.000  0.000  0.000  0.000  0.000  0.489  0.000  0.000  0.000  0.489
tot    0.000  0.000  0.000  0.000  0.000  0.978  0.000  0.000  0.000  0.978
 
band     7 # energy    4.64691505 # occ.  1.00000000
 
ion      s     py     pz     px    dxy    dyz    dz2    dxz  x2-y2    tot
    1  0.000  0.000  0.000  0.000  0.000  0.000  0.360  0.000  0.120  0.480
    2  0.000  0.000  0.000  0.000  0.000  0.000  0.360  0.000  0.120  0.480
tot    0.000  0.000  0.000  0.000  0.000  0.000  0.720  0.000  0.240  0.960
 
band     8 # energy    5.00821754 # occ.  1.00000000
 
ion      s     py     pz     px    dxy    dyz    dz2    dxz  x2-y2    tot
    1  0.001  0.000  0.000  0.000  0.000  0.000  0.122  0.000  0.365  0.487
    2  0.001  0.000  0.000  0.000  0.000  0.000  0.122  0.000  0.365  0.487
tot    0.001  0.000  0.000  0.000  0.000  0.000  0.243  0.000  0.729  0.974
 
band     9 # energy    5.70049138 # occ.  1.02664893
 
ion      s     py     pz     px    dxy    dyz    dz2    dxz  x2-y2    tot
    1  0.000  0.010  0.000  0.000  0.477  0.000  0.000  0.000  0.000  0.488
    2  0.000  0.010  0.000  0.000  0.477  0.000  0.000  0.000  0.000  0.488
tot    0.000  0.021  0.000  0.000  0.955  0.000  0.000  0.000  0.000  0.975
 
band    10 # energy    5.70049240 # occ.  1.02664916
 
ion      s     py     pz     px    dxy    dyz    dz2    dxz  x2-y2    tot
    1  0.000  0.000  0.010  0.000  0.000  0.000  0.000  0.477  0.000  0.488
    2  0.000  0.000  0.010  0.000  0.000  0.000  0.000  0.477  0.000  0.488
tot    0.000  0.000  0.021  0.000  0.000  0.000  0.000  0.955  0.000  0.975
 
band    11 # energy    5.97712296 # occ.  0.61646164
 
ion      s     py     pz     px    dxy    dyz    dz2    dxz  x2-y2    tot
    1  0.000  0.000  0.000  0.000  0.000  0.492  0.000  0.000  0.000  0.492
    2  0.000  0.000  0.000  0.000  0.000  0.492  0.000  0.000  0.000  0.492
tot    0.000  0.000  0.000  0.000  0.000  0.985  0.000  0.000  0.000  0.985
 
band    12 # energy   13.01559389 # occ.  0.00000000
 
ion      s     py     pz     px    dxy    dyz    dz2    dxz  x2-y2    tot
    1  0.061  0.000  0.000  0.266  0.000  0.000  0.020  0.000  0.061  0.408
    2  0.061  0.000  0.000  0.266  0.000  0.000  0.020  0.000  0.061  0.408
tot    0.121  0.000  0.000  0.532  0.000  0.000  0.041  0.000  0.122  0.815
 
band    13 # energy   17.06349970 # occ.  0.00000000
 
ion      s     py     pz     px    dxy    dyz    dz2    dxz  x2-y2    tot
    1  0.000  0.356  0.000  0.000  0.039  0.000  0.000  0.000  0.000  0.395
    2  0.000  0.356  0.000  0.000  0.039  0.000  0.000  0.000  0.000  0.395
tot    0.000  0.712  0.000  0.000  0.078  0.000  0.000  0.000  0.000  0.791
 
band    14 # energy   17.06349999 # occ.  0.00000000
 
ion      s     py     pz     px    dxy    dyz    dz2    dxz  x2-y2    tot
    1  0.000  0.000  0.356  0.000  0.000  0.000  0.000  0.039  0.000  0.395
    2  0.000  0.000  0.356  0.000  0.000  0.000  0.000  0.039  0.000  0.395
tot    0.000  0.000  0.712  0.000  0.000  0.000  0.000  0.078  0.000  0.791
 
band    15 # energy   21.93446956 # occ.  0.00000000
 
ion      s     py     pz     px    dxy    dyz    dz2    dxz  x2-y2    tot
    1  0.000  0.000  0.000  0.000  0.000  0.000  0.352  0.000  0.117  0.470
    2  0.000  0.000  0.000  0.000  0.000  0.000  0.352  0.000  0.117  0.470
tot    0.000  0.000  0.000  0.000  0.000  0.000  0.705  0.000  0.235  0.940
 
band    16 # energy   23.52300099 # occ.  0.00000000
 
ion      s     py     pz     px    dxy    dyz    dz2    dxz  x2-y2    tot
    1  0.075  0.000  0.000  0.004  0.000  0.000  0.084  0.000  0.253  0.416
    2  0.075  0.000  0.000  0.004  0.000  0.000  0.084  0.000  0.253  0.416
tot    0.149  0.000  0.000  0.009  0.000  0.000  0.168  0.000  0.505  0.832
 
band    17 # energy   28.55392134 # occ.  0.00000000
 
ion      s     py     pz     px    dxy    dyz    dz2    dxz  x2-y2    tot
    1  0.000  0.000  0.000  0.000  0.000  0.000  0.130  0.000  0.043  0.173
    2  0.000  0.000  0.000  0.000  0.000  0.000  0.130  0.000  0.043  0.173
tot    0.000  0.000  0.000  0.000  0.000  0.000  0.260  0.000  0.087  0.346
 
band    18 # energy   29.13018340 # occ.  0.00000000
 
ion      s     py     pz     px    dxy    dyz    dz2    dxz  x2-y2    tot
    1  0.249  0.000  0.000  0.098  0.000  0.000  0.014  0.000  0.042  0.404
    2  0.249  0.000  0.000  0.098  0.000  0.000  0.014  0.000  0.042  0.404
tot    0.499  0.000  0.000  0.197  0.000  0.000  0.028  0.000  0.084  0.808
 
band    19 # energy   30.35811844 # occ.  0.00000000
 
ion      s     py     pz     px    dxy    dyz    dz2    dxz  x2-y2    tot
    1  0.000  0.033  0.000  0.000  0.204  0.000  0.000  0.000  0.000  0.237
    2  0.000  0.033  0.000  0.000  0.204  0.000  0.000  0.000  0.000  0.237
tot    0.000  0.066  0.000  0.000  0.408  0.000  0.000  0.000  0.000  0.475
 
band    20 # energy   30.35811886 # occ.  0.00000000
 
ion      s     py     pz     px    dxy    dyz    dz2    dxz  x2-y2    tot
    1  0.000  0.000  0.033  0.000  0.000  0.000  0.000  0.204  0.000  0.237
    2  0.000  0.000  0.033  0.000  0.000  0.000  0.000  0.204  0.000  0.237
tot    0.000  0.000  0.066  0.000  0.000  0.000  0.000  0.408  0.000  0.475
 

 k-point     3 :    0.33333333 0.00000000 0.00000000     weight = 0.02777778

band     1 # energy   -0.41631085 # occ.  1.00000000
 
ion      s     py     pz     px    dxy    dyz    dz2    dxz  x2-y2    tot
    1  0.281  0.000  0.000  0.072  0.000  0.000  0.005  0.000  0.016  0.375
    2  0.281  0.000  0.000  0.072  0.000  0.000  0.005  0.000  0.016  0.375
tot    0.562  0.000  0.000  0.145  0.000  0.000  0.011  0.000  0.032  0.750
 
band     2 # energy    1.71496217 # occ.  1.00000000
 
ion      s     py     pz     px    dxy    dyz    dz2    dxz  x2-y2    tot
    1  0.025  0.000  0.000  0.058  0.000  0.000  0.086  0.000  0.258  0.428
    2  0.025  0.000  0.000  0.058  0.000  0.000  0.086  0.000  0.258  0.428
tot    0.051  0.000  0.000  0.116  0.000  0.000  0.172  0.000  0.517  0.856
 
band     3 # energy    2.00091545 # occ.  1.00000000
 
ion      s     py     pz     px    dxy    dyz    dz2    dxz  x2-y2    tot
    1  0.000  0.000  0.000  0.000  0.000  0.000  0.333  0.000  0.111  0.444
    2  0.000  0.000  0.000  0.000  0.000  0.000  0.333  0.000  0.111  0.444
tot    0.000  0.000  0.000  0.000  0.000  0.000  0.667  0.000  0.222  0.889
 
band     4 # energy    3.77465156 # occ.  1.00000000
 
ion      s     py     pz     px    dxy    dyz    dz2    dxz  x2-y2    tot
    1  0.000  0.008  0.000  0.000  0.475  0.000  0.000  0.000  0.000  0.483
    2  0.000  0.008  0.000  0.000  0.475  0.000  0.000  0.000  0.000  0.483
tot    0.000  0.016  0.000  0.000  0.951  0.000  0.000  0.000  0.000  0.967
 
band     5 # energy    3.77465205 # occ.  1.00000000
 
ion      s     py     pz     px    dxy    dyz    dz2    dxz  x2-y2    tot
    1  0.000  0.000  0.008  0.000  0.000  0.000  0.000  0.475  0.000  0.483
    2  0.000  0.000  0.008  0.000  0.000  0.000  0.000  0.475  0.000  0.483
tot    0.000  0.000  0.016  0.000  0.000  0.000  0.000  0.951  0.000  0.967
 
band     6 # energy    3.93288994 # occ.  1.00000000
 
ion      s     py     pz     px    dxy    dyz    dz2    dxz  x2-y2    tot
    1  0.000  0.000  0.000  0.000  0.000  0.000  0.350  0.000  0.117  0.467
    2  0.000  0.000  0.000  0.000  0.000  0.000  0.350  0.000  0.117  0.467
tot    0.000  0.000  0.000  0.000  0.000  0.000  0.701  0.000  0.234  0.934
 
band     7 # energy    4.27619948 # occ.  1.00000000
 
ion      s     py     pz     px    dxy    dyz    dz2    dxz  x2-y2    tot
    1  0.000  0.000  0.000  0.000  0.000  0.488  0.000  0.000  0.000  0.488
    2  0.000  0.000  0.000  0.000  0.000  0.488  0.000  0.000  0.000  0.488
tot    0.000  0.000  0.000  0.000  0.000  0.975  0.000  0.000  0.000  0.975
 
band     8 # energy    4.83268594 # occ.  1.00000000
 
ion      s     py     pz     px    dxy    dyz    dz2    dxz  x2-y2    tot
    1  0.000  0.019  0.000  0.000  0.462  0.000  0.000  0.000  0.000  0.481
    2  0.000  0.019  0.000  0.000  0.462  0.000  0.000  0.000  0.000  0.481
tot    0.000  0.037  0.000  0.000  0.924  0.000  0.000  0.000  0.000  0.962
 
band     9 # energy    4.83268668 # occ.  1.00000000
 
ion      s     py     pz     px    dxy    dyz    dz2    dxz  x2-y2    tot
    1  0.000  0.000  0.019  0.000  0.000  0.000  0.000  0.462  0.000  0.481
    2  0.000  0.000  0.019  0.000  0.000  0.000  0.000  0.462  0.000  0.481
tot    0.000  0.000  0.037  0.000  0.000  0.000  0.000  0.924  0.000  0.962
 
band    10 # energy    5.31187104 # occ.  1.00000548
 
ion      s     py     pz     px    dxy    dyz    dz2    dxz  x2-y2    tot
    1  0.014  0.000  0.000  0.003  0.000  0.000  0.118  0.000  0.354  0.489
    2  0.014  0.000  0.000  0.003  0.000  0.000  0.118  0.000  0.354  0.489
tot    0.028  0.000  0.000  0.007  0.000  0.000  0.236  0.000  0.708  0.978
 
band    11 # energy    5.51149736 # occ.  1.00133887
 
ion      s     py     pz     px    dxy    dyz    dz2    dxz  x2-y2    tot
    1  0.000  0.000  0.000  0.000  0.000  0.489  0.000  0.000  0.000  0.489
    2  0.000  0.000  0.000  0.000  0.000  0.489  0.000  0.000  0.000  0.489
tot    0.000  0.000  0.000  0.000  0.000  0.979  0.000  0.000  0.000  0.979
 
band    12 # energy    8.93993503 # occ. -0.00000000
 
ion      s     py     pz     px    dxy    dyz    dz2    dxz  x2-y2    tot
    1  0.114  0.000  0.000  0.155  0.000  0.000  0.041  0.000  0.122  0.432
    2  0.114  0.000  0.000  0.155  0.000  0.000  0.041  0.000  0.122  0.432
tot    0.228  0.000  0.000  0.309  0.000  0.000  0.082  0.000  0.245  0.863
 
band    13 # energy   19.71755735 # occ.  0.00000000
 
ion      s     py     pz     px    dxy    dyz    dz2    dxz  x2-y2    tot
    1  0.000  0.310  0.000  0.000  0.120  0.000  0.000  0.000  0.000  0.430
    2  0.000  0.310  0.000  0.000  0.120  0.000  0.000  0.000  0.000  0.430
tot    0.000  0.620  0.000  0.000  0.240  0.000  0.000  0.000  0.000  0.860
 
band    14 # energy   19.71755793 # occ.  0.00000000
 
ion      s     py     pz     px    dxy    dyz    dz2    dxz  x2-y2    tot
    1  0.000  0.000  0.310  0.000  0.000  0.000  0.000  0.120  0.000  0.430
    2  0.000  0.000  0.310  0.000  0.000  0.000  0.000  0.120  0.000  0.430
tot    0.000  0.000  0.620  0.000  0.000  0.000  0.000  0.240  0.000  0.860
 
band    15 # energy   22.50271898 # occ.  0.00000000
 
ion      s     py     pz     px    dxy    dyz    dz2    dxz  x2-y2    tot
    1  0.000  0.000  0.000  0.000  0.000  0.000  0.325  0.000  0.108  0.433
    2  0.000  0.000  0.000  0.000  0.000  0.000  0.325  0.000  0.108  0.433
tot    0.000  0.000  0.000  0.000  0.000  0.000  0.649  0.000  0.216  0.865
 
band    16 # energy   24.61555045 # occ.  0.00000000
 
ion      s     py     pz     px    dxy    dyz    dz2    dxz  x2-y2    tot
    1  0.151  0.000  0.000  0.024  0.000  0.000  0.036  0.000  0.109  0.321
    2  0.151  0.000  0.000  0.024  0.000  0.000  0.036  0.000  0.109  0.321
tot    0.302  0.000  0.000  0.049  0.000  0.000  0.073  0.000  0.218  0.642
 
band    17 # energy   25.61637457 # occ.  0.00000000
 
ion      s     py     pz     px    dxy    dyz    dz2    dxz  x2-y2    tot
    1  0.000  0.000  0.000  0.000  0.000  0.000  0.217  0.000  0.072  0.289
    2  0.000  0.000  0.000  0.000  0.000  0.000  0.217  0.000  0.072  0.289
tot    0.000  0.000  0.000  0.000  0.000  0.000  0.433  0.000  0.144  0.578
 
band    18 # energy   27.13741290 # occ.  0.00000000
 
ion      s     py     pz     px    dxy    dyz    dz2    dxz  x2-y2    tot
    1  0.000  0.163  0.000  0.000  0.302  0.000  0.000  0.000  0.000  0.465
    2  0.000  0.163  0.000  0.000  0.302  0.000  0.000  0.000  0.000  0.465
tot    0.000  0.326  0.000  0.000  0.603  0.000  0.000  0.000  0.000  0.929
 
band    19 # energy   27.13741372 # occ.  0.00000000
 
ion      s     py     pz     px    dxy    dyz    dz2    dxz  x2-y2    tot
    1  0.000  0.000  0.163  0.000  0.000  0.000  0.000  0.302  0.000  0.465
    2  0.000  0.000  0.163  0.000  0.000  0.000  0.000  0.302  0.000  0.465
tot    0.000  0.000  0.326  0.000  0.000  0.000  0.000  0.603  0.000  0.929
 
band    20 # energy   28.93103025 # occ.  0.00000000
 
ion      s     py     pz     px    dxy    dyz    dz2    dxz  x2-y2    tot
    1  0.068  0.000  0.000  0.162  0.000  0.000  0.001  0.000  0.003  0.233
    2  0.068  0.000  0.000  0.162  0.000  0.000  0.001  0.000  0.003  0.233
tot    0.136  0.000  0.000  0.323  0.000  0.000  0.002  0.000  0.005  0.466
 

 k-point     4 :    0.50000000-0.00000000 0.00000000     weight = 0.01388889

band     1 # energy    1.28171845 # occ.  1.00000000
 
ion      s     py     pz     px    dxy    dyz    dz2    dxz  x2-y2    tot
    1  0.039  0.000  0.000  0.179  0.000  0.000  0.010  0.000  0.031  0.260
    2  0.243  0.000  0.000  0.029  0.000  0.000  0.065  0.000  0.194  0.531
tot    0.282  0.000  0.000  0.208  0.000  0.000  0.075  0.000  0.225  0.791
 
band     2 # energy    1.28171845 # occ.  1.00000000
 
ion      s     py     pz     px    dxy    dyz    dz2    dxz  x2-y2    tot
    1  0.243  0.000  0.000  0.029  0.000  0.000  0.065  0.000  0.194  0.531
    2  0.039  0.000  0.000  0.179  0.000  0.000  0.010  0.000  0.031  0.260
tot    0.282  0.000  0.000  0.208  0.000  0.000  0.075  0.000  0.225  0.791
 
band     3 # energy    2.95935618 # occ.  1.00000000
 
ion      s     py     pz     px    dxy    dyz    dz2    dxz  x2-y2    tot
    1  0.000  0.000  0.000  0.000  0.000  0.000  0.319  0.000  0.106  0.426
    2  0.000  0.000  0.000  0.000  0.000  0.000  0.361  0.000  0.120  0.481
tot    0.000  0.000  0.000  0.000  0.000  0.000  0.680  0.000  0.227  0.907
 
band     4 # energy    2.95935618 # occ.  1.00000000
 
ion      s     py     pz     px    dxy    dyz    dz2    dxz  x2-y2    tot
    1  0.000  0.000  0.000  0.000  0.000  0.000  0.361  0.000  0.120  0.481
    2  0.000  0.000  0.000  0.000  0.000  0.000  0.319  0.000  0.106  0.426
tot    0.000  0.000  0.000  0.000  0.000  0.000  0.680  0.000  0.227  0.907
 
band     5 # energy    4.13155695 # occ.  1.00000000
 
ion      s     py     pz     px    dxy    dyz    dz2    dxz  x2-y2    tot
    1  0.000  0.029  0.000  0.000  0.058  0.000  0.000  0.000  0.000  0.087
    2  0.000  0.002  0.000  0.000  0.871  0.000  0.000  0.000  0.000  0.873
tot    0.000  0.031  0.000  0.000  0.929  0.000  0.000  0.000  0.000  0.960
 
band     6 # energy    4.13155695 # occ.  1.00000000
 
ion      s     py     pz     px    dxy    dyz    dz2    dxz  x2-y2    tot
    1  0.000  0.002  0.000  0.000  0.871  0.000  0.000  0.000  0.000  0.873
    2  0.000  0.029  0.000  0.000  0.058  0.000  0.000  0.000  0.000  0.087
tot    0.000  0.031  0.000  0.000  0.929  0.000  0.000  0.000  0.000  0.960
 
band     7 # energy    4.13155752 # occ.  1.00000000
 
ion      s     py     pz     px    dxy    dyz    dz2    dxz  x2-y2    tot
    1  0.000  0.000  0.007  0.000  0.000  0.000  0.000  0.720  0.000  0.726
    2  0.000  0.000  0.024  0.000  0.000  0.000  0.000  0.210  0.000  0.234
tot    0.000  0.000  0.031  0.000  0.000  0.000  0.000  0.929  0.000  0.960
 
band     8 # energy    4.13155752 # occ.  1.00000000
 
ion      s     py     pz     px    dxy    dyz    dz2    dxz  x2-y2    tot
    1  0.000  0.000  0.024  0.000  0.000  0.000  0.000  0.210  0.000  0.234
    2  0.000  0.000  0.007  0.000  0.000  0.000  0.000  0.720  0.000  0.726
tot    0.000  0.000  0.031  0.000  0.000  0.000  0.000  0.929  0.000  0.960
 
band     9 # energy    4.88715907 # occ.  1.00000000
 
ion      s     py     pz     px    dxy    dyz    dz2    dxz  x2-y2    tot
    1  0.000  0.000  0.000  0.000  0.000  0.277  0.000  0.000  0.000  0.277
    2  0.000  0.000  0.000  0.000  0.000  0.698  0.000  0.000  0.000  0.698
tot    0.000  0.000  0.000  0.000  0.000  0.974  0.000  0.000  0.000  0.974
 
band    10 # energy    4.88715907 # occ.  1.00000000
 
ion      s     py     pz     px    dxy    dyz    dz2    dxz  x2-y2    tot
    1  0.000  0.000  0.000  0.000  0.000  0.698  0.000  0.000  0.000  0.698
    2  0.000  0.000  0.000  0.000  0.000  0.277  0.000  0.000  0.000  0.277
tot    0.000  0.000  0.000  0.000  0.000  0.974  0.000  0.000  0.000  0.974
 
band    11 # energy    6.23383292 # occ. -0.03435227
 
ion      s     py     pz     px    dxy    dyz    dz2    dxz  x2-y2    tot
    1  0.075  0.000  0.000  0.044  0.000  0.000  0.085  0.000  0.255  0.458
    2  0.080  0.000  0.000  0.041  0.000  0.000  0.091  0.000  0.272  0.483
tot    0.155  0.000  0.000  0.085  0.000  0.000  0.175  0.000  0.526  0.941
 
band    12 # energy    6.23383292 # occ. -0.03435227
 
ion      s     py     pz     px    dxy    dyz    dz2    dxz  x2-y2    tot
    1  0.080  0.000  0.000  0.041  0.000  0.000  0.091  0.000  0.272  0.483
    2  0.075  0.000  0.000  0.044  0.000  0.000  0.085  0.000  0.255  0.458
tot    0.155  0.000  0.000  0.085  0.000  0.000  0.175  0.000  0.526  0.941
 
band    13 # energy   23.24613548 # occ.  0.00000000
 
ion      s     py     pz     px    dxy    dyz    dz2    dxz  x2-y2    tot
    1  0.000  0.490  0.000  0.000  0.008  0.000  0.000  0.000  0.000  0.499
    2  0.000  0.010  0.000  0.000  0.423  0.000  0.000  0.000  0.000  0.433
tot    0.000  0.500  0.000  0.000  0.431  0.000  0.000  0.000  0.000  0.931
 
band    14 # energy   23.24613548 # occ.  0.00000000
 
ion      s     py     pz     px    dxy    dyz    dz2    dxz  x2-y2    tot
    1  0.000  0.010  0.000  0.000  0.423  0.000  0.000  0.000  0.000  0.433
    2  0.000  0.490  0.000  0.000  0.008  0.000  0.000  0.000  0.000  0.499
tot    0.000  0.500  0.000  0.000  0.431  0.000  0.000  0.000  0.000  0.931
 
band    15 # energy   23.24613626 # occ.  0.00000000
 
ion      s     py     pz     px    dxy    dyz    dz2    dxz  x2-y2    tot
    1  0.000  0.000  0.484  0.000  0.000  0.000  0.000  0.014  0.000  0.498
    2  0.000  0.000  0.016  0.000  0.000  0.000  0.000  0.417  0.000  0.434
tot    0.000  0.000  0.500  0.000  0.000  0.000  0.000  0.431  0.000  0.931
 
band    16 # energy   23.24613626 # occ.  0.00000000
 
ion      s     py     pz     px    dxy    dyz    dz2    dxz  x2-y2    tot
    1  0.000  0.000  0.016  0.000  0.000  0.000  0.000  0.417  0.000  0.434
    2  0.000  0.000  0.484  0.000  0.000  0.000  0.000  0.014  0.000  0.498
tot    0.000  0.000  0.500  0.000  0.000  0.000  0.000  0.431  0.000  0.931
 
band    17 # energy   23.64825662 # occ.  0.00000000
 
ion      s     py     pz     px    dxy    dyz    dz2    dxz  x2-y2    tot
    1  0.000  0.000  0.000  0.000  0.000  0.000  0.378  0.000  0.126  0.504
    2  0.000  0.000  0.000  0.000  0.000  0.000  0.179  0.000  0.060  0.239
tot    0.000  0.000  0.000  0.000  0.000  0.000  0.558  0.000  0.186  0.743
 
band    18 # energy   23.64825662 # occ.  0.00000000
 
ion      s     py     pz     px    dxy    dyz    dz2    dxz  x2-y2    tot
    1  0.000  0.000  0.000  0.000  0.000  0.000  0.179  0.000  0.060  0.239
    2  0.000  0.000  0.000  0.000  0.000  0.000  0.378  0.000  0.126  0.504
tot    0.000  0.000  0.000  0.000  0.000  0.000  0.558  0.000  0.186  0.743
 
band    19 # energy   26.09858286 # occ.  0.00000000
 
ion      s     py     pz     px    dxy    dyz    dz2    dxz  x2-y2    tot
    1  0.082  0.000  0.000  0.130  0.000  0.000  0.005  0.000  0.015  0.231
    2  0.167  0.000  0.000  0.064  0.000  0.000  0.010  0.000  0.030  0.271
tot    0.249  0.000  0.000  0.194  0.000  0.000  0.015  0.000  0.044  0.502
 
band    20 # energy   26.09858286 # occ.  0.00000000
 
ion      s     py     pz     px    dxy    dyz    dz2    dxz  x2-y2    tot
    1  0.167  0.000  0.000  0.064  0.000  0.000  0.010  0.000  0.030  0.271
    2  0.082  0.000  0.000  0.130  0.000  0.000  0.005  0.000  0.015  0.231
tot    0.249  0.000  0.000  0.194  0.000  0.000  0.015  0.000  0.044  0.502
 

 k-point     5 :    0.16666667 0.16666667 0.00000000     weight = 0.05555556

band     1 # energy   -1.41973691 # occ.  1.00000000
 
ion      s     py     pz     px    dxy    dyz    dz2    dxz  x2-y2    tot
    1  0.329  0.019  0.000  0.019  0.005  0.000  0.001  0.000  0.000  0.373
    2  0.329  0.019  0.000  0.019  0.005  0.000  0.001  0.000  0.000  0.373
tot    0.658  0.038  0.000  0.038  0.010  0.000  0.003  0.000  0.000  0.746
 
band     2 # energy    1.48678222 # occ.  1.00000000
 
ion      s     py     pz     px    dxy    dyz    dz2    dxz  x2-y2    tot
    1  0.002  0.004  0.000  0.004  0.008  0.000  0.423  0.000  0.000  0.440
    2  0.002  0.004  0.000  0.004  0.008  0.000  0.423  0.000  0.000  0.440
tot    0.003  0.008  0.000  0.008  0.016  0.000  0.846  0.000  0.000  0.880
 
band     3 # energy    1.59226120 # occ.  1.00000000
 