   1   1   0   0
  0.1408159E+02  0.2710538E-09  0.2710538E-09  0.2710538E-09  0.5000000E-15
  1.000000000000000E-004
  CAR 
 unknown system                          
     37.69692858     -6.27253500  301     10.19977537      1.00000000
     -6.273  0.0000E+00  0.0000E+00
     -6.126  0.0000E+00  0.0000E+00
     -5.979  0.0000E+00  0.0000E+00
     -5.833  0.0000E+00  0.0000E+00
     -5.686  0.0000E+00  0.0000E+00
     -5.540  0.0000E+00  0.0000E+00
     -5.393  0.0000E+00  0.0000E+00
     -5.247  0.0000E+00  0.0000E+00
     -5.100  0.0000E+00  0.0000E+00
     -4.953  0.0000E+00  0.0000E+00
     -4.807  0.0000E+00  0.0000E+00
     -4.660  0.0000E+00  0.0000E+00
     -4.514  0.2333E-14  0.3419E-15
     -4.367  0.1659E-05  0.2431E-06
     -4.221  0.3700E-03  0.5447E-04
     -4.074  0.2620E-04  0.5831E-04
     -3.927  0.3141E-11  0.5831E-04
     -3.781  0.6433E-05  0.5925E-04
     -3.634  0.2852E-02  0.4772E-03
     -3.488  0.1345E-02  0.6744E-03
     -3.341  0.1366E-02  0.8746E-03
     -3.195  0.8838E-07  0.8746E-03
     -3.048  0.0000E+00  0.8746E-03
     -2.902  0.7573E-11  0.8746E-03
     -2.755  0.1804E-03  0.9011E-03
     -2.608  0.4551E-02  0.1568E-02
     -2.462  0.4263E-04  0.1574E-02
     -2.315  0.7869E-11  0.1574E-02
     -2.169  0.2822E-03  0.1616E-02
     -2.022  0.9153E-02  0.2957E-02
     -1.876  0.2691E-02  0.3352E-02
     -1.729  0.6046E-03  0.3440E-02
     -1.582  0.8074E-09  0.3440E-02
     -1.436  0.0000E+00  0.3440E-02
     -1.289  0.2485E-08  0.3440E-02
     -1.143  0.6548E-03  0.3536E-02
     -0.996  0.1732E-02  0.3790E-02
     -0.850  0.4674E-06  0.3790E-02
     -0.703  0.1605E-07  0.3790E-02
     -0.557  0.2940E-02  0.4221E-02
     -0.410  0.6878E-02  0.5229E-02
     -0.263  0.9159E-02  0.6571E-02
     -0.117  0.1195E-03  0.6589E-02
      0.030  0.8116E-12  0.6589E-02
      0.176  0.2904E-14  0.6589E-02
      0.323  0.1081E-04  0.6591E-02
      0.469  0.8226E-02  0.7796E-02
      0.616  0.1311E-02  0.7988E-02
      0.763  0.7757E-09  0.7988E-02
      0.909  0.2641E-04  0.7992E-02
      1.056  0.1130E-01  0.9648E-02
      1.202  0.1409E-02  0.9854E-02
      1.349  0.6021E-09  0.9854E-02
      1.495  0.0000E+00  0.9854E-02
      1.642  0.0000E+00  0.9854E-02
      1.789  0.3449E-09  0.9854E-02
      1.935  0.6333E-03  0.9947E-02
      2.082  0.4135E-02  0.1055E-01
      2.228  0.5808E-05  0.1055E-01
      2.375  0.1354E-07  0.1055E-01
      2.521  0.4759E-02  0.1125E-01
      2.668  0.1668E-01  0.1370E-01
      2.814  0.9546E-02  0.1510E-01
      2.961  0.4489E-04  0.1510E-01
      3.108  0.4887E-12  0.1510E-01
      3.254  0.1782E-13  0.1510E-01
      3.401  0.2428E-04  0.1511E-01
      3.547  0.8670E-02  0.1638E-01
      3.694  0.8543E-03  0.1650E-01
      3.840  0.1925E-09  0.1650E-01
      3.987  0.1136E-08  0.1650E-01
      4.134  0.1524E-02  0.1672E-01
      4.280  0.1708E-01  0.1923E-01
      4.427  0.4941E-03  0.1930E-01
      4.573  0.3522E-10  0.1930E-01
      4.720  0.0000E+00  0.1930E-01
      4.866  0.2276E-11  0.1930E-01
      5.013  0.9004E-04  0.1931E-01
      5.160  0.3490E-02  0.1982E-01
      5.306  0.4365E-02  0.2046E-01
      5.453  0.1166E-04  0.2047E-01
      5.599  0.5199E-03  0.2054E-01
      5.746  0.1615E-01  0.2291E-01
      5.892  0.2431E-02  0.2327E-01
      6.039  0.1827E-02  0.2353E-01
      6.185  0.2947E-02  0.2396E-01
      6.332  0.2852E-06  0.2397E-01
      6.479  0.1472E-03  0.2399E-01
      6.625  0.1832E-01  0.2667E-01
      6.772  0.9994E-02  0.2814E-01
      6.918  0.1853E-03  0.2816E-01
      7.065  0.1805E-03  0.2819E-01
      7.211  0.9183E-02  0.2954E-01
      7.358  0.1842E-03  0.2956E-01
      7.505  0.1924E-07  0.2956E-01
      7.651  0.3067E-02  0.3001E-01
      7.798  0.6480E-02  0.3096E-01
      7.944  0.1110E-05  0.3096E-01
      8.091  0.5958E-03  0.3105E-01
      8.237  0.6175E-02  0.3195E-01
      8.384  0.3906E-03  0.3201E-01
      8.531  0.7246E-10  0.3201E-01
      8.677  0.9013E-05  0.3201E-01
      8.824  0.1493E-01  0.3420E-01
      8.970  0.4158E-02  0.3481E-01
      9.117  0.1266E-02  0.3500E-01
      9.263  0.3507E-02  0.3551E-01
      9.410  0.1124E-05  0.3551E-01
      9.556  0.2490E-02  0.3588E-01
      9.703  0.1901E-01  0.3866E-01
      9.850  0.2370E-02  0.3901E-01
      9.996  0.2775E-05  0.3901E-01
     10.143  0.2943E-02  0.3944E-01
     10.289  0.9658E-02  0.4086E-01
     10.436  0.1270E-03  0.4087E-01
     10.582  0.1792E-05  0.4087E-01
     10.729  0.6891E-02  0.4188E-01
     10.876  0.2655E-02  0.4227E-01
     11.022  0.1628E-05  0.4227E-01
     11.169  0.1223E-01  0.4407E-01
     11.315  0.6863E-02  0.4507E-01
     11.462  0.7095E-07  0.4507E-01
     11.608  0.7820E-03  0.4519E-01
     11.755  0.2100E-01  0.4826E-01
     11.902  0.7091E-02  0.4930E-01
     12.048  0.9176E-02  0.5065E-01
     12.195  0.1463E-03  0.5067E-01
     12.341  0.2513E-04  0.5067E-01
     12.488  0.8686E-02  0.5195E-01
     12.634  0.8374E-03  0.5207E-01
     12.781  0.1808E-09  0.5207E-01
     12.927  0.4065E-14  0.5207E-01
     13.074  0.1838E-04  0.5207E-01
     13.221  0.1625E-01  0.5445E-01
     13.367  0.2832E-02  0.5487E-01
     13.514  0.2534E-03  0.5491E-01
     13.660  0.4542E-02  0.5557E-01
     13.807  0.4594E-02  0.5624E-01
     13.953  0.7295E-02  0.5731E-01
     14.100  0.5836E-02  0.5817E-01
     14.247  0.1350E-02  0.5837E-01
     14.393  0.2422E-02  0.5872E-01
     14.540  0.1808E-01  0.6137E-01
     14.686  0.1042E-02  0.6153E-01
     14.833  0.6525E-02  0.6248E-01
     14.979  0.1221E-01  0.6427E-01
     15.126  0.2683E-02  0.6466E-01
     15.273  0.3928E-07  0.6466E-01
     15.419  0.3493E-02  0.6518E-01
     15.566  0.6054E-02  0.6606E-01
     15.712  0.6834E-06  0.6606E-01
     15.859  0.3887E-03  0.6612E-01
     16.005  0.1166E-01  0.6783E-01
     16.152  0.5013E-02  0.6857E-01
     16.298  0.4193E-02  0.6918E-01
     16.445  0.1037E-01  0.7070E-01
     16.592  0.1209E-01  0.7247E-01
     16.738  0.4728E-04  0.7248E-01
     16.885  0.5586E-02  0.7330E-01
     17.031  0.4048E-02  0.7389E-01
     17.178  0.9604E-02  0.7530E-01
     17.324  0.2243E-02  0.7563E-01
     17.471  0.5716E-03  0.7571E-01
     17.618  0.8963E-02  0.7702E-01
     17.764  0.4559E-02  0.7769E-01
     17.911  0.4372E-02  0.7833E-01
     18.057  0.5406E-02  0.7913E-01
     18.204  0.3309E-06  0.7913E-01
     18.350  0.0000E+00  0.7913E-01
     18.497  0.1810E-14  0.7913E-01
     18.643  0.7870E-05  0.7913E-01
     18.790  0.9375E-02  0.8050E-01
     18.937  0.1421E-01  0.8258E-01
     19.083  0.9920E-02  0.8404E-01
     19.230  0.3867E-02  0.8460E-01
     19.376  0.3420E-02  0.8511E-01
     19.523  0.6136E-03  0.8520E-01
     19.669  0.9556E-02  0.8660E-01
     19.816  0.5009E-02  0.8733E-01
     19.963  0.1323E-01  0.8927E-01
     20.109  0.1923E-02  0.8955E-01
     20.256  0.7669E-02  0.9067E-01
     20.402  0.4525E-02  0.9134E-01
     20.549  0.2209E-03  0.9137E-01
     20.695  0.4297E-10  0.9137E-01
     20.842  0.2898E-03  0.9141E-01
     20.989  0.6243E-02  0.9233E-01
     21.135  0.7785E-02  0.9347E-01
     21.282  0.6349E-02  0.9440E-01
     21.428  0.1071E-01  0.9597E-01
     21.575  0.1554E-01  0.9825E-01
     21.721  0.3761E-02  0.9880E-01
     21.868  0.9176E-02  0.1001E+00
     22.014  0.8583E-02  0.1014E+00
     22.161  0.1123E-01  0.1030E+00
     22.308  0.7109E-03  0.1031E+00
     22.454  0.7557E-02  0.1043E+00
     22.601  0.1987E-02  0.1045E+00
     22.747  0.3393E-08  0.1045E+00
     22.894  0.1093E-05  0.1045E+00
     23.040  0.6588E-02  0.1055E+00
     23.187  0.9203E-02  0.1069E+00
     23.334  0.5109E-02  0.1076E+00
     23.480  0.1204E-01  0.1094E+00
     23.627  0.1374E-01  0.1114E+00
     23.773  0.2399E-01  0.1149E+00
     23.920  0.1434E-03  0.1149E+00
     24.066  0.2408E-06  0.1149E+00
     24.213  0.3656E-02  0.1155E+00
     24.360  0.2722E-02  0.1159E+00
     24.506  0.4361E-02  0.1165E+00
     24.653  0.4001E-03  0.1166E+00
     24.799  0.3253E-02  0.1170E+00
     24.946  0.4651E-02  0.1177E+00
     25.092  0.6211E-02  0.1186E+00
     25.239  0.4981E-02  0.1194E+00
     25.385  0.2049E-06  0.1194E+00
     25.532  0.1350E-06  0.1194E+00
     25.679  0.4616E-02  0.1200E+00
     25.825  0.6299E-02  0.1210E+00
     25.972  0.2242E-01  0.1242E+00
     26.118  0.1338E-01  0.1262E+00
     26.265  0.1054E-01  0.1278E+00
     26.411  0.3166E-02  0.1282E+00
     26.558  0.4782E-04  0.1282E+00
     26.705  0.1343E-03  0.1282E+00
     26.851  0.4580E-02  0.1289E+00
     26.998  0.8886E-02  0.1302E+00
     27.144  0.1243E-01  0.1320E+00
     27.291  0.1669E-01  0.1345E+00
     27.437  0.5256E-02  0.1353E+00
     27.584  0.3360E-02  0.1357E+00
     27.731  0.8393E-02  0.1370E+00
     27.877  0.1142E-02  0.1371E+00
     28.024  0.3415E-02  0.1376E+00
     28.170  0.9117E-02  0.1390E+00
     28.317  0.2173E-02  0.1393E+00
     28.463  0.5562E-02  0.1401E+00
     28.610  0.1661E-01  0.1425E+00
     28.756  0.9217E-02  0.1439E+00
     28.903  0.2707E-02  0.1443E+00
     29.050  0.2580E-02  0.1447E+00
     29.196  0.9030E-02  0.1460E+00
     29.343  0.6311E-04  0.1460E+00
     29.489  0.1677E-12  0.1460E+00
     29.636  0.0000E+00  0.1460E+00
     29.782  0.0000E+00  0.1460E+00
     29.929  0.2425E-07  0.1460E+00
     30.076  0.3234E-02  0.1465E+00
     30.222  0.6314E-02  0.1474E+00
     30.369  0.6267E-02  0.1483E+00
     30.515  0.3332E-02  0.1488E+00
     30.662  0.8962E-02  0.1501E+00
     30.808  0.9082E-02  0.1515E+00
     30.955  0.1055E-01  0.1530E+00
     31.102  0.7066E-02  0.1540E+00
     31.248  0.2481E-02  0.1544E+00
     31.395  0.7984E-08  0.1544E+00
     31.541  0.1942E-08  0.1544E+00
     31.688  0.6217E-03  0.1545E+00
     31.834  0.3932E-02  0.1551E+00
     31.981  0.2199E-03  0.1551E+00
     32.127  0.5604E-10  0.1551E+00
     32.274  0.2159E-03  0.1551E+00
     32.421  0.9179E-02  0.1565E+00
     32.567  0.1533E-03  0.1565E+00
     32.714  0.1532E-11  0.1565E+00
     32.860  0.2594E-05  0.1565E+00
     33.007  0.7202E-02  0.1576E+00
     33.153  0.6499E-02  0.1585E+00
     33.300  0.6184E-03  0.1586E+00
     33.447  0.3185E-09  0.1586E+00
     33.593  0.0000E+00  0.1586E+00
     33.740  0.0000E+00  0.1586E+00
     33.886  0.0000E+00  0.1586E+00
     34.033  0.1757E-15  0.1586E+00
     34.179  0.1406E-05  0.1586E+00
     34.326  0.1947E-02  0.1589E+00
     34.473  0.4389E-03  0.1590E+00
     34.619  0.3070E-02  0.1594E+00
     34.766  0.1703E-02  0.1597E+00
     34.912  0.1529E-07  0.1597E+00
     35.059  0.0000E+00  0.1597E+00
     35.205  0.0000E+00  0.1597E+00
     35.352  0.0000E+00  0.1597E+00
     35.498  0.1883E-10  0.1597E+00
     35.645  0.1572E-03  0.1597E+00
     35.792  0.2220E-02  0.1600E+00
     35.938  0.9953E-05  0.1600E+00
     36.085  0.1400E-13  0.1600E+00
     36.231  0.0000E+00  0.1600E+00
     36.378  0.0000E+00  0.1600E+00
     36.524  0.0000E+00  0.1600E+00
     36.671  0.0000E+00  0.1600E+00
     36.818  0.0000E+00  0.1600E+00
     36.964  0.0000E+00  0.1600E+00
     37.111  0.0000E+00  0.1600E+00
     37.257  0.0000E+00  0.1600E+00
     37.404  0.0000E+00  0.1600E+00
     37.550  0.0000E+00  0.1600E+00
     37.697  0.0000E+00  0.1600E+00
