    1    1  100    1
  0.1408159E+02  0.2710538E-09  0.2710538E-09  0.2710538E-09  0.5000000E-15
  1.000000000000000E-004
  CAR 
 unknown system                          
      4     20      8
 
  0.0000000E+00  0.0000000E+00  0.0000000E+00  0.2915452E-02
    1       -4.273923   1.000000
    2       21.364959   0.000000
    3       21.364967   0.000000
    4       21.364975   0.000000
    5       22.169245   0.000000
    6       22.169253   0.000000
    7       22.169262   0.000000
    8       27.486250   0.000000
 
  0.1428571E+00  0.1387779E-16  0.0000000E+00  0.2332362E-01
    1       -3.679291   1.000000
    2       15.974561   0.000000
    3       19.841567   0.000000
    4       19.841577   0.000000
    5       23.489998   0.000000
    6       24.206317   0.000000
    7       24.206331   0.000000
    8       27.257163   0.000000
 
  0.2857143E+00  0.1387779E-16  0.0000000E+00  0.2332362E-01
    1       -1.906631   1.000000
    2       10.106866   0.995704
    3       18.903286   0.000000
    4       18.903294   0.000000
    5       23.113847   0.000000
    6       23.113856   0.000000
    7       23.307634   0.000000
    8       28.358292   0.000000
 
  0.4285714E+00  0.2775558E-16  0.0000000E+00  0.2332362E-01
    1        1.002227   1.000000
    2        5.080367   1.000000
    3       18.752015   0.000000
    4       18.752019   0.000000
    5       21.348404   0.000000
    6       21.348416   0.000000
    7       23.449612   0.000000
    8       26.334732   0.000000
 
  0.1428571E+00  0.1428571E+00  0.0000000E+00  0.1749271E-01
    1       -3.481347   1.000000
    2       17.705356   0.000000
    3       17.705357   0.000000
    4       19.351358   0.000000
    5       19.689950   0.000000
    6       23.509364   0.000000
    7       26.772054   0.000000
    8       26.772054   0.000000
 
  0.2857143E+00  0.1428571E+00  0.0000000E+00  0.6997085E-01
    1       -2.101993   1.000000
    2       12.439862   0.000000
    3       16.500178   0.000000
    4       17.916568   0.000000
    5       19.615963   0.000000
    6       23.024152   0.000000
    7       27.170902   0.000000
    8       27.688901   0.000000
 
  0.4285714E+00  0.1428571E+00  0.0000000E+00  0.6997085E-01
    1        0.430829   1.000000
    2        7.138297   1.000000
    3       15.920441   0.000000
    4       16.309178   0.000000
    5       19.031852   0.000000
    6       25.094269   0.000000
    7       26.079839   0.000000
    8       28.667820   0.000000
 
 -0.4285714E+00  0.1428571E+00  0.0000000E+00  0.6997085E-01
    1        2.692800   1.000000
    2        4.169686   1.000000
    3       14.432151   0.000000
    4       17.114726   0.000000
    5       19.857000   0.000000
    6       23.690508   0.000000
    7       26.184294   0.000000
    8       30.354458   0.000000
 
 -0.2857143E+00  0.1428571E+00  0.0000000E+00  0.6997085E-01
    1       -0.538762   1.000000
    2        8.801773   1.000000
    3       13.929866   0.000000
    4       18.818411   0.000000
    5       21.797819   0.000000
    6       23.355666   0.000000
    7       25.680076   0.000000
    8       28.036547   0.000000
 
 -0.1428571E+00  0.1428571E+00  0.0000000E+00  0.3498542E-01
    1       -2.692154   1.000000
    2       14.079661   0.000000
    3       14.764958   0.000000
    4       20.896730   0.000000
    5       23.691914   0.000000
    6       24.457273   0.000000
    7       24.782540   0.000000
    8       24.931610   0.000000
 
  0.2857143E+00  0.2857143E+00  0.0000000E+00  0.1749271E-01
    1       -1.121559   1.000000
    2       14.530647   0.000000
    3       14.956464   0.000000
    4       14.956465   0.000000
    5       16.356825   0.000000
    6       18.761177   0.000000
    7       31.710729   0.000000
    8       31.787337   0.000000
 
  0.4285714E+00  0.2857143E+00  0.0000000E+00  0.6997085E-01
    1        1.015175   1.000000
    2       10.210908   0.376432
    3       11.657644   0.000000
    4       14.434851   0.000000
    5       16.877114   0.000000
    6       21.020022   0.000000
    7       30.090263   0.000000
    8       32.344830   0.000000
 
 -0.4285714E+00  0.2857143E+00  0.0000000E+00  0.6997085E-01
    1        4.222272   1.000000
    2        5.655984   1.000000
    3        9.642727   1.000000
    4       14.942986   0.000000
    5       17.526016   0.000000
    6       25.971951   0.000000
    7       28.484677   0.000000
    8       31.078742   0.000000
 
 -0.2857143E+00  0.2857143E+00  0.0000000E+00  0.3498542E-01
    1        1.974483   1.000000
    2        8.188107   1.000000
    3        9.138960   1.000000
    4       16.459326   0.000000
    5       19.214842   0.000000
    6       27.448631   0.000000
    7       28.158935   0.000000
    8       28.898151   0.000000
 
  0.4285714E+00  0.4285714E+00  0.0000000E+00  0.1749271E-01
    1        2.740069   1.000000
    2        8.115381   1.000000
    3       13.570847   0.000000
    4       13.570848   0.000000
    5       14.801647   0.000000
    6       17.206579   0.000000
    7       34.294071   0.000000
    8       35.698317   0.000000
 
 -0.4285714E+00  0.4285714E+00  0.0000000E+00  0.3498542E-01
    1        5.206580   1.000000
    2        6.049462   1.000000
    3        9.555948   1.000000
    4       13.742211   0.000000
    5       16.104887   0.000000
    6       20.342799   0.000000
    7       33.113515   0.000000
    8       34.606088   0.000000
 
  0.4285714E+00  0.2857143E+00  0.1428571E+00  0.6997085E-01
    1       -0.342598   1.000000
    2       11.151971   0.000000
    3       11.971651   0.000000
    4       15.431187   0.000000
    5       21.559401   0.000000
    6       22.425440   0.000000
    7       25.873577   0.000000
    8       30.605675   0.000000
 
 -0.4285714E+00  0.2857143E+00  0.1428571E+00  0.1399417E+00
    1        2.545292   1.000000
    2        6.564253   1.000000
    3       11.742085   0.000000
    4       13.183688   0.000000
    5       22.020038   0.000000
    6       23.630220   0.000000
    7       27.001049   0.000000
    8       30.813043   0.000000
 
 -0.4285714E+00  0.4285714E+00  0.1428571E+00  0.6997085E-01
    1        3.499794   1.000000
    2        8.789551   1.000000
    3        9.673807   1.000000
    4       10.708180   0.000000
    5       20.138922   0.000000
    6       21.268646   0.000000
    7       29.108562   0.000000
    8       32.982562   0.000000
 
 -0.2857143E+00  0.4285714E+00  0.1428571E+00  0.6997085E-01
    1        5.721837   1.000000
    2        6.698689   1.000000
    3        7.667545   1.000000
    4       11.159782   0.000000
    5       21.515558   0.000000
    6       25.880852   0.000000
    7       27.272507   0.000000
    8       28.538617   0.000000
