<?xml version="1.0" encoding="ISO-8859-1"?>
<modeling>
 <generator>
  <i name="program" type="string">vasp </i>
  <i name="version" type="string">6.2.0  </i>
  <i name="subversion" type="string">18Jan21 (build Aug 12 2022 13:00:08) complex                          parallel </i>
  <i name="platform" type="string">LinuxIFC </i>
  <i name="date" type="string">2024 11 03 </i>
  <i name="time" type="string">21:53:22 </i>
 </generator>
 <incar>
  <i type="int" name="ISTART">     0</i>
  <i type="string" name="PREC">Accurate      (Accurate strictly avoids</i>
  <i type="logical" name="ADDGRID"> T  </i>
  <i type="int" name="ISPIN">     1</i>
  <i type="int" name="NELM">    90</i>
  <i type="int" name="NELMIN">     6</i>
  <i type="int" name="IBRION">     2</i>
  <i name="EDIFF">      0.00000100</i>
  <i name="EDIFFG">     -0.00200000</i>
  <i type="int" name="NSW">   100</i>
  <i type="int" name="ISIF">     3</i>
  <i type="int" name="ISYM">     2</i>
  <i name="ENCUT">    350.00000000</i>
  <i type="logical" name="LREAL"> F  </i>
  <i type="int" name="ISMEAR">     0</i>
  <i name="SIGMA">      0.05000000</i>
  <i type="logical" name="LWAVE"> F  </i>
  <i type="logical" name="LCHARG"> F  </i>
  <i type="logical" name="LASPH"> T  </i>
 </incar>
 <primitive_cell>
  <structure name="primitive_cell" >
   <crystal>
    <varray name="basis" >
     <v>       2.34739500       0.00000000       1.35526800 </v>
     <v>       0.78246500       2.21314500       1.35526800 </v>
     <v>       0.00000000       0.00000000       2.71053800 </v>
    </varray>
    <i name="volume">     14.08158510 </i>
    <varray name="rec_basis" >
     <v>       0.42600415      -0.15061523       0.00000000 </v>
     <v>       0.00000000       0.45184568       0.00000000 </v>
     <v>      -0.21300192      -0.15061511       0.36893045 </v>
    </varray>
   </crystal>
   <varray name="positions" >
    <v>       0.00000000       0.00000000       0.00000000 </v>
   </varray>
  </structure>
  <varray name="primitive_index" >
   <v type="int" >        1 </v>
  </varray>
 </primitive_cell>
 <kpoints>
  <generation param="Monkhorst-Pack">
   <v type="int" name="divisions">       7        7        7 </v>
   <v name="usershift">      0.00000000       0.00000000       0.00000000 </v>
   <v name="genvec1">      0.14285714      -0.00000000       0.00000000 </v>
   <v name="genvec2">      0.00000000       0.14285714       0.00000000 </v>
   <v name="genvec3">     -0.00000000      -0.00000000       0.14285714 </v>
   <v name="shift">      0.00000000       0.00000000       0.00000000 </v>
  </generation>
  <varray name="kpointlist" >
   <v>       0.00000000       0.00000000       0.00000000 </v>
   <v>       0.14285714       0.00000000       0.00000000 </v>
   <v>       0.28571429       0.00000000       0.00000000 </v>
   <v>       0.42857143       0.00000000       0.00000000 </v>
   <v>       0.14285714       0.14285714       0.00000000 </v>
   <v>       0.28571429       0.14285714       0.00000000 </v>
   <v>       0.42857143       0.14285714       0.00000000 </v>
   <v>      -0.42857143       0.14285714       0.00000000 </v>
   <v>      -0.28571429       0.14285714       0.00000000 </v>
   <v>      -0.14285714       0.14285714       0.00000000 </v>
   <v>       0.28571429       0.28571429       0.00000000 </v>
   <v>       0.42857143       0.28571429       0.00000000 </v>
   <v>      -0.42857143       0.28571429       0.00000000 </v>
   <v>      -0.28571429       0.28571429       0.00000000 </v>
   <v>       0.42857143       0.42857143       0.00000000 </v>
   <v>      -0.42857143       0.42857143       0.00000000 </v>
   <v>       0.42857143       0.28571429       0.14285714 </v>
   <v>      -0.42857143       0.28571429       0.14285714 </v>
   <v>      -0.42857143       0.42857143       0.14285714 </v>
   <v>      -0.28571429       0.42857143       0.14285714 </v>
  </varray>
  <varray name="weights" >
   <v>       0.00291545 </v>
   <v>       0.02332362 </v>
   <v>       0.02332362 </v>
   <v>       0.02332362 </v>
   <v>       0.01749271 </v>
   <v>       0.06997085 </v>
   <v>       0.06997085 </v>
   <v>       0.06997085 </v>
   <v>       0.06997085 </v>
   <v>       0.03498542 </v>
   <v>       0.01749271 </v>
   <v>       0.06997085 </v>
   <v>       0.06997085 </v>
   <v>       0.03498542 </v>
   <v>       0.01749271 </v>
   <v>       0.03498542 </v>
   <v>       0.06997085 </v>
   <v>       0.13994169 </v>
   <v>       0.06997085 </v>
   <v>       0.06997085 </v>
  </varray>
 </kpoints>
 <parameters>
  <separator name="general" >
   <i type="string" name="SYSTEM">unknown system</i>
   <i type="logical" name="LCOMPAT"> F  </i>
  </separator>
  <separator name="electronic" >
   <i type="string" name="PREC">accura</i>
   <i name="ENMAX">    350.00000000</i>
   <i name="ENAUG">    322.06900000</i>
   <i name="EDIFF">      0.00000100</i>
   <i type="int" name="IALGO">    38</i>
   <i type="int" name="IWAVPR">    11</i>
   <i type="int" name="NBANDS">     8</i>
   <i type="int" name="NBANDSLOW">    -1</i>
   <i type="int" name="NBANDSHIGH">    -1</i>
   <i name="NELECT">      4.00000000</i>
   <i type="int" name="TURBO">     0</i>
   <i type="int" name="IRESTART">     0</i>
   <i type="int" name="NREBOOT">     0</i>
   <i type="int" name="NMIN">     0</i>
   <i name="EREF">      0.00000000</i>
   <separator name="electronic smearing" >
    <i type="int" name="ISMEAR">     0</i>
    <i name="SIGMA">      0.05000000</i>
    <i name="KSPACING">      0.50000000</i>
    <i type="logical" name="KGAMMA"> T  </i>
    <i type="logical" name="KBLOWUP"> T  </i>
   </separator>
   <separator name="electronic projectors" >
    <i type="logical" name="LREAL"> F  </i>
    <v name="ROPT">      0.00000000</v>
    <i type="int" name="LMAXPAW">  -100</i>
    <i type="int" name="LMAXMIX">     2</i>
    <i type="logical" name="NLSPLINE"> F  </i>
   </separator>
   <separator name="electronic startup" >
    <i type="int" name="ISTART">     0</i>
    <i type="int" name="ICHARG">     2</i>
    <i type="int" name="INIWAV">     1</i>
   </separator>
   <separator name="electronic spin" >
    <i type="int" name="ISPIN">     1</i>
    <i type="logical" name="LNONCOLLINEAR"> F  </i>
    <v name="MAGMOM">      1.00000000</v>
    <i name="NUPDOWN">     -1.00000000</i>
    <i type="logical" name="LSORBIT"> F  </i>
    <v name="SAXIS">      0.00000000      0.00000000      1.00000000</v>
    <i type="logical" name="LSPIRAL"> F  </i>
    <v name="QSPIRAL">      0.00000000      0.00000000      0.00000000</v>
    <i type="logical" name="LZEROZ"> F  </i>
   </separator>
   <separator name="electronic exchange-correlation" >
    <i type="logical" name="LASPH"> T  </i>
    <i type="logical" name="LMETAGGA"> F  </i>
   </separator>
   <separator name="electronic convergence" >
    <i type="int" name="NELM">    90</i>
    <i type="int" name="NELMDL">    -5</i>
    <i type="int" name="NELMIN">     6</i>
    <i name="ENINI">    350.00000000</i>
    <separator name="electronic convergence detail" >
     <i type="logical" name="LDIAG"> T  </i>
     <i type="logical" name="LSUBROT"> F  </i>
     <i name="WEIMIN">      0.00100000</i>
     <i name="EBREAK">      0.00000003</i>
     <i name="DEPER">      0.30000000</i>
     <i type="int" name="NRMM">     4</i>
     <i name="TIME">      0.40000000</i>
    </separator>
   </separator>
   <separator name="electronic mixer" >
    <i name="AMIX">      0.40000000</i>
    <i name="BMIX">      1.00000000</i>
    <i name="AMIN">      0.10000000</i>
    <i name="AMIX_MAG">      1.60000000</i>
    <i name="BMIX_MAG">      1.00000000</i>
    <separator name="electronic mixer details" >
     <i type="int" name="IMIX">     4</i>
     <i type="logical" name="MIXFIRST"> F  </i>
     <i type="int" name="MAXMIX">   -45</i>
     <i name="WC">    100.00000000</i>
     <i type="int" name="INIMIX">     1</i>
     <i type="int" name="MIXPRE">     1</i>
     <i type="int" name="MREMOVE">     5</i>
    </separator>
   </separator>
   <separator name="electronic dipolcorrection" >
    <i type="logical" name="LDIPOL"> F  </i>
    <i type="logical" name="LMONO"> F  </i>
    <i type="int" name="IDIPOL">     0</i>
    <i name="EPSILON">      1.00000000</i>
    <v name="DIPOL">   -100.00000000   -100.00000000   -100.00000000</v>
    <i name="EFIELD">      0.00000000</i>
   </separator>
  </separator>
  <separator name="grids" >
   <i type="int" name="NGX">    18</i>
   <i type="int" name="NGY">    18</i>
   <i type="int" name="NGZ">    18</i>
   <i type="int" name="NGXF">    36</i>
   <i type="int" name="NGYF">    36</i>
   <i type="int" name="NGZF">    36</i>
   <i type="logical" name="ADDGRID"> T  </i>
  </separator>
  <separator name="ionic" >
   <i type="int" name="NSW">   100</i>
   <i type="int" name="IBRION">     2</i>
   <i type="int" name="MDALGO">     0</i>
   <i type="int" name="ISIF">     3</i>
   <i name="PSTRESS">      0.00000000</i>
   <i name="EDIFFG">     -0.00200000</i>
   <i type="int" name="NFREE">     1</i>
   <i name="POTIM">      0.50000000</i>
   <i name="SMASS">     -3.00000000</i>
   <i name="SCALEE">      1.00000000</i>
  </separator>
  <separator name="ionic md" >
   <i name="TEBEG">      0.00010000</i>
   <i name="TEEND">      0.00010000</i>
   <i type="int" name="NBLOCK">     1</i>
   <i type="int" name="KBLOCK">   100</i>
   <i type="int" name="NPACO">   256</i>
   <i name="APACO">     16.00000000</i>
  </separator>
  <separator name="symmetry" >
   <i type="int" name="ISYM">     2</i>
   <i name="SYMPREC">      0.00001000</i>
  </separator>
  <separator name="dos" >
   <i type="int" name="LORBIT">     0</i>
   <v name="RWIGS">     -1.00000000</v>
   <i type="int" name="NEDOS">   301</i>
   <i name="EMIN">     10.00000000</i>
   <i name="EMAX">    -10.00000000</i>
   <i name="EFERMI">      0.00000000</i>
  </separator>
  <separator name="writing" >
   <i type="int" name="NWRITE">     2</i>
   <i type="logical" name="LWAVE"> F  </i>
   <i type="logical" name="LDOWNSAMPLE"> F  </i>
   <i type="logical" name="LCHARG"> F  </i>
   <i type="logical" name="LPARD"> F  </i>
   <i type="logical" name="LVTOT"> F  </i>
   <i type="logical" name="LVHAR"> F  </i>
   <i type="logical" name="LELF"> F  </i>
   <i type="logical" name="LOPTICS"> F  </i>
   <v name="STM">      0.00000000      0.00000000      0.00000000      0.00000000      0.00000000      0.00000000      0.00000000</v>
  </separator>
  <separator name="performance" >
   <i type="int" name="NPAR">     4</i>
   <i type="int" name="NSIM">     4</i>
   <i type="int" name="NBLK">    -1</i>
   <i type="logical" name="LPLANE"> T  </i>
   <i type="logical" name="LSCALAPACK"> T  </i>
   <i type="logical" name="LSCAAWARE"> F  </i>
   <i type="logical" name="LSCALU"> F  </i>
   <i type="logical" name="LASYNC"> F  </i>
   <i type="logical" name="LORBITALREAL"> F  </i>
  </separator>
  <separator name="miscellaneous" >
   <i type="int" name="IDIOT">     3</i>
   <i type="int" name="PHON_NSTRUCT">    -1</i>
   <i type="logical" name="LMUSIC"> F  </i>
   <v name="POMASS">     28.08500000</v>
   <v name="DARWINR">      0.00000000</v>
   <v name="DARWINV">      1.00000000</v>
   <i type="logical" name="LCORR"> T  </i>
  </separator>
  <i type="logical" name="GGA_COMPAT"> T  </i>
  <i type="logical" name="LBERRY"> F  </i>
  <i type="int" name="ICORELEVEL">     0</i>
  <i type="logical" name="LDAU"> F  </i>
  <i type="int" name="I_CONSTRAINED_M">     0</i>
  <separator name="electronic exchange-correlation" >
   <i type="string" name="GGA">--</i>
   <i type="int" name="VOSKOWN">     0</i>
   <i type="logical" name="LHFCALC"> F  </i>
   <i type="string" name="PRECFOCK"></i>
   <i type="logical" name="LSYMGRAD"> F  </i>
   <i type="logical" name="LHFONE"> F  </i>
   <i type="logical" name="LRHFCALC"> F  </i>
   <i type="logical" name="LTHOMAS"> F  </i>
   <i type="logical" name="LMODELHF"> F  </i>
   <i type="logical" name="LFOCKACE"> F  </i>
   <i name="ENCUT4O">     -1.00000000</i>
   <i type="int" name="EXXOEP">     0</i>
   <i type="int" name="FOURORBIT">     0</i>
   <i name="AEXX">      0.00000000</i>
   <i name="HFALPHA">      0.00000000</i>
   <i name="MCALPHA">      0.00000000</i>
   <i name="ALDAX">      1.00000000</i>
   <i name="AGGAX">      1.00000000</i>
   <i name="ALDAC">      1.00000000</i>
   <i name="AGGAC">      1.00000000</i>
   <i type="int" name="NKREDX">     1</i>
   <i type="int" name="NKREDY">     1</i>
   <i type="int" name="NKREDZ">     1</i>
   <i type="logical" name="SHIFTRED"> F  </i>
   <i type="logical" name="ODDONLY"> F  </i>
   <i type="logical" name="EVENONLY"> F  </i>
   <i type="int" name="LMAXFOCK">     0</i>
   <i type="int" name="NMAXFOCKAE">     0</i>
   <i type="logical" name="LFOCKAEDFT"> F  </i>
   <i name="HFSCREEN">      0.00000000</i>
   <i name="HFSCREENC">      0.00000000</i>
   <i type="int" name="NBANDSGWLOW">     0</i>
  </separator>
  <separator name="vdW DFT" >
   <i type="logical" name="LUSE_VDW"> F  </i>
   <i name="Zab_VDW">     -0.84910000</i>
   <i name="PARAM1">      0.12340000</i>
   <i name="PARAM2">      1.00000000</i>
   <i name="PARAM3">      0.00000000</i>
  </separator>
  <separator name="model GW" >
   <i type="int" name="MODEL_GW">     0</i>
   <i name="MODEL_EPS0">      8.44895106</i>
   <i name="MODEL_ALPHA">      1.00000000</i>
  </separator>
  <separator name="linear response parameters" >
   <i type="logical" name="LEPSILON"> F  </i>
   <i type="logical" name="LRPA"> F  </i>
   <i type="logical" name="LNABLA"> F  </i>
   <i type="logical" name="LVEL"> F  </i>
   <i type="int" name="KINTER">     0</i>
   <i name="CSHIFT">      0.10000000</i>
   <i name="OMEGAMAX">     -1.00000000</i>
   <i name="DEG_THRESHOLD">      0.00200000</i>
   <i name="RTIME">     -0.10000000</i>
   <i name="WPLASMAI">      0.00000000</i>
   <v name="DFIELD">      0.00000000      0.00000000      0.00000000</v>
   <v name="WPLASMA">      0.00000000      0.00000000      0.00000000      0.00000000      0.00000000      0.00000000      0.00000000      0.00000000      0.00000000</v>
  </separator>
  <separator name="orbital magnetization" >
   <i type="logical" name="NUCIND"> F  </i>
   <v name="MAGPOS">      0.00000000      0.00000000      0.00000000</v>
   <i type="logical" name="LNICSALL"> T  </i>
   <i type="logical" name="ORBITALMAG"> F  </i>
   <i type="logical" name="LMAGBLOCH"> F  </i>
   <i type="logical" name="LCHIMAG"> F  </i>
   <i type="logical" name="LGAUGE"> T  </i>
   <i type="int" name="MAGATOM">     0</i>
   <v name="MAGDIPOL">      0.00000000      0.00000000      0.00000000</v>
   <v name="AVECCONST">      0.00000000      0.00000000      0.00000000</v>
  </separator>
  <separator name="response functions" >
   <i type="logical" name="LFINITE_TEMPERATURE"> F  </i>
   <i type="logical" name="LADDER"> F  </i>
   <i type="logical" name="LRPAFORCE"> F  </i>
   <i type="logical" name="LFXC"> F  </i>
   <i type="logical" name="LHARTREE"> T  </i>
   <i type="int" name="IBSE">     0</i>
   <v type="int" name="KPOINT">    -1     0     0     0</v>
   <i type="logical" name="LTCTC"> F  </i>
   <i type="logical" name="LTCTE"> F  </i>
   <i type="logical" name="LTETE"> F  </i>
   <i type="logical" name="LTRIPLET"> F  </i>
   <i type="logical" name="LFXCEPS"> F  </i>
   <i type="logical" name="LFXHEG"> F  </i>
   <i type="int" name="NATURALO">     2</i>
   <i type="logical" name="LHOLEGF"> F  </i>
   <i type="logical" name="L2ORDER"> F  </i>
   <i type="logical" name="LDMP1"> F  </i>
   <i type="logical" name="LMP2LT"> F  </i>
   <i type="logical" name="LSMP2LT"> F  </i>
   <i type="logical" name="LGWLF"> F  </i>
   <i name="ENCUTGW">     -2.00000000</i>
   <i name="ENCUTGWSOFT">     -2.00000000</i>
   <i name="ENCUTLF">     -1.00000000</i>
   <i type="logical" name="LESF_SPLINES"> F  </i>
   <i type="int" name="LMAXMP2">    -1</i>
   <i name="SCISSOR">      0.00000000</i>
   <i type="int" name="NOMEGA">     0</i>
   <i type="int" name="NOMEGAR">     0</i>
   <i type="int" name="NBANDSGW">    -1</i>
   <i type="int" name="NBANDSO">    -1</i>
   <i type="int" name="NBANDSV">    -1</i>
   <i type="int" name="NELM">    90</i>
   <i type="int" name="NELMHF">     1</i>
   <i type="int" name="DIM">     3</i>
   <i type="int" name="IESPILON">     4</i>
   <i type="int" name="ANTIRES">     0</i>
   <i name="OMEGAMAX">    -30.00000000</i>
   <i name="OMEGAMIN">    -30.00000000</i>
   <i name="OMEGATL">   -200.00000000</i>
   <i type="int" name="OMEGAGRID">     0</i>
   <i name="CSHIFT">     -0.10000000</i>
   <i type="logical" name="LSELFENERGY"> F  </i>
   <i type="logical" name="LSPECTRAL"> F  </i>
   <i type="logical" name="LSPECTRALGW"> F  </i>
   <i type="logical" name="LSINGLES"> F  </i>
   <i type="logical" name="LFERMIGW"> F  </i>
   <i type="logical" name="ODDONLYGW"> F  </i>
   <i type="logical" name="EVENONLYGW"> F  </i>
   <i type="int" name="NKREDLFX">     1</i>
   <i type="int" name="NKREDLFY">     1</i>
   <i type="int" name="NKREDLFZ">     1</i>
   <i type="int" name="MAXMEM">  2800</i>
   <i type="int" name="TELESCOPE">     0</i>
   <i type="int" name="NTAUPAR">    -1</i>
   <i type="int" name="NOMEGAPAR">    -1</i>
   <i name="DAMP_NEWTON">      0.80000001</i>
   <i name="LAMBDA">      1.00000000</i>
  </separator>
  <separator name="External order field" >
   <i name="OFIELD_KAPPA">      0.00000000</i>
   <v name="OFIELD_K">      0.00000000      0.00000000      0.00000000</v>
   <i name="OFIELD_Q6_NEAR">      0.00000000</i>
   <i name="OFIELD_Q6_FAR">      0.00000000</i>
   <i name="OFIELD_A">      0.00000000</i>
  </separator>
 </parameters>
 <atominfo>
  <atoms>       1 </atoms>
  <types>       1 </types>
  <array name="atoms" >
   <dimension dim="1">ion</dimension>
   <field type="string">element</field>
   <field type="int">atomtype</field>
   <set>
    <rc><c>Si</c><c>   1</c></rc>
   </set>
  </array>
  <array name="atomtypes" >
   <dimension dim="1">type</dimension>
   <field type="int">atomspertype</field>
   <field type="string">element</field>
   <field>mass</field>
   <field>valence</field>
   <field type="string">pseudopotential</field>
   <set>
    <rc><c>   1</c><c>Si</c><c>     28.08500000</c><c>      4.00000000</c><c>  PAW_PBE Si 05Jan2001                  </c></rc>
   </set>
  </array>
 </atominfo>
 <structure name="initialpos" >
  <crystal>
   <varray name="basis" >
    <v>       2.34739500       0.00000000       1.35526800 </v>
    <v>       0.78246500       2.21314500       1.35526800 </v>
    <v>       0.00000000       0.00000000       2.71053800 </v>
   </varray>
   <i name="volume">     14.08158510 </i>
   <varray name="rec_basis" >
    <v>       0.42600415      -0.15061523       0.00000000 </v>
    <v>       0.00000000       0.45184568       0.00000000 </v>
    <v>      -0.21300192      -0.15061511       0.36893045 </v>
   </varray>
  </crystal>
  <varray name="positions" >
   <v>       0.00000000       0.00000000       0.00000000 </v>
  </varray>
 </structure>
 <calculation>
  <scstep>
   <time name="dav">    0.17    0.17</time>
   <time name="total">    0.43    0.43</time>
   <energy>
    <i name="alphaZ">      2.39057823 </i>
    <i name="ewald">   -137.78496289 </i>
    <i name="hartreedc">     -0.54229904 </i>
    <i name="XCdc">     -8.73348015 </i>
    <i name="pawpsdc">     88.12379961 </i>
    <i name="pawaedc">    -70.53051779 </i>
    <i name="eentropy">     -0.00286710 </i>
    <i name="bandstr">     20.59740830 </i>
    <i name="atom">    103.06562707 </i>
    <i name="e_fr_energy">     -3.41671375 </i>
    <i name="e_wo_entrp">     -3.41384666 </i>
    <i name="e_0_energy">     -3.41528021 </i>
   </energy>
  </scstep>
  <scstep>
   <time name="dav">    0.23    0.24</time>
   <time name="total">    0.23    0.24</time>
   <energy>
    <i name="e_fr_energy">     -4.87780354 </i>
    <i name="e_wo_entrp">     -4.87592238 </i>
    <i name="e_0_energy">     -4.87686296 </i>
   </energy>
  </scstep>
  <scstep>
   <time name="dav">    0.16    0.17</time>
   <time name="total">    0.16    0.17</time>
   <energy>
    <i name="e_fr_energy">     -4.88623210 </i>
    <i name="e_wo_entrp">     -4.88435044 </i>
    <i name="e_0_energy">     -4.88529127 </i>
   </energy>
  </scstep>
  <scstep>
   <time name="dav">    0.23    0.24</time>
   <time name="total">    0.23    0.24</time>
   <energy>
    <i name="e_fr_energy">     -4.88623589 </i>
    <i name="e_wo_entrp">     -4.88435424 </i>
    <i name="e_0_energy">     -4.88529506 </i>
   </energy>
  </scstep>
  <scstep>
   <time name="dav">    0.15    0.16</time>
   <time name="total">    0.17    0.18</time>
   <energy>
    <i name="e_fr_energy">     -4.88623589 </i>
    <i name="e_wo_entrp">     -4.88435424 </i>
    <i name="e_0_energy">     -4.88529506 </i>
   </energy>
  </scstep>
  <scstep>
   <time name="dav">    0.10    0.10</time>
   <time name="total">    0.29    0.30</time>
   <energy>
    <i name="e_fr_energy">     -4.87275628 </i>
    <i name="e_wo_entrp">     -4.87087369 </i>
    <i name="e_0_energy">     -4.87181498 </i>
   </energy>
  </scstep>
  <scstep>
   <time name="dav">    0.10    0.11</time>
   <time name="total">    0.31    0.32</time>
   <energy>
    <i name="e_fr_energy">     -4.86496599 </i>
    <i name="e_wo_entrp">     -4.86308178 </i>
    <i name="e_0_energy">     -4.86402388 </i>
   </energy>
  </scstep>
  <scstep>
   <time name="dav">    0.12    0.13</time>
   <time name="total">    0.32    0.33</time>
   <energy>
    <i name="e_fr_energy">     -4.86492843 </i>
    <i name="e_wo_entrp">     -4.86304425 </i>
    <i name="e_0_energy">     -4.86398634 </i>
   </energy>
  </scstep>
  <scstep>
   <time name="dav">    0.11    0.11</time>
   <time name="total">    0.29    0.30</time>
   <energy>
    <i name="alphaZ">      2.39057823 </i>
    <i name="ewald">   -137.78496289 </i>
    <i name="hartreedc">     -0.41567518 </i>
    <i name="XCdc">     -8.66949795 </i>
    <i name="pawpsdc">    316.99797677 </i>
    <i name="pawaedc">   -299.41666210 </i>
    <i name="eentropy">     -0.00188418 </i>
    <i name="bandstr">     18.96957152 </i>
    <i name="atom">    103.06562707 </i>
    <i name="e_fr_energy">     -4.86492872 </i>
    <i name="e_wo_entrp">     -4.86304454 </i>
    <i name="e_0_energy">     -4.86398663 </i>
   </energy>
  </scstep>
  <structure>
   <crystal>
    <varray name="basis" >
     <v>       2.34739500       0.00000000       1.35526800 </v>
     <v>       0.78246500       2.21314500       1.35526800 </v>
     <v>       0.00000000       0.00000000       2.71053800 </v>
    </varray>
    <i name="volume">     14.08158510 </i>
    <varray name="rec_basis" >
     <v>       0.42600415      -0.15061523       0.00000000 </v>
     <v>       0.00000000       0.45184568       0.00000000 </v>
     <v>      -0.21300192      -0.15061511       0.36893045 </v>
    </varray>
   </crystal>
   <varray name="positions" >
    <v>       0.00000000       0.00000000       0.00000000 </v>
   </varray>
  </structure>
  <varray name="forces" >
   <v>       0.00000000       0.00000000      -0.00000000 </v>
  </varray>
  <varray name="stress" >
   <v>      22.03506380      -0.00000000      -0.00000939 </v>
   <v>      -0.00000000      22.03505922      -0.00000664 </v>
   <v>      -0.00000939      -0.00000664      22.03505941 </v>
  </varray>
  <energy>
   <i name="e_fr_energy">     -4.86492872 </i>
   <i name="e_wo_entrp">     -4.86304454 </i>
   <i name="e_0_energy">     -4.86398663 </i>
  </energy>
  <time name="totalsc">    3.10    3.23</time>
 </calculation>
 <calculation>
  <scstep>
   <time name="dav">    0.10    0.10</time>
   <time name="total">    0.30    0.30</time>
   <energy>
    <i name="alphaZ">      2.32480554 </i>
    <i name="ewald">   -136.50955396 </i>
    <i name="hartreedc">     -0.41177299 </i>
    <i name="XCdc">     -8.74227111 </i>
    <i name="pawpsdc">    317.00316180 </i>
    <i name="pawaedc">   -299.42156005 </i>
    <i name="eentropy">     -0.00190625 </i>
    <i name="bandstr">     17.82469324 </i>
    <i name="atom">    103.06562707 </i>
    <i name="e_fr_energy">     -4.86877670 </i>
    <i name="e_wo_entrp">     -4.86687045 </i>
    <i name="e_0_energy">     -4.86782357 </i>
   </energy>
  </scstep>
  <scstep>
   <time name="dav">    0.11    0.11</time>
   <time name="total">    0.31    0.32</time>
   <energy>
    <i name="e_fr_energy">     -4.86785429 </i>
    <i name="e_wo_entrp">     -4.86594978 </i>
    <i name="e_0_energy">     -4.86690204 </i>
   </energy>
  </scstep>
  <scstep>
   <time name="dav">    0.12    0.12</time>
   <time name="total">    0.32    0.32</time>
   <energy>
    <i name="e_fr_energy">     -4.86731405 </i>
    <i name="e_wo_entrp">     -4.86541185 </i>
    <i name="e_0_energy">     -4.86636295 </i>
   </energy>
  </scstep>
  <scstep>
   <time name="dav">    0.12    0.12</time>
   <time name="total">    0.32    0.33</time>
   <energy>
    <i name="e_fr_energy">     -4.86731331 </i>
    <i name="e_wo_entrp">     -4.86541109 </i>
    <i name="e_0_energy">     -4.86636220 </i>
   </energy>
  </scstep>
  <scstep>
   <time name="dav">    0.07    0.08</time>
   <time name="total">    0.27    0.29</time>
   <energy>
    <i name="e_fr_energy">     -4.86730985 </i>
    <i name="e_wo_entrp">     -4.86540760 </i>
    <i name="e_0_energy">     -4.86635872 </i>
   </energy>
  </scstep>
  <scstep>
   <time name="dav">    0.07    0.07</time>
   <time name="total">    0.25    0.26</time>
   <energy>
    <i name="alphaZ">      2.32480554 </i>
    <i name="ewald">   -136.50955396 </i>
    <i name="hartreedc">     -0.45650382 </i>
    <i name="XCdc">     -8.75179396 </i>
    <i name="pawpsdc">    298.55919193 </i>
    <i name="pawaedc">   -280.97280847 </i>
    <i name="eentropy">     -0.00190224 </i>
    <i name="bandstr">     17.87562783 </i>
    <i name="atom">    103.06562707 </i>
    <i name="e_fr_energy">     -4.86731008 </i>
    <i name="e_wo_entrp">     -4.86540784 </i>
    <i name="e_0_energy">     -4.86635896 </i>
   </energy>
  </scstep>
  <structure>
   <crystal>
    <varray name="basis" >
     <v>       2.36932671      -0.00000000       1.36793026 </v>
     <v>       0.78977557       2.23382241       1.36793026 </v>
     <v>      -0.00000001      -0.00000001       2.73586256 </v>
    </varray>
    <i name="volume">     14.47997700 </i>
    <varray name="rec_basis" >
     <v>       0.42206083      -0.14922105       0.00000000 </v>
     <v>       0.00000000       0.44766316       0.00000000 </v>
     <v>      -0.21103026      -0.14922094       0.36551544 </v>
    </varray>
   </crystal>
   <varray name="positions" >
    <v>       0.00000000       0.00000000      -0.00000000 </v>
   </varray>
  </structure>
  <varray name="forces" >
   <v>      -0.00000000       0.00000000       0.00000000 </v>
  </varray>
  <varray name="stress" >
   <v>      -2.31140389       0.00000000       0.00000100 </v>
   <v>      -0.00000000      -2.31140340       0.00000071 </v>
   <v>       0.00000100       0.00000071      -2.31140342 </v>
  </varray>
  <energy>
   <i name="e_fr_energy">     -4.86731008 </i>
   <i name="e_wo_entrp">     -4.86540784 </i>
   <i name="e_0_energy">     -4.86635896 </i>
  </energy>
  <time name="totalsc">    2.42    2.53</time>
 </calculation>
 <calculation>
  <scstep>
   <time name="dav">    0.10    0.10</time>
   <time name="total">    0.29    0.30</time>
   <energy>
    <i name="alphaZ">      2.33133742 </i>
    <i name="ewald">   -136.63728225 </i>
    <i name="hartreedc">     -0.45692979 </i>
    <i name="XCdc">     -8.74456377 </i>
    <i name="pawpsdc">    298.45849939 </i>
    <i name="pawaedc">   -280.87212092 </i>
    <i name="eentropy">     -0.00189888 </i>
    <i name="bandstr">     17.98997769 </i>
    <i name="atom">    103.06562707 </i>
    <i name="e_fr_energy">     -4.86735403 </i>
    <i name="e_wo_entrp">     -4.86545515 </i>
    <i name="e_0_energy">     -4.86640459 </i>
   </energy>
  </scstep>
  <scstep>
   <time name="dav">    0.12    0.12</time>
   <time name="total">    0.32    0.33</time>
   <energy>
    <i name="e_fr_energy">     -4.86734450 </i>
    <i name="e_wo_entrp">     -4.86544549 </i>
    <i name="e_0_energy">     -4.86639500 </i>
   </energy>
  </scstep>
  <scstep>
   <time name="dav">    0.10    0.10</time>
   <time name="total">    0.29    0.30</time>
   <energy>
    <i name="e_fr_energy">     -4.86733940 </i>
    <i name="e_wo_entrp">     -4.86544019 </i>
    <i name="e_0_energy">     -4.86638980 </i>
   </energy>
  </scstep>
  <scstep>
   <time name="dav">    0.08    0.08</time>
   <time name="total">    0.28    0.29</time>
   <energy>
    <i name="e_fr_energy">     -4.86733943 </i>
    <i name="e_wo_entrp">     -4.86544022 </i>
    <i name="e_0_energy">     -4.86638982 </i>
   </energy>
  </scstep>
  <scstep>
   <time name="dav">    0.07    0.07</time>
   <time name="total">    0.27    0.28</time>
   <energy>
    <i name="e_fr_energy">     -4.86733963 </i>
    <i name="e_wo_entrp">     -4.86544042 </i>
    <i name="e_0_energy">     -4.86639002 </i>
   </energy>
  </scstep>
  <scstep>
   <time name="dav">    0.07    0.07</time>
   <time name="total">    0.25    0.26</time>
   <energy>
    <i name="alphaZ">      2.33133742 </i>
    <i name="ewald">   -136.63728225 </i>
    <i name="hartreedc">     -0.45217963 </i>
    <i name="XCdc">     -8.74359661 </i>
    <i name="pawpsdc">    300.17157497 </i>
    <i name="pawaedc">   -282.58566822 </i>
    <i name="eentropy">     -0.00189921 </i>
    <i name="bandstr">     17.98474685 </i>
    <i name="atom">    103.06562707 </i>
    <i name="e_fr_energy">     -4.86733961 </i>
    <i name="e_wo_entrp">     -4.86544040 </i>
    <i name="e_0_energy">     -4.86639000 </i>
   </energy>
  </scstep>
  <structure>
   <crystal>
    <varray name="basis" >
     <v>       2.36711187      -0.00000000       1.36665152 </v>
     <v>       0.78903729       2.23173424       1.36665152 </v>
     <v>      -0.00000001      -0.00000001       2.73330508 </v>
    </varray>
    <i name="volume">     14.43940738 </i>
    <varray name="rec_basis" >
     <v>       0.42245574      -0.14936068       0.00000000 </v>
     <v>       0.00000000       0.44808203       0.00000000 </v>
     <v>      -0.21122771      -0.14936056       0.36585744 </v>
    </varray>
   </crystal>
   <varray name="positions" >
    <v>       0.00000000       0.00000000      -0.00000000 </v>
   </varray>
  </structure>
  <varray name="forces" >
   <v>      -0.00000000       0.00000000      -0.00000000 </v>
  </varray>
  <varray name="stress" >
   <v>       0.03109631       0.00000000      -0.00000001 </v>
   <v>       0.00000000       0.03109630      -0.00000001 </v>
   <v>      -0.00000001      -0.00000001       0.03109630 </v>
  </varray>
  <energy>
   <i name="e_fr_energy">     -4.86733961 </i>
   <i name="e_wo_entrp">     -4.86544040 </i>
   <i name="e_0_energy">     -4.86639000 </i>
  </energy>
  <time name="totalsc">    2.34    2.46</time>
  <eigenvalues>
   <array>
    <dimension dim="1">band</dimension>
    <dimension dim="2">kpoint</dimension>
    <dimension dim="3">spin</dimension>
    <field>eigene</field>
    <field>occ</field>
    <set>
     <set comment="spin 1">
      <set comment="kpoint 1">
       <r>   -4.2739    1.0000 </r>
       <r>   21.3650    0.0000 </r>
       <r>   21.3650    0.0000 </r>
       <r>   21.3650    0.0000 </r>
       <r>   22.1692    0.0000 </r>
       <r>   22.1693    0.0000 </r>
       <r>   22.1693    0.0000 </r>
       <r>   27.4862    0.0000 </r>
      </set>
      <set comment="kpoint 2">
       <r>   -3.6793    1.0000 </r>
       <r>   15.9746    0.0000 </r>
       <r>   19.8416    0.0000 </r>
       <r>   19.8416    0.0000 </r>
       <r>   23.4900    0.0000 </r>
       <r>   24.2063    0.0000 </r>
       <r>   24.2063    0.0000 </r>
       <r>   27.2572    0.0000 </r>
      </set>
      <set comment="kpoint 3">
       <r>   -1.9066    1.0000 </r>
       <r>   10.1069    0.9957 </r>
       <r>   18.9033    0.0000 </r>
       <r>   18.9033    0.0000 </r>
       <r>   23.1138    0.0000 </r>
       <r>   23.1139    0.0000 </r>
       <r>   23.3076    0.0000 </r>
       <r>   28.3583    0.0000 </r>
      </set>
      <set comment="kpoint 4">
       <r>    1.0022    1.0000 </r>
       <r>    5.0804    1.0000 </r>
       <r>   18.7520    0.0000 </r>
       <r>   18.7520    0.0000 </r>
       <r>   21.3484    0.0000 </r>
       <r>   21.3484    0.0000 </r>
       <r>   23.4496    0.0000 </r>
       <r>   26.3347    0.0000 </r>
      </set>
      <set comment="kpoint 5">
       <r>   -3.4813    1.0000 </r>
       <r>   17.7054    0.0000 </r>
       <r>   17.7054    0.0000 </r>
       <r>   19.3514    0.0000 </r>
       <r>   19.6899    0.0000 </r>
       <r>   23.5094    0.0000 </r>
       <r>   26.7721    0.0000 </r>
       <r>   26.7721    0.0000 </r>
      </set>
      <set comment="kpoint 6">
       <r>   -2.1020    1.0000 </r>
       <r>   12.4399    0.0000 </r>
       <r>   16.5002    0.0000 </r>
       <r>   17.9166    0.0000 </r>
       <r>   19.6160    0.0000 </r>
       <r>   23.0242    0.0000 </r>
       <r>   27.1709    0.0000 </r>
       <r>   27.6889    0.0000 </r>
      </set>
      <set comment="kpoint 7">
       <r>    0.4308    1.0000 </r>
       <r>    7.1383    1.0000 </r>
       <r>   15.9204    0.0000 </r>
       <r>   16.3092    0.0000 </r>
       <r>   19.0319    0.0000 </r>
       <r>   25.0943    0.0000 </r>
       <r>   26.0798    0.0000 </r>
       <r>   28.6678    0.0000 </r>
      </set>
      <set comment="kpoint 8">
       <r>    2.6928    1.0000 </r>
       <r>    4.1697    1.0000 </r>
       <r>   14.4322    0.0000 </r>
       <r>   17.1147    0.0000 </r>
       <r>   19.8570    0.0000 </r>
       <r>   23.6905    0.0000 </r>
       <r>   26.1843    0.0000 </r>
       <r>   30.3545    0.0000 </r>
      </set>
      <set comment="kpoint 9">
       <r>   -0.5388    1.0000 </r>
       <r>    8.8018    1.0000 </r>
       <r>   13.9299    0.0000 </r>
       <r>   18.8184    0.0000 </r>
       <r>   21.7978    0.0000 </r>
       <r>   23.3557    0.0000 </r>
       <r>   25.6801    0.0000 </r>
       <r>   28.0365    0.0000 </r>
      </set>
      <set comment="kpoint 10">
       <r>   -2.6922    1.0000 </r>
       <r>   14.0797    0.0000 </r>
       <r>   14.7650    0.0000 </r>
       <r>   20.8967    0.0000 </r>
       <r>   23.6919    0.0000 </r>
       <r>   24.4573    0.0000 </r>
       <r>   24.7825    0.0000 </r>
       <r>   24.9316    0.0000 </r>
      </set>
      <set comment="kpoint 11">
       <r>   -1.1216    1.0000 </r>
       <r>   14.5306    0.0000 </r>
       <r>   14.9565    0.0000 </r>
       <r>   14.9565    0.0000 </r>
       <r>   16.3568    0.0000 </r>
       <r>   18.7612    0.0000 </r>
       <r>   31.7107    0.0000 </r>
       <r>   31.7873    0.0000 </r>
      </set>
      <set comment="kpoint 12">
       <r>    1.0152    1.0000 </r>
       <r>   10.2109    0.3764 </r>
       <r>   11.6576    0.0000 </r>
       <r>   14.4349    0.0000 </r>
       <r>   16.8771    0.0000 </r>
       <r>   21.0200    0.0000 </r>
       <r>   30.0903    0.0000 </r>
       <r>   32.3448    0.0000 </r>
      </set>
      <set comment="kpoint 13">
       <r>    4.2223    1.0000 </r>
       <r>    5.6560    1.0000 </r>
       <r>    9.6427    1.0000 </r>
       <r>   14.9430    0.0000 </r>
       <r>   17.5260    0.0000 </r>
       <r>   25.9720    0.0000 </r>
       <r>   28.4847    0.0000 </r>
       <r>   31.0787    0.0000 </r>
      </set>
      <set comment="kpoint 14">
       <r>    1.9745    1.0000 </r>
       <r>    8.1881    1.0000 </r>
       <r>    9.1390    1.0000 </r>
       <r>   16.4593    0.0000 </r>
       <r>   19.2148    0.0000 </r>
       <r>   27.4486    0.0000 </r>
       <r>   28.1589    0.0000 </r>
       <r>   28.8982    0.0000 </r>
      </set>
      <set comment="kpoint 15">
       <r>    2.7401    1.0000 </r>
       <r>    8.1154    1.0000 </r>
       <r>   13.5708    0.0000 </r>
       <r>   13.5708    0.0000 </r>
       <r>   14.8016    0.0000 </r>
       <r>   17.2066    0.0000 </r>
       <r>   34.2941    0.0000 </r>
       <r>   35.6983    0.0000 </r>
      </set>
      <set comment="kpoint 16">
       <r>    5.2066    1.0000 </r>
       <r>    6.0495    1.0000 </r>
       <r>    9.5559    1.0000 </r>
       <r>   13.7422    0.0000 </r>
       <r>   16.1049    0.0000 </r>
       <r>   20.3428    0.0000 </r>
       <r>   33.1135    0.0000 </r>
       <r>   34.6061    0.0000 </r>
      </set>
      <set comment="kpoint 17">
       <r>   -0.3426    1.0000 </r>
       <r>   11.1520    0.0000 </r>
       <r>   11.9717    0.0000 </r>
       <r>   15.4312    0.0000 </r>
       <r>   21.5594    0.0000 </r>
       <r>   22.4254    0.0000 </r>
       <r>   25.8736    0.0000 </r>
       <r>   30.6057    0.0000 </r>
      </set>
      <set comment="kpoint 18">
       <r>    2.5453    1.0000 </r>
       <r>    6.5643    1.0000 </r>
       <r>   11.7421    0.0000 </r>
       <r>   13.1837    0.0000 </r>
       <r>   22.0200    0.0000 </r>
       <r>   23.6302    0.0000 </r>
       <r>   27.0010    0.0000 </r>
       <r>   30.8130    0.0000 </r>
      </set>
      <set comment="kpoint 19">
       <r>    3.4998    1.0000 </r>
       <r>    8.7896    1.0000 </r>
       <r>    9.6738    1.0000 </r>
       <r>   10.7082    0.0000 </r>
       <r>   20.1389    0.0000 </r>
       <r>   21.2686    0.0000 </r>
       <r>   29.1086    0.0000 </r>
       <r>   32.9826    0.0000 </r>
      </set>
      <set comment="kpoint 20">
       <r>    5.7218    1.0000 </r>
       <r>    6.6987    1.0000 </r>
       <r>    7.6675    1.0000 </r>
       <r>   11.1598    0.0000 </r>
       <r>   21.5156    0.0000 </r>
       <r>   25.8809    0.0000 </r>
       <r>   27.2725    0.0000 </r>
       <r>   28.5386    0.0000 </r>
      </set>
     </set>
    </set>
   </array>
  </eigenvalues>
  <separator name="orbital magnetization" >
   <v name="MAGDIPOLOUT">      0.00000000      0.00000000      0.00000000</v>
  </separator>
  <dos>
   <i name="efermi">     10.19977537 </i>
   <total>
    <array>
     <dimension dim="1">gridpoints</dimension>
     <dimension dim="2">spin</dimension>
     <field>energy</field>
     <field>total</field>
     <field>integrated</field>
     <set>
      <set comment="spin 1">
       <r>    -6.2725     0.0000     0.0000 </r>
       <r>    -6.1260     0.0000     0.0000 </r>
       <r>    -5.9794     0.0000     0.0000 </r>
       <r>    -5.8328     0.0000     0.0000 </r>
       <r>    -5.6863     0.0000     0.0000 </r>
       <r>    -5.5397     0.0000     0.0000 </r>
       <r>    -5.3931     0.0000     0.0000 </r>
       <r>    -5.2466     0.0000     0.0000 </r>
       <r>    -5.1000     0.0000     0.0000 </r>
       <r>    -4.9535     0.0000     0.0000 </r>
       <r>    -4.8069     0.0000     0.0000 </r>
       <r>    -4.6603     0.0000     0.0000 </r>
       <r>    -4.5138     0.0000     0.0000 </r>
       <r>    -4.3672     0.0002     0.0000 </r>
       <r>    -4.2206     0.0370     0.0054 </r>
       <r>    -4.0741     0.0026     0.0058 </r>
       <r>    -3.9275     0.0000     0.0058 </r>
       <r>    -3.7809     0.0006     0.0059 </r>
       <r>    -3.6344     0.2852     0.0477 </r>
       <r>    -3.4878     0.1345     0.0674 </r>
       <r>    -3.3412     0.1366     0.0875 </r>
       <r>    -3.1947     0.0000     0.0875 </r>
       <r>    -3.0481     0.0000     0.0875 </r>
       <r>    -2.9015     0.0000     0.0875 </r>
       <r>    -2.7550     0.0180     0.0901 </r>
       <r>    -2.6084     0.4551     0.1568 </r>
       <r>    -2.4618     0.0043     0.1574 </r>
       <r>    -2.3153     0.0000     0.1574 </r>
       <r>    -2.1687     0.0282     0.1616 </r>
       <r>    -2.0222     0.9153     0.2957 </r>
       <r>    -1.8756     0.2691     0.3352 </r>
       <r>    -1.7290     0.0605     0.3440 </r>
       <r>    -1.5825     0.0000     0.3440 </r>
       <r>    -1.4359     0.0000     0.3440 </r>
       <r>    -1.2893     0.0000     0.3440 </r>
       <r>    -1.1428     0.0655     0.3536 </r>
       <r>    -0.9962     0.1732     0.3790 </r>
       <r>    -0.8496     0.0000     0.3790 </r>
       <r>    -0.7031     0.0000     0.3790 </r>
       <r>    -0.5565     0.2940     0.4221 </r>
       <r>    -0.4099     0.6878     0.5229 </r>
       <r>    -0.2634     0.9159     0.6571 </r>
       <r>    -0.1168     0.0120     0.6589 </r>
       <r>     0.0298     0.0000     0.6589 </r>
       <r>     0.1763     0.0000     0.6589 </r>
       <r>     0.3229     0.0011     0.6591 </r>
       <r>     0.4694     0.8226     0.7796 </r>
       <r>     0.6160     0.1311     0.7988 </r>
       <r>     0.7626     0.0000     0.7988 </r>
       <r>     0.9091     0.0026     0.7992 </r>
       <r>     1.0557     1.1296     0.9648 </r>
       <r>     1.2023     0.1409     0.9854 </r>
       <r>     1.3488     0.0000     0.9854 </r>
       <r>     1.4954     0.0000     0.9854 </r>
       <r>     1.6420     0.0000     0.9854 </r>
       <r>     1.7885     0.0000     0.9854 </r>
       <r>     1.9351     0.0633     0.9947 </r>
       <r>     2.0817     0.4135     1.0553 </r>
       <r>     2.2282     0.0006     1.0554 </r>
       <r>     2.3748     0.0000     1.0554 </r>
       <r>     2.5214     0.4759     1.1251 </r>
       <r>     2.6679     1.6681     1.3696 </r>
       <r>     2.8145     0.9546     1.5095 </r>
       <r>     2.9611     0.0045     1.5102 </r>
       <r>     3.1076     0.0000     1.5102 </r>
       <r>     3.2542     0.0000     1.5102 </r>
       <r>     3.4007     0.0024     1.5106 </r>
       <r>     3.5473     0.8670     1.6376 </r>
       <r>     3.6939     0.0854     1.6501 </r>
       <r>     3.8404     0.0000     1.6501 </r>
       <r>     3.9870     0.0000     1.6501 </r>
       <r>     4.1336     0.1524     1.6725 </r>
       <r>     4.2801     1.7079     1.9228 </r>
       <r>     4.4267     0.0494     1.9300 </r>
       <r>     4.5733     0.0000     1.9300 </r>
       <r>     4.7198     0.0000     1.9300 </r>
       <r>     4.8664     0.0000     1.9300 </r>
       <r>     5.0130     0.0090     1.9313 </r>
       <r>     5.1595     0.3490     1.9825 </r>
       <r>     5.3061     0.4365     2.0465 </r>
       <r>     5.4527     0.0012     2.0466 </r>
       <r>     5.5992     0.0520     2.0543 </r>
       <r>     5.7458     1.6145     2.2909 </r>
       <r>     5.8923     0.2431     2.3265 </r>
       <r>     6.0389     0.1827     2.3533 </r>
       <r>     6.1855     0.2947     2.3965 </r>
       <r>     6.3320     0.0000     2.3965 </r>
       <r>     6.4786     0.0147     2.3987 </r>
       <r>     6.6252     1.8318     2.6671 </r>
       <r>     6.7717     0.9994     2.8136 </r>
       <r>     6.9183     0.0185     2.8163 </r>
       <r>     7.0649     0.0181     2.8190 </r>
       <r>     7.2114     0.9183     2.9536 </r>
       <r>     7.3580     0.0184     2.9563 </r>
       <r>     7.5046     0.0000     2.9563 </r>
       <r>     7.6511     0.3067     3.0012 </r>
       <r>     7.7977     0.6480     3.0962 </r>
       <r>     7.9443     0.0001     3.0962 </r>
       <r>     8.0908     0.0596     3.1049 </r>
       <r>     8.2374     0.6175     3.1954 </r>
       <r>     8.3840     0.0391     3.2012 </r>
       <r>     8.5305     0.0000     3.2012 </r>
       <r>     8.6771     0.0009     3.2013 </r>
       <r>     8.8236     1.4929     3.4201 </r>
       <r>     8.9702     0.4158     3.4810 </r>
       <r>     9.1168     0.1266     3.4996 </r>
       <r>     9.2633     0.3507     3.5510 </r>
       <r>     9.4099     0.0001     3.5510 </r>
       <r>     9.5565     0.2490     3.5875 </r>
       <r>     9.7030     1.9010     3.8661 </r>
       <r>     9.8496     0.2370     3.9009 </r>
       <r>     9.9962     0.0003     3.9009 </r>
       <r>    10.1427     0.2943     3.9440 </r>
       <r>    10.2893     0.9658     4.0856 </r>
       <r>    10.4359     0.0127     4.0875 </r>
       <r>    10.5824     0.0002     4.0875 </r>
       <r>    10.7290     0.6891     4.1885 </r>
       <r>    10.8756     0.2655     4.2274 </r>
       <r>    11.0221     0.0002     4.2274 </r>
       <r>    11.1687     1.2232     4.4067 </r>
       <r>    11.3153     0.6863     4.5073 </r>
       <r>    11.4618     0.0000     4.5073 </r>
       <r>    11.6084     0.0782     4.5188 </r>
       <r>    11.7549     2.0997     4.8265 </r>
       <r>    11.9015     0.7091     4.9304 </r>
       <r>    12.0481     0.9176     5.0649 </r>
       <r>    12.1946     0.0146     5.0671 </r>
       <r>    12.3412     0.0025     5.0674 </r>
       <r>    12.4878     0.8686     5.1947 </r>
       <r>    12.6343     0.0837     5.2070 </r>
       <r>    12.7809     0.0000     5.2070 </r>
       <r>    12.9275     0.0000     5.2070 </r>
       <r>    13.0740     0.0018     5.2073 </r>
       <r>    13.2206     1.6246     5.4454 </r>
       <r>    13.3672     0.2832     5.4869 </r>
       <r>    13.5137     0.0253     5.4906 </r>
       <r>    13.6603     0.4542     5.5572 </r>
       <r>    13.8069     0.4594     5.6245 </r>
       <r>    13.9534     0.7295     5.7314 </r>
       <r>    14.1000     0.5836     5.8170 </r>
       <r>    14.2465     0.1350     5.8367 </r>
       <r>    14.3931     0.2422     5.8722 </r>
       <r>    14.5397     1.8083     6.1373 </r>
       <r>    14.6862     0.1042     6.1525 </r>
       <r>    14.8328     0.6525     6.2482 </r>
       <r>    14.9794     1.2212     6.4272 </r>
       <r>    15.1259     0.2683     6.4665 </r>
       <r>    15.2725     0.0000     6.4665 </r>
       <r>    15.4191     0.3493     6.5177 </r>
       <r>    15.5656     0.6054     6.6064 </r>
       <r>    15.7122     0.0001     6.6064 </r>
       <r>    15.8588     0.0389     6.6121 </r>
       <r>    16.0053     1.1664     6.7831 </r>
       <r>    16.1519     0.5013     6.8565 </r>
       <r>    16.2985     0.4193     6.9180 </r>
       <r>    16.4450     1.0369     7.0700 </r>
       <r>    16.5916     1.2087     7.2471 </r>
       <r>    16.7382     0.0047     7.2478 </r>
       <r>    16.8847     0.5586     7.3297 </r>
       <r>    17.0313     0.4048     7.3890 </r>
       <r>    17.1778     0.9604     7.5298 </r>
       <r>    17.3244     0.2243     7.5627 </r>
       <r>    17.4710     0.0572     7.5710 </r>
       <r>    17.6175     0.8963     7.7024 </r>
       <r>    17.7641     0.4559     7.7692 </r>
       <r>    17.9107     0.4372     7.8333 </r>
       <r>    18.0572     0.5406     7.9125 </r>
       <r>    18.2038     0.0000     7.9125 </r>
       <r>    18.3504     0.0000     7.9125 </r>
       <r>    18.4969     0.0000     7.9125 </r>
       <r>    18.6435     0.0008     7.9127 </r>
       <r>    18.7901     0.9375     8.0501 </r>
       <r>    18.9366     1.4212     8.2584 </r>
       <r>    19.0832     0.9920     8.4038 </r>
       <r>    19.2298     0.3867     8.4604 </r>
       <r>    19.3763     0.3420     8.5106 </r>
       <r>    19.5229     0.0614     8.5195 </r>
       <r>    19.6694     0.9556     8.6596 </r>
       <r>    19.8160     0.5009     8.7330 </r>
       <r>    19.9626     1.3227     8.9269 </r>
       <r>    20.1091     0.1923     8.9551 </r>
       <r>    20.2557     0.7669     9.0675 </r>
       <r>    20.4023     0.4525     9.1338 </r>
       <r>    20.5488     0.0221     9.1370 </r>
       <r>    20.6954     0.0000     9.1370 </r>
       <r>    20.8420     0.0290     9.1413 </r>
       <r>    20.9885     0.6243     9.2328 </r>
       <r>    21.1351     0.7785     9.3469 </r>
       <r>    21.2817     0.6349     9.4399 </r>
       <r>    21.4282     1.0708     9.5969 </r>
       <r>    21.5748     1.5536     9.8246 </r>
       <r>    21.7214     0.3761     9.8797 </r>
       <r>    21.8679     0.9176    10.0142 </r>
       <r>    22.0145     0.8583    10.1400 </r>
       <r>    22.1611     1.1226    10.3045 </r>
       <r>    22.3076     0.0711    10.3149 </r>
       <r>    22.4542     0.7557    10.4257 </r>
       <r>    22.6007     0.1987    10.4548 </r>
       <r>    22.7473     0.0000    10.4548 </r>
       <r>    22.8939     0.0001    10.4548 </r>
       <r>    23.0404     0.6588    10.5514 </r>
       <r>    23.1870     0.9203    10.6863 </r>
       <r>    23.3336     0.5109    10.7611 </r>
       <r>    23.4801     1.2036    10.9376 </r>
       <r>    23.6267     1.3744    11.1390 </r>
       <r>    23.7733     2.3990    11.4906 </r>
       <r>    23.9198     0.0143    11.4927 </r>
       <r>    24.0664     0.0000    11.4927 </r>
       <r>    24.2130     0.3656    11.5463 </r>
       <r>    24.3595     0.2722    11.5862 </r>
       <r>    24.5061     0.4361    11.6501 </r>
       <r>    24.6527     0.0400    11.6560 </r>
       <r>    24.7992     0.3253    11.7037 </r>
       <r>    24.9458     0.4651    11.7718 </r>
       <r>    25.0923     0.6211    11.8629 </r>
       <r>    25.2389     0.4981    11.9359 </r>
       <r>    25.3855     0.0000    11.9359 </r>
       <r>    25.5320     0.0000    11.9359 </r>
       <r>    25.6786     0.4616    12.0035 </r>
       <r>    25.8252     0.6299    12.0958 </r>
       <r>    25.9717     2.2417    12.4244 </r>
       <r>    26.1183     1.3384    12.6205 </r>
       <r>    26.2649     1.0541    12.7750 </r>
       <r>    26.4114     0.3166    12.8215 </r>
       <r>    26.5580     0.0048    12.8222 </r>
       <r>    26.7046     0.0134    12.8241 </r>
       <r>    26.8511     0.4580    12.8912 </r>
       <r>    26.9977     0.8886    13.0215 </r>
       <r>    27.1443     1.2427    13.2036 </r>
       <r>    27.2908     1.6691    13.4482 </r>
       <r>    27.4374     0.5256    13.5253 </r>
       <r>    27.5840     0.3360    13.5745 </r>
       <r>    27.7305     0.8393    13.6976 </r>
       <r>    27.8771     0.1142    13.7143 </r>
       <r>    28.0236     0.3415    13.7643 </r>
       <r>    28.1702     0.9117    13.8980 </r>
       <r>    28.3168     0.2173    13.9298 </r>
       <r>    28.4633     0.5562    14.0113 </r>
       <r>    28.6099     1.6608    14.2547 </r>
       <r>    28.7565     0.9217    14.3898 </r>
       <r>    28.9030     0.2707    14.4295 </r>
       <r>    29.0496     0.2580    14.4673 </r>
       <r>    29.1962     0.9030    14.5997 </r>
       <r>    29.3427     0.0063    14.6006 </r>
       <r>    29.4893     0.0000    14.6006 </r>
       <r>    29.6359     0.0000    14.6006 </r>
       <r>    29.7824     0.0000    14.6006 </r>
       <r>    29.9290     0.0000    14.6006 </r>
       <r>    30.0756     0.3234    14.6480 </r>
       <r>    30.2221     0.6314    14.7405 </r>
       <r>    30.3687     0.6267    14.8324 </r>
       <r>    30.5152     0.3332    14.8812 </r>
       <r>    30.6618     0.8962    15.0126 </r>
       <r>    30.8084     0.9082    15.1457 </r>
       <r>    30.9549     1.0552    15.3003 </r>
       <r>    31.1015     0.7066    15.4039 </r>
       <r>    31.2481     0.2481    15.4402 </r>
       <r>    31.3946     0.0000    15.4402 </r>
       <r>    31.5412     0.0000    15.4402 </r>
       <r>    31.6878     0.0622    15.4493 </r>
       <r>    31.8343     0.3932    15.5070 </r>
       <r>    31.9809     0.0220    15.5102 </r>
       <r>    32.1275     0.0000    15.5102 </r>
       <r>    32.2740     0.0216    15.5134 </r>
       <r>    32.4206     0.9179    15.6479 </r>
       <r>    32.5672     0.0153    15.6501 </r>
       <r>    32.7137     0.0000    15.6501 </r>
       <r>    32.8603     0.0003    15.6502 </r>
       <r>    33.0069     0.7202    15.7557 </r>
       <r>    33.1534     0.6499    15.8510 </r>
       <r>    33.3000     0.0618    15.8601 </r>
       <r>    33.4465     0.0000    15.8601 </r>
       <r>    33.5931     0.0000    15.8601 </r>
       <r>    33.7397     0.0000    15.8601 </r>
       <r>    33.8862     0.0000    15.8601 </r>
       <r>    34.0328     0.0000    15.8601 </r>
       <r>    34.1794     0.0001    15.8601 </r>
       <r>    34.3259     0.1947    15.8886 </r>
       <r>    34.4725     0.0439    15.8950 </r>
       <r>    34.6191     0.3070    15.9401 </r>
       <r>    34.7656     0.1703    15.9650 </r>
       <r>    34.9122     0.0000    15.9650 </r>
       <r>    35.0588     0.0000    15.9650 </r>
       <r>    35.2053     0.0000    15.9650 </r>
       <r>    35.3519     0.0000    15.9650 </r>
       <r>    35.4985     0.0000    15.9650 </r>
       <r>    35.6450     0.0157    15.9673 </r>
       <r>    35.7916     0.2220    15.9999 </r>
       <r>    35.9382     0.0010    16.0000 </r>
       <r>    36.0847     0.0000    16.0000 </r>
       <r>    36.2313     0.0000    16.0000 </r>
       <r>    36.3778     0.0000    16.0000 </r>
       <r>    36.5244     0.0000    16.0000 </r>
       <r>    36.6710     0.0000    16.0000 </r>
       <r>    36.8175     0.0000    16.0000 </r>
       <r>    36.9641     0.0000    16.0000 </r>
       <r>    37.1107     0.0000    16.0000 </r>
       <r>    37.2572     0.0000    16.0000 </r>
       <r>    37.4038     0.0000    16.0000 </r>
       <r>    37.5504     0.0000    16.0000 </r>
       <r>    37.6969     0.0000    16.0000 </r>
      </set>
     </set>
    </array>
   </total>
  </dos>
 </calculation>
 <structure name="finalpos" >
  <crystal>
   <varray name="basis" >
    <v>       2.36711187      -0.00000000       1.36665152 </v>
    <v>       0.78903729       2.23173424       1.36665152 </v>
    <v>      -0.00000001      -0.00000001       2.73330508 </v>
   </varray>
   <i name="volume">     14.43940738 </i>
   <varray name="rec_basis" >
    <v>       0.42245574      -0.14936068       0.00000000 </v>
    <v>       0.00000000       0.44808203       0.00000000 </v>
    <v>      -0.21122771      -0.14936056       0.36585744 </v>
   </varray>
  </crystal>
  <varray name="positions" >
   <v>       0.00000000       0.00000000      -0.00000000 </v>
  </varray>
 </structure>
</modeling>
