unknown system                          
           1
     2.347395    0.000000    1.355268
     0.782465    2.213145    1.355268
     0.000000    0.000000    2.710538
   Si
     1
Direct configuration=     1
   0.00000000  0.00000000  0.00000000
unknown system                          
           1
     2.369327   -0.000000    1.367930
     0.789776    2.233822    1.367930
    -0.000000   -0.000000    2.735863
   Si
     1
Direct configuration=     2
   0.00000000  0.00000000 -0.00000000
unknown system                          
           1
     2.367112   -0.000000    1.366652
     0.789037    2.231734    1.366652
    -0.000000   -0.000000    2.733305
   Si
     1
Direct configuration=     3
   0.00000000  0.00000000 -0.00000000
