   1   1   0   0
  0.1386300E+02  0.2621157E-09  0.2621157E-09  0.2621157E-09  0.5000000E-15
  1.000000000000000E-004
  CAR 
 unknown system                          
     36.82956181     -6.27822414  301      9.88085703      1.00000000
     -6.278  0.0000E+00  0.0000E+00
     -6.135  0.0000E+00  0.0000E+00
     -5.991  0.0000E+00  0.0000E+00
     -5.847  0.0000E+00  0.0000E+00
     -5.703  0.0000E+00  0.0000E+00
     -5.560  0.0000E+00  0.0000E+00
     -5.416  0.0000E+00  0.0000E+00
     -5.272  0.0000E+00  0.0000E+00
     -5.129  0.0000E+00  0.0000E+00
     -4.985  0.0000E+00  0.0000E+00
     -4.841  0.0000E+00  0.0000E+00
     -4.698  0.0000E+00  0.0000E+00
     -4.554  0.6020E-15  0.8650E-16
     -4.410  0.2000E-06  0.2874E-07
     -4.267  0.4258E-04  0.6147E-05
     -4.123  0.4750E-03  0.7440E-04
     -3.979  0.2858E-03  0.1155E-03
     -3.835  0.9759E-03  0.2557E-03
     -3.692  0.5543E-03  0.3354E-03
     -3.548  0.9551E-03  0.4726E-03
     -3.404  0.6106E-03  0.5603E-03
     -3.261  0.1720E-02  0.8075E-03
     -3.117  0.6378E-03  0.8992E-03
     -2.973  0.1424E-02  0.1104E-02
     -2.830  0.1086E-02  0.1260E-02
     -2.686  0.1087E-02  0.1416E-02
     -2.542  0.2414E-02  0.1763E-02
     -2.399  0.9720E-03  0.1902E-02
     -2.255  0.1635E-02  0.2137E-02
     -2.111  0.7899E-03  0.2251E-02
     -1.967  0.1898E-02  0.2524E-02
     -1.824  0.1367E-02  0.2720E-02
     -1.680  0.2929E-02  0.3141E-02
     -1.536  0.1135E-02  0.3304E-02
     -1.393  0.1958E-02  0.3585E-02
     -1.249  0.1204E-02  0.3758E-02
     -1.105  0.1753E-02  0.4010E-02
     -0.962  0.1362E-02  0.4206E-02
     -0.818  0.2781E-02  0.4606E-02
     -0.674  0.2685E-02  0.4992E-02
     -0.531  0.3127E-02  0.5441E-02
     -0.387  0.1431E-02  0.5647E-02
     -0.243  0.2631E-03  0.5684E-02
     -0.099  0.3532E-02  0.6192E-02
      0.044  0.6996E-03  0.6292E-02
      0.188  0.3845E-02  0.6845E-02
      0.332  0.2130E-02  0.7151E-02
      0.475  0.2034E-02  0.7443E-02
      0.619  0.2130E-02  0.7749E-02
      0.763  0.4419E-02  0.8384E-02
      0.906  0.1454E-02  0.8593E-02
      1.050  0.1748E-02  0.8844E-02
      1.194  0.1693E-02  0.9088E-02
      1.337  0.2230E-02  0.9408E-02
      1.481  0.4617E-02  0.1007E-01
      1.625  0.1795E-02  0.1033E-01
      1.769  0.4744E-02  0.1101E-01
      1.912  0.4214E-03  0.1107E-01
      2.056  0.3838E-02  0.1162E-01
      2.200  0.1593E-02  0.1185E-01
      2.343  0.4177E-02  0.1245E-01
      2.487  0.1613E-02  0.1268E-01
      2.631  0.2780E-02  0.1308E-01
      2.774  0.3324E-02  0.1356E-01
      2.918  0.2061E-02  0.1386E-01
      3.062  0.5501E-02  0.1465E-01
      3.205  0.1800E-02  0.1491E-01
      3.349  0.2245E-02  0.1523E-01
      3.493  0.4082E-02  0.1582E-01
      3.637  0.2374E-02  0.1616E-01
      3.780  0.3565E-02  0.1667E-01
      3.924  0.4078E-02  0.1725E-01
      4.068  0.2350E-02  0.1759E-01
      4.211  0.1258E-02  0.1777E-01
      4.355  0.3451E-02  0.1827E-01
      4.499  0.3195E-02  0.1873E-01
      4.642  0.4962E-02  0.1944E-01
      4.786  0.4795E-02  0.2013E-01
      4.930  0.1243E-02  0.2031E-01
      5.073  0.3888E-02  0.2087E-01
      5.217  0.1440E-02  0.2107E-01
      5.361  0.3692E-02  0.2161E-01
      5.505  0.5750E-02  0.2243E-01
      5.648  0.2823E-02  0.2284E-01
      5.792  0.5363E-02  0.2361E-01
      5.936  0.2876E-02  0.2402E-01
      6.079  0.1883E-02  0.2429E-01
      6.223  0.4178E-02  0.2489E-01
      6.367  0.2155E-02  0.2520E-01
      6.510  0.1337E-02  0.2539E-01
      6.654  0.6928E-02  0.2639E-01
      6.798  0.3086E-02  0.2683E-01
      6.941  0.6375E-02  0.2775E-01
      7.085  0.4018E-02  0.2833E-01
      7.229  0.2706E-02  0.2871E-01
      7.373  0.3679E-02  0.2924E-01
      7.516  0.2857E-02  0.2965E-01
      7.660  0.4595E-02  0.3031E-01
      7.804  0.5801E-02  0.3115E-01
      7.947  0.4478E-02  0.3179E-01
      8.091  0.1598E-02  0.3202E-01
      8.235  0.2105E-02  0.3232E-01
      8.378  0.2355E-02  0.3266E-01
      8.522  0.8652E-02  0.3390E-01
      8.666  0.4324E-02  0.3453E-01
      8.810  0.3219E-02  0.3499E-01
      8.953  0.5447E-02  0.3577E-01
      9.097  0.3355E-02  0.3625E-01
      9.241  0.5918E-02  0.3710E-01
      9.384  0.3586E-02  0.3762E-01
      9.528  0.5765E-02  0.3845E-01
      9.672  0.5107E-02  0.3918E-01
      9.815  0.3894E-02  0.3974E-01
      9.959  0.4328E-02  0.4036E-01
     10.103  0.3553E-02  0.4087E-01
     10.246  0.3568E-02  0.4139E-01
     10.390  0.3617E-02  0.4191E-01
     10.534  0.5453E-02  0.4269E-01
     10.678  0.3846E-02  0.4324E-01
     10.821  0.6393E-02  0.4416E-01
     10.965  0.7807E-02  0.4528E-01
     11.109  0.2156E-02  0.4559E-01
     11.252  0.3246E-02  0.4606E-01
     11.396  0.1363E-02  0.4625E-01
     11.540  0.5566E-02  0.4705E-01
     11.683  0.7820E-02  0.4818E-01
     11.827  0.2449E-02  0.4853E-01
     11.971  0.4398E-02  0.4916E-01
     12.114  0.6367E-02  0.5008E-01
     12.258  0.2790E-02  0.5048E-01
     12.402  0.2610E-02  0.5085E-01
     12.546  0.2507E-02  0.5121E-01
     12.689  0.5364E-02  0.5198E-01
     12.833  0.2800E-02  0.5239E-01
     12.977  0.6502E-02  0.5332E-01
     13.120  0.5443E-02  0.5410E-01
     13.264  0.4281E-02  0.5472E-01
     13.408  0.8127E-02  0.5589E-01
     13.551  0.4527E-02  0.5654E-01
     13.695  0.4805E-02  0.5723E-01
     13.839  0.4077E-02  0.5781E-01
     13.982  0.3729E-02  0.5835E-01
     14.126  0.4952E-02  0.5906E-01
     14.270  0.3842E-02  0.5961E-01
     14.414  0.5566E-02  0.6041E-01
     14.557  0.6986E-02  0.6141E-01
     14.701  0.3471E-02  0.6191E-01
     14.845  0.4335E-02  0.6254E-01
     14.988  0.3228E-02  0.6300E-01
     15.132  0.6277E-02  0.6390E-01
     15.276  0.5492E-02  0.6469E-01
     15.419  0.4861E-02  0.6539E-01
     15.563  0.7090E-02  0.6641E-01
     15.707  0.4648E-02  0.6708E-01
     15.850  0.5056E-02  0.6780E-01
     15.994  0.5813E-02  0.6864E-01
     16.138  0.8814E-02  0.6991E-01
     16.282  0.5867E-02  0.7075E-01
     16.425  0.1827E-02  0.7101E-01
     16.569  0.6180E-02  0.7190E-01
     16.713  0.3190E-02  0.7236E-01
     16.856  0.3081E-02  0.7280E-01
     17.000  0.4607E-02  0.7346E-01
     17.144  0.6569E-02  0.7441E-01
     17.287  0.8431E-02  0.7562E-01
     17.431  0.1299E-01  0.7748E-01
     17.575  0.7113E-02  0.7851E-01
     17.718  0.3815E-02  0.7905E-01
     17.862  0.3232E-02  0.7952E-01
     18.006  0.6569E-02  0.8046E-01
     18.150  0.4738E-02  0.8114E-01
     18.293  0.5262E-02  0.8190E-01
     18.437  0.3113E-02  0.8235E-01
     18.581  0.2124E-02  0.8265E-01
     18.724  0.3422E-02  0.8314E-01
     18.868  0.2646E-02  0.8352E-01
     19.012  0.2084E-02  0.8382E-01
     19.155  0.4917E-02  0.8453E-01
     19.299  0.5114E-02  0.8526E-01
     19.443  0.4579E-02  0.8592E-01
     19.586  0.3804E-02  0.8647E-01
     19.730  0.8583E-02  0.8770E-01
     19.874  0.6802E-02  0.8868E-01
     20.018  0.4222E-02  0.8929E-01
     20.161  0.1892E-02  0.8956E-01
     20.305  0.7730E-02  0.9067E-01
     20.449  0.6366E-02  0.9158E-01
     20.592  0.4222E-02  0.9219E-01
     20.736  0.5069E-02  0.9292E-01
     20.880  0.4584E-02  0.9358E-01
     21.023  0.5425E-02  0.9436E-01
     21.167  0.8061E-02  0.9552E-01
     21.311  0.5214E-02  0.9627E-01
     21.454  0.4147E-02  0.9686E-01
     21.598  0.5627E-02  0.9767E-01
     21.742  0.8423E-02  0.9888E-01
     21.886  0.9159E-02  0.1002E+00
     22.029  0.1086E-01  0.1018E+00
     22.173  0.9748E-02  0.1032E+00
     22.317  0.5597E-02  0.1040E+00
     22.460  0.9694E-02  0.1054E+00
     22.604  0.7692E-02  0.1065E+00
     22.748  0.2168E-02  0.1068E+00
     22.891  0.1547E-02  0.1070E+00
     23.035  0.1330E-02  0.1072E+00
     23.179  0.9407E-02  0.1085E+00
     23.322  0.7528E-02  0.1096E+00
     23.466  0.8699E-02  0.1109E+00
     23.610  0.5598E-02  0.1117E+00
     23.754  0.4536E-02  0.1123E+00
     23.897  0.6717E-02  0.1133E+00
     24.041  0.3432E-02  0.1138E+00
     24.185  0.5252E-02  0.1145E+00
     24.328  0.2866E-02  0.1149E+00
     24.472  0.5802E-02  0.1158E+00
     24.616  0.5692E-02  0.1166E+00
     24.759  0.1078E-01  0.1181E+00
     24.903  0.6553E-02  0.1191E+00
     25.047  0.5343E-02  0.1199E+00
     25.190  0.4499E-02  0.1205E+00
     25.334  0.5867E-02  0.1213E+00
     25.478  0.7425E-02  0.1224E+00
     25.622  0.4141E-02  0.1230E+00
     25.765  0.8125E-02  0.1242E+00
     25.909  0.4151E-02  0.1248E+00
     26.053  0.5541E-02  0.1256E+00
     26.196  0.5659E-02  0.1264E+00
     26.340  0.4409E-02  0.1270E+00
     26.484  0.8456E-02  0.1282E+00
     26.627  0.6965E-02  0.1292E+00
     26.771  0.5314E-02  0.1300E+00
     26.915  0.7223E-02  0.1310E+00
     27.058  0.7550E-02  0.1321E+00
     27.202  0.5954E-02  0.1330E+00
     27.346  0.5369E-02  0.1337E+00
     27.490  0.8340E-02  0.1349E+00
     27.633  0.5536E-02  0.1357E+00
     27.777  0.3087E-02  0.1362E+00
     27.921  0.2346E-02  0.1365E+00
     28.064  0.7304E-02  0.1376E+00
     28.208  0.8344E-02  0.1388E+00
     28.352  0.6189E-02  0.1397E+00
     28.495  0.2599E-02  0.1400E+00
     28.639  0.4397E-02  0.1407E+00
     28.783  0.7996E-02  0.1418E+00
     28.926  0.1173E-01  0.1435E+00
     29.070  0.3558E-02  0.1440E+00
     29.214  0.7796E-02  0.1451E+00
     29.358  0.1351E-01  0.1471E+00
     29.501  0.2829E-02  0.1475E+00
     29.645  0.4247E-02  0.1481E+00
     29.789  0.3646E-02  0.1486E+00
     29.932  0.5703E-02  0.1494E+00
     30.076  0.5618E-02  0.1502E+00
     30.220  0.5629E-02  0.1510E+00
     30.363  0.7176E-02  0.1521E+00
     30.507  0.6977E-02  0.1531E+00
     30.651  0.4146E-02  0.1537E+00
     30.794  0.3821E-02  0.1542E+00
     30.938  0.7611E-02  0.1553E+00
     31.082  0.5032E-02  0.1560E+00
     31.226  0.5709E-02  0.1569E+00
     31.369  0.5854E-02  0.1577E+00
     31.513  0.8168E-03  0.1578E+00
     31.657  0.2329E-02  0.1582E+00
     31.800  0.2253E-02  0.1585E+00
     31.944  0.1702E-02  0.1587E+00
     32.088  0.1883E-02  0.1590E+00
     32.231  0.6607E-03  0.1591E+00
     32.375  0.3161E-03  0.1591E+00
     32.519  0.1305E-03  0.1592E+00
     32.662  0.8916E-03  0.1593E+00
     32.806  0.5521E-03  0.1594E+00
     32.950  0.2539E-03  0.1594E+00
     33.094  0.1021E-02  0.1595E+00
     33.237  0.8924E-03  0.1597E+00
     33.381  0.1047E-02  0.1598E+00
     33.525  0.9735E-04  0.1598E+00
     33.668  0.3134E-03  0.1599E+00
     33.812  0.3442E-05  0.1599E+00
     33.956  0.3025E-13  0.1599E+00
     34.099  0.0000E+00  0.1599E+00
     34.243  0.0000E+00  0.1599E+00
     34.387  0.2230E-15  0.1599E+00
     34.530  0.3512E-06  0.1599E+00
     34.674  0.2138E-03  0.1599E+00
     34.818  0.2884E-03  0.1600E+00
     34.962  0.3206E-03  0.1600E+00
     35.105  0.1600E-05  0.1600E+00
     35.249  0.4816E-14  0.1600E+00
     35.393  0.0000E+00  0.1600E+00
     35.536  0.0000E+00  0.1600E+00
     35.680  0.0000E+00  0.1600E+00
     35.824  0.0000E+00  0.1600E+00
     35.967  0.0000E+00  0.1600E+00
     36.111  0.0000E+00  0.1600E+00
     36.255  0.0000E+00  0.1600E+00
     36.398  0.0000E+00  0.1600E+00
     36.542  0.0000E+00  0.1600E+00
     36.686  0.0000E+00  0.1600E+00
     36.830  0.0000E+00  0.1600E+00
