    1    1  100    1
  0.1386300E+02  0.2621157E-09  0.2621157E-09  0.2621157E-09  0.5000000E-15
  1.000000000000000E-004
  CAR 
 unknown system                          
      4    120      8
 
  0.0000000E+00  0.0000000E+00  0.0000000E+00  0.2962963E-03
    1       -4.318779   1.000000
    2       21.262247   0.000000
    3       21.262247   0.000000
    4       21.262256   0.000000
    5       22.772651   0.000000
    6       22.772652   0.000000
    7       22.772652   0.000000
    8       26.382500   0.000000
 
  0.6666667E-01  0.0000000E+00  0.0000000E+00  0.3555556E-02
    1       -4.182773   1.000000
    2       19.740007   0.000000
    3       20.215725   0.000000
    4       21.074355   0.000000
    5       22.303285   0.000000
    6       23.438698   0.000000
    7       24.096231   0.000000
    8       25.446931   0.000000
 
  0.1333333E+00  0.0000000E+00  0.0000000E+00  0.3555556E-02
    1       -3.775431   1.000000
    2       17.127525   0.000000
    3       18.875129   0.000000
    4       20.563441   0.000000
    5       21.293319   0.000000
    6       23.112298   0.000000
    7       25.440764   0.000000
    8       26.092990   0.000000
 
  0.2000000E+00  0.0000000E+00  0.0000000E+00  0.3555556E-02
    1       -3.098340   1.000000
    2       14.270066   0.000000
    3       17.719069   0.000000
    4       19.883102   0.000000
    5       20.215230   0.000000
    6       22.118757   0.000000
    7       26.319883   0.000000
    8       26.360162   0.000000
 
  0.2666667E+00  0.0000000E+00  0.0000000E+00  0.3555556E-02
    1       -2.153595   1.000000
    2       11.487680   0.000000
    3       16.783263   0.000000
    4       19.200955   0.000000
    5       19.249821   0.000000
    6       21.275441   0.000000
    7       26.987690   0.000000
    8       27.409515   0.000000
 
  0.3333333E+00  0.0000000E+00  0.0000000E+00  0.3555556E-02
    1       -0.945095   1.000000
    2        8.862322   1.000000
    3       16.089342   0.000000
    4       18.565149   0.000000
    5       18.632586   0.000000
    6       20.618025   0.000000
    7       27.987767   0.000000
    8       28.678377   0.000000
 
  0.4000000E+00  0.0000000E+00  0.0000000E+00  0.3555556E-02
    1        0.520888   1.000000
    2        6.434863   1.000000
    3       15.621246   0.000000
    4       18.048225   0.000000
    5       18.228988   0.000000
    6       20.139834   0.000000
    7       29.154902   0.000000
    8       29.956046   0.000000
 
  0.4666667E+00  0.0000000E+00  0.0000000E+00  0.3555556E-02
    1        2.230154   1.000000
    2        4.241431   1.000000
    3       15.390707   0.000000
    4       17.792076   0.000000
    5       18.022134   0.000000
    6       19.910879   0.000000
    7       30.465231   0.000000
    8       31.086812   0.000000
 
  0.6666667E-01  0.6666667E-01  0.0000000E+00  0.7111111E-02
    1       -3.911116   1.000000
    2       18.232524   0.000000
    3       18.824073   0.000000
    4       20.132630   0.000000
    5       22.370292   0.000000
    6       23.657003   0.000000
    7       24.709330   0.000000
    8       25.310091   0.000000
 
  0.1333333E+00  0.6666667E-01 -0.6938894E-17  0.1422222E-01
    1       -3.368894   1.000000
    2       15.763726   0.000000
    3       17.343811   0.000000
    4       19.183088   0.000000
    5       21.849641   0.000000
    6       23.183719   0.000000
    7       25.029688   0.000000
    8       26.691379   0.000000
 
  0.2000000E+00  0.6666667E-01 -0.6938894E-17  0.1422222E-01
    1       -2.558229   1.000000
    2       12.947527   0.000000
    3       16.253052   0.000000
    4       18.266620   0.000000
    5       21.086934   0.000000
    6       22.502546   0.000000
    7       25.544119   0.000000
    8       27.945518   0.000000
 
  0.2666667E+00  0.6666667E-01  0.6938894E-17  0.1422222E-01
    1       -1.481430   1.000000
    2       10.245348   0.000000
    3       15.411410   0.000000
    4       17.504464   0.000000
    5       20.391606   0.000000
    6       21.925011   0.000000
    7       26.343677   0.000000
    8       29.174711   0.000000
 
  0.3333333E+00  0.6666667E-01 -0.2081668E-16  0.1422222E-01
    1       -0.143937   1.000000
    2        7.716093   1.000000
    3       14.815734   0.000000
    4       16.932703   0.000000
    5       19.834924   0.000000
    6       21.465593   0.000000
    7       27.440048   0.000000
    8       30.360677   0.000000
 
  0.4000000E+00  0.6666667E-01  0.6938894E-17  0.1422222E-01
    1        1.446785   1.000000
    2        5.402419   1.000000
    3       14.452596   0.000000
    4       16.578844   0.000000
    5       19.487438   0.000000
    6       21.166645   0.000000
    7       28.761206   0.000000
    8       31.099255   0.000000
 
  0.4666667E+00  0.6666667E-01  0.6938894E-17  0.7111111E-02
    1        3.106028   1.000000
    2        3.502718   1.000000
    3       14.333882   0.000000
    4       16.460331   0.000000
    5       19.375216   0.000000
    6       21.067025   0.000000
    7       30.151426   0.000000
    8       30.312583   0.000000
 
  0.1333333E+00  0.1333333E+00  0.0000000E+00  0.7111111E-02
    1       -2.693105   1.000000
    2       14.362505   0.000000
    3       14.885410   0.000000
    4       18.118795   0.000000
    5       22.029458   0.000000
    6       23.106628   0.000000
    7       25.695635   0.000000
    8       27.042319   0.000000
 
  0.2000000E+00  0.1333333E+00  0.1387779E-16  0.1422222E-01
    1       -1.750071   1.000000
    2       11.834122   0.000000
    3       13.675102   0.000000
    4       17.238908   0.000000
    5       21.665578   0.000000
    6       23.158542   0.000000
    7       25.990746   0.000000
    8       28.531003   0.000000
 
  0.2666667E+00  0.1333333E+00  0.0000000E+00  0.1422222E-01
    1       -0.544058   1.000000
    2        9.235162   1.000000
    3       12.927672   0.000000
    4       16.570387   0.000000
    5       21.126225   0.000000
    6       23.407589   0.000000
    7       26.253925   0.000000
    8       30.243676   0.000000
 
  0.3333333E+00  0.1333333E+00  0.0000000E+00  0.1422222E-01
    1        0.919383   1.000000
    2        6.817956   1.000000
    3       12.432524   0.000000
    4       16.107988   0.000000
    5       20.696870   0.000000
    6       23.465423   0.000000
    7       27.061530   0.000000
    8       30.851581   0.000000
 
  0.4000000E+00  0.1333333E+00  0.0000000E+00  0.1422222E-01
    1        2.627366   1.000000
    2        4.630723   1.000000
    3       12.185910   0.000000
    4       15.875898   0.000000
    5       20.483579   0.000000
    6       23.445217   0.000000
    7       28.317320   0.000000
    8       29.834612   0.000000
 
  0.2000000E+00  0.2000000E+00  0.0000000E+00  0.7111111E-02
    1       -0.677363   1.000000
    2       10.802881   0.000000
    3       11.180739   0.000000
    4       16.471759   0.000000
    5       22.205107   0.000000
    6       23.088434   0.000000
    7       27.563137   0.000000
    8       28.671872   0.000000
 
  0.2666667E+00  0.2000000E+00  0.1387779E-16  0.1422222E-01
    1        0.654870   1.000000
    2        8.467748   1.000000
    3       10.380349   0.000000
    4       15.904317   0.000000
    5       22.056216   0.000000
    6       23.755232   0.000000
    7       27.736233   0.000000
    8       29.836422   0.000000
 
  0.3333333E+00  0.2000000E+00  0.1387779E-16  0.1422222E-01
    1        2.239293   1.000000
    2        6.173505   1.000000
    3        9.993901   0.000693
    4       15.556096   0.000000
    5       21.795651   0.000000
    6       24.679568   0.000000
    7       27.569596   0.000000
    8       29.639307   0.000000
 
  0.4000000E+00  0.2000000E+00  0.1387779E-16  0.7111111E-02
    1        3.897814   1.000000
    2        4.277838   1.000000
    3        9.867060   0.651825
    4       15.440883   0.000000
    5       21.707470   0.000000
    6       25.152400   0.000000
    7       27.582998   0.000000
    8       29.157162   0.000000
 
  0.2666667E+00  0.2666667E+00  0.0000000E+00  0.7111111E-02
    1        2.109154   1.000000
    2        7.811463   1.000000
    3        8.135576   1.000000
    4       15.451035   0.000000
    5       22.938640   0.000000
    6       23.854336   0.000000
    7       28.206908   0.000000
    8       29.971220   0.000000
 
  0.3333333E+00  0.2666667E+00  0.0000000E+00  0.1422222E-01
    1        3.805692   1.000000
    2        5.788751   1.000000
    3        7.733264   1.000000
    4       15.221851   0.000000
    5       23.073540   0.000000
    6       24.879616   0.000000
    7       26.809988   0.000000
    8       30.830770   0.000000
 
  0.3333333E+00  0.3333333E+00  0.0000000E+00  0.2370370E-02
    1        5.310790   1.000000
    2        5.827227   1.000000
    3        5.827229   1.000000
    4       15.108799   0.000000
    5       23.893988   0.000000
    6       25.366291   0.000000
    7       25.366292   0.000000
    8       32.926695   0.000000
 
  0.6666667E-01  0.6666667E-01  0.6666667E-01  0.2370370E-02
    1       -3.504314   1.000000
    2       16.740559   0.000000
    3       17.803160   0.000000
    4       17.803160   0.000000
    5       23.523368   0.000000
    6       23.523368   0.000000
    7       25.764423   0.000000
    8       25.764423   0.000000
 
  0.1333333E+00  0.6666667E-01  0.6666667E-01  0.7111111E-02
    1       -2.828116   1.000000
    2       14.459670   0.000000
    3       16.033078   0.000000
    4       16.730164   0.000000
    5       23.227770   0.000000
    6       23.833056   0.000000
    7       26.158368   0.000000
    8       26.534636   0.000000
 
  0.2000000E+00  0.6666667E-01  0.6666667E-01  0.7111111E-02
    1       -1.884590   1.000000
    2       11.730147   0.000000
    3       15.006559   0.000000
    4       15.811458   0.000000
    5       22.789297   0.000000
    6       23.286422   0.000000
    7       27.270946   0.000000
    8       27.389528   0.000000
 
  0.2666667E+00  0.6666667E-01  0.6666667E-01  0.7111111E-02
    1       -0.677773   1.000000
    2        9.113224   1.000000
    3       14.273028   0.000000
    4       15.096778   0.000000
    5       22.326995   0.000000
    6       22.731837   0.000000
    7       28.205359   0.000000
    8       28.725319   0.000000
 
  0.3333333E+00  0.6666667E-01  0.6666667E-01  0.7111111E-02
    1        0.786631   1.000000
    2        6.691692   1.000000
    3       13.790670   0.000000
    4       14.610040   0.000000
    5       21.975125   0.000000
    6       22.331946   0.000000
    7       29.392430   0.000000
    8       30.083609   0.000000
 
  0.4000000E+00  0.6666667E-01  0.6666667E-01  0.7111111E-02
    1        2.495544   1.000000
    2        4.501738   1.000000
    3       13.548543   0.000000
    4       14.351506   0.000000
    5       21.779562   0.000000
    6       22.150540   0.000000
    7       30.636365   0.000000
    8       31.248104   0.000000
 
 -0.6666667E-01  0.6666667E-01  0.6666667E-01  0.1777778E-02
    1       -4.046871   1.000000
    2       19.318629   0.000000
    3       19.318633   0.000000
    4       20.232334   0.000000
    5       23.079699   0.000000
    6       23.814874   0.000000
    7       24.010542   0.000000
    8       24.010546   0.000000
 
  0.1333333E+00  0.1333333E+00  0.6666667E-01  0.7111111E-02
    1       -2.019498   1.000000
    2       13.165426   0.000000
    3       13.728404   0.000000
    4       15.387037   0.000000
    5       23.812048   0.000000
    6       24.643246   0.000000
    7       26.445987   0.000000
    8       27.410838   0.000000
 
  0.2000000E+00  0.1333333E+00  0.6666667E-01  0.1422222E-01
    1       -0.945243   1.000000
    2       10.729339   0.000000
    3       12.617729   0.000000
    4       14.537493   0.000000
    5       23.752068   0.000000
    6       24.774432   0.000000
    7       27.246103   0.000000
    8       28.718877   0.000000
 
  0.2666667E+00  0.1333333E+00  0.6666667E-01  0.1422222E-01
    1        0.388882   1.000000
    2        8.224318   1.000000
    3       11.976937   0.000000
    4       13.927299   0.000000
    5       23.431873   0.000000
    6       24.713054   0.000000
    7       28.139399   0.000000
    8       30.235973   0.000000
 
  0.3333333E+00  0.1333333E+00  0.6666667E-01  0.1422222E-01
    1        1.975733   1.000000
    2        5.919429   1.000000
    3       11.601005   0.000000
    4       13.552327   0.000000
    5       23.185983   0.000000
    6       24.601563   0.000000
    7       29.314462   0.000000
    8       31.224821   0.000000
 
  0.4000000E+00  0.1333333E+00  0.6666667E-01  0.7111111E-02
    1        3.634150   1.000000
    2        4.021888   1.000000
    3       11.476857   0.000000
    4       13.430209   0.000000
    5       23.101279   0.000000
    6       24.562841   0.000000
    7       30.477739   0.000000
    8       30.815964   0.000000
 
 -0.1333333E+00  0.1333333E+00  0.6666667E-01  0.7111111E-02
    1       -3.639786   1.000000
    2       17.136941   0.000000
    3       18.013296   0.000000
    4       19.708075   0.000000
    5       22.388758   0.000000
    6       22.519808   0.000000
    7       24.459729   0.000000
    8       25.700888   0.000000
 
  0.2000000E+00  0.2000000E+00  0.6666667E-01  0.7111111E-02
    1        0.256141   1.000000
    2        9.810966   0.975968
    3       10.198019   0.000000
    4       13.793745   0.000000
    5       24.397820   0.000000
    6       25.425535   0.000000
    7       28.372863   0.000000
    8       29.330177   0.000000
 
  0.2666667E+00  0.2000000E+00  0.6666667E-01  0.1422222E-01
    1        1.713966   1.000000
    2        7.580866   1.000000
    3        9.515961   1.000000
    4       13.304063   0.000000
    5       24.498136   0.000000
    6       26.034740   0.000000
    7       28.917322   0.000000
    8       30.519526   0.000000
 
  0.3333333E+00  0.2000000E+00  0.6666667E-01  0.1422222E-01
    1        3.415188   1.000000
    2        5.407675   1.000000
    3        9.255655   1.000000
    4       13.051697   0.000000
    5       24.414983   0.000000
    6       26.573396   0.000000
    7       29.311474   0.000000
    8       30.646324   0.000000
 
 -0.2000000E+00  0.2000000E+00  0.6666667E-01  0.7111111E-02
    1       -2.963110   1.000000
    2       14.372967   0.000000
    3       16.852888   0.000000
    4       19.094586   0.000000
    5       21.348882   0.000000
    6       21.947549   0.000000
    7       24.491739   0.000000
    8       27.997342   0.000000
 
 -0.1333333E+00  0.2000000E+00  0.6666667E-01  0.7111111E-02
    1       -3.098251   1.000000
    2       15.709309   0.000000
    3       16.069206   0.000000
    4       19.116303   0.000000
    5       21.472352   0.000000
    6       22.102788   0.000000
    7       25.336043   0.000000
    8       26.319396   0.000000
 
  0.2666667E+00  0.2666667E+00  0.6666667E-01  0.7111111E-02
    1        3.288901   1.000000
    2        7.049193   1.000000
    3        7.379320   1.000000
    4       12.935781   0.000000
    5       25.372794   0.000000
    6       26.581457   0.000000
    7       29.288853   0.000000
    8       30.907056   0.000000
 
  0.3333333E+00  0.2666667E+00  0.6666667E-01  0.7111111E-02
    1        4.930750   1.000000
    2        5.317423   1.000000
    3        7.105982   1.000000
    4       12.808337   0.000000
    5       25.601016   0.000000
    6       27.312393   0.000000
    7       28.378408   0.000000
    8       31.735754   0.000000
 
 -0.2666667E+00  0.2666667E+00  0.6666667E-01  0.7111111E-02
    1       -2.019134   1.000000
    2       11.601975   0.000000
    3       15.900032   0.000000
    4       18.370396   0.000000
    5       20.420512   0.000000
    6       21.626019   0.000000
    7       24.736802   0.000000
    8       29.776939   0.000000
 
 -0.2000000E+00  0.2666667E+00  0.6666667E-01  0.1422222E-01
    1       -2.288066   1.000000
    2       13.144172   0.000000
    3       14.827441   0.000000
    4       18.598568   0.000000
    5       20.947149   0.000000
    6       21.608829   0.000000
    7       25.329911   0.000000
    8       28.124494   0.000000
 
 -0.3333333E+00  0.3333333E+00  0.6666667E-01  0.7111111E-02
    1       -0.811371   1.000000
    2        8.983105   1.000000
    3       15.183510   0.000000
    4       17.743706   0.000000
    5       19.684061   0.000000
    6       21.304918   0.000000
    7       25.452814   0.000000
    8       30.791425   0.000000
 
 -0.2666667E+00  0.3333333E+00  0.6666667E-01  0.1422222E-01
    1       -1.212692   1.000000
    2       10.478278   0.000000
    3       13.975684   0.000000
    4       17.982669   0.000000
    5       20.286883   0.000000
    6       21.855060   0.000000
    7       25.111418   0.000000
    8       30.139136   0.000000
 
 -0.2000000E+00  0.3333333E+00  0.6666667E-01  0.7111111E-02
    1       -1.346807   1.000000
    2       12.007067   0.000000
    3       12.353117   0.000000
    4       18.356409   0.000000
    5       20.804527   0.000000
    6       21.039849   0.000000
    7       26.956406   0.000000
    8       28.051800   0.000000
 
 -0.4000000E+00  0.4000000E+00  0.6666667E-01  0.7111111E-02
    1        0.653851   1.000000
    2        6.561121   1.000000
    3       14.708284   0.000000
    4       17.304340   0.000000
    5       19.187977   0.000000
    6       21.022433   0.000000
    7       26.577304   0.000000
    8       30.879988   0.000000
 
 -0.3333333E+00  0.4000000E+00  0.6666667E-01  0.1422222E-01
    1        0.122766   1.000000
    2        7.963867   1.000000
    3       13.365246   0.000000
    4       17.470102   0.000000
    5       19.707496   0.000000
    6       22.229647   0.000000
    7       25.290689   0.000000
    8       30.383292   0.000000
 
 -0.2666667E+00  0.4000000E+00  0.6666667E-01  0.1422222E-01
    1       -0.143332   1.000000
    2        9.590046   1.000000
    3       11.451733   0.000000
    4       17.949599   0.000000
    5       20.319557   0.000000
    6       21.546526   0.000000
    7       26.913201   0.000000
    8       29.231474   0.000000
 
 -0.4666667E+00  0.4666667E+00  0.6666667E-01  0.7111111E-02
    1        2.361706   1.000000
    2        4.370046   1.000000
    3       14.463070   0.000000
    4       17.075836   0.000000
    5       18.922511   0.000000
    6       20.859875   0.000000
    7       27.965186   0.000000
    8       29.522108   0.000000
 
 -0.4000000E+00  0.4666667E+00  0.6666667E-01  0.1422222E-01
    1        1.711187   1.000000
    2        5.657832   1.000000
    3       12.996870   0.000000
    4       17.142771   0.000000
    5       19.343137   0.000000
    6       22.401634   0.000000
    7       26.102298   0.000000
    8       29.048232   0.000000
 
 -0.3333333E+00  0.4666667E+00  0.6666667E-01  0.1422222E-01
    1        1.316930   1.000000
    2        7.194803   1.000000
    3       10.946877   0.000000
    4       17.589971   0.000000
    5       19.869660   0.000000
    6       22.556128   0.000000
    7       26.410510   0.000000
    8       28.871492   0.000000
 
 -0.2666667E+00  0.4666667E+00  0.6666667E-01  0.7111111E-02
    1        1.185088   1.000000
    2        8.815462   1.000000
    3        9.128797   1.000000
    4       17.708030   0.000000
    5       20.996991   0.000000
    6       21.203374   0.000000
    7       27.366462   0.000000
    8       29.202966   0.000000
 
 -0.4666667E+00 -0.4666667E+00  0.6666667E-01  0.7111111E-02
    1        3.371157   1.000000
    2        3.758820   1.000000
    3       12.874898   0.000000
    4       17.032391   0.000000
    5       19.226110   0.000000
    6       22.424135   0.000000
    7       27.145312   0.000000
    8       27.782245   0.000000
 
 -0.4000000E+00 -0.4666667E+00  0.6666667E-01  0.1422222E-01
    1        3.020925   1.000000
    2        5.015694   1.000000
    3       10.694574   0.000000
    4       17.392652   0.000000
    5       19.632972   0.000000
    6       23.525881   0.000000
    7       25.863769   0.000000
    8       28.118000   0.000000
 
 -0.3333333E+00 -0.4666667E+00  0.6666667E-01  0.1422222E-01
    1        2.764654   1.000000
    2        6.677030   1.000000
    3        8.604524   1.000000
    4       17.474592   0.000000
    5       20.774223   0.000000
    6       22.355911   0.000000
    7       25.749908   0.000000
    8       29.947877   0.000000
 
 -0.4000000E+00 -0.4000000E+00  0.6666667E-01  0.7111111E-02
    1        4.420750   1.000000
    2        4.788415   1.000000
    3        8.472970   1.000000
    4       17.386029   0.000000
    5       20.665639   0.000000
    6       23.470914   0.000000
    7       24.467284   0.000000
    8       30.053149   0.000000
 
 -0.3333333E+00 -0.4000000E+00  0.6666667E-01  0.7111111E-02
    1        4.450385   1.000000
    2        6.291835   1.000000
    3        6.587199   1.000000
    4       17.349290   0.000000
    5       21.886643   0.000000
    6       22.450708   0.000000
    7       24.011279   0.000000
    8       32.023160   0.000000
 
  0.1333333E+00  0.1333333E+00  0.1333333E+00  0.2370370E-02
    1       -1.078876   1.000000
    2       12.035011   0.000000
    3       12.756774   0.000000
    4       12.756774   0.000000
    5       25.462153   0.000000
    6       25.462153   0.000000
    7       27.714905   0.000000
    8       27.714905   0.000000
 
  0.2000000E+00  0.1333333E+00  0.1333333E+00  0.7111111E-02
    1        0.123090   1.000000
    2        9.847569   0.826779
    3       11.588405   0.000000
    4       12.017612   0.000000
    5       25.734692   0.000000
    6       26.061608   0.000000
    7       28.773011   0.000000
    8       28.898306   0.000000
 
  0.2666667E+00  0.1333333E+00  0.1333333E+00  0.7111111E-02
    1        1.581880   1.000000
    2        7.459523   1.000000
    3       11.065301   0.000000
    4       11.519337   0.000000
    5       25.765101   0.000000
    6       25.999179   0.000000
    7       30.072338   0.000000
    8       30.300131   0.000000
 
  0.3333333E+00  0.1333333E+00  0.1333333E+00  0.7111111E-02
    1        3.284472   1.000000
    2        5.279907   1.000000
    3       10.811546   0.000000
    4       11.267651   0.000000
    5       25.722610   0.000000
    6       25.913538   0.000000
    7       31.105438   0.000000
    8       31.527773   0.000000
 
 -0.1333333E+00  0.1333333E+00  0.1333333E+00  0.1777778E-02
    1       -3.233473   1.000000
    2       16.708957   0.000000
    3       16.708961   0.000000
    4       18.238206   0.000000
    5       20.655679   0.000000
    6       23.882840   0.000000
    7       25.225909   0.000000
    8       25.225912   0.000000
 
  0.2000000E+00  0.2000000E+00  0.1333333E+00  0.7111111E-02
    1        1.450130   1.000000
    2        9.047170   1.000000
    3        9.447843   1.000000
    4       11.200880   0.000000
    5       26.660358   0.000000
    6       27.399514   0.000000
    7       29.479024   0.000000
    8       30.028013   0.000000
 
  0.2666667E+00  0.2000000E+00  0.1333333E+00  0.1422222E-01
    1        3.028573   1.000000
    2        6.942897   1.000000
    3        8.885440   1.000000
    4       10.818243   0.000000
    5       27.001628   0.000000
    6       27.990899   0.000000
    7       30.478671   0.000000
    8       31.195400   0.000000
 
  0.3333333E+00  0.2000000E+00  0.1333333E+00  0.7111111E-02
    1        4.678843   1.000000
    2        5.059136   1.000000
    3        8.751847   1.000000
    4       10.691465   0.000000
    5       27.053478   0.000000
    6       28.183643   0.000000
    7       31.009528   0.000000
    8       31.630324   0.000000
 
 -0.2000000E+00  0.2000000E+00  0.1333333E+00  0.7111111E-02
    1       -2.557807   1.000000
    2       14.575716   0.000000
    3       15.526703   0.000000
    4       17.662955   0.000000
    5       19.760257   0.000000
    6       23.349329   0.000000
    7       25.394652   0.000000
    8       27.038911   0.000000
 
  0.2666667E+00  0.2666667E+00  0.1333333E+00  0.7111111E-02
    1        4.712306   1.000000
    2        6.548833   1.000000
    3        6.875196   1.000000
    4       10.561385   0.000000
    5       27.817541   0.000000
    6       29.243577   0.000000
    7       30.477314   0.000000
    8       31.920446   0.000000
 
 -0.2666667E+00  0.2666667E+00  0.1333333E+00  0.7111111E-02
    1       -1.615030   1.000000
    2       11.924571   0.000000
    3       14.563039   0.000000
    4       17.041735   0.000000
    5       19.931295   0.000000
    6       22.469134   0.000000
    7       25.071604   0.000000
    8       29.578764   0.000000
 
 -0.2000000E+00  0.2666667E+00  0.1333333E+00  0.7111111E-02
    1       -1.749247   1.000000
    2       13.363227   0.000000
    3       13.615225   0.000000
    4       17.279351   0.000000
    5       18.875385   0.000000
    6       23.120952   0.000000
    7       26.630360   0.000000
    8       27.468377   0.000000
 
 -0.3333333E+00  0.3333333E+00  0.1333333E+00  0.7111111E-02
    1       -0.410011   1.000000
    2        9.343948   1.000000
    3       13.835131   0.000000
    4       16.407167   0.000000
    5       20.583051   0.000000
    6       21.752700   0.000000
    7       24.767897   0.000000
    8       29.895706   0.000000
 
 -0.2666667E+00  0.3333333E+00  0.1333333E+00  0.1422222E-01
    1       -0.677037   1.000000
    2       10.923210   0.000000
    3       12.648126   0.000000
    4       16.936331   0.000000
    5       19.060287   0.000000
    6       22.475106   0.000000
    7       26.435533   0.000000
    8       28.797176   0.000000
 
 -0.4000000E+00  0.4000000E+00  0.1333333E+00  0.7111111E-02
    1        1.051936   1.000000
    2        6.938502   1.000000
    3       13.352927   0.000000
    4       15.947260   0.000000
    5       21.274055   0.000000
    6       21.290058   0.000000
    7       24.781836   0.000000
    8       28.516651   0.000000
 
 -0.3333333E+00  0.4000000E+00  0.1333333E+00  0.1422222E-01
    1        0.654860   1.000000
    2        8.453535   1.000000
    3       12.028746   0.000000
    4       16.455994   0.000000
    5       19.865910   0.000000
    6       22.013715   0.000000
    7       25.700947   0.000000
    8       28.302109   0.000000
 
 -0.2666667E+00  0.4000000E+00  0.1333333E+00  0.7111111E-02
    1        0.522327   1.000000
    2       10.039529   0.000004
    3       10.329719   0.000000
    4       17.341994   0.000000
    5       18.788605   0.000000
    6       21.980853   0.000000
    7       26.749347   0.000000
    8       28.640237   0.000000
 
 -0.4666667E+00  0.4666667E+00  0.1333333E+00  0.7111111E-02
    1        2.758161   1.000000
    2        4.756564   1.000000
    3       13.111670   0.000000
    4       15.714385   0.000000
    5       21.025212   0.000000
    6       21.718975   0.000000
    7       25.308023   0.000000
    8       27.139250   0.000000
 
 -0.4000000E+00  0.4666667E+00  0.1333333E+00  0.1422222E-01
    1        2.238389   1.000000
    2        6.165319   1.000000
    3       11.650734   0.000000
    4       16.119376   0.000000
    5       20.587242   0.000000
    6       22.073754   0.000000
    7       24.724186   0.000000
    8       27.472502   0.000000
 
 -0.3333333E+00  0.4666667E+00  0.1333333E+00  0.1422222E-01
    1        1.976998   1.000000
    2        7.811216   1.000000
    3        9.693232   1.000000
    4       17.274861   0.000000
    5       19.454072   0.000000
    6       21.687219   0.000000
    7       25.003226   0.000000
    8       29.267839   0.000000
 
 -0.4666667E+00 -0.4666667E+00  0.1333333E+00  0.7111111E-02
    1        3.898921   1.000000
    2        4.269978   1.000000
    3       11.528371   0.000000
    4       16.010114   0.000000
    5       20.777571   0.000000
    6       22.590578   0.000000
    7       23.990628   0.000000
    8       27.197156   0.000000
 
 -0.4000000E+00 -0.4666667E+00  0.1333333E+00  0.1422222E-01
    1        3.674103   1.000000
    2        5.653498   1.000000
    3        9.437193   1.000000
    4       17.118649   0.000000
    5       20.202668   0.000000
    6       22.010049   0.000000
    7       23.284562   0.000000
    8       29.315675   0.000000
 
 -0.3333333E+00 -0.4666667E+00  0.1333333E+00  0.7111111E-02
    1        3.547665   1.000000
    2        7.295127   1.000000
    3        7.586244   1.000000
    4       17.913458   0.000000
    5       19.699718   0.000000
    6       21.430215   0.000000
    7       23.236779   0.000000
    8       31.237016   0.000000
 
 -0.4000000E+00 -0.4000000E+00  0.1333333E+00  0.7111111E-02
    1        5.194023   1.000000
    2        5.552286   1.000000
    3        7.329905   1.000000
    4       18.045556   0.000000
    5       20.305199   0.000000
    6       21.463355   0.000000
    7       22.075908   0.000000
    8       31.892658   0.000000
 
  0.2000000E+00  0.2000000E+00  0.2000000E+00  0.2370370E-02
    1        2.898695   1.000000
    2        8.401633   1.000000
    3        8.943443   1.000000
    4        8.943443   1.000000
    5       28.640916   0.000000
    6       28.640916   0.000000
    7       30.683710   0.000000
    8       30.683710   0.000000
 
  0.2666667E+00  0.2000000E+00  0.2000000E+00  0.7111111E-02
    1        4.587147   1.000000
    2        6.560464   1.000000
    3        8.366419   1.000000
    4        8.690505   1.000000
    5       29.216069   0.000000
    6       29.636198   0.000000
    7       31.625192   0.000000
    8       31.703010   0.000000
 
 -0.2000000E+00  0.2000000E+00  0.2000000E+00  0.1777778E-02
    1       -1.883550   1.000000
    2       14.336725   0.000000
    3       14.336729   0.000000
    4       16.194661   0.000000
    5       17.935726   0.000000
    6       25.203244   0.000000
    7       26.523110   0.000000
    8       26.523114   0.000000
 