       N       E                     dE             d eps       ncg     rms          rms(c)
DAV:   1    -0.432782973809E+01   -0.43278E+01   -0.10908E+03  2240   0.189E+02
DAV:   2    -0.487698380348E+01   -0.54915E+00   -0.52980E+00  2832   0.135E+01
DAV:   3    -0.487800449696E+01   -0.10207E-02   -0.10206E-02  2184   0.524E-01
DAV:   4    -0.487800481940E+01   -0.32244E-06   -0.32275E-06  2904   0.749E-03
DAV:   5    -0.487800482011E+01   -0.70717E-09   -0.12298E-10  2208   0.346E-05    0.360E+00
DAV:   6    -0.486551266800E+01    0.12492E-01   -0.37296E-03  2040   0.266E-01    0.202E+00
DAV:   7    -0.485833455200E+01    0.71781E-02   -0.74496E-03  2136   0.377E-01    0.138E-01
DAV:   8    -0.485830751694E+01    0.27035E-04   -0.24225E-05  2608   0.325E-02    0.119E-02
DAV:   9    -0.485830826163E+01   -0.74469E-06   -0.33748E-07  2096   0.315E-03
   1 F= -.48583083E+01 E0= -.48579741E+01  d E =-.485831E+01
       N       E                     dE             d eps       ncg     rms          rms(c)
DAV:   1    -0.487952164449E+01   -0.21214E-01   -0.50768E-01  1960   0.277E+00    0.668E-01
DAV:   2    -0.487391887210E+01    0.56028E-02   -0.18636E-03  2216   0.225E-01    0.368E-01
DAV:   3    -0.487069042731E+01    0.32284E-02   -0.35451E-03  2096   0.247E-01    0.125E-01
DAV:   4    -0.487068814544E+01    0.22819E-05   -0.27049E-06  2392   0.122E-02    0.112E-01
DAV:   5    -0.487067276012E+01    0.15385E-04   -0.94657E-07  2272   0.549E-03    0.160E-02
DAV:   6    -0.487067315778E+01   -0.39766E-06   -0.12961E-08   984   0.735E-04
   2 F= -.48706732E+01 E0= -.48704299E+01  d E =-.123649E-01
       N       E                     dE             d eps       ncg     rms          rms(c)
DAV:   1    -0.487207114180E+01   -0.13984E-02   -0.24989E-02  1960   0.627E-01    0.146E-01
DAV:   2    -0.487179751023E+01    0.27363E-03   -0.88968E-05  2264   0.486E-02    0.799E-02
DAV:   3    -0.487164253102E+01    0.15498E-03   -0.17139E-04  2072   0.545E-02    0.290E-02
DAV:   4    -0.487164256447E+01   -0.33454E-07   -0.13109E-07  2168   0.270E-03    0.257E-02
DAV:   5    -0.487164330933E+01   -0.74485E-06   -0.42458E-08  1016   0.120E-03    0.323E-03
DAV:   6    -0.487164320598E+01    0.10334E-06   -0.12778E-09   984   0.249E-04
   3 F= -.48716432E+01 E0= -.48713910E+01  d E =-.133349E-01
