 vasp.6.2.0 18Jan21 (build Aug 12 2022 13:00:08) complex                        
  
 executed on             LinuxIFC date 2024.11.03  22:06:25
 running on    4 total cores
 distrk:  each k-point on    4 cores,    1 groups
 distr:  one band on NCORE=   1 cores,    4 groups


--------------------------------------------------------------------------------------------------------


 INCAR:
   ISTART = 0            (Read existing wavefunction, if there)
   ISPIN = 1            (Non-Spin polarised DFT)
   LREAL = .FALSE.       (Projection operators: automatic)
   LWAVE = .FALSE.        (Write WAVECAR or not)
   LCHARG = .FALSE.        (Write CHGCAR or not)
   ADDGRID = .TRUE.        (Increase grid, helps GGA convergence)
   LASPH = .TRUE.        (Give more accurate total energies and band structure calculations)
   PREC = Accurate      (Accurate strictly avoids any aliasing or wrap around errors)
   ENCUT = 200          (Cut-off energy for plane wave basis set, in eV)
   ISMEAR = 0            (Gaussian smearing, metals:1)
   SIGMA = 0.05         (Smearing value in eV, metals:0.2)
   NELM = 90           (Max electronic SCF steps)
   NELMIN = 6            (Min electronic SCF steps)
   EDIFF = 1E-06        (SCF energy convergence, in eV)
   NSW = 100          (Max ionic steps)
   IBRION = 2            (Algorithm: 0-MD, 1-Quasi-New, 2-CG)
   ISIF = 3            (Stress/relaxation: 2-Ions, 3-Shape/Ions/V, 4-Shape/Ions)
   EDIFFG = -2E-03        (Ionic convergence, eV/AA)
   ISYM = 2              (Symmetry: 0\=none, 2\=GGA, 3\=hybrids)

 POTCAR:    PAW_PBE Si 05Jan2001                  
 POTCAR:    PAW_PBE Si 05Jan2001                  
   VRHFIN =Si: s2p2                                                                                 
   LEXCH  = PE                                                                                      
   EATOM  =   103.0669 eV,    7.5752 Ry                                                             
                                                                                                    
   TITEL  = PAW_PBE Si 05Jan2001                                                                    
   LULTRA =        F    use ultrasoft PP ?                                                          
   IUNSCR =        1    unscreen: 0-lin 1-nonlin 2-no                                               
   RPACOR =    1.500    partial core radius                                                         
   POMASS =   28.085; ZVAL   =    4.000    mass and valenz                                          
   RCORE  =    1.900    outmost cutoff radius                                                       
   RWIGS  =    2.480; RWIGS  =    1.312    wigner-seitz radius (au A)                               
   ENMAX  =  245.345; ENMIN  =  184.009 eV                                                          
   ICORE  =        2    local potential                                                             
   LCOR   =        T    correct aug charges                                                         
   LPAW   =        T    paw PP                                                                      
   EAUG   =  322.069                                                                                
   DEXC   =    0.000                                                                                
   RMAX   =    1.950    core radius for proj-oper                                                   
   RAUG   =    1.300    factor for augmentation sphere                                              
   RDEP   =    1.993    radius for radial grids                                                     
   RDEPT  =    1.837    core radius for aug-charge                                                  
                                                                                                    
   Atomic configuration                                                                             
    6 entries                                                                                       
     n  l   j            E        occ.                                                              
     1  0  0.50     -1785.8828   2.0000                                                             
     2  0  0.50      -139.4969   2.0000                                                             
     2  1  1.50       -95.5546   6.0000                                                             
     3  0  0.50       -10.8127   2.0000                                                             
     3  1  0.50        -4.0811   2.0000                                                             
     3  2  1.50        -4.0817   0.0000                                                             
   Description                                                                                      
     l       E           TYP  RCUT    TYP  RCUT                                                     
     0    -10.8127223     23  1.900                                                                 
     0     -7.6451159     23  1.900                                                                 
     1     -4.0811372     23  1.900                                                                 
     1      2.4879257     23  1.900                                                                 
     2     -4.0817478      7  1.900                                                                 
  local pseudopotential read in
  partial core-charges read in
  partial kinetic energy density read in
  atomic valenz-charges read in
  non local Contribution for L=           0  read in
    real space projection operators read in
  non local Contribution for L=           0  read in
    real space projection operators read in
  non local Contribution for L=           1  read in
    real space projection operators read in
  non local Contribution for L=           1  read in
    real space projection operators read in
    PAW grid and wavefunctions read in
 
   number of l-projection  operators is LMAX  =           4
   number of lm-projection operators is LMMAX =           8
 
  PAW_PBE Si 05Jan2001                  :
 energy of atom  1       EATOM= -103.0669
 kinetic energy error for atom=    0.0107 (will be added to EATOM!!)
 
 
 POSCAR: Si1
  positions in direct lattice
  No initial velocities read in
 exchange correlation table for  LEXCH =        8
   RHO(1)=    0.500       N(1)  =     2000
   RHO(2)=  100.500       N(2)  =     4000
 


--------------------------------------------------------------------------------------------------------


 ion  position               nearest neighbor table
   1  0.000  0.000  0.000-
 
  LATTYP: Found a body centered cubic cell.
 ALAT       =     3.0266512600
  
  Lattice vectors:
  
 A1 = (   1.5133256300,   1.5133256300,   1.5133256300)
 A2 = (   1.5133256300,  -1.5133256300,  -1.5133256300)
 A3 = (  -1.5133256300,   1.5133256300,  -1.5133256300)


Analysis of symmetry for initial positions (statically):
=====================================================================
 Subroutine PRICEL returns:
 Original cell was already a primitive cell.
 

 Routine SETGRP: Setting up the symmetry group for a 
 body centered cubic supercell.


 Subroutine GETGRP returns: Found 48 space group operations
 (whereof 48 operations were pure point group operations)
 out of a pool of 48 trial point group operations.


The static configuration has the point symmetry O_h .


Analysis of symmetry for dynamics (positions and initial velocities):
=====================================================================
 Subroutine PRICEL returns:
 Original cell was already a primitive cell.
 

 Routine SETGRP: Setting up the symmetry group for a 
 body centered cubic supercell.


 Subroutine GETGRP returns: Found 48 space group operations
 (whereof 48 operations were pure point group operations)
 out of a pool of 48 trial point group operations.


The dynamic configuration has the point symmetry O_h .


 Subroutine INISYM returns: Found 48 space group operations
 (whereof 48 operations are pure point group operations),
 and found     1 'primitive' translations


----------------------------------------------------------------------------------------

                                     Primitive cell                                     

  volume of cell :      13.8630

  direct lattice vectors                    reciprocal lattice vectors
     1.513325630  1.513325630  1.513325630     0.330398158  0.330398158  0.000000000
     1.513325630 -1.513325630 -1.513325630     0.330398158  0.000000000 -0.330398158
    -1.513325630  1.513325630 -1.513325630     0.000000000  0.330398158 -0.330398158

  length of vectors
     2.621156880  2.621156880  2.621156880     0.467253555  0.467253555  0.467253555

  position of ions in fractional coordinates (direct lattice)
     0.000000000  0.000000000  0.000000000

  ion indices of the primitive-cell ions
   primitive index   ion index
                 1           1

----------------------------------------------------------------------------------------

 
 
 KPOINTS: Automatic                               

Automatic generation of k-mesh.
 Grid dimensions read from file:
 generate k-points for:   15   15   15

 Generating k-lattice:

  Cartesian coordinates                     Fractional coordinates (reciprocal lattice)
     0.022026544  0.022026544  0.000000000     0.066666667  0.000000000  0.000000000
     0.022026544  0.000000000 -0.022026544     0.000000000  0.066666667  0.000000000
     0.000000000  0.022026544 -0.022026544     0.000000000  0.000000000  0.066666667

  Length of vectors
     0.031150237  0.031150237  0.031150237

  Shift w.r.t. Gamma in fractional coordinates (k-lattice)
     0.000000000  0.000000000  0.000000000

 
 Subroutine IBZKPT returns following result:
 ===========================================
 
 Found    120 irreducible k-points:
 
 Following reciprocal coordinates:
            Coordinates               Weight
  0.000000  0.000000  0.000000      1.000000
  0.066667  0.000000  0.000000     12.000000
  0.133333  0.000000  0.000000     12.000000
  0.200000  0.000000  0.000000     12.000000
  0.266667  0.000000  0.000000     12.000000
  0.333333  0.000000  0.000000     12.000000
  0.400000  0.000000  0.000000     12.000000
  0.466667  0.000000  0.000000     12.000000
  0.066667  0.066667  0.000000     24.000000
  0.133333  0.066667 -0.000000     48.000000
  0.200000  0.066667 -0.000000     48.000000
  0.266667  0.066667  0.000000     48.000000
  0.333333  0.066667 -0.000000     48.000000
  0.400000  0.066667  0.000000     48.000000
  0.466667  0.066667  0.000000     24.000000
  0.133333  0.133333  0.000000     24.000000
  0.200000  0.133333  0.000000     48.000000
  0.266667  0.133333  0.000000     48.000000
  0.333333  0.133333  0.000000     48.000000
  0.400000  0.133333  0.000000     48.000000
  0.200000  0.200000  0.000000     24.000000
  0.266667  0.200000  0.000000     48.000000
  0.333333  0.200000  0.000000     48.000000
  0.400000  0.200000  0.000000     24.000000
  0.266667  0.266667  0.000000     24.000000
  0.333333  0.266667  0.000000     48.000000
  0.333333  0.333333  0.000000      8.000000
  0.066667  0.066667  0.066667      8.000000
  0.133333  0.066667  0.066667     24.000000
  0.200000  0.066667  0.066667     24.000000
  0.266667  0.066667  0.066667     24.000000
  0.333333  0.066667  0.066667     24.000000
  0.400000  0.066667  0.066667     24.000000
 -0.066667  0.066667  0.066667      6.000000
  0.133333  0.133333  0.066667     24.000000
  0.200000  0.133333  0.066667     48.000000
  0.266667  0.133333  0.066667     48.000000
  0.333333  0.133333  0.066667     48.000000
  0.400000  0.133333  0.066667     24.000000
 -0.133333  0.133333  0.066667     24.000000
  0.200000  0.200000  0.066667     24.000000
  0.266667  0.200000  0.066667     48.000000
  0.333333  0.200000  0.066667     48.000000
 -0.200000  0.200000  0.066667     24.000000
 -0.133333  0.200000  0.066667     24.000000
  0.266667  0.266667  0.066667     24.000000
  0.333333  0.266667  0.066667     24.000000
 -0.266667  0.266667  0.066667     24.000000
 -0.200000  0.266667  0.066667     48.000000
 -0.333333  0.333333  0.066667     24.000000
 -0.266667  0.333333  0.066667     48.000000
 -0.200000  0.333333  0.066667     24.000000
 -0.400000  0.400000  0.066667     24.000000
 -0.333333  0.400000  0.066667     48.000000
 -0.266667  0.400000  0.066667     48.000000
 -0.466667  0.466667  0.066667     24.000000
 -0.400000  0.466667  0.066667     48.000000
 -0.333333  0.466667  0.066667     48.000000
 -0.266667  0.466667  0.066667     24.000000
 -0.466667 -0.466667  0.066667     24.000000
 -0.400000 -0.466667  0.066667     48.000000
 -0.333333 -0.466667  0.066667     48.000000
 -0.400000 -0.400000  0.066667     24.000000
 -0.333333 -0.400000  0.066667     24.000000
  0.133333  0.133333  0.133333      8.000000
  0.200000  0.133333  0.133333     24.000000
  0.266667  0.133333  0.133333     24.000000
  0.333333  0.133333  0.133333     24.000000
 -0.133333  0.133333  0.133333      6.000000
  0.200000  0.200000  0.133333     24.000000
  0.266667  0.200000  0.133333     48.000000
  0.333333  0.200000  0.133333     24.000000
 -0.200000  0.200000  0.133333     24.000000
  0.266667  0.266667  0.133333     24.000000
 -0.266667  0.266667  0.133333     24.000000
 -0.200000  0.266667  0.133333     24.000000
 -0.333333  0.333333  0.133333     24.000000
 -0.266667  0.333333  0.133333     48.000000
 -0.400000  0.400000  0.133333     24.000000
 -0.333333  0.400000  0.133333     48.000000
 -0.266667  0.400000  0.133333     24.000000
 -0.466667  0.466667  0.133333     24.000000
 -0.400000  0.466667  0.133333     48.000000
 -0.333333  0.466667  0.133333     48.000000
 -0.466667 -0.466667  0.133333     24.000000
 -0.400000 -0.466667  0.133333     48.000000
 -0.333333 -0.466667  0.133333     24.000000
 -0.400000 -0.400000  0.133333     24.000000
  0.200000  0.200000  0.200000      8.000000
  0.266667  0.200000  0.200000     24.000000
 -0.200000  0.200000  0.200000      6.000000
  0.266667  0.266667  0.200000      8.000000
 -0.266667  0.266667  0.200000     24.000000
 -0.333333  0.333333  0.200000     24.000000
 -0.266667  0.333333  0.200000     24.000000
 -0.400000  0.400000  0.200000     24.000000
 -0.333333  0.400000  0.200000     48.000000
 -0.466667  0.466667  0.200000     24.000000
 -0.400000  0.466667  0.200000     48.000000
 -0.333333  0.466667  0.200000     24.000000
 -0.466667 -0.466667  0.200000     24.000000
 -0.400000 -0.466667  0.200000     48.000000
 -0.400000 -0.400000  0.200000      8.000000
 -0.266667  0.266667  0.266667      6.000000
 -0.333333  0.333333  0.266667     24.000000
 -0.400000  0.400000  0.266667     24.000000
 -0.333333  0.400000  0.266667     24.000000
 -0.466667  0.466667  0.266667     24.000000
 -0.400000  0.466667  0.266667     48.000000
 -0.466667 -0.466667  0.266667     24.000000
 -0.400000 -0.466667  0.266667     24.000000
 -0.333333  0.333333  0.333333      6.000000
 -0.400000  0.400000  0.333333     24.000000
 -0.466667  0.466667  0.333333     24.000000
 -0.400000  0.466667  0.333333     24.000000
 -0.466667 -0.466667  0.333333     24.000000
 -0.400000  0.400000  0.400000      6.000000
 -0.466667  0.466667  0.400000     24.000000
 -0.466667 -0.466667  0.400000      8.000000
 -0.466667  0.466667  0.466667      6.000000
 
 Following cartesian coordinates:
            Coordinates               Weight
  0.000000  0.000000  0.000000      1.000000
  0.022027  0.022027  0.000000     12.000000
  0.044053  0.044053  0.000000     12.000000
  0.066080  0.066080  0.000000     12.000000
  0.088106  0.088106  0.000000     12.000000
  0.110133  0.110133  0.000000     12.000000
  0.132159  0.132159  0.000000     12.000000
  0.154186  0.154186  0.000000     12.000000
  0.044053  0.022027 -0.022027     24.000000
  0.066080  0.044053 -0.022027     48.000000
  0.088106  0.066080 -0.022027     48.000000
  0.110133  0.088106 -0.022027     48.000000
  0.132159  0.110133 -0.022027     48.000000
  0.154186  0.132159 -0.022027     48.000000
  0.176212  0.154186 -0.022027     24.000000
  0.088106  0.044053 -0.044053     24.000000
  0.110133  0.066080 -0.044053     48.000000
  0.132159  0.088106 -0.044053     48.000000
  0.154186  0.110133 -0.044053     48.000000
  0.176212  0.132159 -0.044053     48.000000
  0.132159  0.066080 -0.066080     24.000000
  0.154186  0.088106 -0.066080     48.000000
  0.176212  0.110133 -0.066080     48.000000
  0.198239  0.132159 -0.066080     24.000000
  0.176212  0.088106 -0.088106     24.000000
  0.198239  0.110133 -0.088106     48.000000
  0.220265  0.110133 -0.110133      8.000000
  0.044053  0.044053 -0.044053      8.000000
  0.066080  0.066080 -0.044053     24.000000
  0.088106  0.088106 -0.044053     24.000000
  0.110133  0.110133 -0.044053     24.000000
  0.132159  0.132159 -0.044053     24.000000
  0.154186  0.154186 -0.044053     24.000000
  0.000000  0.000000 -0.044053      6.000000
  0.088106  0.066080 -0.066080     24.000000
  0.110133  0.088106 -0.066080     48.000000
  0.132159  0.110133 -0.066080     48.000000
  0.154186  0.132159 -0.066080     48.000000
  0.176212  0.154186 -0.066080     24.000000
  0.000000 -0.022027 -0.066080     24.000000
  0.132159  0.088106 -0.088106     24.000000
  0.154186  0.110133 -0.088106     48.000000
  0.176212  0.132159 -0.088106     48.000000
  0.000000 -0.044053 -0.088106     24.000000
  0.022027 -0.022027 -0.088106     24.000000
  0.176212  0.110133 -0.110133     24.000000
  0.198239  0.132159 -0.110133     24.000000
  0.000000 -0.066080 -0.110133     24.000000
  0.022027 -0.044053 -0.110133     48.000000
  0.000000 -0.088106 -0.132159     24.000000
  0.022027 -0.066080 -0.132159     48.000000
  0.044053 -0.044053 -0.132159     24.000000
  0.000000 -0.110133 -0.154186     24.000000
  0.022027 -0.088106 -0.154186     48.000000
  0.044053 -0.066080 -0.154186     48.000000
  0.000000 -0.132159 -0.176212     24.000000
  0.022027 -0.110133 -0.176212     48.000000
  0.044053 -0.088106 -0.176212     48.000000
  0.066080 -0.066080 -0.176212     24.000000
 -0.308372 -0.132159  0.132159     24.000000
 -0.286345 -0.110133  0.132159     48.000000
 -0.264319 -0.088106  0.132159     48.000000
 -0.264319 -0.110133  0.110133     24.000000
 -0.242292 -0.088106  0.110133     24.000000
  0.088106  0.088106 -0.088106      8.000000
  0.110133  0.110133 -0.088106     24.000000
  0.132159  0.132159 -0.088106     24.000000
  0.154186  0.154186 -0.088106     24.000000
  0.000000  0.000000 -0.088106      6.000000
  0.132159  0.110133 -0.110133     24.000000
  0.154186  0.132159 -0.110133     48.000000
  0.176212  0.154186 -0.110133     24.000000
  0.000000 -0.022027 -0.110133     24.000000
  0.176212  0.132159 -0.132159     24.000000
  0.000000 -0.044053 -0.132159     24.000000
  0.022027 -0.022027 -0.132159     24.000000
  0.000000 -0.066080 -0.154186     24.000000
  0.022027 -0.044053 -0.154186     48.000000
  0.000000 -0.088106 -0.176212     24.000000
  0.022027 -0.066080 -0.176212     48.000000
  0.044053 -0.044053 -0.176212     24.000000
  0.000000 -0.110133 -0.198239     24.000000
  0.022027 -0.088106 -0.198239     48.000000
  0.044053 -0.066080 -0.198239     48.000000
 -0.308372 -0.110133  0.110133     24.000000
 -0.286345 -0.088106  0.110133     48.000000
 -0.264319 -0.066080  0.110133     24.000000
 -0.264319 -0.088106  0.088106     24.000000
  0.132159  0.132159 -0.132159      8.000000
  0.154186  0.154186 -0.132159     24.000000
  0.000000  0.000000 -0.132159      6.000000
  0.176212  0.154186 -0.154186      8.000000
  0.000000 -0.022027 -0.154186     24.000000
  0.000000 -0.044053 -0.176212     24.000000
  0.022027 -0.022027 -0.176212     24.000000
  0.000000 -0.066080 -0.198239     24.000000
  0.022027 -0.044053 -0.198239     48.000000
  0.000000 -0.088106 -0.220265     24.000000
  0.022027 -0.066080 -0.220265     48.000000
  0.044053 -0.044053 -0.220265     24.000000
 -0.308372 -0.088106  0.088106     24.000000
 -0.286345 -0.066080  0.088106     48.000000
 -0.264319 -0.066080  0.066080      8.000000
  0.000000  0.000000 -0.176212      6.000000
  0.000000 -0.022027 -0.198239     24.000000
  0.000000 -0.044053 -0.220265     24.000000
  0.022027 -0.022027 -0.220265     24.000000
  0.000000 -0.066080 -0.242292     24.000000
  0.022027 -0.044053 -0.242292     48.000000
 -0.308372 -0.066080  0.066080     24.000000
 -0.286345 -0.044053  0.066080     24.000000
  0.000000  0.000000 -0.220265      6.000000
  0.000000 -0.022027 -0.242292     24.000000
  0.000000 -0.044053 -0.264319     24.000000
  0.022027 -0.022027 -0.264319     24.000000
 -0.308372 -0.044053  0.044053     24.000000
  0.000000  0.000000 -0.264319      6.000000
  0.000000 -0.022027 -0.286345     24.000000
 -0.308372 -0.022027  0.022027      8.000000
  0.000000  0.000000 -0.308372      6.000000
 


--------------------------------------------------------------------------------------------------------




 Dimension of arrays:
   k-points           NKPTS =    120   k-points in BZ     NKDIM =    120   number of bands    NBANDS=      8
   number of dos      NEDOS =    301   number of ions     NIONS =      1
   non local maximal  LDIM  =      4   non local SUM 2l+1 LMDIM =      8
   total plane-waves  NPLWV =   1728
   max r-space proj   IRMAX =      1   max aug-charges    IRDMAX=  33536
   dimension x,y,z NGX =    12 NGY =   12 NGZ =   12
   dimension x,y,z NGXF=    24 NGYF=   24 NGZF=   24
   support grid    NGXF=    48 NGYF=   48 NGZF=   48
   ions per type =               1
   NGX,Y,Z   is equivalent  to a cutoff of   7.61,  7.61,  7.61 a.u.
   NGXF,Y,Z  is equivalent  to a cutoff of  15.22, 15.22, 15.22 a.u.

 SYSTEM =  unknown system                          
 POSCAR =  Si1                                     

 Startparameter for this run:
   NWRITE =      2    write-flag & timer
   PREC   = accura    normal or accurate (medium, high low for compatibility)
   ISTART =      0    job   : 0-new  1-cont  2-samecut
   ICHARG =      2    charge: 1-file 2-atom 10-const
   ISPIN  =      1    spin polarized calculation?
   LNONCOLLINEAR =      F non collinear calculations
   LSORBIT =      F    spin-orbit coupling
   INIWAV =      1    electr: 0-lowe 1-rand  2-diag
   LASPH  =      T    aspherical Exc in radial PAW
   METAGGA=      F    non-selfconsistent MetaGGA calc.

 Electronic Relaxation 1
   ENCUT  =  200.0 eV  14.70 Ry    3.83 a.u.   3.02  3.02  3.02*2*pi/ulx,y,z
   ENINI  =  200.0     initial cutoff
   ENAUG  =  322.1 eV  augmentation charge cutoff
   NELM   =     90;   NELMIN=  6; NELMDL= -5     # of ELM steps 
   EDIFF  = 0.1E-05   stopping-criterion for ELM
   LREAL  =      F    real-space projection
   NLSPLINE    = F    spline interpolate recip. space projectors
   LCOMPAT=      F    compatible to vasp.4.4
   GGA_COMPAT  = T    GGA compatible to vasp.4.4-vasp.4.6
   LMAXPAW     = -100 max onsite density
   LMAXMIX     =    2 max onsite mixed and CHGCAR
   VOSKOWN=      0    Vosko Wilk Nusair interpolation
   ROPT   =    0.00000
 Ionic relaxation
   EDIFFG = -.2E-02   stopping-criterion for IOM
   NSW    =    100    number of steps for IOM
   NBLOCK =      1;   KBLOCK =    100    inner block; outer block 
   IBRION =      2    ionic relax: 0-MD 1-quasi-New 2-CG
   NFREE  =      1    steps in history (QN), initial steepest desc. (CG)
   ISIF   =      3    stress and relaxation
   IWAVPR =     11    prediction:  0-non 1-charg 2-wave 3-comb
   ISYM   =      2    0-nonsym 1-usesym 2-fastsym
   LCORR  =      T    Harris-Foulkes like correction to forces

   POTIM  = 0.5000    time-step for ionic-motion
   TEIN   =    0.0    initial temperature
   TEBEG  =    0.0;   TEEND  =   0.0 temperature during run
   SMASS  =  -3.00    Nose mass-parameter (am)
   estimated Nose-frequenzy (Omega)   =  0.10E-29 period in steps = 0.13E+47 mass=  -0.157E-27a.u.
   SCALEE = 1.0000    scale energy and forces
   NPACO  =    256;   APACO  = 16.0  distance and # of slots for P.C.
   PSTRESS=    0.0 pullay stress

  Mass of Ions in am
   POMASS =  28.09
  Ionic Valenz
   ZVAL   =   4.00
  Atomic Wigner-Seitz radii
   RWIGS  =  -1.00
  virtual crystal weights 
   VCA    =   1.00
   NELECT =       4.0000    total number of electrons
   NUPDOWN=      -1.0000    fix difference up-down

 DOS related values:
   EMIN   =  10.00;   EMAX   =-10.00  energy-range for DOS
   EFERMI =   0.00
   ISMEAR =     0;   SIGMA  =   0.05  broadening in eV -4-tet -1-fermi 0-gaus

 Electronic relaxation 2 (details)
   IALGO  =     38    algorithm
   LDIAG  =      T    sub-space diagonalisation (order eigenvalues)
   LSUBROT=      F    optimize rotation matrix (better conditioning)
   TURBO    =      0    0=normal 1=particle mesh
   IRESTART =      0    0=no restart 2=restart with 2 vectors
   NREBOOT  =      0    no. of reboots
   NMIN     =      0    reboot dimension
   EREF     =   0.00    reference energy to select bands
   IMIX   =      4    mixing-type and parameters
     AMIX     =   0.40;   BMIX     =  1.00
     AMIX_MAG =   1.60;   BMIX_MAG =  1.00
     AMIN     =   0.10
     WC   =   100.;   INIMIX=   1;  MIXPRE=   1;  MAXMIX= -45

 Intra band minimization:
   WEIMIN = 0.0010     energy-eigenvalue tresh-hold
   EBREAK =  0.31E-07  absolut break condition
   DEPER  =   0.30     relativ break condition  

   TIME   =   0.40     timestep for ELM

  volume/ion in A,a.u.               =      13.86        93.55
  Fermi-wavevector in a.u.,A,eV,Ry     =   1.081789  2.044284 15.922447  1.170267
  Thomas-Fermi vector in A             =   2.217814
 
 Write flags
   LWAVE        =      F    write WAVECAR
   LDOWNSAMPLE  =      F    k-point downsampling of WAVECAR
   LCHARG       =      F    write CHGCAR
   LVTOT        =      F    write LOCPOT, total local potential
   LVHAR        =      F    write LOCPOT, Hartree potential only
   LELF         =      F    write electronic localiz. function (ELF)
   LORBIT       =      0    0 simple, 1 ext, 2 COOP (PROOUT), +10 PAW based schemes


 Dipole corrections
   LMONO  =      F    monopole corrections only (constant potential shift)
   LDIPOL =      F    correct potential (dipole corrections)
   IDIPOL =      0    1-x, 2-y, 3-z, 4-all directions 
   EPSILON=  1.0000000 bulk dielectric constant

 Exchange correlation treatment:
   GGA     =    --    GGA type
   LEXCH   =     8    internal setting for exchange type
   VOSKOWN=      0    Vosko Wilk Nusair interpolation
   LHFCALC =     F    Hartree Fock is set to
   LHFONE  =     F    Hartree Fock one center treatment
   AEXX    =    0.0000 exact exchange contribution

 Linear response parameters
   LEPSILON=     F    determine dielectric tensor
   LRPA    =     F    only Hartree local field effects (RPA)
   LNABLA  =     F    use nabla operator in PAW spheres
   LVEL    =     F    velocity operator in full k-point grid
   LINTERFAST=   F  fast interpolation
   KINTER  =     0    interpolate to denser k-point grid
   CSHIFT  =0.1000    complex shift for real part using Kramers Kronig
   OMEGAMAX=  -1.0    maximum frequency
   DEG_THRESHOLD= 0.2000000E-02 threshold for treating states as degnerate
   RTIME   =   -0.100 relaxation time in fs
  (WPLASMAI=    0.000 imaginary part of plasma frequency in eV, 0.658/RTIME)
   DFIELD  = 0.0000000 0.0000000 0.0000000 field for delta impulse in time
 
 Orbital magnetization related:
   ORBITALMAG=     F  switch on orbital magnetization
   LCHIMAG   =     F  perturbation theory with respect to B field
   DQ        =  0.001000  dq finite difference perturbation B field
   LLRAUG    =     F  two centre corrections for induced B field



--------------------------------------------------------------------------------------------------------


 conjugate gradient relaxation of ions
 charge density and potential will be updated during run
 non-spin polarized calculation
 Variant of blocked Davidson
 Davidson routine will perform the subspace rotation
 perform sub-space diagonalisation
    after iterative eigenvector-optimisation
 modified Broyden-mixing scheme, WC =      100.0
 initial mixing is a Kerker type mixing with AMIX =  0.4000 and BMIX =      1.0000
 Hartree-type preconditioning will be used
 using additional bands            6
 reciprocal scheme for non local part
 use partial core corrections
 calculate Harris-corrections to forces 
   (improved forces if not selfconsistent)
 use gradient corrections 
 use of overlap-Matrix (Vanderbilt PP)
 Gauss-broadening in eV      SIGMA  =   0.05


--------------------------------------------------------------------------------------------------------


  energy-cutoff  :      200.00
  volume of cell :       13.86
      direct lattice vectors                 reciprocal lattice vectors
     1.513325630  1.513325630  1.513325630     0.330398158  0.330398158  0.000000000
     1.513325630 -1.513325630 -1.513325630     0.330398158  0.000000000 -0.330398158
    -1.513325630  1.513325630 -1.513325630     0.000000000  0.330398158 -0.330398158

  length of vectors
     2.621156880  2.621156880  2.621156880     0.467253555  0.467253555  0.467253555


 
 k-points in units of 2pi/SCALE and weight: Automatic                               
   0.00000000  0.00000000  0.00000000       0.000
   0.02202654  0.02202654  0.00000000       0.004
   0.04405309  0.04405309  0.00000000       0.004
   0.06607963  0.06607963  0.00000000       0.004
   0.08810618  0.08810618  0.00000000       0.004
   0.11013272  0.11013272  0.00000000       0.004
   0.13215926  0.13215926  0.00000000       0.004
   0.15418581  0.15418581  0.00000000       0.004
   0.04405309  0.02202654 -0.02202654       0.007
   0.06607963  0.04405309 -0.02202654       0.014
   0.08810618  0.06607963 -0.02202654       0.014
   0.11013272  0.08810618 -0.02202654       0.014
   0.13215926  0.11013272 -0.02202654       0.014
   0.15418581  0.13215926 -0.02202654       0.014
   0.17621235  0.15418581 -0.02202654       0.007
   0.08810618  0.04405309 -0.04405309       0.007
   0.11013272  0.06607963 -0.04405309       0.014
   0.13215926  0.08810618 -0.04405309       0.014
   0.15418581  0.11013272 -0.04405309       0.014
   0.17621235  0.13215926 -0.04405309       0.014
   0.13215926  0.06607963 -0.06607963       0.007
   0.15418581  0.08810618 -0.06607963       0.014
   0.17621235  0.11013272 -0.06607963       0.014
   0.19823889  0.13215926 -0.06607963       0.007
   0.17621235  0.08810618 -0.08810618       0.007
   0.19823889  0.11013272 -0.08810618       0.014
   0.22026544  0.11013272 -0.11013272       0.002
   0.04405309  0.04405309 -0.04405309       0.002
   0.06607963  0.06607963 -0.04405309       0.007
   0.08810618  0.08810618 -0.04405309       0.007
   0.11013272  0.11013272 -0.04405309       0.007
   0.13215926  0.13215926 -0.04405309       0.007
   0.15418581  0.15418581 -0.04405309       0.007
   0.00000000  0.00000000 -0.04405309       0.002
   0.08810618  0.06607963 -0.06607963       0.007
   0.11013272  0.08810618 -0.06607963       0.014
   0.13215926  0.11013272 -0.06607963       0.014
   0.15418581  0.13215926 -0.06607963       0.014
   0.17621235  0.15418581 -0.06607963       0.007
   0.00000000 -0.02202654 -0.06607963       0.007
   0.13215926  0.08810618 -0.08810618       0.007
   0.15418581  0.11013272 -0.08810618       0.014
   0.17621235  0.13215926 -0.08810618       0.014
   0.00000000 -0.04405309 -0.08810618       0.007
   0.02202654 -0.02202654 -0.08810618       0.007
   0.17621235  0.11013272 -0.11013272       0.007
   0.19823889  0.13215926 -0.11013272       0.007
   0.00000000 -0.06607963 -0.11013272       0.007
   0.02202654 -0.04405309 -0.11013272       0.014
   0.00000000 -0.08810618 -0.13215926       0.007
   0.02202654 -0.06607963 -0.13215926       0.014
   0.04405309 -0.04405309 -0.13215926       0.007
   0.00000000 -0.11013272 -0.15418581       0.007
   0.02202654 -0.08810618 -0.15418581       0.014
   0.04405309 -0.06607963 -0.15418581       0.014
   0.00000000 -0.13215926 -0.17621235       0.007
   0.02202654 -0.11013272 -0.17621235       0.014
   0.04405309 -0.08810618 -0.17621235       0.014
   0.06607963 -0.06607963 -0.17621235       0.007
  -0.30837161 -0.13215926  0.13215926       0.007
  -0.28634507 -0.11013272  0.13215926       0.014
  -0.26431853 -0.08810618  0.13215926       0.014
  -0.26431853 -0.11013272  0.11013272       0.007
  -0.24229198 -0.08810618  0.11013272       0.007
   0.08810618  0.08810618 -0.08810618       0.002
   0.11013272  0.11013272 -0.08810618       0.007
   0.13215926  0.13215926 -0.08810618       0.007
   0.15418581  0.15418581 -0.08810618       0.007
   0.00000000  0.00000000 -0.08810618       0.002
   0.13215926  0.11013272 -0.11013272       0.007
   0.15418581  0.13215926 -0.11013272       0.014
   0.17621235  0.15418581 -0.11013272       0.007
   0.00000000 -0.02202654 -0.11013272       0.007
   0.17621235  0.13215926 -0.13215926       0.007
   0.00000000 -0.04405309 -0.13215926       0.007
   0.02202654 -0.02202654 -0.13215926       0.007
   0.00000000 -0.06607963 -0.15418581       0.007
   0.02202654 -0.04405309 -0.15418581       0.014
   0.00000000 -0.08810618 -0.17621235       0.007
   0.02202654 -0.06607963 -0.17621235       0.014
   0.04405309 -0.04405309 -0.17621235       0.007
   0.00000000 -0.11013272 -0.19823889       0.007
   0.02202654 -0.08810618 -0.19823889       0.014
   0.04405309 -0.06607963 -0.19823889       0.014
  -0.30837161 -0.11013272  0.11013272       0.007
  -0.28634507 -0.08810618  0.11013272       0.014
  -0.26431853 -0.06607963  0.11013272       0.007
  -0.26431853 -0.08810618  0.08810618       0.007
   0.13215926  0.13215926 -0.13215926       0.002
   0.15418581  0.15418581 -0.13215926       0.007
   0.00000000  0.00000000 -0.13215926       0.002
   0.17621235  0.15418581 -0.15418581       0.002
   0.00000000 -0.02202654 -0.15418581       0.007
   0.00000000 -0.04405309 -0.17621235       0.007
   0.02202654 -0.02202654 -0.17621235       0.007
   0.00000000 -0.06607963 -0.19823889       0.007
   0.02202654 -0.04405309 -0.19823889       0.014
   0.00000000 -0.08810618 -0.22026544       0.007
   0.02202654 -0.06607963 -0.22026544       0.014
   0.04405309 -0.04405309 -0.22026544       0.007
  -0.30837161 -0.08810618  0.08810618       0.007
  -0.28634507 -0.06607963  0.08810618       0.014
  -0.26431853 -0.06607963  0.06607963       0.002
   0.00000000  0.00000000 -0.17621235       0.002
   0.00000000 -0.02202654 -0.19823889       0.007
   0.00000000 -0.04405309 -0.22026544       0.007
   0.02202654 -0.02202654 -0.22026544       0.007
   0.00000000 -0.06607963 -0.24229198       0.007
   0.02202654 -0.04405309 -0.24229198       0.014
  -0.30837161 -0.06607963  0.06607963       0.007
  -0.28634507 -0.04405309  0.06607963       0.007
   0.00000000  0.00000000 -0.22026544       0.002
   0.00000000 -0.02202654 -0.24229198       0.007
   0.00000000 -0.04405309 -0.26431853       0.007
   0.02202654 -0.02202654 -0.26431853       0.007
  -0.30837161 -0.04405309  0.04405309       0.007
   0.00000000  0.00000000 -0.26431853       0.002
   0.00000000 -0.02202654 -0.28634507       0.007
  -0.30837161 -0.02202654  0.02202654       0.002
   0.00000000  0.00000000 -0.30837161       0.002
 
 k-points in reciprocal lattice and weights: Automatic                               
   0.00000000  0.00000000  0.00000000       0.000
   0.06666667  0.00000000  0.00000000       0.004
   0.13333333  0.00000000  0.00000000       0.004
   0.20000000  0.00000000  0.00000000       0.004
   0.26666667  0.00000000  0.00000000       0.004
   0.33333333  0.00000000  0.00000000       0.004
   0.40000000  0.00000000  0.00000000       0.004
   0.46666667  0.00000000  0.00000000       0.004
   0.06666667  0.06666667  0.00000000       0.007
   0.13333333  0.06666667 -0.00000000       0.014
   0.20000000  0.06666667 -0.00000000       0.014
   0.26666667  0.06666667  0.00000000       0.014
   0.33333333  0.06666667 -0.00000000       0.014
   0.40000000  0.06666667  0.00000000       0.014
   0.46666667  0.06666667  0.00000000       0.007
   0.13333333  0.13333333  0.00000000       0.007
   0.20000000  0.13333333  0.00000000       0.014
   0.26666667  0.13333333  0.00000000       0.014
   0.33333333  0.13333333  0.00000000       0.014
   0.40000000  0.13333333  0.00000000       0.014
   0.20000000  0.20000000  0.00000000       0.007
   0.26666667  0.20000000  0.00000000       0.014
   0.33333333  0.20000000  0.00000000       0.014
   0.40000000  0.20000000  0.00000000       0.007
   0.26666667  0.26666667  0.00000000       0.007
   0.33333333  0.26666667  0.00000000       0.014
   0.33333333  0.33333333  0.00000000       0.002
   0.06666667  0.06666667  0.06666667       0.002
   0.13333333  0.06666667  0.06666667       0.007
   0.20000000  0.06666667  0.06666667       0.007
   0.26666667  0.06666667  0.06666667       0.007
   0.33333333  0.06666667  0.06666667       0.007
   0.40000000  0.06666667  0.06666667       0.007
  -0.06666667  0.06666667  0.06666667       0.002
   0.13333333  0.13333333  0.06666667       0.007
   0.20000000  0.13333333  0.06666667       0.014
   0.26666667  0.13333333  0.06666667       0.014
   0.33333333  0.13333333  0.06666667       0.014
   0.40000000  0.13333333  0.06666667       0.007
  -0.13333333  0.13333333  0.06666667       0.007
   0.20000000  0.20000000  0.06666667       0.007
   0.26666667  0.20000000  0.06666667       0.014
   0.33333333  0.20000000  0.06666667       0.014
  -0.20000000  0.20000000  0.06666667       0.007
  -0.13333333  0.20000000  0.06666667       0.007
   0.26666667  0.26666667  0.06666667       0.007
   0.33333333  0.26666667  0.06666667       0.007
  -0.26666667  0.26666667  0.06666667       0.007
  -0.20000000  0.26666667  0.06666667       0.014
  -0.33333333  0.33333333  0.06666667       0.007
  -0.26666667  0.33333333  0.06666667       0.014
  -0.20000000  0.33333333  0.06666667       0.007
  -0.40000000  0.40000000  0.06666667       0.007
  -0.33333333  0.40000000  0.06666667       0.014
  -0.26666667  0.40000000  0.06666667       0.014
  -0.46666667  0.46666667  0.06666667       0.007
  -0.40000000  0.46666667  0.06666667       0.014
  -0.33333333  0.46666667  0.06666667       0.014
  -0.26666667  0.46666667  0.06666667       0.007
  -0.46666667 -0.46666667  0.06666667       0.007
  -0.40000000 -0.46666667  0.06666667       0.014
  -0.33333333 -0.46666667  0.06666667       0.014
  -0.40000000 -0.40000000  0.06666667       0.007
  -0.33333333 -0.40000000  0.06666667       0.007
   0.13333333  0.13333333  0.13333333       0.002
   0.20000000  0.13333333  0.13333333       0.007
   0.26666667  0.13333333  0.13333333       0.007
   0.33333333  0.13333333  0.13333333       0.007
  -0.13333333  0.13333333  0.13333333       0.002
   0.20000000  0.20000000  0.13333333       0.007
   0.26666667  0.20000000  0.13333333       0.014
   0.33333333  0.20000000  0.13333333       0.007
  -0.20000000  0.20000000  0.13333333       0.007
   0.26666667  0.26666667  0.13333333       0.007
  -0.26666667  0.26666667  0.13333333       0.007
  -0.20000000  0.26666667  0.13333333       0.007
  -0.33333333  0.33333333  0.13333333       0.007
  -0.26666667  0.33333333  0.13333333       0.014
  -0.40000000  0.40000000  0.13333333       0.007
  -0.33333333  0.40000000  0.13333333       0.014
  -0.26666667  0.40000000  0.13333333       0.007
  -0.46666667  0.46666667  0.13333333       0.007
  -0.40000000  0.46666667  0.13333333       0.014
  -0.33333333  0.46666667  0.13333333       0.014
  -0.46666667 -0.46666667  0.13333333       0.007
  -0.40000000 -0.46666667  0.13333333       0.014
  -0.33333333 -0.46666667  0.13333333       0.007
  -0.40000000 -0.40000000  0.13333333       0.007
   0.20000000  0.20000000  0.20000000       0.002
   0.26666667  0.20000000  0.20000000       0.007
  -0.20000000  0.20000000  0.20000000       0.002
   0.26666667  0.26666667  0.20000000       0.002
  -0.26666667  0.26666667  0.20000000       0.007
  -0.33333333  0.33333333  0.20000000       0.007
  -0.26666667  0.33333333  0.20000000       0.007
  -0.40000000  0.40000000  0.20000000       0.007
  -0.33333333  0.40000000  0.20000000       0.014
  -0.46666667  0.46666667  0.20000000       0.007
  -0.40000000  0.46666667  0.20000000       0.014
  -0.33333333  0.46666667  0.20000000       0.007
  -0.46666667 -0.46666667  0.20000000       0.007
  -0.40000000 -0.46666667  0.20000000       0.014
  -0.40000000 -0.40000000  0.20000000       0.002
  -0.26666667  0.26666667  0.26666667       0.002
  -0.33333333  0.33333333  0.26666667       0.007
  -0.40000000  0.40000000  0.26666667       0.007
  -0.33333333  0.40000000  0.26666667       0.007
  -0.46666667  0.46666667  0.26666667       0.007
  -0.40000000  0.46666667  0.26666667       0.014
  -0.46666667 -0.46666667  0.26666667       0.007
  -0.40000000 -0.46666667  0.26666667       0.007
  -0.33333333  0.33333333  0.33333333       0.002
  -0.40000000  0.40000000  0.33333333       0.007
  -0.46666667  0.46666667  0.33333333       0.007
  -0.40000000  0.46666667  0.33333333       0.007
  -0.46666667 -0.46666667  0.33333333       0.007
  -0.40000000  0.40000000  0.40000000       0.002
  -0.46666667  0.46666667  0.40000000       0.007
  -0.46666667 -0.46666667  0.40000000       0.002
  -0.46666667  0.46666667  0.46666667       0.002
 
 position of ions in fractional coordinates (direct lattice) 
   0.00000000  0.00000000  0.00000000
 
 position of ions in cartesian coordinates  (Angst):
   0.00000000  0.00000000  0.00000000
 


--------------------------------------------------------------------------------------------------------


 k-point   1 :   0.0000 0.0000 0.0000  plane waves:      87
 k-point   2 :   0.0667 0.0000 0.0000  plane waves:      85
 k-point   3 :   0.1333 0.0000 0.0000  plane waves:      85
 k-point   4 :   0.2000 0.0000 0.0000  plane waves:      89
 k-point   5 :   0.2667 0.0000 0.0000  plane waves:      91
 k-point   6 :   0.3333 0.0000 0.0000  plane waves:      83
 k-point   7 :   0.4000 0.0000 0.0000  plane waves:      87
 k-point   8 :   0.4667 0.0000 0.0000  plane waves:      85
 k-point   9 :   0.0667 0.0667 0.0000  plane waves:      84
 k-point  10 :   0.1333 0.0667-0.0000  plane waves:      84
 k-point  11 :   0.2000 0.0667-0.0000  plane waves:      90
 k-point  12 :   0.2667 0.0667 0.0000  plane waves:      88
 k-point  13 :   0.3333 0.0667-0.0000  plane waves:      87
 k-point  14 :   0.4000 0.0667 0.0000  plane waves:      87
 k-point  15 :   0.4667 0.0667 0.0000  plane waves:      86
 k-point  16 :   0.1333 0.1333 0.0000  plane waves:      88
 k-point  17 :   0.2000 0.1333 0.0000  plane waves:      91
 k-point  18 :   0.2667 0.1333 0.0000  plane waves:      88
 k-point  19 :   0.3333 0.1333 0.0000  plane waves:      87
 k-point  20 :   0.4000 0.1333 0.0000  plane waves:      84
 k-point  21 :   0.2000 0.2000 0.0000  plane waves:      86
 k-point  22 :   0.2667 0.2000 0.0000  plane waves:      86
 k-point  23 :   0.3333 0.2000 0.0000  plane waves:      88
 k-point  24 :   0.4000 0.2000 0.0000  plane waves:      86
 k-point  25 :   0.2667 0.2667 0.0000  plane waves:      87
 k-point  26 :   0.3333 0.2667 0.0000  plane waves:      86
 k-point  27 :   0.3333 0.3333 0.0000  plane waves:      86
 k-point  28 :   0.0667 0.0667 0.0667  plane waves:      83
 k-point  29 :   0.1333 0.0667 0.0667  plane waves:      89
 k-point  30 :   0.2000 0.0667 0.0667  plane waves:      89
 k-point  31 :   0.2667 0.0667 0.0667  plane waves:      89
 k-point  32 :   0.3333 0.0667 0.0667  plane waves:      87
 k-point  33 :   0.4000 0.0667 0.0667  plane waves:      84
 k-point  34 :  -0.0667 0.0667 0.0667  plane waves:      83
 k-point  35 :   0.1333 0.1333 0.0667  plane waves:      91
 k-point  36 :   0.2000 0.1333 0.0667  plane waves:      88
 k-point  37 :   0.2667 0.1333 0.0667  plane waves:      88
 k-point  38 :   0.3333 0.1333 0.0667  plane waves:      87
 k-point  39 :   0.4000 0.1333 0.0667  plane waves:      85
 k-point  40 :  -0.1333 0.1333 0.0667  plane waves:      83
 k-point  41 :   0.2000 0.2000 0.0667  plane waves:      87
 k-point  42 :   0.2667 0.2000 0.0667  plane waves:      86
 k-point  43 :   0.3333 0.2000 0.0667  plane waves:      86
 k-point  44 :  -0.2000 0.2000 0.0667  plane waves:      85
 k-point  45 :  -0.1333 0.2000 0.0667  plane waves:      85
 k-point  46 :   0.2667 0.2667 0.0667  plane waves:      87
 k-point  47 :   0.3333 0.2667 0.0667  plane waves:      86
 k-point  48 :  -0.2667 0.2667 0.0667  plane waves:      88
 k-point  49 :  -0.2000 0.2667 0.0667  plane waves:      89
 k-point  50 :  -0.3333 0.3333 0.0667  plane waves:      89
 k-point  51 :  -0.2667 0.3333 0.0667  plane waves:      87
 k-point  52 :  -0.2000 0.3333 0.0667  plane waves:      91
 k-point  53 :  -0.4000 0.4000 0.0667  plane waves:      88
 k-point  54 :  -0.3333 0.4000 0.0667  plane waves:      89
 k-point  55 :  -0.2667 0.4000 0.0667  plane waves:      90
 k-point  56 :  -0.4667 0.4667 0.0667  plane waves:      91
 k-point  57 :  -0.4000 0.4667 0.0667  plane waves:      90
 k-point  58 :  -0.3333 0.4667 0.0667  plane waves:      89
 k-point  59 :  -0.2667 0.4667 0.0667  plane waves:      90
 k-point  60 :  -0.4667-0.4667 0.0667  plane waves:      90
 k-point  61 :  -0.4000-0.4667 0.0667  plane waves:      89
 k-point  62 :  -0.3333-0.4667 0.0667  plane waves:      88
 k-point  63 :  -0.4000-0.4000 0.0667  plane waves:      88
 k-point  64 :  -0.3333-0.4000 0.0667  plane waves:      86
 k-point  65 :   0.1333 0.1333 0.1333  plane waves:      89
 k-point  66 :   0.2000 0.1333 0.1333  plane waves:      89
 k-point  67 :   0.2667 0.1333 0.1333  plane waves:      87
 k-point  68 :   0.3333 0.1333 0.1333  plane waves:      86
 k-point  69 :  -0.1333 0.1333 0.1333  plane waves:      83
 k-point  70 :   0.2000 0.2000 0.1333  plane waves:      89
 k-point  71 :   0.2667 0.2000 0.1333  plane waves:      86
 k-point  72 :   0.3333 0.2000 0.1333  plane waves:      86
 k-point  73 :  -0.2000 0.2000 0.1333  plane waves:      86
 k-point  74 :   0.2667 0.2667 0.1333  plane waves:      83
 k-point  75 :  -0.2667 0.2667 0.1333  plane waves:      87
 k-point  76 :  -0.2000 0.2667 0.1333  plane waves:      89
 k-point  77 :  -0.3333 0.3333 0.1333  plane waves:      90
 k-point  78 :  -0.2667 0.3333 0.1333  plane waves:      90
 k-point  79 :  -0.4000 0.4000 0.1333  plane waves:      91
 k-point  80 :  -0.3333 0.4000 0.1333  plane waves:      92
 k-point  81 :  -0.2667 0.4000 0.1333  plane waves:      92
 k-point  82 :  -0.4667 0.4667 0.1333  plane waves:      90
 k-point  83 :  -0.4000 0.4667 0.1333  plane waves:      95
 k-point  84 :  -0.3333 0.4667 0.1333  plane waves:      92
 k-point  85 :  -0.4667-0.4667 0.1333  plane waves:      91
 k-point  86 :  -0.4000-0.4667 0.1333  plane waves:      92
 k-point  87 :  -0.3333-0.4667 0.1333  plane waves:      92
 k-point  88 :  -0.4000-0.4000 0.1333  plane waves:      89
 k-point  89 :   0.2000 0.2000 0.2000  plane waves:      89
 k-point  90 :   0.2667 0.2000 0.2000  plane waves:      84
 k-point  91 :  -0.2000 0.2000 0.2000  plane waves:      87
 k-point  92 :   0.2667 0.2667 0.2000  plane waves:      80
 k-point  93 :  -0.2667 0.2667 0.2000  plane waves:      89
 k-point  94 :  -0.3333 0.3333 0.2000  plane waves:      92
 k-point  95 :  -0.2667 0.3333 0.2000  plane waves:      92
 k-point  96 :  -0.4000 0.4000 0.2000  plane waves:      93
 k-point  97 :  -0.3333 0.4000 0.2000  plane waves:      93
 k-point  98 :  -0.4667 0.4667 0.2000  plane waves:      94
 k-point  99 :  -0.4000 0.4667 0.2000  plane waves:      93
 k-point 100 :  -0.3333 0.4667 0.2000  plane waves:      92
 k-point 101 :  -0.4667-0.4667 0.2000  plane waves:      93
 k-point 102 :  -0.4000-0.4667 0.2000  plane waves:      93
 k-point 103 :  -0.4000-0.4000 0.2000  plane waves:      89
 k-point 104 :  -0.2667 0.2667 0.2667  plane waves:      96
 k-point 105 :  -0.3333 0.3333 0.2667  plane waves:      94
 k-point 106 :  -0.4000 0.4000 0.2667  plane waves:      93
 k-point 107 :  -0.3333 0.4000 0.2667  plane waves:      92
 k-point 108 :  -0.4667 0.4667 0.2667  plane waves:      94
 k-point 109 :  -0.4000 0.4667 0.2667  plane waves:      93
 k-point 110 :  -0.4667-0.4667 0.2667  plane waves:      95
 k-point 111 :  -0.4000-0.4667 0.2667  plane waves:      93
 k-point 112 :  -0.3333 0.3333 0.3333  plane waves:      96
 k-point 113 :  -0.4000 0.4000 0.3333  plane waves:      95
 k-point 114 :  -0.4667 0.4667 0.3333  plane waves:      92
 k-point 115 :  -0.4000 0.4667 0.3333  plane waves:      95
 k-point 116 :  -0.4667-0.4667 0.3333  plane waves:      96
 k-point 117 :  -0.4000 0.4000 0.4000  plane waves:      92
 k-point 118 :  -0.4667 0.4667 0.4000  plane waves:      94
 k-point 119 :  -0.4667-0.4667 0.4000  plane waves:      92
 k-point 120 :  -0.4667 0.4667 0.4667  plane waves:      92

 maximum and minimum number of plane-waves per node :        96       80

 maximum number of plane-waves:        96
 maximum index in each direction: 
   IXMAX=    3   IYMAX=    3   IZMAX=    3
   IXMIN=   -3   IYMIN=   -3   IZMIN=   -3


 serial   3D FFT for wavefunctions
 parallel 3D FFT for charge:
    minimum data exchange during FFTs selected (reduces bandwidth)


 total amount of memory used by VASP MPI-rank0    31920. kBytes
=======================================================================

   base      :      30000. kBytes
   nonl-proj :        738. kBytes
   fftplans  :        534. kBytes
   grid      :        246. kBytes
   one-center:          3. kBytes
   wavefun   :        399. kBytes
 
     INWAV:  cpu time    0.0000: real time    0.0008
 Broyden mixing: mesh for mixing (old mesh)
   NGX =  7   NGY =  7   NGZ =  7
  (NGX  = 24   NGY  = 24   NGZ  = 24)
  gives a total of    343 points

 initial charge density was supplied:
 charge density of overlapping atoms calculated
 number of electron       4.0000000 magnetization 
 keeping initial charge density in first step


--------------------------------------------------------------------------------------------------------


 Maximum index for augmentation-charges         8115 (set IRDMAX)


--------------------------------------------------------------------------------------------------------


 First call to EWALD:  gamma=   0.738
 Maximum number of real-space cells 3x 3x 3
 Maximum number of reciprocal cells 3x 3x 3

    FEWALD:  cpu time    0.0030: real time    0.0037


--------------------------------------- Iteration      1(   1)  ---------------------------------------


    POTLOK:  cpu time    0.0050: real time    0.0088
    SETDIJ:  cpu time    0.1580: real time    0.1587
     EDDAV:  cpu time    0.2870: real time    0.2872
       DOS:  cpu time    0.0020: real time    0.0025
    --------------------------------------------
      LOOP:  cpu time    0.4519: real time    0.4574

 eigenvalue-minimisations  :  2240
 total energy-change (2. order) :-0.4327830E+01  (-0.1090825E+03)
 number of electron       4.0000000 magnetization 
 augmentation part        4.0000000 magnetization 

 Free energy of the ion-electron system (eV)
  ---------------------------------------------------
  alpha Z        PSCENC =         2.42827211
  Ewald energy   TEWEN  =      -138.51397499
  -Hartree energ DENC   =        -0.48179554
  -exchange      EXHF   =         0.00000000
  -V(xc)+E(xc)   XCENC  =        -8.69330858
  PAW double counting   =        88.12379961      -70.53051779
  entropy T*S    EENTRO =        -0.00100823
  eigenvalues    EBANDS =        20.28446735
  atomic energy  EATOM  =       103.05623631
  Solvation  Ediel_sol  =         0.00000000
  ---------------------------------------------------
  free energy    TOTEN  =        -4.32782974 eV

  energy without entropy =       -4.32682151  energy(sigma->0) =       -4.32732562


--------------------------------------------------------------------------------------------------------




--------------------------------------- Iteration      1(   2)  ---------------------------------------


     EDDAV:  cpu time    0.3779: real time    0.3886
       DOS:  cpu time    0.0030: real time    0.0022
    --------------------------------------------
      LOOP:  cpu time    0.3809: real time    0.3907

 eigenvalue-minimisations  :  2832
 total energy-change (2. order) :-0.5491541E+00  (-0.5298004E+00)
 number of electron       4.0000000 magnetization 
 augmentation part        4.0000000 magnetization 

 Free energy of the ion-electron system (eV)
  ---------------------------------------------------
  alpha Z        PSCENC =         2.42827211
  Ewald energy   TEWEN  =      -138.51397499
  -Hartree energ DENC   =        -0.48179554
  -exchange      EXHF   =         0.00000000
  -V(xc)+E(xc)   XCENC  =        -8.69330858
  PAW double counting   =        88.12379961      -70.53051779
  entropy T*S    EENTRO =        -0.00062580
  eigenvalues    EBANDS =        19.73493086
  atomic energy  EATOM  =       103.05623631
  Solvation  Ediel_sol  =         0.00000000
  ---------------------------------------------------
  free energy    TOTEN  =        -4.87698380 eV

  energy without entropy =       -4.87635800  energy(sigma->0) =       -4.87667090


--------------------------------------------------------------------------------------------------------




--------------------------------------- Iteration      1(   3)  ---------------------------------------


     EDDAV:  cpu time    0.2800: real time    0.2953
       DOS:  cpu time    0.0020: real time    0.0021
    --------------------------------------------
      LOOP:  cpu time    0.2820: real time    0.2973

 eigenvalue-minimisations  :  2184
 total energy-change (2. order) :-0.1020693E-02  (-0.1020583E-02)
 number of electron       4.0000000 magnetization 
 augmentation part        4.0000000 magnetization 

 Free energy of the ion-electron system (eV)
  ---------------------------------------------------
  alpha Z        PSCENC =         2.42827211
  Ewald energy   TEWEN  =      -138.51397499
  -Hartree energ DENC   =        -0.48179554
  -exchange      EXHF   =         0.00000000
  -V(xc)+E(xc)   XCENC  =        -8.69330858
  PAW double counting   =        88.12379961      -70.53051779
  entropy T*S    EENTRO =        -0.00061603
  eigenvalues    EBANDS =        19.73390040
  atomic energy  EATOM  =       103.05623631
  Solvation  Ediel_sol  =         0.00000000
  ---------------------------------------------------
  free energy    TOTEN  =        -4.87800450 eV

  energy without entropy =       -4.87738846  energy(sigma->0) =       -4.87769648


--------------------------------------------------------------------------------------------------------




--------------------------------------- Iteration      1(   4)  ---------------------------------------


     EDDAV:  cpu time    0.3909: real time    0.3993
       DOS:  cpu time    0.0030: real time    0.0021
    --------------------------------------------
      LOOP:  cpu time    0.3939: real time    0.4015

 eigenvalue-minimisations  :  2904
 total energy-change (2. order) :-0.3224402E-06  (-0.3227467E-06)
 number of electron       4.0000000 magnetization 
 augmentation part        4.0000000 magnetization 

 Free energy of the ion-electron system (eV)
  ---------------------------------------------------
  alpha Z        PSCENC =         2.42827211
  Ewald energy   TEWEN  =      -138.51397499
  -Hartree energ DENC   =        -0.48179554
  -exchange      EXHF   =         0.00000000
  -V(xc)+E(xc)   XCENC  =        -8.69330858
  PAW double counting   =        88.12379961      -70.53051779
  entropy T*S    EENTRO =        -0.00061603
  eigenvalues    EBANDS =        19.73390007
  atomic energy  EATOM  =       103.05623631
  Solvation  Ediel_sol  =         0.00000000
  ---------------------------------------------------
  free energy    TOTEN  =        -4.87800482 eV

  energy without entropy =       -4.87738879  energy(sigma->0) =       -4.87769680


--------------------------------------------------------------------------------------------------------




--------------------------------------- Iteration      1(   5)  ---------------------------------------


     EDDAV:  cpu time    0.2820: real time    0.2899
       DOS:  cpu time    0.0020: real time    0.0022
    CHARGE:  cpu time    0.0070: real time    0.0079
    MIXING:  cpu time    0.0010: real time    0.0006
    --------------------------------------------
      LOOP:  cpu time    0.2920: real time    0.3005

 eigenvalue-minimisations  :  2208
 total energy-change (2. order) :-0.7071748E-09  (-0.1229846E-10)
 number of electron       4.0000000 magnetization 
 augmentation part       -0.2391011 magnetization 

 Broyden mixing:
  rms(total) = 0.35996E+00    rms(broyden)= 0.35996E+00
  rms(prec ) = 0.46969E+00
  weight for this iteration     100.00

 Free energy of the ion-electron system (eV)
  ---------------------------------------------------
  alpha Z        PSCENC =         2.42827211
  Ewald energy   TEWEN  =      -138.51397499
  -Hartree energ DENC   =        -0.48179554
  -exchange      EXHF   =         0.00000000
  -V(xc)+E(xc)   XCENC  =        -8.69330858
  PAW double counting   =        88.12379961      -70.53051779
  entropy T*S    EENTRO =        -0.00061603
  eigenvalues    EBANDS =        19.73390007
  atomic energy  EATOM  =       103.05623631
  Solvation  Ediel_sol  =         0.00000000
  ---------------------------------------------------
  free energy    TOTEN  =        -4.87800482 eV

  energy without entropy =       -4.87738879  energy(sigma->0) =       -4.87769680


--------------------------------------------------------------------------------------------------------




--------------------------------------- Iteration      1(   6)  ---------------------------------------


    POTLOK:  cpu time    0.0060: real time    0.0154
    SETDIJ:  cpu time    0.1610: real time    0.1603
     EDDAV:  cpu time    0.2520: real time    0.2530
       DOS:  cpu time    0.0020: real time    0.0020
    CHARGE:  cpu time    0.0070: real time    0.0072
    MIXING:  cpu time    0.0000: real time    0.0006
    --------------------------------------------
      LOOP:  cpu time    0.4289: real time    0.4385

 eigenvalue-minimisations  :  2040
 total energy-change (2. order) : 0.1249215E-01  (-0.3729645E-03)
 number of electron       4.0000000 magnetization 
 augmentation part       -0.2410686 magnetization 

 Broyden mixing:
  rms(total) = 0.20221E+00    rms(broyden)= 0.20221E+00
  rms(prec ) = 0.27117E+00
  weight for this iteration     100.00

 eigenvalues of (default mixing * dielectric matrix)
  average eigenvalue GAMMA=   2.2732
  2.2732

 Free energy of the ion-electron system (eV)
  ---------------------------------------------------
  alpha Z        PSCENC =         2.42827211
  Ewald energy   TEWEN  =      -138.51397499
  -Hartree energ DENC   =        -0.41967424
  -exchange      EXHF   =         0.00000000
  -V(xc)+E(xc)   XCENC  =        -8.66406091
  PAW double counting   =       209.48174271     -191.89743738
  entropy T*S    EENTRO =        -0.00063942
  eigenvalues    EBANDS =        19.66402315
  atomic energy  EATOM  =       103.05623631
  Solvation  Ediel_sol  =         0.00000000
  ---------------------------------------------------
  free energy    TOTEN  =        -4.86551267 eV

  energy without entropy =       -4.86487325  energy(sigma->0) =       -4.86519296


--------------------------------------------------------------------------------------------------------




--------------------------------------- Iteration      1(   7)  ---------------------------------------


    POTLOK:  cpu time    0.0060: real time    0.0169
    SETDIJ:  cpu time    0.1590: real time    0.1589
     EDDAV:  cpu time    0.2720: real time    0.2712
       DOS:  cpu time    0.0000: real time    0.0018
    CHARGE:  cpu time    0.0070: real time    0.0069
    MIXING:  cpu time    0.0010: real time    0.0005
    --------------------------------------------
      LOOP:  cpu time    0.4449: real time    0.4562

 eigenvalue-minimisations  :  2136
 total energy-change (2. order) : 0.7178116E-02  (-0.7449585E-03)
 number of electron       4.0000000 magnetization 
 augmentation part       -0.2439171 magnetization 

 Broyden mixing:
  rms(total) = 0.13784E-01    rms(broyden)= 0.13784E-01
  rms(prec ) = 0.18700E-01
  weight for this iteration     100.00

 eigenvalues of (default mixing * dielectric matrix)
  average eigenvalue GAMMA=   2.4676
  2.4676  2.4676

 Free energy of the ion-electron system (eV)
  ---------------------------------------------------
  alpha Z        PSCENC =         2.42827211
  Ewald energy   TEWEN  =      -138.51397499
  -Hartree energ DENC   =        -0.35790026
  -exchange      EXHF   =         0.00000000
  -V(xc)+E(xc)   XCENC  =        -8.61820684
  PAW double counting   =       468.71299109     -451.14563661
  entropy T*S    EENTRO =        -0.00066752
  eigenvalues    EBANDS =        19.58055217
  atomic energy  EATOM  =       103.05623631
  Solvation  Ediel_sol  =         0.00000000
  ---------------------------------------------------
  free energy    TOTEN  =        -4.85833455 eV

  energy without entropy =       -4.85766703  energy(sigma->0) =       -4.85800079


--------------------------------------------------------------------------------------------------------




--------------------------------------- Iteration      1(   8)  ---------------------------------------


    POTLOK:  cpu time    0.0060: real time    0.0167
    SETDIJ:  cpu time    0.1600: real time    0.1592
     EDDAV:  cpu time    0.3379: real time    0.3390
       DOS:  cpu time    0.0020: real time    0.0018
    CHARGE:  cpu time    0.0060: real time    0.0068
    MIXING:  cpu time    0.0010: real time    0.0005
    --------------------------------------------
      LOOP:  cpu time    0.5119: real time    0.5240

 eigenvalue-minimisations  :  2608
 total energy-change (2. order) : 0.2703506E-04  (-0.2422545E-05)
 number of electron       4.0000000 magnetization 
 augmentation part       -0.2440035 magnetization 

 Broyden mixing:
  rms(total) = 0.11885E-02    rms(broyden)= 0.11883E-02
  rms(prec ) = 0.20093E-02
  weight for this iteration     100.00

 eigenvalues of (default mixing * dielectric matrix)
  average eigenvalue GAMMA=   2.0063
  0.9775  2.6417  2.3998

 Free energy of the ion-electron system (eV)
  ---------------------------------------------------
  alpha Z        PSCENC =         2.42827211
  Ewald energy   TEWEN  =      -138.51397499
  -Hartree energ DENC   =        -0.36018942
  -exchange      EXHF   =         0.00000000
  -V(xc)+E(xc)   XCENC  =        -8.61269074
  PAW double counting   =       455.69470157     -438.13455231
  entropy T*S    EENTRO =        -0.00066825
  eigenvalues    EBANDS =        19.58455821
  atomic energy  EATOM  =       103.05623631
  Solvation  Ediel_sol  =         0.00000000
  ---------------------------------------------------
  free energy    TOTEN  =        -4.85830752 eV

  energy without entropy =       -4.85763926  energy(sigma->0) =       -4.85797339


--------------------------------------------------------------------------------------------------------




--------------------------------------- Iteration      1(   9)  ---------------------------------------


    POTLOK:  cpu time    0.0060: real time    0.0170
    SETDIJ:  cpu time    0.1590: real time    0.1590
     EDDAV:  cpu time    0.2720: real time    0.2725
       DOS:  cpu time    0.0010: real time    0.0018
    --------------------------------------------
      LOOP:  cpu time    0.4389: real time    0.4504

 eigenvalue-minimisations  :  2096
 total energy-change (2. order) :-0.7446941E-06  (-0.3374814E-07)
 number of electron       4.0000000 magnetization 
 augmentation part       -0.2440035 magnetization 

 Free energy of the ion-electron system (eV)
  ---------------------------------------------------
  alpha Z        PSCENC =         2.42827211
  Ewald energy   TEWEN  =      -138.51397499
  -Hartree energ DENC   =        -0.36037794
  -exchange      EXHF   =         0.00000000
  -V(xc)+E(xc)   XCENC  =        -8.61203745
  PAW double counting   =       454.66064919     -437.10113057
  entropy T*S    EENTRO =        -0.00066842
  eigenvalues    EBANDS =        19.58472349
  atomic energy  EATOM  =       103.05623631
  Solvation  Ediel_sol  =         0.00000000
  ---------------------------------------------------
  free energy    TOTEN  =        -4.85830826 eV

  energy without entropy =       -4.85763984  energy(sigma->0) =       -4.85797405


--------------------------------------------------------------------------------------------------------




 average (electrostatic) potential at core
  the test charge radii are     0.9892
  (the norm of the test charge is              1.0000)
       1 -79.2916
 
 
 
 E-fermi :  10.6563     XC(G=0): -11.3712     alpha+bet :-17.3011

 Fermi energy:        10.6563096730

 k-point     1 :       0.0000    0.0000    0.0000
  band No.  band energies     occupation 
      1      -4.0968      2.00000
      2      22.7273      0.00000
      3      22.7273      0.00000
      4      22.7273      0.00000
      5      23.7364      0.00000
      6      23.7364      0.00000
      7      23.7364      0.00000
      8      27.4709      0.00000

 k-point     2 :       0.0667    0.0000    0.0000
  band No.  band energies     occupation 
      1      -3.9555      2.00000
      2      20.9573      0.00000
      3      21.4744      0.00000
      4      22.5060      0.00000
      5      23.2454      0.00000
      6      24.6150      0.00000
      7      25.2736      0.00000
      8      26.4943      0.00000

 k-point     3 :       0.1333    0.0000    0.0000
  band No.  band energies     occupation 
      1      -3.5326      2.00000
      2      18.1838      0.00000
      3      20.0561      0.00000
      4      21.9147      0.00000
      5      22.1916      0.00000
      6      24.2860      0.00000
      7      26.5494      0.00000
      8      27.2302      0.00000

 k-point     4 :       0.2000    0.0000    0.0000
  band No.  band energies     occupation 
      1      -2.8297      2.00000
      2      15.1921      0.00000
      3      18.8558      0.00000
      4      21.0692      0.00000
      5      21.1491      0.00000
      6      23.2695      0.00000
      7      27.4968      0.00000
      8      27.5494      0.00000

 k-point     5 :       0.2667    0.0000    0.0000
  band No.  band energies     occupation 
      1      -1.8490      2.00000
      2      12.2958      0.00000
      3      17.8898      0.00000
      4      20.0659      0.00000
      5      20.4000      0.00000
      6      22.4105      0.00000
      7      28.2233      0.00000
      8      28.6430      0.00000

 k-point     6 :       0.3333    0.0000    0.0000
  band No.  band energies     occupation 
      1      -0.5945      2.00000
      2       9.5686      2.00000
      3      17.1755      0.00000
      4      19.3517      0.00000
      5      19.7854      0.00000
      6      21.7403      0.00000
      7      29.2621      0.00000
      8      29.9728      0.00000

 k-point     7 :       0.4000    0.0000    0.0000
  band No.  band energies     occupation 
      1       0.9280      2.00000
      2       7.0484      2.00000
      3      16.6945      0.00000
      4      18.8150      0.00000
      5      19.3527      0.00000
      6      21.2510      0.00000
      7      30.4583      0.00000
      8      31.3196      0.00000

 k-point     8 :       0.4667    0.0000    0.0000
  band No.  band energies     occupation 
      1       2.7113      2.00000
      2       4.7631      2.00000
      3      16.4577      0.00000
      4      18.5489      0.00000
      5      19.1319      0.00000
      6      21.0168      0.00000
      7      31.7628      0.00000
      8      32.5154      0.00000

 k-point     9 :       0.0667    0.0667    0.0000
  band No.  band energies     occupation 
      1      -3.6735      2.00000
      2      19.4005      0.00000
      3      19.9023      0.00000
      4      21.3542      0.00000
      5      23.4884      0.00000
      6      24.9022      0.00000
      7      25.7492      0.00000
      8      26.5259      0.00000

 k-point    10 :       0.1333    0.0667   -0.0000
  band No.  band energies     occupation 
      1      -3.1106      2.00000
      2      16.7670      0.00000
      3      18.3898      0.00000
      4      20.2932      0.00000
      5      22.9839      0.00000
      6      24.3587      0.00000
      7      26.1704      0.00000
      8      27.9044      0.00000

 k-point    11 :       0.2000    0.0667   -0.0000
  band No.  band energies     occupation 
      1      -2.2691      2.00000
      2      13.8172      0.00000
      3      17.2717      0.00000
      4      19.2999      0.00000
      5      22.1814      0.00000
      6      23.6862      0.00000
      7      26.7102      0.00000
      8      29.1938      0.00000

 k-point    12 :       0.2667    0.0667    0.0000
  band No.  band energies     occupation 
      1      -1.1513      2.00000
      2      11.0058      0.00000
      3      16.4046      0.00000
      4      18.4891      0.00000
      5      21.4477      0.00000
      6      23.0983      0.00000
      7      27.5538      0.00000
      8      30.4750      0.00000

 k-point    13 :       0.3333    0.0667   -0.0000
  band No.  band energies     occupation 
      1       0.2373      2.00000
      2       8.3790      2.00000
      3      15.7897      0.00000
      4      17.8856      0.00000
      5      20.8672      0.00000
      6      22.6250      0.00000
      7      28.6974      0.00000
      8      31.7084      0.00000

 k-point    14 :       0.4000    0.0667    0.0000
  band No.  band energies     occupation 
      1       1.8909      2.00000
      2       5.9753      2.00000
      3      15.4141      0.00000
      4      17.5143      0.00000
      5      20.5056      0.00000
      6      22.3163      0.00000
      7      30.0637      0.00000
      8      32.4725      0.00000

 k-point    15 :       0.4667    0.0667    0.0000
  band No.  band energies     occupation 
      1       3.7183      2.00000
      2       3.8988      2.00000
      3      15.2913      0.00000
      4      17.3901      0.00000
      5      20.3885      0.00000
      6      22.2126      0.00000
      7      31.4176      0.00000
      8      31.7515      0.00000

 k-point    16 :       0.1333    0.1333    0.0000
  band No.  band energies     occupation 
      1      -2.4091      2.00000
      2      15.3779      0.00000
      3      15.7288      0.00000
      4      19.1759      0.00000
      5      23.2346      0.00000
      6      24.1993      0.00000
      7      26.9599      0.00000
      8      28.2453      0.00000

 k-point    17 :       0.2000    0.1333    0.0000
  band No.  band energies     occupation 
      1      -1.4302      2.00000
      2      12.6681      0.00000
      3      14.5489      0.00000
      4      18.2506      0.00000
      5      22.8240      0.00000
      6      24.3116      0.00000
      7      27.2253      0.00000
      8      29.8133      0.00000

 k-point    18 :       0.2667    0.1333    0.0000
  band No.  band energies     occupation 
      1      -0.1783      2.00000
      2       9.9590      2.00000
      3      13.7843      0.00000
      4      17.5510      0.00000
      5      22.2370      0.00000
      6      24.6192      0.00000
      7      27.4680      0.00000
      8      31.5855      0.00000

 k-point    19 :       0.3333    0.1333    0.0000
  band No.  band energies     occupation 
      1       1.3415      2.00000
      2       7.4472      2.00000
      3      13.2739      0.00000
      4      17.0684      0.00000
      5      21.7840      0.00000
      6      24.6912      0.00000
      7      28.2987      0.00000
      8      32.2227      0.00000

 k-point    20 :       0.4000    0.1333    0.0000
  band No.  band energies     occupation 
      1       3.1233      2.00000
      2       5.1681      2.00000
      3      13.0192      0.00000
      4      16.8265      0.00000
      5      21.5594      0.00000
      6      24.6692      0.00000
      7      29.5884      0.00000
      8      31.1988      0.00000

 k-point    21 :       0.2000    0.2000    0.0000
  band No.  band energies     occupation 
      1      -0.3167      2.00000
      2      11.6873      0.00000
      3      11.8631      0.00000
      4      17.4540      0.00000
      5      23.4491      0.00000
      6      24.1593      0.00000
      7      28.9100      0.00000
      8      29.9369      0.00000

 k-point    22 :       0.2667    0.2000    0.0000
  band No.  band energies     occupation 
      1       1.0663      2.00000
      2       9.1685      2.00000
      3      11.1271      0.00000
      4      16.8638      0.00000
      5      23.2370      0.00000
      6      24.9186      0.00000
      7      29.0332      0.00000
      8      31.1932      0.00000

 k-point    23 :       0.3333    0.2000    0.0000
  band No.  band energies     occupation 
      1       2.7135      2.00000
      2       6.7785      2.00000
      3      10.7333      0.02946
      4      16.5019      0.00000
      5      22.9452      0.00000
      6      25.9239      0.00000
      7      28.8135      0.00000
      8      31.0184      0.00000

 k-point    24 :       0.4000    0.2000    0.0000
  band No.  band energies     occupation 
      1       4.5440      2.00000
      2       4.7012      2.00000
      3      10.6029      1.86916
      4      16.3821      0.00000
      5      22.8485      0.00000
      6      26.4438      0.00000
      7      28.7788      0.00000
      8      30.5426      0.00000

 k-point    25 :       0.2667    0.2667    0.0000
  band No.  band energies     occupation 
      1       2.5771      2.00000
      2       8.5833      2.00000
      3       8.6996      2.00000
      4      16.3939      0.00000
      5      24.2316      0.00000
      6      24.9389      0.00000
      7      29.4799      0.00000
      8      31.3982      0.00000

 k-point    26 :       0.3333    0.2667    0.0000
  band No.  band energies     occupation 
      1       4.3483      2.00000
      2       6.3778      2.00000
      3       8.3785      2.00000
      4      16.1560      0.00000
      5      24.3173      0.00000
      6      26.0812      0.00000
      7      28.0164      0.00000
      8      32.2764      0.00000

 k-point    27 :       0.3333    0.3333    0.0000
  band No.  band energies     occupation 
      1       6.1163      2.00000
      2       6.3061      2.00000
      3       6.3061      2.00000
      4      16.0389      0.00000
      5      25.2881      0.00000
      6      26.4945      0.00000
      7      26.4945      0.00000
      8      34.4417      0.00000

 k-point    28 :       0.0667    0.0667    0.0667
  band No.  band energies     occupation 
      1      -3.2512      2.00000
      2      17.8958      0.00000
      3      18.7831      0.00000
      4      18.7831      0.00000
      5      24.8241      0.00000
      6      24.8241      0.00000
      7      26.8390      0.00000
      8      26.8390      0.00000

 k-point    29 :       0.1333    0.0667    0.0667
  band No.  band energies     occupation 
      1      -2.5492      2.00000
      2      15.4275      0.00000
      3      17.0370      0.00000
      4      17.6362      0.00000
      5      24.4926      0.00000
      6      25.1266      0.00000
      7      27.2866      0.00000
      8      27.6812      0.00000

 k-point    30 :       0.2000    0.0667    0.0667
  band No.  band energies     occupation 
      1      -1.5698      2.00000
      2      12.5560      0.00000
      3      16.0154      0.00000
      4      16.6654      0.00000
      5      23.9954      0.00000
      6      24.5260      0.00000
      7      28.4820      0.00000
      8      28.6092      0.00000

 k-point    31 :       0.2667    0.0667    0.0667
  band No.  band energies     occupation 
      1      -0.3171      2.00000
      2       9.8316      2.00000
      3      15.2699      0.00000
      4      15.9143      0.00000
      5      23.4849      0.00000
      6      23.9486      0.00000
      7      29.4682      0.00000
      8      30.0164      0.00000

 k-point    32 :       0.3333    0.0667    0.0667
  band No.  band energies     occupation 
      1       1.2038      2.00000
      2       7.3160      2.00000
      3      14.7768      0.00000
      4      15.4040      0.00000
      5      23.1032      0.00000
      6      23.5359      0.00000
      7      30.6903      0.00000
      8      31.4471      0.00000

 k-point    33 :       0.4000    0.0667    0.0667
  band No.  band energies     occupation 
      1       2.9868      2.00000
      2       5.0339      2.00000
      3      14.5288      0.00000
      4      15.1336      0.00000
      5      22.8935      0.00000
      6      23.3489      0.00000
      7      31.9344      0.00000
      8      32.6782      0.00000

 k-point    34 :      -0.0667    0.0667    0.0667
  band No.  band energies     occupation 
      1      -3.8144      2.00000
      2      20.4673      0.00000
      3      20.4673      0.00000
      4      21.6325      0.00000
      5      24.0536      0.00000
      6      24.7910      0.00000
      7      25.2471      0.00000
      8      25.2471      0.00000

 k-point    35 :       0.1333    0.1333    0.0667
  band No.  band energies     occupation 
      1      -1.7099      2.00000
      2      14.1626      0.00000
      3      14.5088      0.00000
      4      16.2848      0.00000
      5      25.1307      0.00000
      6      25.9444      0.00000
      7      27.6128      0.00000
      8      28.5798      0.00000

 k-point    36 :       0.2000    0.1333    0.0667
  band No.  band energies     occupation 
      1      -0.5947      2.00000
      2      11.5252      0.00000
      3      13.4568      0.00000
      4      15.4104      0.00000
      5      25.0288      0.00000
      6      26.0556      0.00000
      7      28.4621      0.00000
      8      29.9737      0.00000

 k-point    37 :       0.2667    0.1333    0.0667
  band No.  band energies     occupation 
      1       0.7903      2.00000
      2       8.9111      2.00000
      3      12.8057      0.00000
      4      14.7796      0.00000
      5      24.6617      0.00000
      6      25.9924      0.00000
      7      29.3943      0.00000
      8      31.5667      0.00000

 k-point    38 :       0.3333    0.1333    0.0667
  band No.  band energies     occupation 
      1       2.4400      2.00000
      2       6.5137      2.00000
      3      12.4192      0.00000
      4      14.3918      0.00000
      5      24.3936      0.00000
      6      25.8700      0.00000
      7      30.6150      0.00000
      8      32.6052      0.00000

 k-point    39 :       0.4000    0.1333    0.0667
  band No.  band energies     occupation 
      1       4.2696      2.00000
      2       4.4357      2.00000
      3      12.2912      0.00000
      4      14.2655      0.00000
      5      24.3017      0.00000
      6      25.8265      0.00000
      7      31.7593      0.00000
      8      32.2526      0.00000

 k-point    40 :      -0.1333    0.1333    0.0667
  band No.  band energies     occupation 
      1      -3.3918      2.00000
      2      18.1873      0.00000
      3      19.0893      0.00000
      4      21.0356      0.00000
      5      23.3839      0.00000
      6      23.5048      0.00000
      7      25.6903      0.00000
      8      26.9637      0.00000

 k-point    41 :       0.2000    0.2000    0.0667
  band No.  band energies     occupation 
      1       0.6524      2.00000
      2      10.6683      0.73529
      3      10.8368      0.00000
      4      14.6535      0.00000
      5      25.7399      0.00000
      6      26.6384      0.00000
      7      29.7075      0.00000
      8      30.5974      0.00000

[...]
      1       3.8989      2.00000
      2       4.2700      2.00000
      3      11.5284      0.00000
      4      16.0101      0.00000
      5      20.7776      0.00000
      6      22.5906      0.00000
      7      23.9906      0.00000
      8      27.1972      0.00000

 k-point    86 :      -0.4000   -0.4667    0.1333
  band No.  band energies     occupation 
      1       3.6741      2.00000
      2       5.6535      2.00000
      3       9.4372      2.00000
      4      17.1186      0.00000
      5      20.2027      0.00000
      6      22.0100      0.00000
      7      23.2846      0.00000
      8      29.3157      0.00000

 k-point    87 :      -0.3333   -0.4667    0.1333
  band No.  band energies     occupation 
      1       3.5477      2.00000
      2       7.2951      2.00000
      3       7.5862      2.00000
      4      17.9135      0.00000
      5      19.6997      0.00000
      6      21.4302      0.00000
      7      23.2368      0.00000
      8      31.2370      0.00000

 k-point    88 :      -0.4000   -0.4000    0.1333
  band No.  band energies     occupation 
      1       5.1940      2.00000
      2       5.5523      2.00000
      3       7.3299      2.00000
      4      18.0456      0.00000
      5      20.3052      0.00000
      6      21.4634      0.00000
      7      22.0759      0.00000
      8      31.8927      0.00000

 k-point    89 :       0.2000    0.2000    0.2000
  band No.  band energies     occupation 
      1       2.8987      2.00000
      2       8.4016      2.00000
      3       8.9434      2.00000
      4       8.9434      2.00000
      5      28.6409      0.00000
      6      28.6409      0.00000
      7      30.6837      0.00000
      8      30.6837      0.00000

 k-point    90 :       0.2667    0.2000    0.2000
  band No.  band energies     occupation 
      1       4.5871      2.00000
      2       6.5605      2.00000
      3       8.3664      2.00000
      4       8.6905      2.00000
      5      29.2161      0.00000
      6      29.6362      0.00000
      7      31.6252      0.00000
      8      31.7030      0.00000

 k-point    91 :      -0.2000    0.2000    0.2000
  band No.  band energies     occupation 
      1      -1.8836      2.00000
      2      14.3367      0.00000
      3      14.3367      0.00000
      4      16.1947      0.00000
      5      17.9357      0.00000
      6      25.2032      0.00000
      7      26.5231      0.00000
      8      26.5231      0.00000

 k-point    92 :       0.2667    0.2667    0.2000
  band No.  band energies     occupation 
      1       6.0560      2.00000
      2       6.6203      2.00000
      3       6.6203      2.00000
      4       8.4191      2.00000
      5      30.0556      0.00000
      6      31.3330      0.00000
      7      31.3330      0.00000
      8      32.3032      0.00000

 k-point    93 :      -0.2667    0.2667    0.2000
  band No.  band energies     occupation 
      1      -0.9443      2.00000
      2      12.3777      0.00000
      3      13.3739      0.00000
      4      15.6993      0.00000
      5      17.3923      0.00000
      6      24.8403      0.00000
      7      26.5762      0.00000
      8      28.5768      0.00000

 k-point    94 :      -0.3333    0.3333    0.2000
  band No.  band energies     occupation 
      1       0.2565      2.00000
      2       9.9248      0.21369
      3      12.6407      0.00000
      4      15.1700      0.00000
      5      18.0198      0.00000
      6      24.1888      0.00000
      7      25.5933      0.00000
      8      28.0431      0.00000

 k-point    95 :      -0.2667    0.3333    0.2000
  band No.  band energies     occupation 
      1       0.1236      2.00000
      2      11.4211      0.00000
      3      11.6214      0.00000
      4      15.5505      0.00000
      5      16.7510      0.00000
      6      24.6938      0.00000
      7      26.3993      0.00000
      8      28.2880      0.00000

 k-point    96 :      -0.4000    0.4000    0.2000
  band No.  band energies     occupation 
      1       1.7133      2.00000
      2       7.5598      2.00000
      3      12.1548      0.00000
      4      14.7202      0.00000
      5      19.1426      0.00000
      6      23.7062      0.00000
      7      24.1579      0.00000
      8      27.5091      0.00000

 k-point    97 :      -0.3333    0.4000    0.2000
  band No.  band energies     occupation 
      1       1.4498      2.00000
      2       9.1644      2.00000
      3      10.9119      0.00000
      4      15.3490      0.00000
      5      17.3334      0.00000
      6      23.7681      0.00000
      7      24.9214      0.00000
      8      28.8403      0.00000

 k-point    98 :      -0.4667    0.4667    0.2000
  band No.  band energies     occupation 
      1       3.4129      2.00000
      2       5.3959      2.00000
      3      11.9114      0.00000
      4      14.4822      0.00000
      5      20.3655      0.00000
      6      22.7143      0.00000
      7      23.4584      0.00000
      8      27.2333      0.00000

 k-point    99 :      -0.4000    0.4667    0.2000
  band No.  band energies     occupation 
      1       3.0259      2.00000
      2       6.9199      2.00000
      3      10.5366      0.00000
      4      15.0486      0.00000
      5      18.5751      0.00000
      6      22.1829      0.00000
      7      24.2750      0.00000
      8      28.8407      0.00000

 k-point   100 :      -0.3333    0.4667    0.2000
  band No.  band energies     occupation 
      1       2.8961      2.00000
      2       8.5362      2.00000
      3       8.7998      2.00000
      4      16.1173      0.00000
      5      17.2329      0.00000
      6      22.0261      0.00000
      7      24.3918      0.00000
      8      30.6868      0.00000

 k-point   101 :      -0.4667   -0.4667    0.2000
  band No.  band energies     occupation 
      1       4.6851      2.00000
      2       5.0323      2.00000
      3      10.4124      0.00000
      4      14.9386      0.00000
      5      19.6337      0.00000
      6      20.9566      0.00000
      7      24.1050      0.00000
      8      28.8287      0.00000

 k-point   102 :      -0.4000   -0.4667    0.2000
  band No.  band energies     occupation 
      1       4.5814      2.00000
      2       6.5357      2.00000
      3       8.4264      2.00000
      4      16.2212      0.00000
      5      18.2801      0.00000
      6      20.2349      0.00000
      7      24.1366      0.00000
      8      31.3343      0.00000

 k-point   103 :      -0.4000   -0.4000    0.2000
  band No.  band energies     occupation 
      1       6.0966      2.00000
      2       6.5564      2.00000
      3       6.5564      2.00000
      4      17.0370      0.00000
      5      18.6955      0.00000
      6      18.6955      0.00000
      7      24.0599      0.00000
      8      33.5866      0.00000

 k-point   104 :      -0.2667    0.2667    0.2667
  band No.  band energies     occupation 
      1      -0.0094      2.00000
      2      12.3930      0.00000
      3      12.3930      0.00000
      4      14.3936      0.00000
      5      15.7005      0.00000
      6      26.1649      0.00000
      7      27.0130      0.00000
      8      28.1564      0.00000

 k-point   105 :      -0.3333    0.3333    0.2667
  band No.  band energies     occupation 
      1       1.1855      2.00000
      2      10.6476      0.00000
      3      11.6635      0.00000
      4      14.0433      0.00000
      5      15.5274      0.00000
      6      24.0135      0.00000
      7      26.8267      0.00000
      8      28.8638      0.00000

 k-point   106 :      -0.4000    0.4000    0.2667
  band No.  band energies     occupation 
      1       2.6342      2.00000
      2       8.4074      2.00000
      3      11.1756      0.00000
      4      13.6814      0.00000
      5      16.5339      0.00000
      6      21.9009      0.00000
      7      26.3937      0.00000
      8      29.0756      0.00000

 k-point   107 :      -0.3333    0.4000    0.2667
  band No.  band energies     occupation 
      1       2.5033      2.00000
      2       9.9389      0.10040
      3      10.1217      0.00000
      4      14.1595      0.00000
      5      15.1392      0.00000
      6      21.7875      0.00000
      7      27.0980      0.00000
      8      30.3376      0.00000

 k-point   108 :      -0.4667    0.4667    0.2667
  band No.  band energies     occupation 
      1       4.3231      2.00000
      2       6.2813      2.00000
      3      10.9311      0.00000
      4      13.4549      0.00000
      5      17.9317      0.00000
      6      20.0089      0.00000
      7      26.1436      0.00000
      8      29.1076      0.00000

 k-point   109 :      -0.4000    0.4667    0.2667
  band No.  band energies     occupation 
      1       4.0674      2.00000
      2       7.8965      2.00000
      3       9.6638      2.00000
      4      14.1386      0.00000
      5      16.0696      0.00000
      6      19.6975      0.00000
      7      26.8660      0.00000
      8      30.9334      0.00000

 k-point   110 :      -0.4667   -0.4667    0.2667
  band No.  band energies     occupation 
      1       5.7192      2.00000
      2       6.0375      2.00000
      3       9.5371      2.00000
      4      14.0507      0.00000
      5      17.2978      0.00000
      6      18.1563      0.00000
      7      26.7644      0.00000
      8      31.0295      0.00000

 k-point   111 :      -0.4000   -0.4667    0.2667
  band No.  band energies     occupation 
      1       5.7313      2.00000
      2       7.5332      2.00000
      3       7.7771      2.00000
      4      15.1576      0.00000
      5      16.1697      0.00000
      6      17.7258      0.00000
      7      26.8197      0.00000
      8      33.0341      0.00000

 k-point   112 :      -0.3333    0.3333    0.3333
  band No.  band energies     occupation 
      1       2.3719      2.00000
      2      10.9310      0.00000
      3      10.9310      0.00000
      4      12.9646      0.00000
      5      14.0530      0.00000
      6      21.6769      0.00000
      7      29.3396      0.00000
      8      30.1981      0.00000

 k-point   113 :      -0.4000    0.4000    0.3333
  band No.  band energies     occupation 
      1       3.8083      2.00000
      2       9.3996      2.00000
      3      10.4414      0.00000
      4      12.8084      0.00000
      5      14.1889      0.00000
      6      19.4415      0.00000
      7      29.2729      0.00000
      8      31.0017      0.00000

 k-point   114 :      -0.4667    0.4667    0.3333
  band No.  band energies     occupation 
      1       5.4787      2.00000
      2       7.3939      2.00000
      3      10.1964      0.00000
      4      12.6566      0.00000
      5      15.5016      0.00000
      6      17.4349      0.00000
      7      29.0854      0.00000
      8      31.3145      0.00000

 k-point   115 :      -0.4000    0.4667    0.3333
  band No.  band energies     occupation 
      1       5.3523      2.00000
      2       8.9412      2.00000
      3       9.1153      2.00000
      4      13.1777      0.00000
      5      14.0525      0.00000
      6      17.2818      0.00000
      7      29.6735      0.00000
      8      32.6672      0.00000

 k-point   116 :      -0.4667   -0.4667    0.3333
  band No.  band energies     occupation 
      1       6.9791      2.00000
      2       7.2639      2.00000
      3       8.9123      2.00000
      4      13.3321      0.00000
      5      15.0515      0.00000
      6      15.6457      0.00000
      7      29.6526      0.00000
      8      33.2001      0.00000

 k-point   117 :      -0.4000    0.4000    0.4000
  band No.  band energies     occupation 
      1       5.2249      2.00000
      2       9.9508      0.04797
      3       9.9508      0.04796
      4      11.9685      0.00000
      5      12.9698      0.00000
      6      17.1519      0.00000
      7      32.0488      0.00000
      8      32.5867      0.00000

 k-point   118 :      -0.4667    0.4667    0.4000
  band No.  band energies     occupation 
      1       6.8587      2.00000
      2       8.6492      2.00000
      3       9.7050      2.00000
      4      12.0189      0.00000
      5      13.3876      0.00000
      6      15.1078      0.00000
      7      32.0960      0.00000
      8      33.3324      0.00000

 k-point   119 :      -0.4667   -0.4667    0.4000
  band No.  band energies     occupation 
      1       8.3298      2.00000
      2       8.6121      2.00000
      3       8.6121      2.00000
      4      12.4007      0.00000
      5      13.5251      0.00000
      6      13.5251      0.00000
      7      32.5320      0.00000
      8      34.8701      0.00000

 k-point   120 :      -0.4667    0.4667    0.4667
  band No.  band energies     occupation 
      1       8.3819      2.00000
      2       9.4592      2.00000
      3       9.4592      2.00000
      4      11.3429      0.00000
      5      12.4202      0.00000
      6      13.2089      0.00000
      7      34.6360      0.00000
      8      34.7634      0.00000


--------------------------------------------------------------------------------------------------------


 soft charge-density along one line, spin component           1
         0         1         2         3         4         5         6         7         8         9
 total charge-density along one line
 
 pseudopotential strength for first ion, spin component:           1
 17.991  25.099   0.000  -0.000   0.000   0.000  -0.000   0.000
 25.099  35.019   0.000  -0.000   0.000   0.000  -0.000   0.000
  0.000   0.000   4.101  -0.000   0.000   7.640  -0.000   0.000
 -0.000  -0.000  -0.000   4.101  -0.000  -0.000   7.640  -0.000
  0.000   0.000   0.000  -0.000   4.101   0.000  -0.000   7.640
  0.000   0.000   7.640  -0.000   0.000  14.244  -0.000   0.000
 -0.000  -0.000  -0.000   7.640  -0.000  -0.000  14.244  -0.000
  0.000   0.000   0.000  -0.000   7.640   0.000  -0.000  14.244
 total augmentation occupancy for first ion, spin component:           1
  5.654  -2.362   0.000   0.000   0.000   0.000   0.000   0.000
 -2.362   1.373   0.000   0.000   0.000   0.000   0.000   0.000
  0.000   0.000   2.956  -0.000  -0.000  -0.795   0.000  -0.000
  0.000   0.000   0.000   2.956   0.000   0.000  -0.795  -0.000
  0.000   0.000   0.000  -0.000   2.956  -0.000   0.000  -0.795
  0.000   0.000  -0.795   0.000   0.000   0.226  -0.000  -0.000
  0.000   0.000  -0.000  -0.795   0.000   0.000   0.226   0.000
  0.000   0.000   0.000  -0.000  -0.795  -0.000   0.000   0.226


------------------------ aborting loop because EDIFF is reached ----------------------------------------


    CHARGE:  cpu time    0.0070: real time    0.0073
    FORLOC:  cpu time    0.0000: real time    0.0003
    FORNL :  cpu time    0.0180: real time    0.0186
    STRESS:  cpu time    0.1460: real time    0.1459
    FORCOR:  cpu time    0.0050: real time    0.0048
    FORHAR:  cpu time    0.0010: real time    0.0011
    MIXING:  cpu time    0.0010: real time    0.0004
    OFIELD:  cpu time    0.0000: real time    0.0001

  FORCE on cell =-STRESS in cart. coord.  units (eV):
  Direction    XX          YY          ZZ          XY          YZ          ZX
  --------------------------------------------------------------------------------------
  Alpha Z     2.29832     2.29832     2.29832
  Ewald     -45.33252   -45.33252   -45.33252    -0.00000    -0.00000    -0.00000
  Hartree     0.14608     0.14608     0.14608    -0.00000     0.00000     0.00000
  E(xc)     -12.68022   -12.68022   -12.68022     0.00000    -0.00000    -0.00000
  Local      -5.21370    -5.21370    -5.21370    -0.00002     0.00002     0.00002
  n-local    39.07933    38.59527    38.38595    -0.94102    -1.04833     0.39109
  augment    -6.25317    -6.25317    -6.25317     0.00002    -0.00002    -0.00002
  Kinetic    24.63354    33.68389    26.73128    12.25862    13.14898    -5.80707
  Fock        0.00000     0.00000     0.00000     0.00000     0.00000     0.00000
  -------------------------------------------------------------------------------------
  Total       0.00120     0.00120     0.00120     0.00000     0.00000     0.00000
  in kB       0.13176     0.13176     0.13176     0.00000     0.00000     0.00000
  external pressure =        0.13 kB  Pullay stress =        0.00 kB


 VOLUME and BASIS-vectors are now :
 -----------------------------------------------------------------------------
  energy-cutoff  :      200.00
  volume of cell :       14.65
      direct lattice vectors                 reciprocal lattice vectors
     1.541327322  1.541327322  1.541327322     0.324395729  0.324395729  0.000000000
     1.541327322 -1.541327322 -1.541327322     0.324395729  0.000000000 -0.324395729
    -1.541327322  1.541327322 -1.541327322     0.000000000  0.324395729 -0.324395729

  length of vectors
     2.669657233  2.669657233  2.669657233     0.458764839  0.458764839  0.458764839


 FORCES acting on ions
    electron-ion (+dipol)            ewald-force                    non-local-force                 convergence-correction
 -----------------------------------------------------------------------------------------------
   -.113E-15 -.130E-15 -.308E-15   -.184E-15 -.259E-15 0.406E-15   0.170E-25 -.404E-26 -.565E-26   -.106E-15 -.146E-16 0.748E-16
 -----------------------------------------------------------------------------------------------
   -.113E-15 -.130E-15 -.308E-15   -.184E-15 -.259E-15 0.406E-15   0.170E-25 -.404E-26 -.565E-26   -.106E-15 -.146E-16 0.748E-16
 
 
 POSITION                                       TOTAL-FORCE (eV/Angst)
 -----------------------------------------------------------------------------------
      0.00000      0.00000      0.00000         0.000000     -0.000000     -0.000000
 -----------------------------------------------------------------------------------
    total drift:                               -0.000000     -0.000000      0.000000


--------------------------------------------------------------------------------------------------------



  FREE ENERGIE OF THE ION-ELECTRON SYSTEM (eV)
  ---------------------------------------------------
  free  energy   TOTEN  =        -4.87164321 eV

  energy  without entropy=       -4.87113887  energy(sigma->0) =       -4.87139104
 
 d Force = 0.0000000E+00[ 0.000E+00, 0.000E+00]  d Energy = 0.9700482E-03-0.970E-03
 d Force = 0.0000000E+00[ 0.000E+00, 0.000E+00]  d Ewald  = 0.6892200E+00-0.689E+00


--------------------------------------------------------------------------------------------------------


    POTLOK:  cpu time    0.1650: real time    0.1716


--------------------------------------------------------------------------------------------------------




--------------------------------------------------------------------------------------------------------


  
 reached required accuracy - stopping structural energy minimisation
     LOOP+:  cpu time    2.9276: real time    3.1183
    4ORBIT:  cpu time    0.0000: real time    0.0000

 total amount of memory used by VASP MPI-rank0    31920. kBytes
=======================================================================

   base      :      30000. kBytes
   nonl-proj :        738. kBytes
   fftplans  :        534. kBytes
   grid      :        246. kBytes
   one-center:          3. kBytes
   wavefun   :        399. kBytes
 
  
  
 General timing and accounting informations for this job:
 ========================================================
  
                  Total CPU time used (sec):       10.794
                            User time (sec):       10.455
                          System time (sec):        0.339
                         Elapsed time (sec):       12.372
  
                   Maximum memory used (kb):       43616.
                   Average memory used (kb):          N/A
  
                          Minor page faults:         8127
                          Major page faults:            1
                 Voluntary context switches:        22054
