unknown system                          
   1.01000000000000     
     2.345342    0.000000    1.354082
     0.781781    2.211209    1.354082
     0.000000    0.000000    2.708167
   Si
     1
Direct
  0.000000  0.000000  0.000000
 
   40   40   40
 -2.3741     -2.1793     -1.6166     -.74693     0.33701      1.5239      2.6987      3.7590      4.6259      5.2522    
  5.6235      5.7557      5.6886      5.4792      5.1919      4.8903      4.6131      4.3780      4.1996      4.0881    
  4.0503      4.0881      4.1996      4.3780      4.6131      4.8903      5.1919      5.4792      5.6886      5.7557    
  5.6235      5.2522      4.6259      3.7590      2.6987      1.5239     0.33701     -.74693     -1.6166     -2.1793    
 -2.1793     -1.8007     -1.0849     -.10928      1.0234      2.1992      3.3093      4.2628      4.9972      5.4825    
  5.7203      5.7392      5.5886      5.3296      5.0277      4.7359      4.4782      4.2704      4.1247      4.0497    
  4.0497      4.1247      4.2704      4.4782      4.7359      5.0277      5.3296      5.5886      5.7392      5.7203    
  5.4825      4.9972      4.2628      3.3093      2.1993      1.0234     -.10927     -1.0849     -1.8007     -2.1794    
 -1.6166     -1.0849     -.26404     0.75704      1.8720      2.9717      3.9585      4.7582      5.3269      5.6518    
  5.7495      5.6594      5.4369      5.1449      4.8438      4.5684      4.3352      4.1585      4.0483      4.0109    
  4.0483      4.1585      4.3352      4.5684      4.8438      5.1449      5.4369      5.6594      5.7495      5.6518    
  5.3269      4.7582      3.9585      2.9717      1.8721     0.75703     -.26407     -1.0849     -1.6166     -1.8007    
 -.74693     -.10928     0.75704      1.7582      2.7908      3.7563      4.5735      5.1875      5.5728      5.7334    
  5.6979      5.5139      5.2392      4.9352      4.6464      4.3927      4.1887      4.0461      3.9729      3.9729    
  4.0461      4.1887      4.3927      4.6464      4.9352      5.2392      5.5139      5.6979      5.7334      5.5728    
  5.1875      4.5735      3.7563      2.7907      1.7582     0.75703     -.10926     -.74696     -1.0849     -1.0849    
 0.33701      1.0234      1.8720      2.7908      3.6854      4.4731      5.0915      5.5053      5.7067      5.7137    
  5.5644      5.3103      5.0091      4.7114      4.4417      4.2149      4.0436      3.9372      3.9010      3.9372    
  4.0436      4.2149      4.4417      4.7114      5.0091      5.3103      5.5644      5.7137      5.7067      5.5053    
  5.0915      4.4731      3.6854      2.7908      1.8720      1.0234     0.33701     -.10926     -.26407     -.10927    
  1.5239      2.1992      2.9717      3.7563      4.4731      5.0573      5.4667      5.6840      5.7170      5.5942    
  5.3596      5.0654      4.7630      4.4818      4.2367      4.0411      3.9049      3.8352      3.8352      3.9049    
  4.0411      4.2367      4.4818      4.7630      5.0654      5.3596      5.5942      5.7170      5.6840      5.4667    
  5.0573      4.4731      3.7563      2.9717      2.1993      1.5239      1.0234     0.75703     0.75703      1.0234    
  2.6987      3.3093      3.9585      4.5735      5.0915      5.4667      5.6752      5.7163      5.6092      5.3900    
  5.1044      4.8012      4.5127      4.2541      4.0388      3.8772      3.7772      3.7433      3.7772      3.8772    
  4.0388      4.2541      4.5127      4.8012      5.1044      5.3900      5.6092      5.7163      5.6753      5.4667    
  5.0915      4.5736      3.9585      3.3093      2.6988      2.1993      1.8720      1.7582      1.8721      2.1993    
  3.7590      4.2628      4.7582      5.1875      5.5053      5.6840      5.7163      5.6136      5.4043      5.1271    
  4.8264      4.5346      4.2672      4.0370      3.8547      3.7286      3.6642      3.6642      3.7286      3.8547    
  4.0370      4.2671      4.5346      4.8264      5.1271      5.4043      5.6136      5.7163      5.6840      5.5053    
  5.1875      4.7582      4.2628      3.7590      3.3093      2.9717      2.7908      2.7907      2.9717      3.3093    
  4.6259      4.9972      5.3269      5.5728      5.7067      5.7170      5.6092      5.4043      5.1346      4.8389    
  4.5476      4.2758      4.0357      3.8377      3.6903      3.5995      3.5689      3.5995      3.6903      3.8377    
  4.0357      4.2758      4.5476      4.8389      5.1346      5.4043      5.6092      5.7170      5.7067      5.5728    
  5.3268      4.9972      4.6259      4.2628      3.9584      3.7563      3.6854      3.7563      3.9585      4.2628    
  5.2522      5.4825      5.6518      5.7334      5.7137      5.5942      5.3900      5.1271      4.8389      4.5519    
  4.2801      4.0349      3.8263      3.6628      3.5504      3.4932      3.4932      3.5504      3.6628      3.8263    
  4.0349      4.2801      4.5520      4.8389      5.1271      5.3900      5.5942      5.7137      5.7334      5.6519    
  5.4825      5.2522      4.9972      4.7582      4.5736      4.4731      4.4731      4.5735      4.7582      4.9972    
  5.6235      5.7203      5.7495      5.6979      5.5644      5.3596      5.1044      4.8264      4.5476      4.2801    
  4.0346      3.8207      3.6463      3.5175      3.4386      3.4120      3.4386      3.5175      3.6463      3.8207    
  4.0346      4.2801      4.5476      4.8264      5.1044      5.3596      5.5643      5.6979      5.7495      5.7203    
  5.6235      5.4825      5.3268      5.1875      5.0915      5.0573      5.0915      5.1875      5.3269      5.4825    
  5.7557      5.7392      5.6594      5.5139      5.3103      5.0654      4.8012      4.5346      4.2758      4.0349    
  3.8207      3.6408      3.5010      3.4056      3.3572      3.3572      3.4056      3.5010      3.6408      3.8207    
  4.0349      4.2758      4.5346      4.8012      5.0653      5.3103      5.5138      5.6594      5.7392      5.7557    
  5.7203      5.6519      5.5728      5.5053      5.4667      5.4667      5.5053      5.5728      5.6518      5.7203    
  5.6886      5.5886      5.4369      5.2392      5.0091      4.7630      4.5127      4.2672      4.0357      3.8263    
  3.6463      3.5010      3.3945      3.3296      3.3078      3.3296      3.3945      3.5010      3.6463      3.8263    
  4.0356      4.2672      4.5127      4.7630      5.0091      5.2393      5.4369      5.5886      5.6887      5.7392    
  5.7495      5.7334      5.7067      5.6840      5.6753      5.6840      5.7067      5.7334      5.7495      5.7392    
  5.4792      5.3296      5.1449      4.9352      4.7114      4.4818      4.2541      4.0370      3.8377      3.6628    
  3.5175      3.4056      3.3296      3.2913      3.2913      3.3296      3.4055      3.5175      3.6628      3.8377    
  4.0370      4.2542      4.4817      4.7115      4.9352      5.1449      5.3297      5.4792      5.5886      5.6594    
  5.6979      5.7137      5.7170      5.7163      5.7163      5.7170      5.7137      5.6979      5.6594      5.5886    
  5.1919      5.0277      4.8438      4.6464      4.4417      4.2367      4.0388      3.8547      3.6903      3.5504    
  3.4386      3.3572      3.3078      3.2913      3.3078      3.3572      3.4385      3.5504      3.6903      3.8547    
  4.0388      4.2367      4.4417      4.6464      4.8439      5.0276      5.1919      5.3297      5.4369      5.5138    
  5.5643      5.5942      5.6092      5.6136      5.6092      5.5942      5.5644      5.5139      5.4369      5.3296    
  4.8903      4.7359      4.5684      4.3927      4.2149      4.0411      3.8772      3.7286      3.5995      3.4932    
  3.4120      3.3572      3.3296      3.3296      3.3572      3.4120      3.4932      3.5995      3.7286      3.8772    
  4.0411      4.2149      4.3927      4.5683      4.7359      4.8903      5.0276      5.1449      5.2393      5.3103    
  5.3596      5.3900      5.4043      5.4043      5.3900      5.3596      5.3103      5.2392      5.1449      5.0277    
  4.6131      4.4782      4.3352      4.1887      4.0436      3.9049      3.7772      3.6642      3.5689      3.4932    
  3.4386      3.4056      3.3945      3.4055      3.4385      3.4932      3.5688      3.6642      3.7772      3.9050    
  4.0436      4.1887      4.3352      4.4782      4.6131      4.7359      4.8439      4.9352      5.0091      5.0653    
  5.1044      5.1271      5.1346      5.1271      5.1044      5.0654      5.0091      4.9352      4.8438      4.7359    
  4.3780      4.2704      4.1585      4.0461      3.9372      3.8352      3.7433      3.6642      3.5995      3.5504    
  3.5175      3.5010      3.5010      3.5175      3.5504      3.5995      3.6642      3.7433      3.8352      3.9372    
  4.0462      4.1585      4.2704      4.3780      4.4782      4.5683      4.6464      4.7115      4.7630      4.8012    
  4.8264      4.8389      4.8389      4.8264      4.8012      4.7630      4.7114      4.6464      4.5684      4.4782    
  4.1996      4.1247      4.0483      3.9729      3.9010      3.8352      3.7772      3.7286      3.6903      3.6628    
  3.6463      3.6408      3.6463      3.6628      3.6903      3.7286      3.7772      3.8352      3.9010      3.9729    
  4.0483      4.1247      4.1995      4.2704      4.3352      4.3927      4.4417      4.4817      4.5127      4.5346    
  4.5476      4.5520      4.5476      4.5346      4.5127      4.4818      4.4417      4.3927      4.3352      4.2704    
  4.0881      4.0497      4.0109      3.9729      3.9372      3.9049      3.8772      3.8547      3.8377      3.8263    
  3.8207      3.8207      3.8263      3.8377      3.8547      3.8772      3.9050      3.9372      3.9729      4.0109    
  4.0497      4.0881      4.1247      4.1585      4.1887      4.2149      4.2367      4.2542      4.2672      4.2758    
  4.2801      4.2801      4.2758      4.2671      4.2541      4.2367      4.2149      4.1887      4.1585      4.1247    
  4.0503      4.0497      4.0483      4.0461      4.0436      4.0411      4.0388      4.0370      4.0357      4.0349    
  4.0346      4.0349      4.0356      4.0370      4.0388      4.0411      4.0436      4.0462      4.0483      4.0497    
  4.0503      4.0497      4.0483      4.0462      4.0436      4.0411      4.0388      4.0370      4.0356      4.0349    
  4.0346      4.0349      4.0357      4.0370      4.0388      4.0411      4.0436      4.0461      4.0483      4.0497    
  4.0881      4.1247      4.1585      4.1887      4.2149      4.2367      4.2541      4.2671      4.2758      4.2801    
  4.2801      4.2758      4.2672      4.2542      4.2367      4.2149      4.1887      4.1585      4.1247      4.0881    
  4.0497      4.0109      3.9729      3.9372      3.9050      3.8772      3.8547      3.8377      3.8263      3.8207    
  3.8207      3.8263      3.8377      3.8547      3.8772      3.9049      3.9372      3.9729      4.0109      4.0497    
  4.1996      4.2704      4.3352      4.3927      4.4417      4.4818      4.5127      4.5346      4.5476      4.5520    
  4.5476      4.5346      4.5127      4.4817      4.4417      4.3927      4.3352      4.2704      4.1995      4.1247    
  4.0483      3.9729      3.9010      3.8352      3.7772      3.7286      3.6903      3.6628      3.6463      3.6408    
  3.6463      3.6628      3.6903      3.7286      3.7772      3.8352      3.9010      3.9729      4.0483      4.1247    
  4.3780      4.4782      4.5684      4.6464      4.7114      4.7630      4.8012      4.8264      4.8389      4.8389    
  4.8264      4.8012      4.7630      4.7115      4.6464      4.5683      4.4782      4.3780      4.2704      4.1585    
  4.0462      3.9372      3.8352      3.7433      3.6642      3.5995      3.5504      3.5175      3.5010      3.5010    
  3.5175      3.5504      3.5995      3.6642      3.7433      3.8352      3.9372      4.0461      4.1585      4.2704    
  4.6131      4.7359      4.8438      4.9352      5.0091      5.0654      5.1044      5.1271      5.1346      5.1271    
  5.1044      5.0653      5.0091      4.9352      4.8439      4.7359      4.6131      4.4782      4.3352      4.1887    
  4.0436      3.9050      3.7772      3.6642      3.5688      3.4932      3.4385      3.4055      3.3945      3.4056    
  3.4386      3.4932      3.5689      3.6642      3.7772      3.9049      4.0436      4.1887      4.3352      4.4782    
  4.8903      5.0277      5.1449      5.2392      5.3103      5.3596      5.3900      5.4043      5.4043      5.3900    
  5.3596      5.3103      5.2393      5.1449      5.0276      4.8903      4.7359      4.5683      4.3927      4.2149    
  4.0411      3.8772      3.7286      3.5995      3.4932      3.4120      3.3572      3.3296      3.3296      3.3572    
  3.4120      3.4932      3.5995      3.7286      3.8772      4.0411      4.2149      4.3927      4.5684      4.7359    
  5.1919      5.3296      5.4369      5.5139      5.5644      5.5942      5.6092      5.6136      5.6092      5.5942    
  5.5643      5.5138      5.4369      5.3297      5.1919      5.0276      4.8439      4.6464      4.4417      4.2367    
  4.0388      3.8547      3.6903      3.5504      3.4385      3.3572      3.3078      3.2913      3.3078      3.3572    
  3.4386      3.5504      3.6903      3.8547      4.0388      4.2367      4.4417      4.6464      4.8438      5.0277    
  5.4792      5.5886      5.6594      5.6979      5.7137      5.7170      5.7163      5.7163      5.7170      5.7137    
  5.6979      5.6594      5.5886      5.4792      5.3297      5.1449      4.9352      4.7115      4.4817      4.2542    
  4.0370      3.8377      3.6628      3.5175      3.4055      3.3296      3.2913      3.2913      3.3296      3.4056    
  3.5175      3.6628      3.8377      4.0370      4.2541      4.4818      4.7114      4.9352      5.1449      5.3296    
  5.6886      5.7392      5.7495      5.7334      5.7067      5.6840      5.6753      5.6840      5.7067      5.7334    
  5.7495      5.7392      5.6887      5.5886      5.4369      5.2393      5.0091      4.7630      4.5127      4.2672    
  4.0356      3.8263      3.6463      3.5010      3.3945      3.3296      3.3078      3.3296      3.3945      3.5010    
  3.6463      3.8263      4.0357      4.2672      4.5127      4.7630      5.0091      5.2392      5.4369      5.5886    
  5.7557      5.7203      5.6518      5.5728      5.5053      5.4667      5.4667      5.5053      5.5728      5.6519    
  5.7203      5.7557      5.7392      5.6594      5.5138      5.3103      5.0653      4.8012      4.5346      4.2758    
  4.0349      3.8207      3.6408      3.5010      3.4056      3.3572      3.3572      3.4056      3.5010      3.6408    
  3.8207      4.0349      4.2758      4.5346      4.8012      5.0654      5.3103      5.5139      5.6594      5.7392    
  5.6235      5.4825      5.3269      5.1875      5.0915      5.0573      5.0915      5.1875      5.3268      5.4825    
  5.6235      5.7203      5.7495      5.6979      5.5643      5.3596      5.1044      4.8264      4.5476      4.2801    
  4.0346      3.8207      3.6463      3.5175      3.4386      3.4120      3.4386      3.5175      3.6463      3.8207    
  4.0346      4.2801      4.5476      4.8264      5.1044      5.3596      5.5644      5.6979      5.7495      5.7203    
  5.2522      4.9972      4.7582      4.5735      4.4731      4.4731      4.5736      4.7582      4.9972      5.2522    
  5.4825      5.6519      5.7334      5.7137      5.5942      5.3900      5.1271      4.8389      4.5520      4.2801    
  4.0349      3.8263      3.6628      3.5504      3.4932      3.4932      3.5504      3.6628      3.8263      4.0349    
  4.2801      4.5519      4.8389      5.1271      5.3900      5.5942      5.7137      5.7334      5.6518      5.4825    
  4.6259      4.2628      3.9585      3.7563      3.6854      3.7563      3.9584      4.2628      4.6259      4.9972    
  5.3268      5.5728      5.7067      5.7170      5.6092      5.4043      5.1346      4.8389      4.5476      4.2758    
  4.0357      3.8377      3.6903      3.5995      3.5689      3.5995      3.6903      3.8377      4.0357      4.2758    
  4.5476      4.8389      5.1346      5.4043      5.6092      5.7170      5.7067      5.5728      5.3269      4.9972    
  3.7590      3.3093      2.9717      2.7907      2.7908      2.9717      3.3093      3.7590      4.2628      4.7582    
  5.1875      5.5053      5.6840      5.7163      5.6136      5.4043      5.1271      4.8264      4.5346      4.2671    
  4.0370      3.8547      3.7286      3.6642      3.6642      3.7286      3.8547      4.0370      4.2672      4.5346    
  4.8264      5.1271      5.4043      5.6136      5.7163      5.6840      5.5053      5.1875      4.7582      4.2628    
  2.6987      2.1993      1.8721      1.7582      1.8720      2.1993      2.6988      3.3093      3.9585      4.5736    
  5.0915      5.4667      5.6753      5.7163      5.6092      5.3900      5.1044      4.8012      4.5127      4.2541    
  4.0388      3.8772      3.7772      3.7433      3.7772      3.8772      4.0388      4.2541      4.5127      4.8012    
  5.1044      5.3900      5.6092      5.7163      5.6752      5.4667      5.0915      4.5735      3.9585      3.3093    
  1.5239      1.0234     0.75703     0.75703      1.0234      1.5239      2.1993      2.9717      3.7563      4.4731    
  5.0573      5.4667      5.6840      5.7170      5.5942      5.3596      5.0654      4.7630      4.4818      4.2367    
  4.0411      3.9049      3.8352      3.8352      3.9049      4.0411      4.2367      4.4818      4.7630      5.0654    
  5.3596      5.5942      5.7170      5.6840      5.4667      5.0573      4.4731      3.7563      2.9717      2.1992    
 0.33701     -.10927     -.26407     -.10926     0.33701      1.0234      1.8720      2.7908      3.6854      4.4731    
  5.0915      5.5053      5.7067      5.7137      5.5644      5.3103      5.0091      4.7114      4.4417      4.2149    
  4.0436      3.9372      3.9010      3.9372      4.0436      4.2149      4.4417      4.7114      5.0091      5.3103    
  5.5644      5.7137      5.7067      5.5053      5.0915      4.4731      3.6854      2.7908      1.8720      1.0234    
 -.74693     -1.0849     -1.0849     -.74696     -.10926     0.75703      1.7582      2.7907      3.7563      4.5735    
  5.1875      5.5728      5.7334      5.6979      5.5139      5.2392      4.9352      4.6464      4.3927      4.1887    
  4.0461      3.9729      3.9729      4.0461      4.1887      4.3927      4.6464      4.9352      5.2392      5.5139    
  5.6979      5.7334      5.5728      5.1875      4.5735      3.7563      2.7908      1.7582     0.75704     -.10928    
 -1.6166     -1.8007     -1.6166     -1.0849     -.26407     0.75703      1.8721      2.9717      3.9585      4.7582    
  5.3269      5.6518      5.7495      5.6594      5.4369      5.1449      4.8438      4.5684      4.3352      4.1585    
  4.0483      4.0109      4.0483      4.1585      4.3352      4.5684      4.8438      5.1449      5.4369      5.6594    
  5.7495      5.6518      5.3269      4.7582      3.9585      2.9717      1.8720     0.75704     -.26404     -1.0849    
 -2.1793     -2.1794     -1.8007     -1.0849     -.10927      1.0234      2.1993      3.3093      4.2628      4.9972    
  5.4825      5.7203      5.7392      5.5886      5.3296      5.0277      4.7359      4.4782      4.2704      4.1247    
  4.0497      4.0497      4.1247      4.2704      4.4782      4.7359      5.0277      5.3296      5.5886      5.7392    
  5.7203      5.4825      4.9972      4.2628      3.3093      2.1992      1.0234     -.10928     -1.0849     -1.8007    
 -2.1793     -1.8007     -1.0849     -.10929      1.0234      2.1993      3.3093      4.2628      4.9973      5.4825    
  5.7203      5.7392      5.5886      5.3296      5.0277      4.7359      4.4782      4.2704      4.1247      4.0497    
  4.0497      4.1247      4.2704      4.4782      4.7359      5.0277      5.3296      5.5886      5.7392      5.7203    
  5.4825      4.9972      4.2628      3.3093      2.1993      1.0233     -.10929     -1.0849     -1.8007     -2.1794    
 -1.8007     -1.2582     -.42041     0.62229      1.7617      2.8867      3.8980      4.7200      5.3076      5.6476    
  5.7565      5.6738      5.4554      5.1648      4.8634      4.5873      4.3535      4.1762      4.0655      4.0280    
  4.0655      4.1762      4.3535      4.5873      4.8634      5.1648      5.4554      5.6738      5.7565      5.6477    
  5.3076      4.7200      3.8980      2.8867      1.7617     0.62226     -.42041     -1.2582     -1.8007     -1.9885    
 -1.0849     -.42041     0.48306      1.5285      2.6089      3.6221      4.4839      5.1370      5.5544      5.7397    
  5.7213      5.5477      5.2776      4.9739      4.6839      4.4287      4.2234      4.0797      4.0059      4.0059    
  4.0797      4.2234      4.4287      4.6839      4.9739      5.2776      5.5477      5.7213      5.7397      5.5544    
  5.1370      4.4839      3.6221      2.6088      1.5285     0.48304     -.42042     -1.0849     -1.4368     -1.4368    
 -.10929     0.62229      1.5285      2.5121      3.4736      4.3258      5.0023      5.4653      5.7056      5.7407    
  5.6094      5.3646      5.0656      4.7663      4.4945      4.2654      4.0923      3.9845      3.9479      3.9845    
  4.0923      4.2654      4.4945      4.7663      5.0656      5.3646      5.6094      5.7407      5.7056      5.4653    
  5.0023      4.3258      3.4737      2.5120      1.5285     0.62231     -.10931     -.58453     -.74929     -.58450    
  1.0234      1.7617      2.6089      3.4736      4.2701      4.9282      5.4018      5.6713      5.7434      5.6468    
  5.4268      5.1375      4.8337      4.5498      4.3016      4.1031      3.9646      3.8937      3.8937      3.9646    
  4.1031      4.3016      4.5498      4.8337      5.1375      5.4268      5.6468      5.7434      5.6713      5.4018    
  4.9282      4.2701      3.4737      2.6089      1.7617      1.0233     0.47725     0.18704     0.18703     0.47724    
  2.1993      2.8867      3.6221      4.3258      4.9282      5.3789      5.6504      5.7399      5.6666      5.4673    
  5.1897      4.8858      4.5940      4.3314      4.1121      3.9471      3.8449      3.8102      3.8449      3.9471    
  4.1121      4.3314      4.5939      4.8858      5.1897      5.4673      5.6666      5.7399      5.6504      5.3789    
  4.9282      4.3258      3.6221      2.8867      2.1993      1.6389      1.2727      1.1454      1.2727      1.6389    
  3.3093      3.8980      4.4839      5.0023      5.4018      5.6504      5.7379      5.6748      5.4898      5.2233    
  4.9227      4.6269      4.3547      4.1194      3.9326      3.8031      3.7368      3.7368      3.8031      3.9326    
  4.1194      4.3547      4.6269      4.9227      5.2233      5.4898      5.6748      5.7378      5.6504      5.4018    
  5.0023      4.4839      3.8980      3.3093      2.7877      2.3978      2.1894      2.1894      2.3978      2.7876    
  4.2628      4.7200      5.1370      5.4653      5.6713      5.7399      5.6748      5.4969      5.2397      4.9446    
  4.6488      4.3713      4.1250      3.9212      3.7691      3.6752      3.6435      3.6752      3.7691      3.9212    
  4.1250      4.3713      4.6488      4.9446      5.2397      5.4969      5.6748      5.7399      5.6713      5.4653    
  5.1370      4.7200      4.2628      3.8226      3.4570      3.2153      3.1308      3.2153      3.4570      3.8226    
  4.9973      5.3076      5.5544      5.7056      5.7434      5.6666      5.4898      5.2397      4.9518      4.6597    
  4.3813      4.1287      3.9131      3.7434      3.6266      3.5670      3.5670      3.6266      3.7434      3.9131    
  4.1287      4.3813      4.6597      4.9518      5.2397      5.4898      5.6666      5.7434      5.7056      5.5545    
  5.3076      4.9972      4.6665      4.3628      4.1309      4.0055      4.0055      4.1309      4.3628      4.6665    
  5.4825      5.6476      5.7397      5.7407      5.6468      5.4673      5.2233      4.9446      4.6597      4.3846    
  4.1306      3.9083      3.7263      3.5916      3.5088      3.4809      3.5088      3.5916      3.7263      3.9083    
  4.1306      4.3846      4.6597      4.9445      5.2234      5.4673      5.6468      5.7407      5.7396      5.6477    
  5.4825      5.2731      5.0553      4.8662      4.7381      4.6927      4.7380      4.8662      5.0553      5.2732    
  5.7203      5.7565      5.7213      5.6094      5.4268      5.1897      4.9227      4.6488      4.3813      4.1306    
  3.9067      3.7178      3.5705      3.4698      3.4186      3.4186      3.4698      3.5705      3.7178      3.9067    
  4.1306      4.3812      4.6488      4.9226      5.1897      5.4268      5.6094      5.7214      5.7565      5.7203    
  5.6287      5.5060      5.3800      5.2778      5.2208      5.2208      5.2778      5.3800      5.5060      5.6287    
  5.7392      5.6738      5.5477      5.3646      5.1375      4.8858      4.6269      4.3713      4.1287      3.9083    
  3.7178      3.5635      3.4502      3.3809      3.3577      3.3809      3.4502      3.5635      3.7178      3.9083    
  4.1287      4.3713      4.6270      4.8858      5.1375      5.3646      5.5476      5.6738      5.7392      5.7492    
  5.7170      5.6612      5.6022      5.5584      5.5423      5.5584      5.6022      5.6612      5.7170      5.7493    
  5.5886      5.4554      5.2776      5.0656      4.8337      4.5940      4.3547      4.1250      3.9131      3.7263    
  3.5705      3.4502      3.3683      3.3270      3.3270      3.3683      3.4502      3.5705      3.7263      3.9131    
  4.1250      4.3547      4.5939      4.8338      5.0655      5.2777      5.4554      5.5886      5.6744      5.7171    
  5.7267      5.7164      5.6999      5.6886      5.6886      5.7000      5.7164      5.7267      5.7171      5.6744    
  5.3296      5.1648      4.9739      4.7663      4.5498      4.3314      4.1194      3.9212      3.7434      3.5916    
  3.4698      3.3809      3.3270      3.3089      3.3270      3.3809      3.4698      3.5916      3.7434      3.9212    
  4.1194      4.3314      4.5497      4.7664      4.9738      5.1648      5.3297      5.4605      5.5549      5.6154    
  5.6489      5.6639      5.6689      5.6698      5.6689      5.6639      5.6488      5.6154      5.5549      5.4606    
  5.0277      4.8634      4.6839      4.4945      4.3016      4.1121      3.9326      3.7691      3.6266      3.5088    
  3.4186      3.3577      3.3270      3.3270      3.3577      3.4186      3.5088      3.6266      3.7691      3.9326    
  4.1121      4.3016      4.4945      4.6839      4.8635      5.0276      5.1717      5.2905      5.3814      5.4457    
  5.4874      5.5114      5.5221      5.5221      5.5114      5.4874      5.4458      5.3814      5.2904      5.1717    
  4.7359      4.5873      4.4287      4.2654      4.1031      3.9471      3.8031      3.6752      3.5670      3.4809    
  3.4186      3.3809      3.3683      3.3809      3.4186      3.4809      3.5670      3.6752      3.8031      3.9472    
  4.1030      4.2655      4.4288      4.5873      4.7359      4.8703      4.9875      5.0856      5.1631      5.2202    
  5.2583      5.2799      5.2869      5.2799      5.2583      5.2201      5.1631      5.0857      4.9876      4.8703    
  4.4782      4.3535      4.2234      4.0923      3.9646      3.8449      3.7368      3.6435      3.5670      3.5088    
  3.4698      3.4502      3.4502      3.4698      3.5088      3.5670      3.6435      3.7368      3.8449      3.9647    
  4.0923      4.2234      4.3535      4.4782      4.5937      4.6969      4.7857      4.8590      4.9168      4.9591    
  4.9867      5.0003      5.0003      4.9867      4.9592      4.9168      4.8590      4.7856      4.6968      4.5937    
  4.2704      4.1762      4.0797      3.9845      3.8937      3.8102      3.7368      3.6752      3.6266      3.5916    
  3.5705      3.5635      3.5705      3.5916      3.6266      3.6752      3.7368      3.8103      3.8936      3.9845    
  4.0797      4.1761      4.2704      4.3594      4.4406      4.5121      4.5727      4.6219      4.6596      4.6861    
  4.7017      4.7069      4.7017      4.6860      4.6595      4.6219      4.5727      4.5121      4.4406      4.3593    
  4.1247      4.0655      4.0059      3.9479      3.8937      3.8449      3.8031      3.7691      3.7434      3.7263    
  3.7178      3.7178      3.7263      3.7434      3.7691      3.8031      3.8449      3.8936      3.9479      4.0059    
  4.0655      4.1247      4.1815      4.2341      4.2812      4.3219      4.3557      4.3825      4.4024      4.4155    
  4.4220      4.4220      4.4155      4.4024      4.3826      4.3557      4.3219      4.2811      4.2341      4.1815    
  4.0497      4.0280      4.0059      3.9845      3.9646      3.9471      3.9326      3.9212      3.9131      3.9083    
  3.9067      3.9083      3.9131      3.9212      3.9326      3.9472      3.9647      3.9845      4.0059      4.0279    
  4.0497      4.0705      4.0895      4.1063      4.1207      4.1327      4.1423      4.1496      4.1548      4.1578    
  4.1588      4.1578      4.1547      4.1496      4.1423      4.1328      4.1208      4.1063      4.0895      4.0704    
  4.0497      4.0655      4.0797      4.0923      4.1031      4.1121      4.1194      4.1250      4.1287      4.1306    
  4.1306      4.1287      4.1250      4.1194      4.1121      4.1030      4.0923      4.0797      4.0655      4.0497    
  4.0328      4.0151      3.9974      3.9804      3.9647      3.9511      3.9399      3.9314      3.9257      3.9229    
  3.9229      3.9257      3.9314      3.9399      3.9511      3.9647      3.9804      3.9974      4.0151      4.0328    
  4.1247      4.1762      4.2234      4.2654      4.3016      4.3314      4.3547      4.3713      4.3813      4.3846    