unknown system                          
   1.01000000000000     
     2.345342    0.000000    1.354082
     0.781781    2.211209    1.354082
     0.000000    0.000000    2.708167
   Si
     1
Direct
  0.000000  0.000000  0.000000
 
   40   40   40
 -.23740581077E+01 -.21793307017E+01 -.16166195307E+01 -.74692850646E+00 0.33700962125E+00
 0.15238963063E+01 0.26987473041E+01 0.37590226604E+01 0.46258800398E+01 0.52522332961E+01
 0.56235065812E+01 0.57557079420E+01 0.56886357286E+01 0.54792217132E+01 0.51919063174E+01
 0.48902529273E+01 0.46131197216E+01 0.43779906282E+01 0.41995673790E+01 0.40880800021E+01
 0.40502882550E+01 0.40880800021E+01 0.41995673790E+01 0.43779906282E+01 0.46131197216E+01
 0.48902529273E+01 0.51919063174E+01 0.54792217132E+01 0.56886357286E+01 0.57557079420E+01
 0.56235065812E+01 0.52522332961E+01 0.46258800398E+01 0.37590226604E+01 0.26987473041E+01
 0.15238963063E+01 0.33700962125E+00 -.74692850646E+00 -.16166195307E+01 -.21793307017E+01
 -.21793307135E+01 -.18006931489E+01 -.10848879591E+01 -.10928066078E+00 0.10233758279E+01
 0.21992391077E+01 0.33093129836E+01 0.42627725136E+01 0.49972438848E+01 0.54825177528E+01
 0.57202947092E+01 0.57392333837E+01 0.55886466714E+01 0.53296480641E+01 0.50277483969E+01
 0.47358545827E+01 0.44782395325E+01 0.42703623505E+01 0.41247161003E+01 0.40497427511E+01
 0.40497438047E+01 0.41247144632E+01 0.42703628116E+01 0.44782378229E+01 0.47358548179E+01
 0.50277477299E+01 0.53296486750E+01 0.55886431925E+01 0.57392380060E+01 0.57202975535E+01
 0.54825273578E+01 0.49972385862E+01 0.42627852746E+01 0.33092917769E+01 0.21992605865E+01
 0.10233548474E+01 -.10926836159E+00 -.10848709520E+01 -.18007159526E+01 -.21793551179E+01
 -.16166195763E+01 -.10848879923E+01 -.26403649835E+00 0.75703990940E+00 0.18720434071E+01
 0.29716703055E+01 0.39584636913E+01 0.47582098339E+01 0.53268825386E+01 0.56518091445E+01
 0.57495139011E+01 0.56593576221E+01 0.54369281624E+01 0.51448985568E+01 0.48437728359E+01
 0.45683608440E+01 0.43352042714E+01 0.41585361548E+01 0.40482683020E+01 0.40108945734E+01
 0.40482676901E+01 0.41585356701E+01 0.43352027135E+01 0.45683604278E+01 0.48437712784E+01
 0.51448981397E+01 0.54369302402E+01 0.56593657447E+01 0.57495146990E+01 0.56518063525E+01
 0.53268816794E+01 0.47582037883E+01 0.39584785238E+01 0.29716589630E+01 0.18720672744E+01
 0.75703196996E+00 -.26407272301E+00 -.10848885953E+01 -.16166028216E+01 -.18007159873E+01
 -.74692860372E+00 -.10928074324E+00 0.75703986150E+00 0.17581815710E+01 0.27907674604E+01
 0.37562649001E+01 0.45735369034E+01 0.51875012399E+01 0.55727957621E+01 0.57333928842E+01
 0.56978870807E+01 0.55138990207E+01 0.52392343631E+01 0.49352024620E+01 0.46464208508E+01
 0.43926594867E+01 0.41887315133E+01 0.40461472464E+01 0.39728783633E+01 0.39728763766E+01
 0.40461483255E+01 0.41887290271E+01 0.43926598457E+01 0.46464194835E+01 0.49352030640E+01
 0.52392323809E+01 0.55138989022E+01 0.56978857320E+01 0.57334019598E+01 0.55728059325E+01
 0.51875129116E+01 0.45735321142E+01 0.37562696780E+01 0.27907425833E+01 0.17581934465E+01
 0.75703185026E+00 -.10925787537E+00 -.74695779133E+00 -.10848886505E+01 -.10848710404E+01
 0.33700946217E+00 0.10233756876E+01 0.18720433047E+01 0.27907674077E+01 0.36853987380E+01
 0.44730690378E+01 0.50914845260E+01 0.55053010294E+01 0.57067353435E+01 0.57137352726E+01
 0.55643599594E+01 0.53102694703E+01 0.50091322538E+01 0.47114295368E+01 0.44416800939E+01
 0.42148824045E+01 0.40436333924E+01 0.39371657923E+01 0.39010319517E+01 0.39371655673E+01
 0.40436329169E+01 0.42148819056E+01 0.44416790824E+01 0.47114285041E+01 0.50091354127E+01
 0.53102722804E+01 0.55643635772E+01 0.57137324107E+01 0.57067312729E+01 0.55052865856E+01
 0.50914854819E+01 0.44730635734E+01 0.36854034309E+01 0.27907719517E+01 0.18720126932E+01
 0.10233613613E+01 0.33700695057E+00 -.10925794757E+00 -.26407284821E+00 -.10926851623E+00
 0.15238960842E+01 0.21992389110E+01 0.29716701517E+01 0.37562647993E+01 0.44730689912E+01
 0.50573151502E+01 0.54667045349E+01 0.56840081705E+01 0.57170177693E+01 0.55941654983E+01
 0.53595668700E+01 0.50653635816E+01 0.47629975336E+01 0.44817603879E+01 0.42366999254E+01
 0.40411079233E+01 0.39049469610E+01 0.38351606004E+01 0.38351652345E+01 0.39049421761E+01
 0.40411123353E+01 0.42366952011E+01 0.44817653041E+01 0.47629888474E+01 0.50653680394E+01
 0.53595618857E+01 0.55941788339E+01 0.57170130298E+01 0.56840281793E+01 0.54666972517E+01
 0.50573249930E+01 0.44730511451E+01 0.37562507269E+01 0.29716804121E+01 0.21992592972E+01
 0.15238811985E+01 0.10233612772E+01 0.75703169690E+00 0.75703176866E+00 0.10233546230E+01
 0.26987470288E+01 0.33093127419E+01 0.39584634989E+01 0.45735367683E+01 0.50914844468E+01
 0.54667045027E+01 0.56752453377E+01 0.57162768667E+01 0.56091714195E+01 0.53899896926E+01
 0.51043697082E+01 0.48012174529E+01 0.45127121505E+01 0.42541119762E+01 0.40388379172E+01
 0.38772133429E+01 0.37772251675E+01 0.37433034193E+01 0.37772255331E+01 0.38772128138E+01
 0.40388382917E+01 0.42541099376E+01 0.45127159965E+01 0.48012154830E+01 0.51043727358E+01
 0.53899781367E+01 0.56091729760E+01 0.57162642843E+01 0.56752558228E+01 0.54666930598E+01
 0.50914932184E+01 0.45735515853E+01 0.39584500732E+01 0.33092990029E+01 0.26987618138E+01
 0.21992592070E+01 0.18720125224E+01 0.17581932129E+01 0.18720670012E+01 0.21992602997E+01
 0.37590223516E+01 0.42627722476E+01 0.47582096238E+01 0.51875010904E+01 0.55053009368E+01
 0.56840081240E+01 0.57162768512E+01 0.56136256492E+01 0.54043468257E+01 0.51271202200E+01
 0.48264171242E+01 0.45345964510E+01 0.42671504475E+01 0.40369649782E+01 0.38546921177E+01
 0.37286043538E+01 0.36641840165E+01 0.36641775307E+01 0.37286111591E+01 0.38546858235E+01
 0.40369714162E+01 0.42671393976E+01 0.45346014959E+01 0.48264079043E+01 0.51271340369E+01
 0.54043378836E+01 0.56136469257E+01 0.57162576182E+01 0.56840202155E+01 0.55052982964E+01
 0.51874842814E+01 0.47582298118E+01 0.42627851618E+01 0.37589900889E+01 0.33092989130E+01
 0.29716802364E+01 0.27907717029E+01 0.27907422818E+01 0.29716586334E+01 0.33092914453E+01
 0.46258797248E+01 0.49972436209E+01 0.53268823353E+01 0.55727956208E+01 0.57067352571E+01
 0.57170177256E+01 0.56091714030E+01 0.54043468224E+01 0.51346091963E+01 0.48388888394E+01
 0.45476441000E+01 0.42757737356E+01 0.40356536905E+01 0.38376655609E+01 0.36903282952E+01
 0.35994827999E+01 0.35688569898E+01 0.35994824793E+01 0.36903297056E+01 0.38376635371E+01
 0.40356587773E+01 0.42757677108E+01 0.45476461937E+01 0.48388718387E+01 0.51346127774E+01
 0.54043219614E+01 0.56091811602E+01 0.57170162133E+01 0.57067339650E+01 0.55728194942E+01
 0.53268484755E+01 0.49972329026E+01 0.46259051390E+01 0.42627850787E+01 0.39584499049E+01
 0.37562504811E+01 0.36854031236E+01 0.37562693314E+01 0.39584781631E+01 0.42627849255E+01
 0.52522330048E+01 0.54825175185E+01 0.56518089720E+01 0.57333927705E+01 0.57137352082E+01
 0.55941654690E+01 0.53899896837E+01 0.51271202191E+01 0.48388888395E+01 0.45519478727E+01
 0.42800942781E+01 0.40348579159E+01 0.38263486896E+01 0.36628052542E+01 0.35504074790E+01
 0.34932002392E+01 0.34932090556E+01 0.35504001304E+01 0.36628145915E+01 0.38263367104E+01
 0.40348674464E+01 0.42800818207E+01 0.45519647798E+01 0.48388763414E+01 0.51271414994E+01
 0.53899774855E+01 0.55941671403E+01 0.57137367807E+01 0.57333565446E+01 0.56518536835E+01
 0.54825325114E+01 0.52522215444E+01 0.49972328313E+01 0.47582296624E+01 0.45735513598E+01
 0.44730508549E+01 0.44730632365E+01 0.45735317537E+01 0.47582034287E+01 0.49972382510E+01
 0.56235063410E+01 0.57202945266E+01 0.57495137762E+01 0.56978870066E+01 0.55643599237E+01
 0.53595668586E+01 0.51043697071E+01 0.48264171245E+01 0.45476441001E+01 0.42800942782E+01
 0.40346115688E+01 0.38206804448E+01 0.36462891900E+01 0.35174744200E+01 0.34385553350E+01
 0.34119516223E+01 0.34385570041E+01 0.35174737554E+01 0.36462973141E+01 0.38206748251E+01
 0.40346172390E+01 0.42800756061E+01 0.45476474754E+01 0.48263946607E+01 0.51043679438E+01
 0.53595723192E+01 0.55643372142E+01 0.56979447580E+01 0.57494723530E+01 0.57202768284E+01
 0.56235196397E+01 0.54825324558E+01 0.53268483536E+01 0.51874840907E+01 0.50914929650E+01
 0.50573246903E+01 0.50914851491E+01 0.51875125713E+01 0.53268813543E+01 0.54825270678E+01
 0.57557077707E+01 0.57392332648E+01 0.56593575506E+01 0.55138989864E+01 0.53102694600E+01
 0.50653635810E+01 0.48012174533E+01 0.45345964512E+01 0.42757737358E+01 0.40348579161E+01
 0.38206804449E+01 0.36407796337E+01 0.35009847067E+01 0.34055520287E+01 0.33571747572E+01
 0.33571766981E+01 0.34055515584E+01 0.35009847070E+01 0.36407819873E+01 0.38206844692E+01
 0.40348662805E+01 0.42757814469E+01 0.45345992808E+01 0.48012374342E+01 0.50653289902E+01
 0.53103177917E+01 0.55138207446E+01 0.56593996558E+01 0.57392413930E+01 0.57557037550E+01
 0.57202767896E+01 0.56518535938E+01 0.55728193475E+01 0.55052980943E+01 0.54666928106E+01
 0.54666969704E+01 0.55052862908E+01 0.55728056446E+01 0.56518060903E+01 0.57202973321E+01
 0.56886356302E+01 0.55886466132E+01 0.54369281364E+01 0.52392343568E+01 0.50091322543E+01
 0.47629975342E+01 0.45127121509E+01 0.42671504479E+01 0.40356536908E+01 0.38263486898E+01
 0.36462891901E+01 0.35009847068E+01 0.33945211744E+01 0.33296175013E+01 0.33078206898E+01
 0.33296193052E+01 0.33945242977E+01 0.35009855803E+01 0.36462870708E+01 0.38263457741E+01
 0.40356425732E+01 0.42671562052E+01 0.45126788924E+01 0.47630424614E+01 0.50090732318E+01
 0.52393047908E+01 0.54369001414E+01 0.55886102816E+01 0.56886687579E+01 0.57392413701E+01
 0.57494722957E+01 0.57333564452E+01 0.57067338211E+01 0.56840200313E+01 0.56752556081E+01
 0.56840279484E+01 0.57067310426E+01 0.57334017466E+01 0.57495145169E+01 0.57392378643E+01
 0.54792216756E+01 0.53296480501E+01 0.51448985551E+01 0.49352024629E+01 0.47114295373E+01
 0.44817603884E+01 0.42541119767E+01 0.40369649786E+01 0.38376655613E+01 0.36628052544E+01
 0.35174744202E+01 0.34055520289E+01 0.33296175013E+01 0.32912889106E+01 0.32912792112E+01
 0.33296231553E+01 0.34055452658E+01 0.35174890601E+01 0.36628027495E+01 0.38376936338E+01
 0.40369532366E+01 0.42541619702E+01 0.44817132862E+01 0.47114816195E+01 0.49351566570E+01
 0.51448717481E+01 0.53297323203E+01 0.54791533208E+01 0.55886102715E+01 0.56593996264E+01
 0.56979447017E+01 0.57137366933E+01 0.57170160953E+01 0.57162574750E+01 0.57162641256E+01
 0.57170128681E+01 0.57137322589E+01 0.56978856017E+01 0.56593656437E+01 0.55886431242E+01
 0.51919063137E+01 0.50277483978E+01 0.48437728366E+01 0.46464208513E+01 0.44416800947E+01
 0.42366999261E+01 0.40388379178E+01 0.38546921182E+01 0.36903282956E+01 0.35504074793E+01
 0.34385553353E+01 0.33571747574E+01 0.33078206899E+01 0.32912792113E+01 0.33078215499E+01
 0.33571727973E+01 0.34385465905E+01 0.35504031264E+01 0.36903115566E+01 0.38546975684E+01
 0.40388094781E+01 0.42367268389E+01 0.44416733089E+01 0.46464150582E+01 0.48438518878E+01
 0.50276446243E+01 0.51919211379E+01 0.53297323179E+01 0.54369001316E+01 0.55138207216E+01
 0.55643371734E+01 0.55941670801E+01 0.56091810824E+01 0.56136468357E+01 0.56091728817E+01
 0.55941787442E+01 0.55643635006E+01 0.55138988448E+01 0.54369302045E+01 0.53296486586E+01
 0.48902529283E+01 0.47358545833E+01 0.45683608448E+01 0.43926594875E+01 0.42148824050E+01
 0.40411079239E+01 0.38772133434E+01 0.37286043543E+01 0.35994828003E+01 0.34932002396E+01
 0.34119516226E+01 0.33571766983E+01 0.33296193053E+01 0.33296231554E+01 0.33571727974E+01
 0.34119596494E+01 0.34932003310E+01 0.35995005975E+01 0.37286016096E+01 0.38772443934E+01
 0.40410960491E+01 0.42148855904E+01 0.43926762740E+01 0.45683061317E+01 0.47358972745E+01
 0.48903171490E+01 0.50276446243E+01 0.51448717476E+01 0.52393047869E+01 0.53103177812E+01
 0.53595722997E+01 0.53899774567E+01 0.54043219253E+01 0.54043378442E+01 0.53899780991E+01
 0.53595618549E+01 0.53102722597E+01 0.52392323706E+01 0.51448981373E+01 0.50277477308E+01
 0.46131197224E+01 0.44782395334E+01 0.43352042721E+01 0.41887315140E+01 0.40436333933E+01
 0.39049469617E+01 0.37772251682E+01 0.36641840171E+01 0.35688569903E+01 0.34932090561E+01
 0.34385570044E+01 0.34055515587E+01 0.33945242979E+01 0.34055452659E+01 0.34385465905E+01
 0.34932003311E+01 0.35688354911E+01 0.36641781373E+01 0.37771955498E+01 0.39049512327E+01
 0.40436397325E+01 0.41887229756E+01 0.43352498038E+01 0.44782305081E+01 0.46130638042E+01
 0.47358972745E+01 0.48438518879E+01 0.49351566573E+01 0.50090732319E+01 0.50653289892E+01
 0.51043679409E+01 0.51271414943E+01 0.51346127710E+01 0.51271340308E+01 0.51043727316E+01
 0.50653680377E+01 0.50091354132E+01 0.49352030652E+01 0.48437712793E+01 0.47358548185E+01
 0.43779906290E+01 0.42703623513E+01 0.41585361557E+01 0.40461472472E+01 0.39371657930E+01
 0.38351606011E+01 0.37433034199E+01 0.36641775313E+01 0.35994824799E+01 0.35504001309E+01
 0.35174737558E+01 0.35009847073E+01 0.35009855805E+01 0.35174890603E+01 0.35504031266E+01
 0.35995005976E+01 0.36641781374E+01 0.37433274442E+01 0.38351551584E+01 0.39371554591E+01
 0.40461510970E+01 0.41585036719E+01 0.42703698362E+01 0.43780416652E+01 0.44782305082E+01
 0.45683061318E+01 0.46464150583E+01 0.47114816197E+01 0.47630424616E+01 0.48012374346E+01
 0.48263946613E+01 0.48388763422E+01 0.48388718395E+01 0.48264079053E+01 0.48012154839E+01
 0.47629888481E+01 0.47114285046E+01 0.46464194841E+01 0.45683604286E+01 0.44782378239E+01
 0.41995673799E+01 0.41247161012E+01 0.40482683028E+01 0.39728783641E+01 0.39010319526E+01
 0.38351652353E+01 0.37772255338E+01 0.37286111598E+01 0.36903297062E+01 0.36628145920E+01
 0.36462973145E+01 0.36407819876E+01 0.36462870711E+01 0.36628027498E+01 0.36903115568E+01
 0.37286016097E+01 0.37771955498E+01 0.38351551584E+01 0.39010359115E+01 0.39728700293E+01
 0.40482950573E+01 0.41247115586E+01 0.41995304558E+01 0.42703698362E+01 0.43352498038E+01
 0.43926762741E+01 0.44416733090E+01 0.44817132864E+01 0.45126788927E+01 0.45345992811E+01
 0.45476474757E+01 0.45519647801E+01 0.45476461941E+01 0.45346014964E+01 0.45127159971E+01
 0.44817653049E+01 0.44416790834E+01 0.43926598467E+01 0.43352027143E+01 0.42703628124E+01
 0.40880800030E+01 0.40497427520E+01 0.40108945743E+01 0.39728763774E+01 0.39371655680E+01
 0.39049421768E+01 0.38772128145E+01 0.38546858241E+01 0.38376635377E+01 0.38263367110E+01
 0.38206748256E+01 0.38206844696E+01 0.38263457744E+01 0.38376936340E+01 0.38546975686E+01
 0.38772443935E+01 0.39049512328E+01 0.39371554592E+01 0.39728700293E+01 0.40108618774E+01
 0.40497386247E+01 0.40881125451E+01 0.41247115586E+01 0.41585036719E+01 0.41887229756E+01
 0.42148855905E+01 0.42367268391E+01 0.42541619704E+01 0.42671562055E+01 0.42757814472E+01
 0.42800756066E+01 0.42800818212E+01 0.42757677114E+01 0.42671393983E+01 0.42541099383E+01
 0.42366952018E+01 0.42148819063E+01 0.41887290278E+01 0.41585356711E+01 0.41247144641E+01
 0.40502882560E+01 0.40497438055E+01 0.40482676908E+01 0.40461483264E+01 0.40436329178E+01
 0.40411123361E+01 0.40388382924E+01 0.40369714168E+01 0.40356587779E+01 0.40348674469E+01
 0.40346172394E+01 0.40348662808E+01 0.40356425735E+01 0.40369532368E+01 0.40388094783E+01
 0.40410960492E+01 0.40436397326E+01 0.40461510970E+01 0.40482950574E+01 0.40497386247E+01
 0.40502506983E+01 0.40497386247E+01 0.40482950574E+01 0.40461510970E+01 0.40436397326E+01
 0.40410960492E+01 0.40388094783E+01 0.40369532368E+01 0.40356425735E+01 0.40348662808E+01
 0.40346172394E+01 0.40348674469E+01 0.40356587779E+01 0.40369714168E+01 0.40388382924E+01
 0.40411123361E+01 0.40436329178E+01 0.40461483264E+01 0.40482676908E+01 0.40497438055E+01
 0.40880800030E+01 0.41247144641E+01 0.41585356711E+01 0.41887290278E+01 0.42148819063E+01
 0.42366952018E+01 0.42541099383E+01 0.42671393983E+01 0.42757677114E+01 0.42800818212E+01
 0.42800756066E+01 0.42757814472E+01 0.42671562055E+01 0.42541619704E+01 0.42367268391E+01
 0.42148855905E+01 0.41887229756E+01 0.41585036719E+01 0.41247115586E+01 0.40881125451E+01
 0.40497386247E+01 0.40108618774E+01 0.39728700293E+01 0.39371554592E+01 0.39049512328E+01
 0.38772443935E+01 0.38546975686E+01 0.38376936340E+01 0.38263457744E+01 0.38206844696E+01
 0.38206748256E+01 0.38263367110E+01 0.38376635377E+01 0.38546858241E+01 0.38772128145E+01
 0.39049421768E+01 0.39371655680E+01 0.39728763774E+01 0.40108945743E+01 0.40497427520E+01
 0.41995673799E+01 0.42703628124E+01 0.43352027143E+01 0.43926598467E+01 0.44416790834E+01
 0.44817653049E+01 0.45127159971E+01 0.45346014964E+01 0.45476461941E+01 0.45519647801E+01
 0.45476474757E+01 0.45345992811E+01 0.45126788927E+01 0.44817132864E+01 0.44416733090E+01
 0.43926762741E+01 0.43352498038E+01 0.42703698362E+01 0.41995304558E+01 0.41247115586E+01
 0.40482950573E+01 0.39728700293E+01 0.39010359115E+01 0.38351551584E+01 0.37771955498E+01
 0.37286016097E+01 0.36903115568E+01 0.36628027498E+01 0.36462870711E+01 0.36407819876E+01
 0.36462973145E+01 0.36628145920E+01 0.36903297062E+01 0.37286111598E+01 0.37772255338E+01
 0.38351652353E+01 0.39010319526E+01 0.39728783641E+01 0.40482683028E+01 0.41247161012E+01
 0.43779906290E+01 0.44782378239E+01 0.45683604286E+01 0.46464194841E+01 0.47114285046E+01
 0.47629888481E+01 0.48012154839E+01 0.48264079053E+01 0.48388718395E+01 0.48388763422E+01
 0.48263946613E+01 0.48012374346E+01 0.47630424616E+01 0.47114816197E+01 0.46464150583E+01
 0.45683061318E+01 0.44782305082E+01 0.43780416652E+01 0.42703698362E+01 0.41585036719E+01
 0.40461510970E+01 0.39371554591E+01 0.38351551584E+01 0.37433274442E+01 0.36641781374E+01
 0.35995005976E+01 0.35504031266E+01 0.35174890603E+01 0.35009855805E+01 0.35009847073E+01
 0.35174737558E+01 0.35504001309E+01 0.35994824799E+01 0.36641775313E+01 0.37433034199E+01
 0.38351606011E+01 0.39371657930E+01 0.40461472472E+01 0.41585361557E+01 0.42703623513E+01
 0.46131197224E+01 0.47358548185E+01 0.48437712793E+01 0.49352030652E+01 0.50091354132E+01
 0.50653680377E+01 0.51043727316E+01 0.51271340308E+01 0.51346127710E+01 0.51271414943E+01
 0.51043679409E+01 0.50653289892E+01 0.50090732319E+01 0.49351566573E+01 0.48438518879E+01
 0.47358972745E+01 0.46130638042E+01 0.44782305081E+01 0.43352498038E+01 0.41887229756E+01
 0.40436397325E+01 0.39049512327E+01 0.37771955498E+01 0.36641781373E+01 0.35688354911E+01
 0.34932003311E+01 0.34385465905E+01 0.34055452659E+01 0.33945242979E+01 0.34055515587E+01
 0.34385570044E+01 0.34932090561E+01 0.35688569903E+01 0.36641840171E+01 0.37772251682E+01
 0.39049469617E+01 0.40436333933E+01 0.41887315140E+01 0.43352042721E+01 0.44782395334E+01
 0.48902529283E+01 0.50277477308E+01 0.51448981373E+01 0.52392323706E+01 0.53102722597E+01
 0.53595618549E+01 0.53899780991E+01 0.54043378442E+01 0.54043219253E+01 0.53899774567E+01
 0.53595722997E+01 0.53103177812E+01 0.52393047869E+01 0.51448717476E+01 0.50276446243E+01
 0.48903171490E+01 0.47358972745E+01 0.45683061317E+01 0.43926762740E+01 0.42148855904E+01
 0.40410960491E+01 0.38772443934E+01 0.37286016096E+01 0.35995005975E+01 0.34932003310E+01
 0.34119596494E+01 0.33571727974E+01 0.33296231554E+01 0.33296193053E+01 0.33571766983E+01
 0.34119516226E+01 0.34932002396E+01 0.35994828003E+01 0.37286043543E+01 0.38772133434E+01
 0.40411079239E+01 0.42148824050E+01 0.43926594875E+01 0.45683608448E+01 0.47358545833E+01
 0.51919063137E+01 0.53296486586E+01 0.54369302045E+01 0.55138988448E+01 0.55643635006E+01
 0.55941787442E+01 0.56091728817E+01 0.56136468357E+01 0.56091810824E+01 0.55941670801E+01
 0.55643371734E+01 0.55138207216E+01 0.54369001316E+01 0.53297323179E+01 0.51919211379E+01
 0.50276446243E+01 0.48438518878E+01 0.46464150582E+01 0.44416733089E+01 0.42367268389E+01
 0.40388094781E+01 0.38546975684E+01 0.36903115566E+01 0.35504031264E+01 0.34385465905E+01
 0.33571727973E+01 0.33078215499E+01 0.32912792113E+01 0.33078206899E+01 0.33571747574E+01
 0.34385553353E+01 0.35504074793E+01 0.36903282956E+01 0.38546921182E+01 0.40388379178E+01
 0.42366999261E+01 0.44416800947E+01 0.46464208513E+01 0.48437728366E+01 0.50277483978E+01
 0.54792216756E+01 0.55886431242E+01 0.56593656437E+01 0.56978856017E+01 0.57137322589E+01
 0.57170128681E+01 0.57162641256E+01 0.57162574750E+01 0.57170160953E+01 0.57137366933E+01
 0.56979447017E+01 0.56593996264E+01 0.55886102715E+01 0.54791533208E+01 0.53297323203E+01
 0.51448717481E+01 0.49351566570E+01 0.47114816195E+01 0.44817132862E+01 0.42541619702E+01
 0.40369532366E+01 0.38376936338E+01 0.36628027495E+01 0.35174890601E+01 0.34055452658E+01
 0.33296231553E+01 0.32912792112E+01 0.32912889106E+01 0.33296175013E+01 0.34055520289E+01
 0.35174744202E+01 0.36628052544E+01 0.38376655613E+01 0.40369649786E+01 0.42541119767E+01
 0.44817603884E+01 0.47114295373E+01 0.49352024629E+01 0.51448985551E+01 0.53296480501E+01
 0.56886356302E+01 0.57392378643E+01 0.57495145169E+01 0.57334017466E+01 0.57067310426E+01
 0.56840279484E+01 0.56752556081E+01 0.56840200313E+01 0.57067338211E+01 0.57333564452E+01
 0.57494722957E+01 0.57392413701E+01 0.56886687579E+01 0.55886102816E+01 0.54369001414E+01
 0.52393047908E+01 0.50090732318E+01 0.47630424614E+01 0.45126788924E+01 0.42671562052E+01
 0.40356425732E+01 0.38263457741E+01 0.36462870708E+01 0.35009855803E+01 0.33945242977E+01
 0.33296193052E+01 0.33078206898E+01 0.33296175013E+01 0.33945211744E+01 0.35009847068E+01
 0.36462891901E+01 0.38263486898E+01 0.40356536908E+01 0.42671504479E+01 0.45127121509E+01
 0.47629975342E+01 0.50091322543E+01 0.52392343568E+01 0.54369281364E+01 0.55886466132E+01
 0.57557077707E+01 0.57202973321E+01 0.56518060903E+01 0.55728056446E+01 0.55052862908E+01
 0.54666969704E+01 0.54666928106E+01 0.55052980943E+01 0.55728193475E+01 0.56518535938E+01
 0.57202767896E+01 0.57557037550E+01 0.57392413930E+01 0.56593996558E+01 0.55138207446E+01
 0.53103177917E+01 0.50653289902E+01 0.48012374342E+01 0.45345992808E+01 0.42757814469E+01
 0.40348662805E+01 0.38206844692E+01 0.36407819873E+01 0.35009847070E+01 0.34055515584E+01
 0.33571766981E+01 0.33571747572E+01 0.34055520287E+01 0.35009847067E+01 0.36407796337E+01
 0.38206804449E+01 0.40348579161E+01 0.42757737358E+01 0.45345964512E+01 0.48012174533E+01
 0.50653635810E+01 0.53102694600E+01 0.55138989864E+01 0.56593575506E+01 0.57392332648E+01
 0.56235063410E+01 0.54825270678E+01 0.53268813543E+01 0.51875125713E+01 0.50914851491E+01
 0.50573246903E+01 0.50914929650E+01 0.51874840907E+01 0.53268483536E+01 0.54825324558E+01
 0.56235196397E+01 0.57202768284E+01 0.57494723530E+01 0.56979447580E+01 0.55643372142E+01
 0.53595723192E+01 0.51043679438E+01 0.48263946607E+01 0.45476474754E+01 0.42800756061E+01
 0.40346172390E+01 0.38206748251E+01 0.36462973141E+01 0.35174737554E+01 0.34385570041E+01
 0.34119516223E+01 0.34385553350E+01 0.35174744200E+01 0.36462891900E+01 0.38206804448E+01
 0.40346115688E+01 0.42800942782E+01 0.45476441001E+01 0.48264171245E+01 0.51043697071E+01
 0.53595668586E+01 0.55643599237E+01 0.56978870066E+01 0.57495137762E+01 0.57202945266E+01
 0.52522330048E+01 0.49972382510E+01 0.47582034287E+01 0.45735317537E+01 0.44730632365E+01
 0.44730508549E+01 0.45735513598E+01 0.47582296624E+01 0.49972328313E+01 0.52522215444E+01
 0.54825325114E+01 0.56518536835E+01 0.57333565446E+01 0.57137367807E+01 0.55941671403E+01
 0.53899774855E+01 0.51271414994E+01 0.48388763414E+01 0.45519647798E+01 0.42800818207E+01
 0.40348674464E+01 0.38263367104E+01 0.36628145915E+01 0.35504001304E+01 0.34932090556E+01
 0.34932002392E+01 0.35504074790E+01 0.36628052542E+01 0.38263486896E+01 0.40348579159E+01
 0.42800942781E+01 0.45519478727E+01 0.48388888395E+01 0.51271202191E+01 0.53899896837E+01
 0.55941654690E+01 0.57137352082E+01 0.57333927705E+01 0.56518089720E+01 0.54825175185E+01
 0.46258797248E+01 0.42627849255E+01 0.39584781631E+01 0.37562693314E+01 0.36854031236E+01
 0.37562504811E+01 0.39584499049E+01 0.42627850787E+01 0.46259051390E+01 0.49972329026E+01
 0.53268484755E+01 0.55728194942E+01 0.57067339650E+01 0.57170162133E+01 0.56091811602E+01
 0.54043219614E+01 0.51346127774E+01 0.48388718387E+01 0.45476461937E+01 0.42757677108E+01
 0.40356587773E+01 0.38376635371E+01 0.36903297056E+01 0.35994824793E+01 0.35688569898E+01
 0.35994827999E+01 0.36903282952E+01 0.38376655609E+01 0.40356536905E+01 0.42757737356E+01
 0.45476441000E+01 0.48388888394E+01 0.51346091963E+01 0.54043468224E+01 0.56091714030E+01
 0.57170177256E+01 0.57067352571E+01 0.55727956208E+01 0.53268823353E+01 0.49972436209E+01
 0.37590223516E+01 0.33092914453E+01 0.29716586334E+01 0.27907422818E+01 0.27907717029E+01
 0.29716802364E+01 0.33092989130E+01 0.37589900889E+01 0.42627851618E+01 0.47582298118E+01
 0.51874842814E+01 0.55052982964E+01 0.56840202155E+01 0.57162576182E+01 0.56136469257E+01
 0.54043378836E+01 0.51271340369E+01 0.48264079043E+01 0.45346014959E+01 0.42671393976E+01
 0.40369714162E+01 0.38546858235E+01 0.37286111591E+01 0.36641775307E+01 0.36641840165E+01
 0.37286043538E+01 0.38546921177E+01 0.40369649782E+01 0.42671504475E+01 0.45345964510E+01
 0.48264171242E+01 0.51271202200E+01 0.54043468257E+01 0.56136256492E+01 0.57162768512E+01
 0.56840081240E+01 0.55053009368E+01 0.51875010904E+01 0.47582096238E+01 0.42627722476E+01
 0.26987470288E+01 0.21992602997E+01 0.18720670012E+01 0.17581932129E+01 0.18720125224E+01
 0.21992592070E+01 0.26987618138E+01 0.33092990029E+01 0.39584500732E+01 0.45735515853E+01
 0.50914932184E+01 0.54666930598E+01 0.56752558228E+01 0.57162642843E+01 0.56091729760E+01
 0.53899781367E+01 0.51043727358E+01 0.48012154830E+01 0.45127159965E+01 0.42541099376E+01
 0.40388382917E+01 0.38772128138E+01 0.37772255331E+01 0.37433034193E+01 0.37772251675E+01
 0.38772133429E+01 0.40388379172E+01 0.42541119762E+01 0.45127121505E+01 0.48012174529E+01
 0.51043697082E+01 0.53899896926E+01 0.56091714195E+01 0.57162768667E+01 0.56752453377E+01
 0.54667045027E+01 0.50914844468E+01 0.45735367683E+01 0.39584634989E+01 0.33093127419E+01
 0.15238960842E+01 0.10233546230E+01 0.75703176866E+00 0.75703169690E+00 0.10233612772E+01
 0.15238811985E+01 0.21992592972E+01 0.29716804121E+01 0.37562507269E+01 0.44730511451E+01
 0.50573249930E+01 0.54666972517E+01 0.56840281793E+01 0.57170130298E+01 0.55941788339E+01
 0.53595618857E+01 0.50653680394E+01 0.47629888474E+01 0.44817653041E+01 0.42366952011E+01
 0.40411123353E+01 0.39049421761E+01 0.38351652345E+01 0.38351606004E+01 0.39049469610E+01
 0.40411079233E+01 0.42366999254E+01 0.44817603879E+01 0.47629975336E+01 0.50653635816E+01
 0.53595668700E+01 0.55941654983E+01 0.57170177693E+01 0.56840081705E+01 0.54667045349E+01
 0.50573151502E+01 0.44730689912E+01 0.37562647993E+01 0.29716701517E+01 0.21992389110E+01
 0.33700946217E+00 -.10926851623E+00 -.26407284821E+00 -.10925794757E+00 0.33700695057E+00
 0.10233613613E+01 0.18720126932E+01 0.27907719517E+01 0.36854034309E+01 0.44730635734E+01
 0.50914854819E+01 0.55052865856E+01 0.57067312729E+01 0.57137324107E+01 0.55643635772E+01
 0.53102722804E+01 0.50091354127E+01 0.47114285041E+01 0.44416790824E+01 0.42148819056E+01
 0.40436329169E+01 0.39371655673E+01 0.39010319517E+01 0.39371657923E+01 0.40436333924E+01
 0.42148824045E+01 0.44416800939E+01 0.47114295368E+01 0.50091322538E+01 0.53102694703E+01
 0.55643599594E+01 0.57137352726E+01 0.57067353435E+01 0.55053010294E+01 0.50914845260E+01
 0.44730690378E+01 0.36853987380E+01 0.27907674077E+01 0.18720433047E+01 0.10233756876E+01
 -.74692860372E+00 -.10848710404E+01 -.10848886505E+01 -.74695779133E+00 -.10925787537E+00
 0.75703185026E+00 0.17581934465E+01 0.27907425833E+01 0.37562696780E+01 0.45735321142E+01
 0.51875129116E+01 0.55728059325E+01 0.57334019598E+01 0.56978857320E+01 0.55138989022E+01
 0.52392323809E+01 0.49352030640E+01 0.46464194835E+01 0.43926598457E+01 0.41887290271E+01
 0.40461483255E+01 0.39728763766E+01 0.39728783633E+01 0.40461472464E+01 0.41887315133E+01
 0.43926594867E+01 0.46464208508E+01 0.49352024620E+01 0.52392343631E+01 0.55138990207E+01
 0.56978870807E+01 0.57333928842E+01 0.55727957621E+01 0.51875012399E+01 0.45735369034E+01
 0.37562649001E+01 0.27907674604E+01 0.17581815710E+01 0.75703986150E+00 -.10928074324E+00
 -.16166195763E+01 -.18007159873E+01 -.16166028216E+01 -.10848885953E+01 -.26407272301E+00
 0.75703196996E+00 0.18720672744E+01 0.29716589630E+01 0.39584785238E+01 0.47582037883E+01
 0.53268816794E+01 0.56518063525E+01 0.57495146990E+01 0.56593657447E+01 0.54369302402E+01
 0.51448981397E+01 0.48437712784E+01 0.45683604278E+01 0.43352027135E+01 0.41585356701E+01
 0.40482676901E+01 0.40108945734E+01 0.40482683020E+01 0.41585361548E+01 0.43352042714E+01
 0.45683608440E+01 0.48437728359E+01 0.51448985568E+01 0.54369281624E+01 0.56593576221E+01
 0.57495139011E+01 0.56518091445E+01 0.53268825386E+01 0.47582098339E+01 0.39584636913E+01
 0.29716703055E+01 0.18720434071E+01 0.75703990940E+00 -.26403649835E+00 -.10848879923E+01
 -.21793307135E+01 -.21793551179E+01 -.18007159526E+01 -.10848709520E+01 -.10926836159E+00
 0.10233548474E+01 0.21992605865E+01 0.33092917769E+01 0.42627852746E+01 0.49972385862E+01
 0.54825273578E+01 0.57202975535E+01 0.57392380060E+01 0.55886431925E+01 0.53296486750E+01
 0.50277477299E+01 0.47358548179E+01 0.44782378229E+01 0.42703628116E+01 0.41247144632E+01
 0.40497438047E+01 0.40497427511E+01 0.41247161003E+01 0.42703623505E+01 0.44782395325E+01
 0.47358545827E+01 0.50277483969E+01 0.53296480641E+01 0.55886466714E+01 0.57392333837E+01
 0.57202947092E+01 0.54825177528E+01 0.49972438848E+01 0.42627725136E+01 0.33093129836E+01
 0.21992391077E+01 0.10233758279E+01 -.10928066078E+00 -.10848879591E+01 -.18006931489E+01
 -.21793397715E+01 -.18006861672E+01 -.10848784731E+01 -.10929476088E+00 0.10233572419E+01
 0.21992505173E+01 0.33093149932E+01 0.42627884926E+01 0.49972535928E+01 0.54825280523E+01
 0.57202971444E+01 0.57392315258E+01 0.55886415043E+01 0.53296483188E+01 0.50277484750E+01
 0.47358553393E+01 0.44782386259E+01 0.42703632436E+01 0.41247152301E+01 0.40497435936E+01
 0.40497429947E+01 0.41247152332E+01 0.42703620983E+01 0.44782384411E+01 0.47358542963E+01
 0.50277477501E+01 0.53296495160E+01 0.55886450444E+01 0.57392320065E+01 0.57202896689E+01