   1   1   1   0
  0.1447023E+02  0.2735248E-09  0.2735248E-09  0.2735249E-09  0.5000000E-15
  1.000000000000000E-004
  CAR 
 unknown system                          
     38.29982927     -6.31178665  301     10.18923880      1.00000000
     -6.312  0.0000E+00  0.0000E+00
     -6.163  0.0000E+00  0.0000E+00
     -6.014  0.0000E+00  0.0000E+00
     -5.866  0.0000E+00  0.0000E+00
     -5.717  0.0000E+00  0.0000E+00
     -5.568  0.0000E+00  0.0000E+00
     -5.420  0.0000E+00  0.0000E+00
     -5.271  0.0000E+00  0.0000E+00
     -5.122  0.0000E+00  0.0000E+00
     -4.973  0.0000E+00  0.0000E+00
     -4.825  0.0000E+00  0.0000E+00
     -4.676  0.0000E+00  0.0000E+00
     -4.527  0.4268E-14  0.6347E-15
     -4.379  0.5434E-05  0.8081E-06
     -4.230  0.7093E-02  0.1056E-02
     -4.081  0.3329E-01  0.6006E-02
     -3.933  0.5073E-01  0.1355E-01
     -3.784  0.7882E-01  0.2527E-01
     -3.635  0.7380E-01  0.3624E-01
     -3.486  0.9917E-01  0.5099E-01
     -3.338  0.9492E-01  0.6511E-01
     -3.189  0.7284E-01  0.7594E-01
     -3.040  0.1394E+00  0.9667E-01
     -2.892  0.1246E+00  0.1152E+00
     -2.743  0.1106E+00  0.1316E+00
     -2.594  0.1515E+00  0.1542E+00
     -2.445  0.1568E+00  0.1775E+00
     -2.297  0.1308E+00  0.1969E+00
     -2.148  0.9235E-01  0.2107E+00
     -1.999  0.1990E+00  0.2403E+00
     -1.851  0.1885E+00  0.2683E+00
     -1.702  0.1693E+00  0.2935E+00
     -1.553  0.1368E+00  0.3138E+00
     -1.405  0.1715E+00  0.3393E+00
     -1.256  0.2183E+00  0.3718E+00
     -1.107  0.1745E+00  0.3977E+00
     -0.958  0.1753E+00  0.4238E+00
     -0.810  0.1880E+00  0.4517E+00
     -0.661  0.1913E+00  0.4802E+00
     -0.512  0.2566E+00  0.5184E+00
     -0.364  0.2324E+00  0.5529E+00
     -0.215  0.2074E+00  0.5838E+00
     -0.066  0.8644E-01  0.5966E+00
      0.083  0.2729E+00  0.6372E+00
      0.231  0.2571E+00  0.6754E+00
      0.380  0.2432E+00  0.7116E+00
      0.529  0.2592E+00  0.7501E+00
      0.677  0.2522E+00  0.7877E+00
      0.826  0.1701E+00  0.8130E+00
      0.975  0.1688E+00  0.8381E+00
      1.123  0.3294E+00  0.8870E+00
      1.272  0.2587E+00  0.9255E+00
      1.421  0.3135E+00  0.9721E+00
      1.570  0.2135E+00  0.1004E+01
      1.718  0.3212E+00  0.1052E+01
      1.867  0.2072E+00  0.1082E+01
      2.016  0.1651E+00  0.1107E+01
      2.164  0.3800E+00  0.1163E+01
      2.313  0.3385E+00  0.1214E+01
      2.462  0.2666E+00  0.1253E+01
      2.611  0.2725E+00  0.1294E+01
      2.759  0.3035E+00  0.1339E+01
      2.908  0.2860E+00  0.1382E+01
      3.057  0.2436E+00  0.1418E+01
      3.205  0.3166E+00  0.1465E+01
      3.354  0.2727E+00  0.1506E+01
      3.503  0.3397E+00  0.1556E+01
      3.651  0.2968E+00  0.1600E+01
      3.800  0.3061E+00  0.1646E+01
      3.949  0.2191E+00  0.1678E+01
      4.098  0.2230E+00  0.1711E+01
      4.246  0.4645E+00  0.1781E+01
      4.395  0.4210E+00  0.1843E+01
      4.544  0.2495E+00  0.1880E+01
      4.692  0.3049E+00  0.1926E+01
      4.841  0.3671E+00  0.1980E+01
      4.990  0.3738E+00  0.2036E+01
      5.139  0.2564E+00  0.2074E+01
      5.287  0.3572E+00  0.2127E+01
      5.436  0.3041E+00  0.2172E+01
      5.585  0.2469E+00  0.2209E+01
      5.733  0.4779E+00  0.2280E+01
      5.882  0.3589E+00  0.2333E+01
      6.031  0.3322E+00  0.2383E+01
      6.179  0.2676E+00  0.2423E+01
      6.328  0.4668E+00  0.2492E+01
      6.477  0.2883E+00  0.2535E+01
      6.626  0.4330E+00  0.2599E+01
      6.774  0.3172E+00  0.2646E+01
      6.923  0.2898E+00  0.2690E+01
      7.072  0.4309E+00  0.2754E+01
      7.220  0.4083E+00  0.2814E+01
      7.369  0.4101E+00  0.2875E+01
      7.518  0.2753E+00  0.2916E+01
      7.667  0.4555E+00  0.2984E+01
      7.815  0.4096E+00  0.3045E+01
      7.964  0.2482E+00  0.3082E+01
      8.113  0.3550E+00  0.3135E+01
      8.261  0.3129E+00  0.3181E+01
      8.410  0.6076E+00  0.3272E+01
      8.559  0.4343E+00  0.3336E+01
      8.707  0.4283E+00  0.3400E+01
      8.856  0.3865E+00  0.3457E+01
      9.005  0.3135E+00  0.3504E+01
      9.154  0.3646E+00  0.3558E+01
      9.302  0.3674E+00  0.3613E+01
      9.451  0.3575E+00  0.3666E+01
      9.600  0.4533E+00  0.3733E+01
      9.748  0.5773E+00  0.3819E+01
      9.897  0.4865E+00  0.3891E+01
     10.046  0.4135E+00  0.3953E+01
     10.195  0.3338E+00  0.4003E+01
     10.343  0.3778E+00  0.4059E+01
     10.492  0.4476E+00  0.4125E+01
     10.641  0.4037E+00  0.4185E+01
     10.789  0.4515E+00  0.4253E+01
     10.938  0.5716E+00  0.4338E+01
     11.087  0.4055E+00  0.4398E+01
     11.235  0.4070E+00  0.4458E+01
     11.384  0.5254E+00  0.4536E+01
     11.533  0.2084E+00  0.4567E+01
     11.682  0.7091E+00  0.4673E+01
     11.830  0.5289E+00  0.4752E+01
     11.979  0.4920E+00  0.4825E+01
     12.128  0.1965E+00  0.4854E+01
     12.276  0.6132E+00  0.4945E+01
     12.425  0.5590E+00  0.5028E+01
     12.574  0.4710E+00  0.5098E+01
     12.723  0.4595E+00  0.5167E+01
     12.871  0.4035E+00  0.5227E+01
     13.020  0.5107E+00  0.5303E+01
     13.169  0.6879E+00  0.5405E+01
     13.317  0.6272E+00  0.5498E+01
     13.466  0.6293E+00  0.5592E+01
     13.615  0.3360E+00  0.5642E+01
     13.763  0.4216E+00  0.5704E+01
     13.912  0.5772E+00  0.5790E+01
     14.061  0.7014E+00  0.5895E+01
     14.210  0.6254E+00  0.5988E+01
     14.358  0.4659E+00  0.6057E+01
     14.507  0.4564E+00  0.6125E+01
     14.656  0.4953E+00  0.6198E+01
     14.804  0.4225E+00  0.6261E+01
     14.953  0.5388E+00  0.6341E+01
     15.102  0.4967E+00  0.6415E+01
     15.250  0.4836E+00  0.6487E+01
     15.399  0.5155E+00  0.6564E+01
     15.548  0.3833E+00  0.6621E+01
     15.697  0.3506E+00  0.6673E+01
     15.845  0.6573E+00  0.6771E+01
     15.994  0.5648E+00  0.6855E+01
     16.143  0.3803E+00  0.6911E+01
     16.291  0.3375E+00  0.6961E+01
     16.440  0.4780E+00  0.7032E+01
     16.589  0.4490E+00  0.7099E+01
     16.738  0.6333E+00  0.7193E+01
     16.886  0.4422E+00  0.7259E+01
     17.035  0.4615E+00  0.7328E+01
     17.184  0.4991E+00  0.7402E+01
     17.332  0.5050E+00  0.7477E+01
     17.481  0.4600E+00  0.7545E+01
     17.630  0.5836E+00  0.7632E+01
     17.778  0.4112E+00  0.7693E+01
     17.927  0.6200E+00  0.7786E+01
     18.076  0.4984E+00  0.7860E+01
     18.225  0.5410E+00  0.7940E+01
     18.373  0.4155E+00  0.8002E+01
     18.522  0.4710E+00  0.8072E+01
     18.671  0.5358E+00  0.8152E+01
     18.819  0.6765E+00  0.8252E+01
     18.968  0.6696E+00  0.8352E+01
     19.117  0.4043E+00  0.8412E+01
     19.266  0.4072E+00  0.8473E+01
     19.414  0.7290E+00  0.8581E+01
     19.563  0.5663E+00  0.8665E+01
     19.712  0.5676E+00  0.8750E+01
     19.860  0.4122E+00  0.8811E+01
     20.009  0.5460E+00  0.8892E+01
     20.158  0.3916E+00  0.8950E+01
     20.306  0.6706E+00  0.9050E+01
     20.455  0.5895E+00  0.9138E+01
     20.604  0.5083E+00  0.9213E+01
     20.753  0.6158E+00  0.9305E+01
     20.901  0.8471E+00  0.9431E+01
     21.050  0.6028E+00  0.9520E+01
     21.199  0.6301E+00  0.9614E+01
     21.347  0.5587E+00  0.9697E+01
     21.496  0.6530E+00  0.9794E+01
     21.645  0.4849E+00  0.9866E+01
     21.794  0.4851E+00  0.9939E+01
     21.942  0.4839E+00  0.1001E+02
     22.091  0.4603E+00  0.1008E+02
     22.240  0.7245E+00  0.1019E+02
     22.388  0.7442E+00  0.1030E+02
     22.537  0.6289E+00  0.1039E+02
     22.686  0.4944E+00  0.1046E+02
     22.834  0.5339E+00  0.1054E+02
     22.983  0.5099E+00  0.1062E+02
     23.132  0.7012E+00  0.1072E+02
     23.281  0.4446E+00  0.1079E+02
     23.429  0.8645E+00  0.1092E+02
     23.578  0.7173E+00  0.1103E+02
     23.727  0.4683E+00  0.1109E+02
     23.875  0.4897E+00  0.1117E+02
     24.024  0.7631E+00  0.1128E+02
     24.173  0.7022E+00  0.1139E+02
     24.322  0.8260E+00  0.1151E+02
     24.470  0.6607E+00  0.1161E+02
     24.619  0.6229E+00  0.1170E+02
     24.768  0.7241E+00  0.1181E+02
     24.916  0.6633E+00  0.1191E+02
     25.065  0.6178E+00  0.1200E+02
     25.214  0.5084E+00  0.1207E+02
     25.362  0.4461E+00  0.1214E+02
     25.511  0.3063E+00  0.1218E+02
     25.660  0.7470E+00  0.1230E+02
     25.809  0.9126E+00  0.1243E+02
     25.957  0.1003E+01  0.1258E+02
     26.106  0.7395E+00  0.1269E+02
     26.255  0.6658E+00  0.1279E+02
     26.403  0.6095E+00  0.1288E+02
     26.552  0.3711E+00  0.1294E+02
     26.701  0.4889E+00  0.1301E+02
     26.850  0.8315E+00  0.1313E+02
     26.998  0.4806E+00  0.1320E+02
     27.147  0.6064E+00  0.1329E+02
     27.296  0.7182E+00  0.1340E+02
     27.444  0.8396E+00  0.1353E+02
     27.593  0.3019E+00  0.1357E+02
     27.742  0.5407E+00  0.1365E+02
     27.890  0.4812E+00  0.1372E+02
     28.039  0.6978E+00  0.1383E+02
     28.188  0.5099E+00  0.1390E+02
     28.337  0.6438E+00  0.1400E+02
     28.485  0.7139E+00  0.1410E+02
     28.634  0.4883E+00  0.1418E+02
     28.783  0.3783E+00  0.1423E+02
     28.931  0.3463E+00  0.1428E+02
     29.080  0.6275E+00  0.1438E+02
     29.229  0.2679E+00  0.1442E+02
     29.378  0.5274E+00  0.1450E+02
     29.526  0.5402E+00  0.1458E+02
     29.675  0.6755E+00  0.1468E+02
     29.824  0.6543E+00  0.1477E+02
     29.972  0.4553E+00  0.1484E+02
     30.121  0.5669E+00  0.1493E+02
     30.270  0.6003E+00  0.1501E+02
     30.418  0.5214E+00  0.1509E+02
     30.567  0.2204E+00  0.1513E+02
     30.716  0.3322E+00  0.1517E+02
     30.865  0.4049E+00  0.1523E+02
     31.013  0.4810E+00  0.1531E+02
     31.162  0.2778E+00  0.1535E+02
     31.311  0.2647E+00  0.1539E+02
     31.459  0.2023E+00  0.1542E+02
     31.608  0.3514E+00  0.1547E+02
     31.757  0.2826E+00  0.1551E+02
     31.905  0.2152E+00  0.1554E+02
     32.054  0.2795E+00  0.1558E+02
     32.203  0.1370E+00  0.1561E+02
     32.352  0.2425E+00  0.1564E+02
     32.500  0.2153E+00  0.1567E+02
     32.649  0.9242E-01  0.1569E+02
     32.798  0.1911E+00  0.1572E+02
     32.946  0.2336E+00  0.1575E+02
     33.095  0.1338E+00  0.1577E+02
     33.244  0.1637E+00  0.1579E+02
     33.393  0.1868E+00  0.1582E+02
     33.541  0.6722E-01  0.1583E+02
     33.690  0.1842E+00  0.1586E+02
     33.839  0.1165E+00  0.1588E+02
     33.987  0.8508E-01  0.1589E+02
     34.136  0.9093E-01  0.1590E+02
     34.285  0.6210E-01  0.1591E+02
     34.433  0.5717E-01  0.1592E+02
     34.582  0.1964E+00  0.1595E+02
     34.731  0.3277E-01  0.1596E+02
     34.880  0.9623E-01  0.1597E+02
     35.028  0.3191E-01  0.1597E+02
     35.177  0.1443E-06  0.1597E+02
     35.326  0.7044E-03  0.1597E+02
     35.474  0.7917E-01  0.1599E+02
     35.623  0.3166E-01  0.1599E+02
     35.772  0.2030E-01  0.1599E+02
     35.921  0.1630E-01  0.1600E+02
     36.069  0.9370E-03  0.1600E+02
     36.218  0.1696E-01  0.1600E+02
     36.367  0.8214E-02  0.1600E+02
     36.515  0.3241E-04  0.1600E+02
     36.664  0.2561E-13  0.1600E+02
     36.813  0.0000E+00  0.1600E+02
     36.961  0.0000E+00  0.1600E+02
     37.110  0.0000E+00  0.1600E+02
     37.259  0.0000E+00  0.1600E+02
     37.408  0.0000E+00  0.1600E+02
     37.556  0.0000E+00  0.1600E+02
     37.705  0.0000E+00  0.1600E+02
     37.854  0.0000E+00  0.1600E+02
     38.002  0.0000E+00  0.1600E+02
     38.151  0.0000E+00  0.1600E+02
     38.300  0.0000E+00  0.1600E+02
     38.29982927     -6.31178665  301     10.18923880      1.00000000
     -6.312  0.0000E+00  0.0000E+00  0.0000E+00  0.0000E+00  0.0000E+00  0.0000E+00  0.0000E+00  0.0000E+00  0.0000E+00
     -6.163  0.0000E+00  0.0000E+00  0.0000E+00  0.0000E+00  0.0000E+00  0.0000E+00  0.0000E+00  0.0000E+00  0.0000E+00
     -6.014  0.0000E+00  0.0000E+00  0.0000E+00  0.0000E+00  0.0000E+00  0.0000E+00  0.0000E+00  0.0000E+00  0.0000E+00
     -5.866  0.0000E+00  0.0000E+00  0.0000E+00  0.0000E+00  0.0000E+00  0.0000E+00  0.0000E+00  0.0000E+00  0.0000E+00
     -5.717  0.0000E+00  0.0000E+00  0.0000E+00  0.0000E+00  0.0000E+00  0.0000E+00  0.0000E+00  0.0000E+00  0.0000E+00
     -5.568  0.0000E+00  0.0000E+00  0.0000E+00  0.0000E+00  0.0000E+00  0.0000E+00  0.0000E+00  0.0000E+00  0.0000E+00
     -5.420  0.0000E+00  0.0000E+00  0.0000E+00  0.0000E+00  0.0000E+00  0.0000E+00  0.0000E+00  0.0000E+00  0.0000E+00
     -5.271  0.0000E+00  0.0000E+00  0.0000E+00  0.0000E+00  0.0000E+00  0.0000E+00  0.0000E+00  0.0000E+00  0.0000E+00
     -5.122  0.0000E+00  0.0000E+00  0.0000E+00  0.0000E+00  0.0000E+00  0.0000E+00  0.0000E+00  0.0000E+00  0.0000E+00
     -4.973  0.0000E+00  0.0000E+00  0.0000E+00  0.0000E+00  0.0000E+00  0.0000E+00  0.0000E+00  0.0000E+00  0.0000E+00
     -4.825  0.0000E+00  0.0000E+00  0.0000E+00  0.0000E+00  0.0000E+00  0.0000E+00  0.0000E+00  0.0000E+00  0.0000E+00
     -4.676  0.0000E+00  0.0000E+00  0.0000E+00  0.0000E+00  0.0000E+00  0.0000E+00  0.0000E+00  0.0000E+00  0.0000E+00
     -4.527  0.1650E-14  0.1929E-33  0.1929E-33  0.1929E-33  0.0000E+00  0.0000E+00  0.0000E+00  0.0000E+00  0.0000E+00
     -4.379  0.2101E-05  0.1889E-10  0.1889E-10  0.1889E-10  0.0000E+00  0.0000E+00  0.0000E+00  0.0000E+00  0.0000E+00
     -4.230  0.2733E-02  0.3534E-05  0.3534E-05  0.3534E-05  0.0000E+00  0.0000E+00  0.0000E+00  0.0000E+00  0.0000E+00
     -4.081  0.1276E-01  0.4061E-04  0.4061E-04  0.4061E-04  0.0000E+00  0.0000E+00  0.0000E+00  0.0000E+00  0.0000E+00
     -3.933  0.1932E-01  0.1106E-03  0.1106E-03  0.1106E-03  0.0000E+00  0.0000E+00  0.0000E+00  0.0000E+00  0.0000E+00
     -3.784  0.2969E-01  0.2902E-03  0.2902E-03  0.2902E-03  0.0000E+00  0.0000E+00  0.0000E+00  0.0000E+00  0.0000E+00
     -3.635  0.2757E-01  0.3536E-03  0.3536E-03  0.3536E-03  0.0000E+00  0.0000E+00  0.0000E+00  0.0000E+00  0.0000E+00
     -3.486  0.3662E-01  0.6318E-03  0.6318E-03  0.6318E-03  0.0000E+00  0.0000E+00  0.0000E+00  0.0000E+00  0.0000E+00
     -3.338  0.3483E-01  0.6882E-03  0.6882E-03  0.6882E-03  0.0000E+00  0.0000E+00  0.0000E+00  0.0000E+00  0.0000E+00
     -3.189  0.2648E-01  0.6154E-03  0.6154E-03  0.6154E-03  0.0000E+00  0.0000E+00  0.0000E+00  0.0000E+00  0.0000E+00
     -3.040  0.5020E-01  0.1351E-02  0.1351E-02  0.1351E-02  0.0000E+00  0.0000E+00  0.0000E+00  0.0000E+00  0.0000E+00
     -2.892  0.4455E-01  0.1323E-02  0.1323E-02  0.1323E-02  0.0000E+00  0.0000E+00  0.0000E+00  0.0000E+00  0.0000E+00
     -2.743  0.3905E-01  0.1350E-02  0.1350E-02  0.1350E-02  0.0000E+00  0.0000E+00  0.0000E+00  0.0000E+00  0.0000E+00
     -2.594  0.5309E-01  0.2006E-02  0.2006E-02  0.2006E-02  0.0000E+00  0.0000E+00  0.0000E+00  0.0000E+00  0.0000E+00
     -2.445  0.5434E-01  0.2283E-02  0.2283E-02  0.2283E-02  0.0000E+00  0.0000E+00  0.0000E+00  0.0000E+00  0.0000E+00
     -2.297  0.4507E-01  0.2002E-02  0.2002E-02  0.2002E-02  0.0000E+00  0.0000E+00  0.0000E+00  0.0000E+00  0.0000E+00
     -2.148  0.3147E-01  0.1539E-02  0.1539E-02  0.1539E-02  0.0000E+00  0.0000E+00  0.0000E+00  0.0000E+00  0.0000E+00
     -1.999  0.6723E-01  0.3518E-02  0.3518E-02  0.3518E-02  0.0000E+00  0.0000E+00  0.0000E+00  0.0000E+00  0.0000E+00
     -1.851  0.6319E-01  0.3513E-02  0.3513E-02  0.3513E-02  0.0000E+00  0.0000E+00  0.0000E+00  0.0000E+00  0.0000E+00
     -1.702  0.5610E-01  0.3382E-02  0.3382E-02  0.3382E-02  0.0000E+00  0.0000E+00  0.0000E+00  0.0000E+00  0.0000E+00
     -1.553  0.4494E-01  0.2869E-02  0.2869E-02  0.2869E-02  0.0000E+00  0.0000E+00  0.0000E+00  0.0000E+00  0.0000E+00
     -1.405  0.5567E-01  0.3841E-02  0.3841E-02  0.3841E-02  0.0000E+00  0.0000E+00  0.0000E+00  0.0000E+00  0.0000E+00
     -1.256  0.7053E-01  0.5004E-02  0.5004E-02  0.5004E-02  0.0000E+00  0.0000E+00  0.0000E+00  0.0000E+00  0.0000E+00
     -1.107  0.5591E-01  0.4170E-02  0.4170E-02  0.4170E-02  0.0000E+00  0.0000E+00  0.0000E+00  0.0000E+00  0.0000E+00
     -0.958  0.5541E-01  0.4448E-02  0.4448E-02  0.4448E-02  0.0000E+00  0.0000E+00  0.0000E+00  0.0000E+00  0.0000E+00
     -0.810  0.5919E-01  0.4856E-02  0.4856E-02  0.4856E-02  0.0000E+00  0.0000E+00  0.0000E+00  0.0000E+00  0.0000E+00
     -0.661  0.5942E-01  0.5228E-02  0.5228E-02  0.5228E-02  0.0000E+00  0.0000E+00  0.0000E+00  0.0000E+00  0.0000E+00
     -0.512  0.7911E-01  0.7225E-02  0.7225E-02  0.7225E-02  0.0000E+00  0.0000E+00  0.0000E+00  0.0000E+00  0.0000E+00
     -0.364  0.7087E-01  0.6813E-02  0.6813E-02  0.6813E-02  0.0000E+00  0.0000E+00  0.0000E+00  0.0000E+00  0.0000E+00
     -0.215  0.6288E-01  0.6211E-02  0.6211E-02  0.6211E-02  0.0000E+00  0.0000E+00  0.0000E+00  0.0000E+00  0.0000E+00
     -0.066  0.2599E-01  0.2668E-02  0.2668E-02  0.2668E-02  0.0000E+00  0.0000E+00  0.0000E+00  0.0000E+00  0.0000E+00
      0.083  0.8126E-01  0.8696E-02  0.8696E-02  0.8696E-02  0.0000E+00  0.0000E+00  0.0000E+00  0.0000E+00  0.0000E+00
      0.231  0.7564E-01  0.8485E-02  0.8485E-02  0.8485E-02  0.0000E+00  0.0000E+00  0.0000E+00  0.0000E+00  0.0000E+00
      0.380  0.7122E-01  0.8174E-02  0.8174E-02  0.8174E-02  0.0000E+00  0.0000E+00  0.0000E+00  0.0000E+00  0.0000E+00
      0.529  0.7509E-01  0.8984E-02  0.8984E-02  0.8984E-02  0.0000E+00  0.0000E+00  0.0000E+00  0.0000E+00  0.0000E+00
      0.677  0.7274E-01  0.8895E-02  0.8895E-02  0.8895E-02  0.0000E+00  0.0000E+00  0.0000E+00  0.0000E+00  0.0000E+00
      0.826  0.4811E-01  0.6297E-02  0.6297E-02  0.6297E-02  0.0000E+00  0.0000E+00  0.0000E+00  0.0000E+00  0.0000E+00
      0.975  0.4754E-01  0.6329E-02  0.6329E-02  0.6329E-02  0.0000E+00  0.0000E+00  0.0000E+00  0.0000E+00  0.0000E+00
      1.123  0.9293E-01  0.1237E-01  0.1237E-01  0.1237E-01  0.0000E+00  0.0000E+00  0.0000E+00  0.0000E+00  0.0000E+00
      1.272  0.7232E-01  0.9932E-02  0.9932E-02  0.9932E-02  0.0000E+00  0.0000E+00  0.0000E+00  0.0000E+00  0.0000E+00
      1.421  0.8600E-01  0.1258E-01  0.1258E-01  0.1258E-01  0.0000E+00  0.0000E+00  0.0000E+00  0.0000E+00  0.0000E+00
      1.570  0.5935E-01  0.8389E-02  0.8389E-02  0.8389E-02  0.0000E+00  0.0000E+00  0.0000E+00  0.0000E+00  0.0000E+00
      1.718  0.8691E-01  0.1335E-01  0.1335E-01  0.1335E-01  0.0000E+00  0.0000E+00  0.0000E+00  0.0000E+00  0.0000E+00
      1.867  0.5781E-01  0.8190E-02  0.8190E-02  0.8190E-02  0.0000E+00  0.0000E+00  0.0000E+00  0.0000E+00  0.0000E+00
      2.016  0.4427E-01  0.7047E-02  0.7047E-02  0.7047E-02  0.0000E+00  0.0000E+00  0.0000E+00  0.0000E+00  0.0000E+00
      2.164  0.1021E+00  0.1627E-01  0.1627E-01  0.1627E-01  0.0000E+00  0.0000E+00  0.0000E+00  0.0000E+00  0.0000E+00
      2.313  0.9202E-01  0.1429E-01  0.1429E-01  0.1429E-01  0.0000E+00  0.0000E+00  0.0000E+00  0.0000E+00  0.0000E+00
      2.462  0.7223E-01  0.1141E-01  0.1141E-01  0.1141E-01  0.0000E+00  0.0000E+00  0.0000E+00  0.0000E+00  0.0000E+00
      2.611  0.7690E-01  0.1101E-01  0.1101E-01  0.1101E-01  0.0000E+00  0.0000E+00  0.0000E+00  0.0000E+00  0.0000E+00
      2.759  0.8543E-01  0.1244E-01  0.1244E-01  0.1244E-01  0.0000E+00  0.0000E+00  0.0000E+00  0.0000E+00  0.0000E+00
      2.908  0.8394E-01  0.1104E-01  0.1104E-01  0.1104E-01  0.0000E+00  0.0000E+00  0.0000E+00  0.0000E+00  0.0000E+00
      3.057  0.6388E-01  0.1127E-01  0.1127E-01  0.1127E-01  0.0000E+00  0.0000E+00  0.0000E+00  0.0000E+00  0.0000E+00
      3.205  0.7909E-01  0.1567E-01  0.1567E-01  0.1567E-01  0.0000E+00  0.0000E+00  0.0000E+00  0.0000E+00  0.0000E+00
      3.354  0.7531E-01  0.1187E-01  0.1187E-01  0.1187E-01  0.0000E+00  0.0000E+00  0.0000E+00  0.0000E+00  0.0000E+00
      3.503  0.8509E-01  0.1691E-01  0.1691E-01  0.1691E-01  0.0000E+00  0.0000E+00  0.0000E+00  0.0000E+00  0.0000E+00
      3.651  0.7004E-01  0.1590E-01  0.1590E-01  0.1590E-01  0.0000E+00  0.0000E+00  0.0000E+00  0.0000E+00  0.0000E+00
      3.800  0.5886E-01  0.1942E-01  0.1942E-01  0.1942E-01  0.0000E+00  0.0000E+00  0.0000E+00  0.0000E+00  0.0000E+00
      3.949  0.4733E-01  0.1281E-01  0.1281E-01  0.1281E-01  0.0000E+00  0.0000E+00  0.0000E+00  0.0000E+00  0.0000E+00
      4.098  0.4039E-01  0.1480E-01  0.1480E-01  0.1480E-01  0.0000E+00  0.0000E+00  0.0000E+00  0.0000E+00  0.0000E+00
      4.246  0.9736E-01  0.2800E-01  0.2800E-01  0.2800E-01  0.0000E+00  0.0000E+00  0.0000E+00  0.0000E+00  0.0000E+00
      4.395  0.7987E-01  0.2728E-01  0.2728E-01  0.2728E-01  0.0000E+00  0.0000E+00  0.0000E+00  0.0000E+00  0.0000E+00
      4.544  0.4701E-01  0.1647E-01  0.1647E-01  0.1647E-01  0.0000E+00  0.0000E+00  0.0000E+00  0.0000E+00  0.0000E+00
      4.692  0.6065E-01  0.1966E-01  0.1966E-01  0.1966E-01  0.0000E+00  0.0000E+00  0.0000E+00  0.0000E+00  0.0000E+00
      4.841  0.4778E-01  0.2845E-01  0.2845E-01  0.2845E-01  0.0000E+00  0.0000E+00  0.0000E+00  0.0000E+00  0.0000E+00
      4.990  0.5950E-01  0.2715E-01  0.2715E-01  0.2715E-01  0.0000E+00  0.0000E+00  0.0000E+00  0.0000E+00  0.0000E+00
      5.139  0.2863E-01  0.2151E-01  0.2151E-01  0.2151E-01  0.0000E+00  0.0000E+00  0.0000E+00  0.0000E+00  0.0000E+00
      5.287  0.5860E-01  0.2565E-01  0.2565E-01  0.2565E-01  0.0000E+00  0.0000E+00  0.0000E+00  0.0000E+00  0.0000E+00
      5.436  0.5010E-01  0.2230E-01  0.2230E-01  0.2230E-01  0.0000E+00  0.0000E+00  0.0000E+00  0.0000E+00  0.0000E+00
      5.585  0.3694E-01  0.1871E-01  0.1871E-01  0.1871E-01  0.0000E+00  0.0000E+00  0.0000E+00  0.0000E+00  0.0000E+00
      5.733  0.6795E-01  0.3610E-01  0.3610E-01  0.3610E-01  0.0000E+00  0.0000E+00  0.0000E+00  0.0000E+00  0.0000E+00
      5.882  0.4584E-01  0.2816E-01  0.2816E-01  0.2816E-01  0.0000E+00  0.0000E+00  0.0000E+00  0.0000E+00  0.0000E+00
      6.031  0.4668E-01  0.2553E-01  0.2553E-01  0.2553E-01  0.0000E+00  0.0000E+00  0.0000E+00  0.0000E+00  0.0000E+00
      6.179  0.3601E-01  0.2056E-01  0.2056E-01  0.2056E-01  0.0000E+00  0.0000E+00  0.0000E+00  0.0000E+00  0.0000E+00
      6.328  0.8106E-01  0.3221E-01  0.3221E-01  0.3221E-01  0.0000E+00  0.0000E+00  0.0000E+00  0.0000E+00  0.0000E+00
      6.477  0.5001E-01  0.2035E-01  0.2035E-01  0.2035E-01  0.0000E+00  0.0000E+00  0.0000E+00  0.0000E+00  0.0000E+00
      6.626  0.7149E-01  0.3134E-01  0.3134E-01  0.3135E-01  0.0000E+00  0.0000E+00  0.0000E+00  0.0000E+00  0.0000E+00
      6.774  0.5725E-01  0.2226E-01  0.2226E-01  0.2226E-01  0.0000E+00  0.0000E+00  0.0000E+00  0.0000E+00  0.0000E+00
      6.923  0.4795E-01  0.2120E-01  0.2120E-01  0.2120E-01  0.0000E+00  0.0000E+00  0.0000E+00  0.0000E+00  0.0000E+00
      7.072  0.8792E-01  0.2897E-01  0.2897E-01  0.2897E-01  0.0000E+00  0.0000E+00  0.0000E+00  0.0000E+00  0.0000E+00
      7.220  0.5189E-01  0.3234E-01  0.3234E-01  0.3234E-01  0.0000E+00  0.0000E+00  0.0000E+00  0.0000E+00  0.0000E+00
      7.369  0.5771E-01  0.3113E-01  0.3113E-01  0.3113E-01  0.0000E+00  0.0000E+00  0.0000E+00  0.0000E+00  0.0000E+00
      7.518  0.4045E-01  0.2080E-01  0.2080E-01  0.2080E-01  0.0000E+00  0.0000E+00  0.0000E+00  0.0000E+00  0.0000E+00
      7.667  0.6777E-01  0.3450E-01  0.3450E-01  0.3450E-01  0.0000E+00  0.0000E+00  0.0000E+00  0.0000E+00  0.0000E+00
      7.815  0.6380E-01  0.3052E-01  0.3052E-01  0.3052E-01  0.0000E+00  0.0000E+00  0.0000E+00  0.0000E+00  0.0000E+00
      7.964  0.4515E-01  0.1732E-01  0.1732E-01  0.1732E-01  0.0000E+00  0.0000E+00  0.0000E+00  0.0000E+00  0.0000E+00
      8.113  0.5925E-01  0.2641E-01  0.2641E-01  0.2641E-01  0.0000E+00  0.0000E+00  0.0000E+00  0.0000E+00  0.0000E+00
      8.261  0.4000E-01  0.2504E-01  0.2504E-01  0.2504E-01  0.0000E+00  0.0000E+00  0.0000E+00  0.0000E+00  0.0000E+00
      8.410  0.8424E-01  0.4751E-01  0.4751E-01  0.4751E-01  0.0000E+00  0.0000E+00  0.0000E+00  0.0000E+00  0.0000E+00
      8.559  0.6013E-01  0.3413E-01  0.3413E-01  0.3413E-01  0.0000E+00  0.0000E+00  0.0000E+00  0.0000E+00  0.0000E+00
      8.707  0.5833E-01  0.3462E-01  0.3462E-01  0.3462E-01  0.0000E+00  0.0000E+00  0.0000E+00  0.0000E+00  0.0000E+00
      8.856  0.5464E-01  0.3048E-01  0.3048E-01  0.3048E-01  0.0000E+00  0.0000E+00  0.0000E+00  0.0000E+00  0.0000E+00
      9.005  0.4019E-01  0.2489E-01  0.2489E-01  0.2489E-01  0.0000E+00  0.0000E+00  0.0000E+00  0.0000E+00  0.0000E+00
      9.154  0.5393E-01  0.2843E-01  0.2843E-01  0.2843E-01  0.0000E+00  0.0000E+00  0.0000E+00  0.0000E+00  0.0000E+00
      9.302  0.5722E-01  0.2843E-01  0.2843E-01  0.2843E-01  0.0000E+00  0.0000E+00  0.0000E+00  0.0000E+00  0.0000E+00
      9.451  0.4690E-01  0.2904E-01  0.2904E-01  0.2904E-01  0.0000E+00  0.0000E+00  0.0000E+00  0.0000E+00  0.0000E+00
      9.600  0.6084E-01  0.3733E-01  0.3733E-01  0.3733E-01  0.0000E+00  0.0000E+00  0.0000E+00  0.0000E+00  0.0000E+00
      9.748  0.6589E-01  0.4881E-01  0.4881E-01  0.4881E-01  0.0000E+00  0.0000E+00  0.0000E+00  0.0000E+00  0.0000E+00
      9.897  0.5001E-01  0.4084E-01  0.4084E-01  0.4084E-01  0.0000E+00  0.0000E+00  0.0000E+00  0.0000E+00  0.0000E+00
     10.046  0.4885E-01  0.3521E-01  0.3521E-01  0.3521E-01  0.0000E+00  0.0000E+00  0.0000E+00  0.0000E+00  0.0000E+00
     10.195  0.4458E-01  0.2783E-01  0.2783E-01  0.2783E-01  0.0000E+00  0.0000E+00  0.0000E+00  0.0000E+00  0.0000E+00
     10.343  0.4922E-01  0.3175E-01  0.3175E-01  0.3175E-01  0.0000E+00  0.0000E+00  0.0000E+00  0.0000E+00  0.0000E+00
     10.492  0.5866E-01  0.3804E-01  0.3804E-01  0.3804E-01  0.0000E+00  0.0000E+00  0.0000E+00  0.0000E+00  0.0000E+00
     10.641  0.4531E-01  0.3423E-01  0.3423E-01  0.3423E-01  0.0000E+00  0.0000E+00  0.0000E+00  0.0000E+00  0.0000E+00
     10.789  0.5065E-01  0.3910E-01  0.3910E-01  0.3910E-01  0.0000E+00  0.0000E+00  0.0000E+00  0.0000E+00  0.0000E+00
     10.938  0.6270E-01  0.5007E-01  0.5007E-01  0.5007E-01  0.0000E+00  0.0000E+00  0.0000E+00  0.0000E+00  0.0000E+00
     11.087  0.3630E-01  0.3725E-01  0.3725E-01  0.3725E-01  0.0000E+00  0.0000E+00  0.0000E+00  0.0000E+00  0.0000E+00
     11.235  0.4130E-01  0.3672E-01  0.3672E-01  0.3672E-01  0.0000E+00  0.0000E+00  0.0000E+00  0.0000E+00  0.0000E+00
     11.384  0.5729E-01  0.4722E-01  0.4722E-01  0.4722E-01  0.0000E+00  0.0000E+00  0.0000E+00  0.0000E+00  0.0000E+00
     11.533  0.2068E-01  0.1912E-01  0.1912E-01  0.1912E-01  0.0000E+00  0.0000E+00  0.0000E+00  0.0000E+00  0.0000E+00
     11.682  0.7466E-01  0.6475E-01  0.6475E-01  0.6475E-01  0.0000E+00  0.0000E+00  0.0000E+00  0.0000E+00  0.0000E+00
     11.830  0.4453E-01  0.4920E-01  0.4920E-01  0.4920E-01  0.0000E+00  0.0000E+00  0.0000E+00  0.0000E+00  0.0000E+00
     11.979  0.4726E-01  0.4634E-01  0.4634E-01  0.4634E-01  0.0000E+00  0.0000E+00  0.0000E+00  0.0000E+00  0.0000E+00
     12.128  0.1805E-01  0.1852E-01  0.1852E-01  0.1852E-01  0.0000E+00  0.0000E+00  0.0000E+00  0.0000E+00  0.0000E+00
     12.276  0.6938E-01  0.5896E-01  0.5896E-01  0.5896E-01  0.0000E+00  0.0000E+00  0.0000E+00  0.0000E+00  0.0000E+00
     12.425  0.4135E-01  0.5313E-01  0.5313E-01  0.5313E-01  0.0000E+00  0.0000E+00  0.0000E+00  0.0000E+00  0.0000E+00
     12.574  0.3579E-01  0.4664E-01  0.4664E-01  0.4664E-01  0.0000E+00  0.0000E+00  0.0000E+00  0.0000E+00  0.0000E+00
     12.723  0.4363E-01  0.4552E-01  0.4552E-01  0.4552E-01  0.0000E+00  0.0000E+00  0.0000E+00  0.0000E+00  0.0000E+00
     12.871  0.2980E-01  0.4290E-01  0.4290E-01  0.4290E-01  0.0000E+00  0.0000E+00  0.0000E+00  0.0000E+00  0.0000E+00
     13.020  0.2871E-01  0.5269E-01  0.5269E-01  0.5269E-01  0.0000E+00  0.0000E+00  0.0000E+00  0.0000E+00  0.0000E+00
     13.169  0.4885E-01  0.7135E-01  0.7135E-01  0.7135E-01  0.0000E+00  0.0000E+00  0.0000E+00  0.0000E+00  0.0000E+00
     13.317  0.5431E-01  0.6624E-01  0.6624E-01  0.6624E-01  0.0000E+00  0.0000E+00  0.0000E+00  0.0000E+00  0.0000E+00
     13.466  0.4148E-01  0.6929E-01  0.6929E-01  0.6929E-01  0.0000E+00  0.0000E+00  0.0000E+00  0.0000E+00  0.0000E+00
     13.615  0.1706E-01  0.4039E-01  0.4039E-01  0.4039E-01  0.0000E+00  0.0000E+00  0.0000E+00  0.0000E+00  0.0000E+00
     13.763  0.2314E-01  0.4929E-01  0.4929E-01  0.4929E-01  0.0000E+00  0.0000E+00  0.0000E+00  0.0000E+00  0.0000E+00
     13.912  0.2884E-01  0.6407E-01  0.6407E-01  0.6407E-01  0.0000E+00  0.0000E+00  0.0000E+00  0.0000E+00  0.0000E+00
     14.061  0.3754E-01  0.8170E-01  0.8170E-01  0.8170E-01  0.0000E+00  0.0000E+00  0.0000E+00  0.0000E+00  0.0000E+00
     14.210  0.3332E-01  0.6892E-01  0.6892E-01  0.6892E-01  0.0000E+00  0.0000E+00  0.0000E+00  0.0000E+00  0.0000E+00
     14.358  0.3076E-01  0.5375E-01  0.5375E-01  0.5375E-01  0.0000E+00  0.0000E+00  0.0000E+00  0.0000E+00  0.0000E+00
     14.507  0.2222E-01  0.5618E-01  0.5618E-01  0.5618E-01  0.0000E+00  0.0000E+00  0.0000E+00  0.0000E+00  0.0000E+00
     14.656  0.1602E-01  0.5742E-01  0.5742E-01  0.5742E-01  0.0000E+00  0.0000E+00  0.0000E+00  0.0000E+00  0.0000E+00
     14.804  0.2600E-01  0.4696E-01  0.4696E-01  0.4696E-01  0.0000E+00  0.0000E+00  0.0000E+00  0.0000E+00  0.0000E+00
     14.953  0.2740E-01  0.6518E-01  0.6518E-01  0.6518E-01  0.0000E+00  0.0000E+00  0.0000E+00  0.0000E+00  0.0000E+00
     15.102  0.2391E-01  0.6026E-01  0.6026E-01  0.6026E-01  0.0000E+00  0.0000E+00  0.0000E+00  0.0000E+00  0.0000E+00
     15.250  0.2023E-01  0.5345E-01  0.5345E-01  0.5345E-01  0.0000E+00  0.0000E+00  0.0000E+00  0.0000E+00  0.0000E+00
     15.399  0.1784E-01  0.5798E-01  0.5798E-01  0.5798E-01  0.0000E+00  0.0000E+00  0.0000E+00  0.0000E+00  0.0000E+00
     15.548  0.1334E-01  0.4440E-01  0.4440E-01  0.4440E-01  0.0000E+00  0.0000E+00  0.0000E+00  0.0000E+00  0.0000E+00
     15.697  0.1060E-01  0.4119E-01  0.4119E-01  0.4119E-01  0.0000E+00  0.0000E+00  0.0000E+00  0.0000E+00  0.0000E+00
     15.845  0.3331E-01  0.7917E-01  0.7917E-01  0.7917E-01  0.0000E+00  0.0000E+00  0.0000E+00  0.0000E+00  0.0000E+00
     15.994  0.2710E-01  0.6077E-01  0.6077E-01  0.6077E-01  0.0000E+00  0.0000E+00  0.0000E+00  0.0000E+00  0.0000E+00
     16.143  0.1804E-01  0.3828E-01  0.3828E-01  0.3828E-01  0.0000E+00  0.0000E+00  0.0000E+00  0.0000E+00  0.0000E+00
     16.291  0.9618E-02  0.3799E-01  0.3799E-01  0.3799E-01  0.0000E+00  0.0000E+00  0.0000E+00  0.0000E+00  0.0000E+00
     16.440  0.1824E-01  0.5030E-01  0.5030E-01  0.5030E-01  0.0000E+00  0.0000E+00  0.0000E+00  0.0000E+00  0.0000E+00
     16.589  0.1741E-01  0.4774E-01  0.4774E-01  0.4774E-01  0.0000E+00  0.0000E+00  0.0000E+00  0.0000E+00  0.0000E+00
     16.738  0.2005E-01  0.7078E-01  0.7078E-01  0.7078E-01  0.0000E+00  0.0000E+00  0.0000E+00  0.0000E+00  0.0000E+00
     16.886  0.2584E-01  0.4252E-01  0.4252E-01  0.4252E-01  0.0000E+00  0.0000E+00  0.0000E+00  0.0000E+00  0.0000E+00