    1    1    1    1
  0.1447023E+02  0.2735248E-09  0.2735248E-09  0.2735249E-09  0.5000000E-15
  1.000000000000000E-004
  CAR 
 unknown system                          
      4    286      8
 
  0.0000000E+00  0.0000000E+00  0.0000000E+00  0.1079797E-03
    1       -4.283986   1.000000
    2       21.308286   0.000000
    3       21.308293   0.000000
    4       21.308302   0.000000
    5       22.098037   0.000000
    6       22.098046   0.000000
    7       22.098055   0.000000
    8       27.434502   0.000000
 
  0.4761905E-01  0.2877055E-18 -0.3231174E-26  0.8638376E-03
    1       -4.217934   1.000000
    2       19.926866   0.000000
    3       20.880406   0.000000
    4       20.880418   0.000000
    5       22.608856   0.000000
    6       22.608870   0.000000
    7       22.898811   0.000000
    8       27.984295   0.000000
 
  0.9523810E-01 -0.6363482E-17 -0.6462349E-26  0.8638376E-03
    1       -4.019861   1.000000
    2       17.969884   0.000000
    3       20.296187   0.000000
    4       20.296198   0.000000
    5       23.345634   0.000000
    6       23.413405   0.000000
    7       23.413419   0.000000
    8       27.855735   0.000000
 
  0.1428571E+00 -0.6075776E-17 -0.2584939E-25  0.8638376E-03
    1       -3.690211   1.000000
    2       15.932288   0.000000
    3       19.786775   0.000000
    4       19.786786   0.000000
    5       23.426859   0.000000
    6       24.132411   0.000000
    7       24.132424   0.000000
    8       27.179476   0.000000
 
  0.1904762E+00 -0.1272696E-16 -0.1292470E-25  0.8638376E-03
    1       -3.229676   1.000000
    2       13.912297   0.000000
    3       19.375057   0.000000
    4       19.375067   0.000000
    5       23.372662   0.000000
    6       24.300995   0.000000
    7       24.301006   0.000000
    8       27.152709   0.000000
 
  0.2380952E+00  0.8377424E-17 -0.2584939E-25  0.8638376E-03
    1       -2.639231   1.000000
    2       11.952618   0.000000
    3       19.064429   0.000000
    4       19.064438   0.000000
    5       23.294651   0.000000
    6       23.782195   0.000000
    7       23.782203   0.000000
    8       27.973409   0.000000
 
  0.2857143E+00 -0.1215155E-16 -0.1292470E-25  0.8638376E-03
    1       -1.920154   1.000000
    2       10.075523   0.999351
    3       18.852830   0.000000
    4       18.852838   0.000000
    5       23.052182   0.000000
    6       23.052191   0.000000
    7       23.245015   0.000000
    8       28.306184   0.000000
 
  0.3333333E+00  0.8952836E-17 -0.3877409E-25  0.8638376E-03
    1       -1.074297   1.000000
    2        8.294300   1.000000
    3       18.733141   0.000000
    4       18.733148   0.000000
    5       22.345147   0.000000
    6       22.345156   0.000000
    7       23.245809   0.000000
    8       27.494674   0.000000
 
  0.3809524E+00 -0.2545393E-16 -0.2584939E-25  0.8638376E-03
    1       -0.104313   1.000000
    2        6.618434   1.000000
    3       18.691228   0.000000
    4       18.691234   0.000000
    5       21.742740   0.000000
    6       21.742750   0.000000
    7       23.298694   0.000000
    8       26.807131   0.000000
 
  0.4285714E+00 -0.1822733E-16 -0.7754818E-25  0.8638376E-03
    1        0.983949   1.000000
    2        5.057765   1.000000
    3       18.701458   0.000000
    4       18.701463   0.000000
    5       21.294999   0.000000
    6       21.295011   0.000000
    7       23.382559   0.000000
    8       26.289046   0.000000
 
  0.4761905E+00 -0.3875630E-16 -0.7754818E-25  0.8638376E-03
    1        2.155170   1.000000
    2        3.649796   1.000000
    3       18.724804   0.000000
    4       18.724808   0.000000
    5       21.051004   0.000000
    6       21.051017   0.000000
    7       23.450122   0.000000
    8       26.001220   0.000000
 
  0.4761905E-01  0.4761905E-01 -0.6462349E-26  0.6478782E-03
    1       -4.195910   1.000000
    2       20.180836   0.000000
    3       20.180837   0.000000
    4       21.098432   0.000000
    5       21.584733   0.000000
    6       23.336472   0.000000
    7       23.336473   0.000000
    8       27.965241   0.000000
 
  0.9523810E-01  0.4761905E-01 -0.1292470E-25  0.2591513E-02
    1       -4.041854   1.000000
    2       18.639541   0.000000
    3       19.540169   0.000000
    4       20.806360   0.000000
    5       21.834409   0.000000
    6       23.974615   0.000000
    7       24.156284   0.000000
    8       27.005120   0.000000
 
  0.1428571E+00  0.4761905E-01 -0.2584939E-25  0.2591513E-02
    1       -3.756071   1.000000
    2       16.648257   0.000000
    3       18.994922   0.000000
    4       20.316433   0.000000
    5       22.541301   0.000000
    6       24.230350   0.000000
    7       24.933341   0.000000
    8       26.081790   0.000000
 
  0.1904762E+00  0.4761905E-01 -0.3877409E-25  0.2591513E-02
    1       -3.339200   1.000000
    2       14.625868   0.000000
    3       18.554581   0.000000
    4       19.874156   0.000000
    5       22.955103   0.000000
    6       24.205024   0.000000
    7       25.314369   0.000000
    8       25.705879   0.000000
 
  0.2380952E+00  0.4761905E-01 -0.3877409E-25  0.2591513E-02
    1       -2.792072   1.000000
    2       12.647297   0.000000
    3       18.222288   0.000000
    4       19.507769   0.000000
    5       22.715079   0.000000
    6       23.983278   0.000000
    7       24.966757   0.000000
    8       26.314394   0.000000
 
  0.2857143E+00  0.4761905E-01 -0.3877409E-25  0.2591513E-02
    1       -2.115880   1.000000
    2       10.743256   0.000000
    3       17.998676   0.000000
    4       19.213558   0.000000
    5       22.083358   0.000000
    6       23.865611   0.000000
    7       24.266829   0.000000
    8       27.405493   0.000000
 
  0.3333333E+00  0.4761905E-01 -0.2584939E-25  0.2591513E-02
    1       -1.312260   1.000000
    2        8.930412   1.000000
    3       17.882599   0.000000
    4       18.969778   0.000000
    5       21.445007   0.000000
    6       23.523026   0.000000
    7       23.827217   0.000000
    8       28.069411   0.000000
 
  0.3809524E+00  0.4761905E-01 -0.5169879E-25  0.2591513E-02
    1       -0.383475   1.000000
    2        7.219495   1.000000
    3       17.871261   0.000000
    4       18.736956   0.000000
    5       20.961950   0.000000
    6       22.837180   0.000000
    7       23.841486   0.000000
    8       27.523237   0.000000
 
  0.4285714E+00  0.4761905E-01 -0.5169879E-25  0.2591513E-02
    1        0.666250   1.000000
    2        5.619645   1.000000
    3       17.959379   0.000000
    4       18.474504   0.000000
    5       20.712061   0.000000
    6       22.249573   0.000000
    7       23.886995   0.000000
    8       27.000586   0.000000
 
  0.4761905E+00  0.4761905E-01 -0.1033976E-24  0.2591513E-02
    1        1.821091   1.000000
    2        4.149557   1.000000
    3       18.137624   0.000000
    4       18.180887   0.000000
    5       20.710677   0.000000
    6       21.784460   0.000000
    7       23.924691   0.000000
    8       26.675394   0.000000
 
 -0.4761905E+00  0.4761905E-01  0.7754818E-25  0.2591513E-02
    1        2.548516   1.000000
    2        3.343240   1.000000
    3       17.896176   0.000000
    4       18.389498   0.000000
    5       20.923166   0.000000
    6       21.464754   0.000000
    7       23.910526   0.000000
    8       26.610970   0.000000
 
 -0.4285714E+00  0.4761905E-01  0.5169879E-25  0.2591513E-02
    1        1.427314   1.000000
    2        4.622181   1.000000
    3       17.663130   0.000000
    4       18.687445   0.000000
    5       21.307801   0.000000
    6       21.319996   0.000000
    7       23.836856   0.000000
    8       26.818199   0.000000
 
 -0.3809524E+00  0.4761905E-01  0.3877409E-25  0.2591513E-02
    1        0.303343   1.000000
    2        6.139846   1.000000
    3       17.509222   0.000000
    4       18.993392   0.000000
    5       21.386606   0.000000
    6       21.834484   0.000000
    7       23.742127   0.000000
    8       27.251820   0.000000
 
 -0.3333333E+00  0.4761905E-01  0.2584939E-25  0.2591513E-02
    1       -0.706783   1.000000
    2        7.777793   1.000000
    3       17.449662   0.000000
    4       19.277417   0.000000
    5       21.688065   0.000000
    6       22.480627   0.000000
    7       23.670016   0.000000
    8       27.846133   0.000000
 
 -0.2857143E+00  0.4761905E-01  0.2584939E-25  0.2591513E-02
    1       -1.594187   1.000000
    2        9.523621   1.000000
    3       17.492695   0.000000
    4       19.545496   0.000000
    5       22.201973   0.000000
    6       23.222024   0.000000
    7       23.643504   0.000000
    8       28.499802   0.000000
 
 -0.2380952E+00  0.4761905E-01  0.2584939E-25  0.2591513E-02
    1       -2.355544   1.000000
    2       11.368062   0.000000
    3       17.642455   0.000000
    4       19.832215   0.000000
    5       22.847934   0.000000
    6       23.660406   0.000000
    7       24.017293   0.000000
    8       27.367588   0.000000
 
 -0.1904762E+00  0.4761905E-01  0.2584939E-25  0.2591513E-02
    1       -2.988847   1.000000
    2       13.298960   0.000000
    3       17.900819   0.000000
    4       20.170593   0.000000
    5       23.434856   0.000000
    6       23.703053   0.000000
    7       24.739404   0.000000
    8       26.367556   0.000000
 
 -0.1428571E+00  0.4761905E-01  0.6462349E-26  0.2591513E-02
    1       -3.492690   1.000000
    2       15.296325   0.000000
    3       18.267656   0.000000
    4       20.577481   0.000000
    5       23.469334   0.000000
    6       23.714757   0.000000
    7       25.002712   0.000000
    8       26.147267   0.000000
 
 -0.9523810E-01  0.4761905E-01  0.9693523E-26  0.2591513E-02
    1       -3.865946   1.000000
    2       17.321460   0.000000
    3       18.740743   0.000000
    4       21.040714   0.000000
    5       22.841626   0.000000
    6       23.588405   0.000000
    7       24.542397   0.000000
    8       26.799438   0.000000
 
 -0.4761905E-01  0.4761905E-01  0.4310453E-26  0.1295756E-02
    1       -4.107852   1.000000
    2       19.232192   0.000000
    3       19.362860   0.000000
    4       21.357585   0.000000
    5       22.268604   0.000000
    6       23.212220   0.000000
    7       23.775374   0.000000
    8       27.736312   0.000000
 
  0.9523810E-01  0.9523810E-01 -0.1292470E-25  0.6478782E-03
    1       -3.931864   1.000000
    2       18.859989   0.000000
    3       18.859990   0.000000
    4       20.493547   0.000000
    5       20.516716   0.000000
    6       24.982433   0.000000
    7       24.982433   0.000000
    8       25.844846   0.000000
 
  0.1428571E+00  0.9523810E-01 -0.1292470E-25  0.2591513E-02
    1       -3.690133   1.000000
    2       17.384166   0.000000
    3       18.278164   0.000000
    4       20.020413   0.000000
    5       20.805672   0.000000
    6       24.721078   0.000000
    7       25.572676   0.000000
    8       25.805850   0.000000
 
  0.1904762E+00  0.9523810E-01 -0.2584939E-25  0.2591513E-02
    1       -3.317188   1.000000
    2       15.422548   0.000000
    3       17.803014   0.000000
    4       19.550525   0.000000
    5       21.402860   0.000000
    6       23.927172   0.000000
    7       25.791473   0.000000
    8       26.372842   0.000000
 
  0.2380952E+00  0.9523810E-01 -0.1292470E-25  0.2591513E-02
    1       -2.813756   1.000000
    2       13.444478   0.000000
    3       17.437794   0.000000
    4       19.120508   0.000000
    5       21.371348   0.000000
    6       23.974968   0.000000
    7       25.917845   0.000000
    8       26.251740   0.000000
 
  0.2857143E+00  0.9523810E-01 -0.2584939E-25  0.2591513E-02
    1       -2.180949   1.000000
    2       11.522566   0.000000
    3       17.183866   0.000000
    4       18.716797   0.000000
    5       20.811496   0.000000
    6       24.582060   0.000000
    7       25.634315   0.000000
    8       26.252480   0.000000
 
  0.3333333E+00  0.9523810E-01  0.0000000E+00  0.2591513E-02
    1       -1.420204   1.000000
    2        9.683319   1.000000
    3       17.041425   0.000000
    4       18.295747   0.000000
    5       20.272366   0.000000
    6       24.899546   0.000000
    7       24.962742   0.000000
    8       27.111790   0.000000
 
  0.3809524E+00  0.9523810E-01 -0.5169879E-25  0.2591513E-02
    1       -0.533490   1.000000
    2        7.940856   1.000000
    3       17.009731   0.000000
    4       17.821424   0.000000
    5       19.948919   0.000000
    6       24.189390   0.000000
    7       25.087735   0.000000
    8       28.249314   0.000000
 
  0.4285714E+00  0.9523810E-01 -0.7754818E-25  0.2591513E-02
    1        0.475877   1.000000
    2        6.305253   1.000000
    3       17.087276   0.000000
    4       17.315374   0.000000
    5       19.863088   0.000000
    6       23.555031   0.000000
    7       25.119559   0.000000
    8       28.439084   0.000000
 
  0.4761905E+00  0.9523810E-01 -0.7754818E-25  0.2591513E-02
    1        1.599145   1.000000
    2        4.789115   1.000000
    3       16.832300   0.000000
    4       17.271372   0.000000
    5       19.975905   0.000000
    6       23.020168   0.000000
    7       25.093117   0.000000
    8       28.198472   0.000000
 
 -0.4761905E+00  0.9523810E-01  0.7754818E-25  0.2591513E-02
    1        2.721685   1.000000
    2        3.509065   1.000000
    3       16.414312   0.000000
    4       17.557601   0.000000
    5       20.251463   0.000000
    6       22.599177   0.000000
    7       25.005132   0.000000
    8       28.151103   0.000000
 
 -0.4285714E+00  0.9523810E-01  0.7754818E-25  0.2591513E-02
    1        1.992844   1.000000
    2        4.316490   1.000000
    3       16.085024   0.000000
    4       17.938632   0.000000
    5       20.667880   0.000000
    6       22.303518   0.000000
    7       24.871597   0.000000
    8       28.329132   0.000000
 
 -0.3809524E+00  0.9523810E-01  0.5169879E-25  0.2591513E-02
    1        0.838474   1.000000
    2        5.785151   1.000000
    3       15.856971   0.000000
    4       18.402447   0.000000
    5       21.211475   0.000000
    6       22.145606   0.000000
    7       24.729438   0.000000
    8       28.690146   0.000000
 
 -0.3333333E+00  0.9523810E-01  0.3877409E-25  0.2591513E-02
    1       -0.210521   1.000000
    2        7.382439   1.000000
    3       15.736958   0.000000
    4       18.929499   0.000000
    5       21.870658   0.000000
    6       22.141319   0.000000
    7       24.611430   0.000000
    8       29.151979   0.000000
 
 -0.2857143E+00  0.9523810E-01  0.2584939E-25  0.2591513E-02
    1       -1.138592   1.000000
    2        9.089475   1.000000
    3       15.728777   0.000000
    4       19.490601   0.000000
    5       22.309104   0.000000
    6       22.631793   0.000000
    7       24.532318   0.000000
    8       28.265029   0.000000
 
 -0.2380952E+00  0.9523810E-01  0.1292470E-25  0.2591513E-02
    1       -1.941568   1.000000
    2       10.896109   0.000000
    3       15.834662   0.000000
    4       20.050962   0.000000
    5       22.653062   0.000000
    6       23.471472   0.000000
    7       24.485673   0.000000
    8       26.874845   0.000000
 
 -0.1904762E+00  0.9523810E-01  0.1292470E-25  0.2591513E-02
    1       -2.617219   1.000000
    2       12.788947   0.000000
    3       16.056549   0.000000
    4       20.584307   0.000000
    5       23.090880   0.000000
    6       24.319407   0.000000
    7       24.454516   0.000000
    8       25.729551   0.000000
 
 -0.1428571E+00  0.9523810E-01  0.2584939E-25  0.2591513E-02
    1       -3.163895   1.000000
    2       14.741536   0.000000
    3       16.400697   0.000000
    4       21.070938   0.000000
    5       23.203485   0.000000
    6       24.311083   0.000000
    7       25.053964   0.000000
    8       25.268433   0.000000
 
 -0.9523810E-01  0.9523810E-01  0.1712657E-25  0.1295756E-02
    1       -3.580423   1.000000
    2       16.571412   0.000000
    3       17.009438   0.000000
    4       21.379154   0.000000
    5       22.778685   0.000000
    6       24.024442   0.000000
    7       25.143122   0.000000
    8       25.822708   0.000000
 
  0.1428571E+00  0.1428571E+00 -0.2584939E-25  0.6478782E-03
    1       -3.492529   1.000000
    2       17.659562   0.000000
    3       17.659563   0.000000
    4       19.298200   0.000000
    5       19.633702   0.000000
    6       23.453455   0.000000
    7       26.697809   0.000000
    8       26.697810   0.000000
 
  0.1904762E+00  0.1428571E+00 -0.3877409E-25  0.2591513E-02
    1       -3.163681   1.000000
    2       16.238754   0.000000
    3       17.147577   0.000000
    4       18.955655   0.000000
    5       19.657788   0.000000
    6       22.462978   0.000000
    7       27.296980   0.000000
    8       27.438808   0.000000
 
  0.2380952E+00  0.1428571E+00 -0.2584939E-25  0.2591513E-02
    1       -2.704252   1.000000
    2       14.325234   0.000000
    3       16.746139   0.000000
    4       18.438563   0.000000
    5       19.900946   0.000000
    6       22.220960   0.000000
    7       27.526592   0.000000
    8       27.581963   0.000000
 
  0.2857143E+00  0.1428571E+00  0.0000000E+00  0.2591513E-02
    1       -2.115205   1.000000
    2       12.404814   0.000000
    3       16.456919   0.000000
    4       17.864837   0.000000
    5       19.567331   0.000000
    6       22.966690   0.000000
    7       27.092290   0.000000
    8       27.610192   0.000000
 
  0.3333333E+00  0.1428571E+00  0.0000000E+00  0.2591513E-02
    1       -1.397904   1.000000
    2       10.548000   0.000000
    3       16.280480   0.000000
    4       17.218332   0.000000
    5       19.194460   0.000000
    6       24.096554   0.000000
    7       26.393638   0.000000
    8       27.693882   0.000000
 
  0.3809524E+00  0.1428571E+00 -0.7754818E-25  0.2591513E-02
    1       -0.554043   1.000000
    2        8.779243   1.000000
    3       16.216903   0.000000
    4       16.534327   0.000000
    5       18.999790   0.000000
    6       25.227899   0.000000
    7       25.681679   0.000000
    8       27.930787   0.000000
 
  0.4285714E+00  0.1428571E+00 -0.5169879E-25  0.2591513E-02
    1        0.413662   1.000000
    2        7.111735   1.000000
    3       15.875342   0.000000
    4       16.265556   0.000000
    5       18.983375   0.000000
    6       25.025372   0.000000
    7       26.010189   0.000000
    8       28.585563   0.000000
 
  0.4761905E+00  0.1428571E+00 -0.7754818E-25  0.2591513E-02
    1        1.499598   1.000000
    2        5.556706   1.000000
    3       15.284974   0.000000
    4       16.425362   0.000000
    5       19.122301   0.000000
    6       24.455063   0.000000
    7       26.281576   0.000000
    8       29.723658   0.000000
 
 -0.4761905E+00  0.1428571E+00  0.6462349E-25  0.2591513E-02
    1        2.670573   1.000000
    2        4.150341   1.000000
    3       14.786490   0.000000
    4       16.694370   0.000000
    5       19.400814   0.000000
    6       23.986184   0.000000
    7       26.258050   0.000000
    8       30.146274   0.000000
 
 -0.4285714E+00  0.1428571E+00  0.6462349E-25  0.2591513E-02
    1        2.670700   1.000000
    2        4.149749   1.000000
    3       14.392193   0.000000
    4       17.069670   0.000000
    5       19.809616   0.000000
    6       23.628921   0.000000
    7       26.114947   0.000000
    8       30.294319   0.000000
 
 -0.3809524E+00  0.1428571E+00  0.3877409E-25  0.2591513E-02
    1        1.499503   1.000000
    2        5.555241   1.000000
    3       14.108940   0.000000
    4       17.546556   0.000000
    5       20.341734   0.000000
    6       23.390522   0.000000
    7       25.937785   0.000000
    8       30.557817   0.000000
 
 -0.3333333E+00  0.1428571E+00  0.3877409E-25  0.2591513E-02
    1        0.413436   1.000000
    2        7.108646   1.000000
    3       13.940835   0.000000
    4       18.117204   0.000000
    5       20.989741   0.000000
    6       23.277228   0.000000
    7       25.767346   0.000000
    8       29.534116   0.000000
 
 -0.2857143E+00  0.1428571E+00  0.1938705E-25  0.2591513E-02
    1       -0.554326   1.000000
    2        8.772822   1.000000
    3       13.891118   0.000000
    4       18.768864   0.000000
    5       21.744770   0.000000
    6       23.295783   0.000000
    7       25.614138   0.000000
    8       27.964666   0.000000
 
 -0.2380952E+00  0.1428571E+00  0.6462349E-26  0.2591513E-02
    1       -1.398209   1.000000
    2       10.533631   0.000000
    3       13.964030   0.000000
    4       19.478839   0.000000
    5       22.591656   0.000000
    6       23.448692   0.000000
    7       25.457828   0.000000
    8       26.502771   0.000000
 
 -0.1904762E+00  0.1428571E+00  0.1938705E-25  0.2591513E-02
    1       -2.115508   1.000000
    2       12.363884   0.000000
    3       14.174867   0.000000
    4       20.203812   0.000000
    5       23.500405   0.000000
    6       23.701527   0.000000
    7       25.239925   0.000000
    8       25.243368   0.000000
 
 -0.1428571E+00  0.1428571E+00  0.1132497E-25  0.1295756E-02
    1       -2.704523   1.000000
    2       14.043611   0.000000
    3       14.723426   0.000000
    4       20.840163   0.000000
    5       23.624967   0.000000
    6       24.395721   0.000000
    7       24.722783   0.000000
    8       24.869127   0.000000
 
  0.1904762E+00  0.1904762E+00 -0.2584939E-25  0.6478782E-03
    1       -2.879010   1.000000
    2       16.598272   0.000000
    3       16.598273   0.000000
    4       18.170467   0.000000
    5       18.394249   0.000000
    6       21.295002   0.000000
    7       28.424418   0.000000
    8       28.424419   0.000000
 
  0.2380952E+00  0.1904762E+00  0.0000000E+00  0.2591513E-02
    1       -2.463786   1.000000
    2       15.226221   0.000000
    3       16.159471   0.000000
    4       17.622945   0.000000
    5       18.357966   0.000000
    6       20.696698   0.000000
    7       28.918257   0.000000
    8       29.032846   0.000000
 
  0.2857143E+00  0.1904762E+00 -0.2584939E-25  0.2591513E-02
    1       -1.918851   1.000000
    2       13.369558   0.000000
    3       15.833221   0.000000
    4       16.821069   0.000000
    5       18.453139   0.000000
    6       21.074190   0.000000
    7       28.604566   0.000000
    8       29.277717   0.000000
 
  0.3333333E+00  0.1904762E+00 -0.5169879E-25  0.2591513E-02
    1       -1.245428   1.000000
    2       11.514758   0.000000
    3       15.620409   0.000000
    4       15.975255   0.000000
    5       18.288034   0.000000
    6       22.148680   0.000000
    7       27.969575   0.000000
    8       29.335054   0.000000
 
  0.3809524E+00  0.1904762E+00 -0.5169879E-25  0.2591513E-02
    1       -0.445052   1.000000
    2        9.728866   1.000000
    3       15.150810   0.000000
    4       15.521287   0.000000
    5       18.170922   0.000000
    6       23.478413   0.000000
    7       27.274621   0.000000
    8       29.304934   0.000000
 
  0.4285714E+00  0.1904762E+00 -0.2584939E-25  0.2591513E-02
    1        0.479949   1.000000
    2        8.034940   1.000000
    3       14.393387   0.000000
    4       15.535674   0.000000
    5       18.174000   0.000000
    6       24.885316   0.000000
    7       26.610798   0.000000
    8       29.253217   0.000000
 
  0.4761905E+00  0.1904762E+00 -0.1292470E-24  0.2591513E-02
    1        1.525540   1.000000
    2        6.446547   1.000000
    3       13.727796   0.000000
    4       15.663034   0.000000
    5       18.306319   0.000000
    6       26.018317   0.000000
    7       26.197674   0.000000
    8       29.300761   0.000000
 
 -0.4761905E+00  0.1904762E+00  0.5169879E-25  0.2591513E-02
    1        2.677296   1.000000
    2        4.982834   1.000000
    3       13.167068   0.000000
    4       15.902361   0.000000
    5       18.566895   0.000000
    6       25.517471   0.000000
    7       27.070316   0.000000
    8       29.744448   0.000000
 
 -0.4285714E+00  0.1904762E+00  0.5169879E-25  0.2591513E-02
    1        3.411899   1.000000
    2        4.169079   1.000000
    3       12.718614   0.000000
    4       16.252035   0.000000
    5       18.952976   0.000000
    6       25.119985   0.000000
    7       27.300062   0.000000
    8       30.684142   0.000000
 
 -0.3809524E+00  0.1904762E+00  0.2584939E-25  0.2591513E-02
    1        2.284160   1.000000
    2        5.450554   1.000000
    3       12.387216   0.000000
    4       16.709441   0.000000
    5       19.460809   0.000000
    6       24.833140   0.000000
    7       27.203036   0.000000
    8       31.076414   0.000000
 
 -0.3333333E+00  0.1904762E+00  0.1292470E-25  0.2591513E-02
    1        1.163603   1.000000
    2        6.955244   1.000000
    3       12.176934   0.000000
    4       17.270310   0.000000
    5       20.085761   0.000000
    6       24.662388   0.000000
    7       27.002961   0.000000
    8       29.405135   0.000000
 
 -0.2857143E+00  0.1904762E+00  0.1938705E-25  0.2591513E-02
    1        0.157281   1.000000
    2        8.568803   1.000000
    3       12.093883   0.000000
    4       17.927238   0.000000
    5       20.820654   0.000000
    6       24.612012   0.000000
    7       26.752517   0.000000
    8       27.782567   0.000000
 
 -0.2380952E+00  0.1904762E+00  0.9693523E-26  0.2591513E-02
    1       -0.726556   1.000000
    2       10.256787   0.028031
    3       12.160028   0.000000
    4       18.666169   0.000000
    5       21.653874   0.000000
    6       24.685772   0.000000
    7       26.257166   0.000000
    8       26.420783   0.000000
 
 -0.1904762E+00  0.1904762E+00  0.3425314E-25  0.1295756E-02
    1       -1.484826   1.000000
    2       11.775743   0.000000
    3       12.606524   0.000000
    4       19.455721   0.000000
    5       22.563481   0.000000
    6       24.801287   0.000000
    7       24.959501   0.000000
    8       25.930248   0.000000
 
  0.2380952E+00  0.2380952E+00 -0.2584939E-25  0.6478782E-03
    1       -2.092862   1.000000
    2       15.683009   0.000000
    3       15.683010   0.000000
    4       16.627311   0.000000
    5       17.169637   0.000000
    6       19.734476   0.000000
    7       30.107796   0.000000
    8       30.107802   0.000000
 
  0.2857143E+00  0.2380952E+00 -0.2584939E-25  0.2591513E-02
    1       -1.592278   1.000000
    2       14.348919   0.000000
    3       15.319112   0.000000
    4       15.677658   0.000000
    5       17.333510   0.000000
    6       19.537262   0.000000
    7       30.141507   0.000000
    8       30.698180   0.000000
 
  0.3333333E+00  0.2380952E+00 -0.5169879E-25  0.2591513E-02
    1       -0.963092   1.000000
    2       12.558191   0.000000
    3       14.707502   0.000000
    4       15.068884   0.000000
    5       17.475147   0.000000
    6       20.245775   0.000000
    7       29.594586   0.000000
    8       30.917827   0.000000
 
  0.3809524E+00  0.2380952E+00 -0.7754818E-25  0.2591513E-02
    1       -0.206788   1.000000
    2       10.776834   0.000000
    3       13.788369   0.000000
    4       14.932767   0.000000
    5       17.446004   0.000000
    6       21.485328   0.000000
    7       28.937732   0.000000
    8       30.897470   0.000000
 
  0.4285714E+00  0.2380952E+00 -0.1033976E-24  0.2591513E-02
    1        0.674652   1.000000
    2        9.067167   1.000000
    3       12.956761   0.000000
    4       14.910823   0.000000
    5       17.459419   0.000000
    6       22.943347   0.000000
    7       28.282139   0.000000
    8       30.723523   0.000000
 
  0.4761905E+00  0.2380952E+00 -0.1033976E-24  0.2591513E-02
    1        1.677958   1.000000
    2        7.452360   1.000000
    3       12.228840   0.000000
    4       15.002774   0.000000
    5       17.576318   0.000000
    6       24.501032   0.000000
    7       27.678899   0.000000
    8       30.460353   0.000000
 
 -0.4761905E+00  0.2380952E+00  0.5169879E-25  0.2591513E-02
    1        2.795108   1.000000
    2        5.949204   1.000000
    3       11.613279   0.000000
    4       15.208041   0.000000
    5       17.811563   0.000000
    6       26.067418   0.000000
    7       27.155160   0.000000
    8       30.180308   0.000000
 
 -0.4285714E+00  0.2380952E+00  0.6462349E-25  0.2591513E-02
    1        3.925351   1.000000
    2        4.662030   1.000000
    3       11.115550   0.000000
    4       15.525624   0.000000
    5       18.168510   0.000000
    6       26.725885   0.000000
    7       27.462068   0.000000
    8       30.016441   0.000000
 
 -0.3809524E+00  0.2380952E+00  0.2584939E-25  0.2591513E-02
    1        3.188384   1.000000
    2        5.471016   1.000000
    3       10.740385   0.000000
    4       15.953815   0.000000
    5       18.646383   0.000000
    6       26.399855   0.000000
    7       28.237143   0.000000
    8       30.264841   0.000000
 
 -0.3333333E+00  0.2380952E+00  0.3877409E-25  0.2591513E-02
    1        2.037911   1.000000
    2        6.916701   1.000000
    3       10.495140   0.000000
    4       16.489933   0.000000
    5       19.242080   0.000000
    6       26.182361   0.000000
    7       28.227136   0.000000
    8       29.397244   0.000000
 
 -0.2857143E+00  0.2380952E+00  0.2584939E-25  0.2591513E-02
    1        0.994543   1.000000
    2        8.451581   1.000000
    3       10.405634   0.000000
    4       17.129032   0.000000
    5       19.949935   0.000000
    6       26.073033   0.000000
    7       27.739150   0.000000
    8       27.854611   0.000000
 
 -0.2380952E+00  0.2380952E+00  0.1739789E-25  0.1295756E-02
    1        0.071736   1.000000
    2        9.809714   1.000000
    3       10.720127   0.000000
    4       17.861652   0.000000
    5       20.759964   0.000000
    6       25.958964   0.000000
    7       26.294311   0.000000
    8       27.247086   0.000000
 