 vasp.6.2.0 18Jan21 (build Aug 12 2022 13:00:08) complex                        
  
 executed on             LinuxIFC date 2024.11.05  06:24:55
 running on    4 total cores
 distrk:  each k-point on    4 cores,    1 groups
 distr:  one band on NCORE=   1 cores,    4 groups


--------------------------------------------------------------------------------------------------------


 INCAR:
   ISTART = 0            (Read existing wavefunction, if there)
   ISPIN = 1            (Non-Spin polarised DFT)
   LREAL = .FALSE.       (Projection operators: automatic)
   LWAVE = .TRUE.        (Write WAVECAR or not)
   LCHARG = .TRUE.        (Write CHGCAR or not)
   ADDGRID = .TRUE.        (Increase grid, helps GGA convergence)
   LASPH = .TRUE.        (Give more accurate total energies and band structure calculations)
   PREC = Accurate      (Accurate strictly avoids any aliasing or wrap around errors)
   ENCUT = 450          (Cut-off energy for plane wave basis set, in eV)
   LORBIT = 11
   ISMEAR = 0            (Gaussian smearing, metals:1)
   SIGMA = 0.05         (Smearing value in eV, metals:0.2)
   NELM = 90           (Max electronic SCF steps)
   NELMIN = 6            (Min electronic SCF steps)
   EDIFF = 1E-06        (SCF energy convergence, in eV)
   NSW = 00          (Max ionic steps)
   IBRION = -1            (Algorithm: 0-MD, 1-Quasi-New, 2-CG)
   ISIF = 3            (Stress/relaxation: 2-Ions, 3-Shape/Ions/V, 4-Shape/Ions)
   EDIFFG = -2E-03        (Ionic convergence, eV/AA)
   ISYM = 2              (Symmetry: 0\=none, 2\=GGA, 3\=hybrids)

 POTCAR:    PAW_PBE Si 05Jan2001                  
 POTCAR:    PAW_PBE Si 05Jan2001                  
   VRHFIN =Si: s2p2                                                                                 
   LEXCH  = PE                                                                                      
   EATOM  =   103.0669 eV,    7.5752 Ry                                                             
                                                                                                    
   TITEL  = PAW_PBE Si 05Jan2001                                                                    
   LULTRA =        F    use ultrasoft PP ?                                                          
   IUNSCR =        1    unscreen: 0-lin 1-nonlin 2-no                                               
   RPACOR =    1.500    partial core radius                                                         
   POMASS =   28.085; ZVAL   =    4.000    mass and valenz                                          
   RCORE  =    1.900    outmost cutoff radius                                                       
   RWIGS  =    2.480; RWIGS  =    1.312    wigner-seitz radius (au A)                               
   ENMAX  =  245.345; ENMIN  =  184.009 eV                                                          
   ICORE  =        2    local potential                                                             
   LCOR   =        T    correct aug charges                                                         
   LPAW   =        T    paw PP                                                                      
   EAUG   =  322.069                                                                                
   DEXC   =    0.000                                                                                
   RMAX   =    1.950    core radius for proj-oper                                                   
   RAUG   =    1.300    factor for augmentation sphere                                              
   RDEP   =    1.993    radius for radial grids                                                     
   RDEPT  =    1.837    core radius for aug-charge                                                  
                                                                                                    
   Atomic configuration                                                                             
    6 entries                                                                                       
     n  l   j            E        occ.                                                              
     1  0  0.50     -1785.8828   2.0000                                                             
     2  0  0.50      -139.4969   2.0000                                                             
     2  1  1.50       -95.5546   6.0000                                                             
     3  0  0.50       -10.8127   2.0000                                                             
     3  1  0.50        -4.0811   2.0000                                                             
     3  2  1.50        -4.0817   0.0000                                                             
   Description                                                                                      
     l       E           TYP  RCUT    TYP  RCUT                                                     
     0    -10.8127223     23  1.900                                                                 
     0     -7.6451159     23  1.900                                                                 
     1     -4.0811372     23  1.900                                                                 
     1      2.4879257     23  1.900                                                                 
     2     -4.0817478      7  1.900                                                                 
  local pseudopotential read in
  partial core-charges read in
  partial kinetic energy density read in
  atomic valenz-charges read in
  non local Contribution for L=           0  read in
    real space projection operators read in
  non local Contribution for L=           0  read in
    real space projection operators read in
  non local Contribution for L=           1  read in
    real space projection operators read in
  non local Contribution for L=           1  read in
    real space projection operators read in
    PAW grid and wavefunctions read in
 
   number of l-projection  operators is LMAX  =           4
   number of lm-projection operators is LMMAX =           8
 
  PAW_PBE Si 05Jan2001                  :
 energy of atom  1       EATOM= -103.0669
 kinetic energy error for atom=    0.0009 (will be added to EATOM!!)
 
 
 POSCAR: Si1
  positions in direct lattice
  velocities in cartesian coordinates
 exchange correlation table for  LEXCH =        8
   RHO(1)=    0.500       N(1)  =     2000
   RHO(2)=  100.500       N(2)  =     4000
 


--------------------------------------------------------------------------------------------------------


 ion  position               nearest neighbor table
   1  0.000  0.000  0.000-
 
  LATTYP: Found a face centered cubic cell.
 ALAT       =     3.8682249579
  
  Lattice vectors:
  
 A1 = (   2.3687949989,   0.0000000004,   1.3676232856)
 A2 = (   0.7895983333,   2.2333211106,   1.3676232856)
 A3 = (   0.0000000010,   0.0000000007,   2.7352485876)


Analysis of symmetry for initial positions (statically):
=====================================================================
 Subroutine PRICEL returns:
 Original cell was already a primitive cell.
 

 Routine SETGRP: Setting up the symmetry group for a 
 face centered cubic supercell.


 Subroutine GETGRP returns: Found 48 space group operations
 (whereof 48 operations were pure point group operations)
 out of a pool of 48 trial point group operations.


The static configuration has the point symmetry O_h .


Analysis of symmetry for dynamics (positions and initial velocities):
=====================================================================
 Subroutine PRICEL returns:
 Original cell was already a primitive cell.
 

 Routine SETGRP: Setting up the symmetry group for a 
 face centered cubic supercell.


 Subroutine GETGRP returns: Found 48 space group operations
 (whereof 48 operations were pure point group operations)
 out of a pool of 48 trial point group operations.


The dynamic configuration has the point symmetry O_h .


 Subroutine INISYM returns: Found 48 space group operations
 (whereof 48 operations are pure point group operations),
 and found     1 'primitive' translations


----------------------------------------------------------------------------------------

                                     Primitive cell                                     

  volume of cell :      14.4702

  direct lattice vectors                    reciprocal lattice vectors
     2.368794999  0.000000000  1.367623286     0.422155569 -0.149254548 -0.000000000
     0.789598333  2.233321111  1.367623286    -0.000000000  0.447763645 -0.000000000
     0.000000001  0.000000001  2.735248588    -0.211077629 -0.149254438  0.365597483

  length of vectors
     2.735248288  2.735248099  2.735248588     0.447763603  0.447763645  0.447763523

  position of ions in fractional coordinates (direct lattice)
     0.000000000  0.000000000  0.000000000

  ion indices of the primitive-cell ions
   primitive index   ion index
                 1           1

----------------------------------------------------------------------------------------

 
 
 KPOINTS: Automatic                               

Automatic generation of k-mesh.
 Grid dimensions read from file:
 generate k-points for:   21   21   21

 Generating k-lattice:

  Cartesian coordinates                     Fractional coordinates (reciprocal lattice)
     0.020102646 -0.007107359 -0.000000000     0.047619048  0.000000000  0.000000000
    -0.000000000  0.021322078 -0.000000000     0.000000000  0.047619048 -0.000000000
    -0.010051316 -0.007107354  0.017409404     0.000000000  0.000000000  0.047619048

  Length of vectors
     0.021322076  0.021322078  0.021322073

  Shift w.r.t. Gamma in fractional coordinates (k-lattice)
     0.000000000  0.000000000  0.000000000

 
 Subroutine IBZKPT returns following result:
 ===========================================
 
 Found    286 irreducible k-points:
 
 Following reciprocal coordinates:
            Coordinates               Weight
  0.000000  0.000000  0.000000      1.000000
  0.047619  0.000000 -0.000000      8.000000
  0.095238 -0.000000 -0.000000      8.000000
  0.142857 -0.000000 -0.000000      8.000000
  0.190476 -0.000000 -0.000000      8.000000
  0.238095  0.000000 -0.000000      8.000000
  0.285714 -0.000000 -0.000000      8.000000
  0.333333  0.000000 -0.000000      8.000000
  0.380952 -0.000000 -0.000000      8.000000
  0.428571 -0.000000 -0.000000      8.000000
  0.476190 -0.000000 -0.000000      8.000000
  0.047619  0.047619 -0.000000      6.000000
  0.095238  0.047619 -0.000000     24.000000
  0.142857  0.047619 -0.000000     24.000000
  0.190476  0.047619 -0.000000     24.000000
  0.238095  0.047619 -0.000000     24.000000
  0.285714  0.047619 -0.000000     24.000000
  0.333333  0.047619 -0.000000     24.000000
  0.380952  0.047619 -0.000000     24.000000
  0.428571  0.047619 -0.000000     24.000000
  0.476190  0.047619 -0.000000     24.000000
 -0.476190  0.047619  0.000000     24.000000
 -0.428571  0.047619  0.000000     24.000000
 -0.380952  0.047619  0.000000     24.000000
 -0.333333  0.047619  0.000000     24.000000
 -0.285714  0.047619  0.000000     24.000000
 -0.238095  0.047619  0.000000     24.000000
 -0.190476  0.047619  0.000000     24.000000
 -0.142857  0.047619  0.000000     24.000000
 -0.095238  0.047619  0.000000     24.000000
 -0.047619  0.047619  0.000000     12.000000
  0.095238  0.095238 -0.000000      6.000000
  0.142857  0.095238 -0.000000     24.000000
  0.190476  0.095238 -0.000000     24.000000
  0.238095  0.095238 -0.000000     24.000000
  0.285714  0.095238 -0.000000     24.000000
  0.333333  0.095238  0.000000     24.000000
  0.380952  0.095238 -0.000000     24.000000
  0.428571  0.095238 -0.000000     24.000000
  0.476190  0.095238 -0.000000     24.000000
 -0.476190  0.095238  0.000000     24.000000
 -0.428571  0.095238  0.000000     24.000000
 -0.380952  0.095238  0.000000     24.000000
 -0.333333  0.095238  0.000000     24.000000
 -0.285714  0.095238  0.000000     24.000000
 -0.238095  0.095238  0.000000     24.000000
 -0.190476  0.095238  0.000000     24.000000
 -0.142857  0.095238  0.000000     24.000000
 -0.095238  0.095238  0.000000     12.000000
  0.142857  0.142857 -0.000000      6.000000
  0.190476  0.142857 -0.000000     24.000000
  0.238095  0.142857 -0.000000     24.000000
  0.285714  0.142857  0.000000     24.000000
  0.333333  0.142857  0.000000     24.000000
  0.380952  0.142857 -0.000000     24.000000
  0.428571  0.142857 -0.000000     24.000000
  0.476190  0.142857 -0.000000     24.000000
 -0.476190  0.142857  0.000000     24.000000
 -0.428571  0.142857  0.000000     24.000000
 -0.380952  0.142857  0.000000     24.000000
 -0.333333  0.142857  0.000000     24.000000
 -0.285714  0.142857  0.000000     24.000000
 -0.238095  0.142857  0.000000     24.000000
 -0.190476  0.142857  0.000000     24.000000
 -0.142857  0.142857  0.000000     12.000000
  0.190476  0.190476 -0.000000      6.000000
  0.238095  0.190476  0.000000     24.000000
  0.285714  0.190476 -0.000000     24.000000
  0.333333  0.190476 -0.000000     24.000000
  0.380952  0.190476 -0.000000     24.000000
  0.428571  0.190476 -0.000000     24.000000
  0.476190  0.190476 -0.000000     24.000000
 -0.476190  0.190476  0.000000     24.000000
 -0.428571  0.190476  0.000000     24.000000
 -0.380952  0.190476  0.000000     24.000000
 -0.333333  0.190476  0.000000     24.000000
 -0.285714  0.190476  0.000000     24.000000
 -0.238095  0.190476  0.000000     24.000000
 -0.190476  0.190476  0.000000     12.000000
  0.238095  0.238095 -0.000000      6.000000
  0.285714  0.238095 -0.000000     24.000000
  0.333333  0.238095 -0.000000     24.000000
  0.380952  0.238095 -0.000000     24.000000
  0.428571  0.238095 -0.000000     24.000000
  0.476190  0.238095 -0.000000     24.000000
 -0.476190  0.238095  0.000000     24.000000
 -0.428571  0.238095  0.000000     24.000000
 -0.380952  0.238095  0.000000     24.000000
 -0.333333  0.238095  0.000000     24.000000
 -0.285714  0.238095  0.000000     24.000000
 -0.238095  0.238095  0.000000     12.000000
  0.285714  0.285714  0.000000      6.000000
  0.333333  0.285714 -0.000000     24.000000
  0.380952  0.285714 -0.000000     24.000000
  0.428571  0.285714 -0.000000     24.000000
  0.476190  0.285714 -0.000000     24.000000
 -0.476190  0.285714  0.000000     24.000000
 -0.428571  0.285714  0.000000     24.000000
 -0.380952  0.285714  0.000000     24.000000
 -0.333333  0.285714  0.000000     24.000000
 -0.285714  0.285714  0.000000     12.000000
  0.333333  0.333333 -0.000000      6.000000
  0.380952  0.333333 -0.000000     24.000000
  0.428571  0.333333 -0.000000     24.000000
  0.476190  0.333333 -0.000000     24.000000
 -0.476190  0.333333  0.000000     24.000000
 -0.428571  0.333333  0.000000     24.000000
 -0.380952  0.333333  0.000000     24.000000
 -0.333333  0.333333  0.000000     12.000000
  0.380952  0.380952 -0.000000      6.000000
  0.428571  0.380952 -0.000000     24.000000
  0.476190  0.380952 -0.000000     24.000000
 -0.476190  0.380952  0.000000     24.000000
 -0.428571  0.380952  0.000000     24.000000
 -0.380952  0.380952  0.000000     12.000000
  0.428571  0.428571 -0.000000      6.000000
  0.476190  0.428571 -0.000000     24.000000
 -0.476190  0.428571  0.000000     24.000000
 -0.428571  0.428571  0.000000     12.000000
  0.476190  0.476190 -0.000000      6.000000
 -0.476190  0.476190  0.000000     12.000000
  0.142857  0.095238  0.047619     24.000000
  0.190476  0.095238  0.047619     48.000000
  0.238095  0.095238  0.047619     48.000000
  0.285714  0.095238  0.047619     48.000000
  0.333333  0.095238  0.047619     48.000000
  0.380952  0.095238  0.047619     48.000000
  0.428571  0.095238  0.047619     48.000000
  0.476190  0.095238  0.047619     48.000000
 -0.476190  0.095238  0.047619     48.000000
  0.190476  0.142857  0.047619     24.000000
  0.238095  0.142857  0.047619     48.000000
  0.285714  0.142857  0.047619     48.000000
  0.333333  0.142857  0.047619     48.000000
  0.380952  0.142857  0.047619     48.000000
  0.428571  0.142857  0.047619     48.000000
  0.476190  0.142857  0.047619     48.000000
 -0.476190  0.142857  0.047619     48.000000
 -0.428571  0.142857  0.047619     48.000000
 -0.380952  0.142857  0.047619     48.000000
 -0.333333  0.142857  0.047619     48.000000
 -0.285714  0.142857  0.047619     48.000000
 -0.238095  0.142857  0.047619     48.000000
 -0.190476  0.142857  0.047619     48.000000
 -0.142857  0.142857  0.047619     48.000000
 -0.095238  0.142857  0.047619     24.000000
  0.238095  0.190476  0.047619     24.000000
  0.285714  0.190476  0.047619     48.000000
  0.333333  0.190476  0.047619     48.000000
  0.380952  0.190476  0.047619     48.000000
  0.428571  0.190476  0.047619     48.000000
  0.476190  0.190476  0.047619     48.000000
 -0.476190  0.190476  0.047619     48.000000
 -0.428571  0.190476  0.047619     48.000000
 -0.380952  0.190476  0.047619     48.000000
 -0.333333  0.190476  0.047619     48.000000
 -0.285714  0.190476  0.047619     48.000000
 -0.238095  0.190476  0.047619     48.000000
 -0.190476  0.190476  0.047619     48.000000
 -0.142857  0.190476  0.047619     24.000000
  0.285714  0.238095  0.047619     24.000000
  0.333333  0.238095  0.047619     48.000000
  0.380952  0.238095  0.047619     48.000000
  0.428571  0.238095  0.047619     48.000000
  0.476190  0.238095  0.047619     48.000000
 -0.476190  0.238095  0.047619     48.000000
 -0.428571  0.238095  0.047619     48.000000
 -0.380952  0.238095  0.047619     48.000000
 -0.333333  0.238095  0.047619     48.000000
 -0.285714  0.238095  0.047619     48.000000
 -0.238095  0.238095  0.047619     48.000000
 -0.190476  0.238095  0.047619     24.000000
  0.333333  0.285714  0.047619     24.000000
  0.380952  0.285714  0.047619     48.000000
  0.428571  0.285714  0.047619     48.000000
  0.476190  0.285714  0.047619     48.000000
 -0.476190  0.285714  0.047619     48.000000
 -0.428571  0.285714  0.047619     48.000000
 -0.380952  0.285714  0.047619     48.000000
 -0.333333  0.285714  0.047619     48.000000
 -0.285714  0.285714  0.047619     48.000000
 -0.238095  0.285714  0.047619     24.000000
  0.380952  0.333333  0.047619     24.000000
  0.428571  0.333333  0.047619     48.000000
  0.476190  0.333333  0.047619     48.000000
 -0.476190  0.333333  0.047619     48.000000
 -0.428571  0.333333  0.047619     48.000000
 -0.380952  0.333333  0.047619     48.000000
 -0.333333  0.333333  0.047619     48.000000
 -0.285714  0.333333  0.047619     24.000000
  0.428571  0.380952  0.047619     24.000000
  0.476190  0.380952  0.047619     48.000000
 -0.476190  0.380952  0.047619     48.000000
 -0.428571  0.380952  0.047619     48.000000
 -0.380952  0.380952  0.047619     48.000000
 -0.333333  0.380952  0.047619     24.000000
  0.476190  0.428571  0.047619     24.000000
 -0.476190  0.428571  0.047619     48.000000
 -0.428571  0.428571  0.047619     48.000000
 -0.380952  0.428571  0.047619     24.000000
 -0.476190  0.476190  0.047619     24.000000
 -0.428571  0.476190  0.047619     24.000000
  0.285714  0.190476  0.095238     24.000000
  0.333333  0.190476  0.095238     48.000000
  0.380952  0.190476  0.095238     48.000000
  0.428571  0.190476  0.095238     48.000000
  0.476190  0.190476  0.095238     48.000000
 -0.476190  0.190476  0.095238     48.000000
 -0.428571  0.190476  0.095238     48.000000
  0.333333  0.238095  0.095238     24.000000
  0.380952  0.238095  0.095238     48.000000
  0.428571  0.238095  0.095238     48.000000
  0.476190  0.238095  0.095238     48.000000
 -0.476190  0.238095  0.095238     48.000000
 -0.428571  0.238095  0.095238     48.000000
 -0.380952  0.238095  0.095238     48.000000
 -0.333333  0.238095  0.095238     48.000000
 -0.285714  0.238095  0.095238     48.000000
 -0.238095  0.238095  0.095238     48.000000
 -0.190476  0.238095  0.095238     48.000000
 -0.142857  0.238095  0.095238     24.000000
  0.380952  0.285714  0.095238     24.000000
  0.428571  0.285714  0.095238     48.000000
  0.476190  0.285714  0.095238     48.000000
 -0.476190  0.285714  0.095238     48.000000
 -0.428571  0.285714  0.095238     48.000000
 -0.380952  0.285714  0.095238     48.000000
 -0.333333  0.285714  0.095238     48.000000
 -0.285714  0.285714  0.095238     48.000000
 -0.238095  0.285714  0.095238     48.000000
 -0.190476  0.285714  0.095238     24.000000
  0.428571  0.333333  0.095238     24.000000
  0.476190  0.333333  0.095238     48.000000
 -0.476190  0.333333  0.095238     48.000000
 -0.428571  0.333333  0.095238     48.000000
 -0.380952  0.333333  0.095238     48.000000
 -0.333333  0.333333  0.095238     48.000000
 -0.285714  0.333333  0.095238     48.000000
 -0.238095  0.333333  0.095238     24.000000
  0.476190  0.380952  0.095238     24.000000
 -0.476190  0.380952  0.095238     48.000000
 -0.428571  0.380952  0.095238     48.000000
 -0.380952  0.380952  0.095238     48.000000
 -0.333333  0.380952  0.095238     48.000000
 -0.285714  0.380952  0.095238     24.000000
 -0.476190  0.428571  0.095238     24.000000
 -0.428571  0.428571  0.095238     48.000000
 -0.380952  0.428571  0.095238     48.000000
 -0.333333  0.428571  0.095238     24.000000
 -0.428571  0.476190  0.095238     24.000000
 -0.380952  0.476190  0.095238     24.000000
  0.428571  0.285714  0.142857     24.000000
  0.476190  0.285714  0.142857     48.000000
 -0.476190  0.285714  0.142857     48.000000
 -0.428571  0.285714  0.142857     48.000000
 -0.380952  0.285714  0.142857     48.000000
  0.476190  0.333333  0.142857     24.000000
 -0.476190  0.333333  0.142857     48.000000
 -0.428571  0.333333  0.142857     48.000000
 -0.380952  0.333333  0.142857     48.000000
 -0.333333  0.333333  0.142857     48.000000
 -0.285714  0.333333  0.142857     48.000000
 -0.238095  0.333333  0.142857     48.000000
 -0.190476  0.333333  0.142857     24.000000
 -0.476190  0.380952  0.142857     24.000000
 -0.428571  0.380952  0.142857     48.000000
 -0.380952  0.380952  0.142857     48.000000
 -0.333333  0.380952  0.142857     48.000000
 -0.285714  0.380952  0.142857     48.000000
 -0.238095  0.380952  0.142857     24.000000
 -0.428571  0.428571  0.142857     24.000000
 -0.380952  0.428571  0.142857     48.000000
 -0.333333  0.428571  0.142857     48.000000
 -0.285714  0.428571  0.142857     24.000000
 -0.380952  0.476190  0.142857     24.000000
 -0.333333  0.476190  0.142857     24.000000
 -0.428571  0.380952  0.190476     24.000000
 -0.380952  0.380952  0.190476     48.000000
 -0.333333  0.380952  0.190476     48.000000
 -0.380952  0.428571  0.190476     24.000000
 -0.333333  0.428571  0.190476     48.000000
 -0.285714  0.428571  0.190476     48.000000
 -0.238095  0.428571  0.190476     24.000000
 -0.333333  0.476190  0.190476     24.000000
 -0.285714  0.476190  0.190476     24.000000
 -0.285714  0.476190  0.238095     24.000000
 
 Following cartesian coordinates:
            Coordinates               Weight
  0.000000  0.000000  0.000000      1.000000
  0.020304 -0.007178 -0.000000      8.000000
  0.040607 -0.014357 -0.000000      8.000000
  0.060911 -0.021535 -0.000000      8.000000
  0.081215 -0.028714 -0.000000      8.000000
  0.101518 -0.035892 -0.000000      8.000000
  0.121822 -0.043071 -0.000000      8.000000
  0.142126 -0.050249 -0.000000      8.000000
  0.162429 -0.057427 -0.000000      8.000000
  0.182733 -0.064606 -0.000000      8.000000
  0.203037 -0.071784 -0.000000      8.000000
  0.020304  0.014357 -0.000000      6.000000
  0.040607  0.007178 -0.000000     24.000000
  0.060911  0.000000 -0.000000     24.000000
  0.081215 -0.007178 -0.000000     24.000000
  0.101518 -0.014357 -0.000000     24.000000
  0.121822 -0.021535 -0.000000     24.000000
  0.142126 -0.028714 -0.000000     24.000000
  0.162429 -0.035892 -0.000000     24.000000
  0.182733 -0.043071 -0.000000     24.000000
  0.203037 -0.050249 -0.000000     24.000000
 -0.203037  0.093320  0.000000     24.000000
 -0.182733  0.086141  0.000000     24.000000
 -0.162429  0.078963  0.000000     24.000000
 -0.142126  0.071784  0.000000     24.000000
 -0.121822  0.064606  0.000000     24.000000
 -0.101518  0.057427  0.000000     24.000000
 -0.081215  0.050249  0.000000     24.000000
 -0.060911  0.043071  0.000000     24.000000
 -0.040607  0.035892  0.000000     24.000000
 -0.020304  0.028714  0.000000     12.000000
  0.040607  0.028714 -0.000000      6.000000
  0.060911  0.021535 -0.000000     24.000000
  0.081215  0.014357 -0.000000     24.000000
  0.101518  0.007178 -0.000000     24.000000
  0.121822  0.000000 -0.000000     24.000000
  0.142126 -0.007178 -0.000000     24.000000
  0.162429 -0.014357 -0.000000     24.000000
  0.182733 -0.021535 -0.000000     24.000000
  0.203037 -0.028714 -0.000000     24.000000
 -0.203037  0.114855  0.000000     24.000000
 -0.182733  0.107676  0.000000     24.000000
 -0.162429  0.100498  0.000000     24.000000
 -0.142126  0.093320  0.000000     24.000000
 -0.121822  0.086141  0.000000     24.000000
 -0.101518  0.078963  0.000000     24.000000
 -0.081215  0.071784  0.000000     24.000000
 -0.060911  0.064606  0.000000     24.000000
 -0.040607  0.057427  0.000000     12.000000
  0.060911  0.043071 -0.000000      6.000000
  0.081215  0.035892 -0.000000     24.000000
  0.101518  0.028714 -0.000000     24.000000
  0.121822  0.021535 -0.000000     24.000000
  0.142126  0.014357 -0.000000     24.000000
  0.162429  0.007178 -0.000000     24.000000
  0.182733  0.000000 -0.000000     24.000000
  0.203037 -0.007178 -0.000000     24.000000
 -0.203037  0.136390  0.000000     24.000000
 -0.182733  0.129212  0.000000     24.000000
 -0.162429  0.122033  0.000000     24.000000
 -0.142126  0.114855  0.000000     24.000000
 -0.121822  0.107676  0.000000     24.000000
 -0.101518  0.100498  0.000000     24.000000
 -0.081215  0.093320  0.000000     24.000000
 -0.060911  0.086141  0.000000     12.000000
  0.081215  0.057427 -0.000000      6.000000
  0.101518  0.050249 -0.000000     24.000000
  0.121822  0.043071 -0.000000     24.000000
  0.142126  0.035892 -0.000000     24.000000
  0.162429  0.028714 -0.000000     24.000000
  0.182733  0.021535 -0.000000     24.000000
  0.203037  0.014357 -0.000000     24.000000
 -0.203037  0.157926  0.000000     24.000000
 -0.182733  0.150747  0.000000     24.000000
 -0.162429  0.143569  0.000000     24.000000
 -0.142126  0.136390  0.000000     24.000000
 -0.121822  0.129212  0.000000     24.000000
 -0.101518  0.122033  0.000000     24.000000
 -0.081215  0.114855  0.000000     12.000000
  0.101518  0.071784 -0.000000      6.000000
  0.121822  0.064606 -0.000000     24.000000
  0.142126  0.057427 -0.000000     24.000000
  0.162429  0.050249 -0.000000     24.000000
  0.182733  0.043071 -0.000000     24.000000
  0.203037  0.035892 -0.000000     24.000000
 -0.203037  0.179461  0.000000     24.000000
 -0.182733  0.172282  0.000000     24.000000
 -0.162429  0.165104  0.000000     24.000000
 -0.142126  0.157926  0.000000     24.000000
 -0.121822  0.150747  0.000000     24.000000
 -0.101518  0.143569  0.000000     12.000000
  0.121822  0.086141 -0.000000      6.000000
  0.142126  0.078963 -0.000000     24.000000
  0.162429  0.071784 -0.000000     24.000000
  0.182733  0.064606 -0.000000     24.000000
  0.203037  0.057427 -0.000000     24.000000
 -0.203037  0.200996  0.000000     24.000000
 -0.182733  0.193818  0.000000     24.000000
 -0.162429  0.186639  0.000000     24.000000
 -0.142126  0.179461  0.000000     24.000000
 -0.121822  0.172282  0.000000     12.000000
  0.142126  0.100498 -0.000000      6.000000
  0.162429  0.093320 -0.000000     24.000000
  0.182733  0.086141 -0.000000     24.000000
  0.203037  0.078963 -0.000000     24.000000
 -0.203037  0.222531  0.000000     24.000000
 -0.182733  0.215353  0.000000     24.000000
 -0.162429  0.208175  0.000000     24.000000
 -0.142126  0.200996  0.000000     12.000000
  0.162429  0.114855 -0.000000      6.000000
  0.182733  0.107676 -0.000000     24.000000
  0.203037  0.100498 -0.000000     24.000000
 -0.203037  0.244067  0.000000     24.000000
 -0.182733  0.236888  0.000000     24.000000
 -0.162429  0.229710  0.000000     12.000000
  0.182733  0.129212 -0.000000      6.000000
  0.203037  0.122033 -0.000000     24.000000
 -0.203037  0.265602  0.000000     24.000000
 -0.182733  0.258424  0.000000     12.000000
  0.203037  0.143569 -0.000000      6.000000
 -0.203037  0.287137  0.000000     12.000000
  0.050759  0.014357  0.017583     24.000000
  0.071063  0.007178  0.017583     48.000000
  0.091367  0.000000  0.017583     48.000000
  0.111670 -0.007178  0.017583     48.000000
  0.131974 -0.014357  0.017583     48.000000
  0.152278 -0.021535  0.017583     48.000000
  0.172581 -0.028714  0.017583     48.000000
  0.192885 -0.035892  0.017583     48.000000
 -0.213189  0.107677  0.017583     48.000000
  0.071063  0.028714  0.017583     24.000000
  0.091367  0.021535  0.017583     48.000000
  0.111670  0.014357  0.017583     48.000000
  0.131974  0.007178  0.017583     48.000000
  0.152278  0.000000  0.017583     48.000000
  0.172581 -0.007178  0.017583     48.000000
  0.192885 -0.014357  0.017583     48.000000
 -0.213189  0.129212  0.017583     48.000000
 -0.192885  0.122033  0.017583     48.000000
 -0.172581  0.114855  0.017583     48.000000
 -0.152278  0.107677  0.017583     48.000000
 -0.131974  0.100498  0.017583     48.000000
 -0.111670  0.093320  0.017583     48.000000
 -0.091367  0.086141  0.017583     48.000000
 -0.071063  0.078963  0.017583     48.000000
 -0.050759  0.071784  0.017583     24.000000
  0.091367  0.043071  0.017583     24.000000
  0.111670  0.035892  0.017583     48.000000
  0.131974  0.028714  0.017583     48.000000
  0.152278  0.021535  0.017583     48.000000
  0.172581  0.014357  0.017583     48.000000
  0.192885  0.007178  0.017583     48.000000
 -0.213189  0.150747  0.017583     48.000000
 -0.192885  0.143569  0.017583     48.000000
 -0.172581  0.136390  0.017583     48.000000
 -0.152278  0.129212  0.017583     48.000000
 -0.131974  0.122033  0.017583     48.000000
 -0.111670  0.114855  0.017583     48.000000
 -0.091367  0.107677  0.017583     48.000000
 -0.071063  0.100498  0.017583     24.000000
  0.111670  0.057427  0.017583     24.000000
  0.131974  0.050249  0.017583     48.000000
  0.152278  0.043071  0.017583     48.000000
  0.172581  0.035892  0.017583     48.000000
  0.192885  0.028714  0.017583     48.000000
 -0.213189  0.172282  0.017583     48.000000
 -0.192885  0.165104  0.017583     48.000000
 -0.172581  0.157926  0.017583     48.000000
 -0.152278  0.150747  0.017583     48.000000
 -0.131974  0.143569  0.017583     48.000000
 -0.111670  0.136390  0.017583     48.000000
 -0.091367  0.129212  0.017583     24.000000
  0.131974  0.071784  0.017583     24.000000
  0.152278  0.064606  0.017583     48.000000
  0.172581  0.057427  0.017583     48.000000
  0.192885  0.050249  0.017583     48.000000
 -0.213189  0.193818  0.017583     48.000000
 -0.192885  0.186639  0.017583     48.000000
 -0.172581  0.179461  0.017583     48.000000
 -0.152278  0.172282  0.017583     48.000000
 -0.131974  0.165104  0.017583     48.000000
 -0.111670  0.157926  0.017583     24.000000
  0.152278  0.086141  0.017583     24.000000
  0.172581  0.078963  0.017583     48.000000
  0.192885  0.071784  0.017583     48.000000
 -0.213189  0.215353  0.017583     48.000000
 -0.192885  0.208175  0.017583     48.000000
 -0.172581  0.200996  0.017583     48.000000
 -0.152278  0.193818  0.017583     48.000000
 -0.131974  0.186639  0.017583     24.000000
  0.172581  0.100498  0.017583     24.000000
  0.192885  0.093320  0.017583     48.000000
 -0.213189  0.236888  0.017583     48.000000
 -0.192885  0.229710  0.017583     48.000000
 -0.172581  0.222531  0.017583     48.000000
 -0.152278  0.215353  0.017583     24.000000
  0.192885  0.114855  0.017583     24.000000
 -0.213189  0.258424  0.017583     48.000000
 -0.192885  0.251245  0.017583     48.000000
 -0.172581  0.244067  0.017583     24.000000
 -0.213189  0.279959  0.017583     24.000000
 -0.192885  0.272780  0.017583     24.000000
  0.101518  0.028714  0.035167     24.000000
  0.121822  0.021535  0.035167     48.000000
  0.142126  0.014357  0.035167     48.000000
  0.162429  0.007178  0.035167     48.000000
  0.182733  0.000000  0.035167     48.000000
 -0.223340  0.143569  0.035167     48.000000
 -0.203037  0.136390  0.035167     48.000000
  0.121822  0.043071  0.035167     24.000000
  0.142126  0.035892  0.035167     48.000000
  0.162429  0.028714  0.035167     48.000000
  0.182733  0.021535  0.035167     48.000000
 -0.223340  0.165104  0.035167     48.000000
 -0.203037  0.157926  0.035167     48.000000
 -0.182733  0.150747  0.035167     48.000000
 -0.162429  0.143569  0.035167     48.000000
 -0.142126  0.136390  0.035167     48.000000
 -0.121822  0.129212  0.035167     48.000000
 -0.101518  0.122033  0.035167     48.000000
 -0.081215  0.114855  0.035167     24.000000
  0.142126  0.057427  0.035167     24.000000
  0.162429  0.050249  0.035167     48.000000
  0.182733  0.043071  0.035167     48.000000
 -0.223340  0.186639  0.035167     48.000000
 -0.203037  0.179461  0.035167     48.000000
 -0.182733  0.172282  0.035167     48.000000
 -0.162429  0.165104  0.035167     48.000000
 -0.142126  0.157926  0.035167     48.000000
 -0.121822  0.150747  0.035167     48.000000
 -0.101518  0.143569  0.035167     24.000000
  0.162429  0.071784  0.035167     24.000000
  0.182733  0.064606  0.035167     48.000000
 -0.223340  0.208175  0.035167     48.000000
 -0.203037  0.200996  0.035167     48.000000
 -0.182733  0.193818  0.035167     48.000000
 -0.162429  0.186639  0.035167     48.000000
 -0.142126  0.179461  0.035167     48.000000
 -0.121822  0.172282  0.035167     24.000000
  0.182733  0.086141  0.035167     24.000000
 -0.223340  0.229710  0.035167     48.000000
 -0.203037  0.222531  0.035167     48.000000
 -0.182733  0.215353  0.035167     48.000000
 -0.162429  0.208175  0.035167     48.000000
 -0.142126  0.200996  0.035167     24.000000
 -0.223340  0.251245  0.035167     24.000000
 -0.203037  0.244067  0.035167     48.000000
 -0.182733  0.236888  0.035167     48.000000
 -0.162429  0.229710  0.035167     24.000000
 -0.203037  0.265602  0.035167     24.000000
 -0.182733  0.258424  0.035167     24.000000
  0.152278  0.043071  0.052750     24.000000
  0.172581  0.035892  0.052750     48.000000
 -0.233492  0.179461  0.052750     48.000000
 -0.213189  0.172282  0.052750     48.000000
 -0.192885  0.165104  0.052750     48.000000
  0.172581  0.057427  0.052750     24.000000
 -0.233492  0.200996  0.052750     48.000000
 -0.213189  0.193818  0.052750     48.000000
 -0.192885  0.186639  0.052750     48.000000
 -0.172581  0.179461  0.052750     48.000000
 -0.152278  0.172282  0.052750     48.000000
 -0.131974  0.165104  0.052750     48.000000
 -0.111670  0.157926  0.052750     24.000000
 -0.233492  0.222531  0.052750     24.000000
 -0.213189  0.215353  0.052750     48.000000
 -0.192885  0.208175  0.052750     48.000000
 -0.172581  0.200996  0.052750     48.000000
 -0.152278  0.193818  0.052750     48.000000
 -0.131974  0.186639  0.052750     24.000000
 -0.213189  0.236888  0.052750     24.000000
 -0.192885  0.229710  0.052750     48.000000
 -0.172581  0.222531  0.052750     48.000000
 -0.152278  0.215353  0.052750     24.000000
 -0.192885  0.251245  0.052750     24.000000
 -0.172581  0.244067  0.052750     24.000000
 -0.223340  0.208175  0.070334     24.000000
 -0.203037  0.200996  0.070334     48.000000
 -0.182733  0.193818  0.070334     48.000000
 -0.203037  0.222531  0.070334     24.000000
 -0.182733  0.215353  0.070334     48.000000
 -0.162429  0.208175  0.070334     48.000000
 -0.142126  0.200996  0.070334     24.000000
 -0.182733  0.236888  0.070334     24.000000
 -0.162429  0.229710  0.070334     24.000000
 -0.172581  0.222531  0.087917     24.000000
 


--------------------------------------------------------------------------------------------------------




 Dimension of arrays:
   k-points           NKPTS =    286   k-points in BZ     NKDIM =    286   number of bands    NBANDS=      8
   number of dos      NEDOS =    301   number of ions     NIONS =      1
   non local maximal  LDIM  =      4   non local SUM 2l+1 LMDIM =      8
   total plane-waves  NPLWV =   8000
   max r-space proj   IRMAX =      1   max aug-charges    IRDMAX= 148061
   dimension x,y,z NGX =    20 NGY =   20 NGZ =   20
   dimension x,y,z NGXF=    40 NGYF=   40 NGZF=   40
   support grid    NGXF=    80 NGYF=   80 NGZF=   80
   ions per type =               1
   NGX,Y,Z   is equivalent  to a cutoff of  12.16, 12.16, 12.16 a.u.
   NGXF,Y,Z  is equivalent  to a cutoff of  24.31, 24.31, 24.31 a.u.

 SYSTEM =  unknown system                          
 POSCAR =  Si1                                     

 Startparameter for this run:
   NWRITE =      2    write-flag & timer
   PREC   = accura    normal or accurate (medium, high low for compatibility)
   ISTART =      0    job   : 0-new  1-cont  2-samecut
   ICHARG =      2    charge: 1-file 2-atom 10-const
   ISPIN  =      1    spin polarized calculation?
   LNONCOLLINEAR =      F non collinear calculations
   LSORBIT =      F    spin-orbit coupling
   INIWAV =      1    electr: 0-lowe 1-rand  2-diag
   LASPH  =      T    aspherical Exc in radial PAW
   METAGGA=      F    non-selfconsistent MetaGGA calc.

 Electronic Relaxation 1
   ENCUT  =  450.0 eV  33.07 Ry    5.75 a.u.   4.73  4.73  4.73*2*pi/ulx,y,z
   ENINI  =  450.0     initial cutoff
   ENAUG  =  322.1 eV  augmentation charge cutoff
   NELM   =     90;   NELMIN=  6; NELMDL= -5     # of ELM steps 
   EDIFF  = 0.1E-05   stopping-criterion for ELM
   LREAL  =      F    real-space projection
   NLSPLINE    = F    spline interpolate recip. space projectors
   LCOMPAT=      F    compatible to vasp.4.4
   GGA_COMPAT  = T    GGA compatible to vasp.4.4-vasp.4.6
   LMAXPAW     = -100 max onsite density
   LMAXMIX     =    2 max onsite mixed and CHGCAR
   VOSKOWN=      0    Vosko Wilk Nusair interpolation
   ROPT   =    0.00000
 Ionic relaxation
   EDIFFG = -.2E-02   stopping-criterion for IOM
   NSW    =      0    number of steps for IOM
   NBLOCK =      1;   KBLOCK =      1    inner block; outer block 
   IBRION =     -1    ionic relax: 0-MD 1-quasi-New 2-CG
   NFREE  =      0    steps in history (QN), initial steepest desc. (CG)
   ISIF   =      3    stress and relaxation
   IWAVPR =     10    prediction:  0-non 1-charg 2-wave 3-comb
   ISYM   =      2    0-nonsym 1-usesym 2-fastsym
   LCORR  =      T    Harris-Foulkes like correction to forces

   POTIM  = 0.5000    time-step for ionic-motion
   TEIN   =    0.0    initial temperature
   TEBEG  =    0.0;   TEEND  =   0.0 temperature during run
   SMASS  =  -3.00    Nose mass-parameter (am)
   estimated Nose-frequenzy (Omega)   =  0.10E-29 period in steps = 0.13E+47 mass=  -0.171E-27a.u.
   SCALEE = 1.0000    scale energy and forces
   NPACO  =    256;   APACO  = 16.0  distance and # of slots for P.C.
   PSTRESS=    0.0 pullay stress

  Mass of Ions in am
   POMASS =  28.09
  Ionic Valenz
   ZVAL   =   4.00
  Atomic Wigner-Seitz radii
   RWIGS  =  -1.00
  virtual crystal weights 
   VCA    =   1.00
   NELECT =       4.0000    total number of electrons
   NUPDOWN=      -1.0000    fix difference up-down

 DOS related values:
   EMIN   =  10.00;   EMAX   =-10.00  energy-range for DOS
   EFERMI =   0.00
   ISMEAR =     0;   SIGMA  =   0.05  broadening in eV -4-tet -1-fermi 0-gaus

 Electronic relaxation 2 (details)
   IALGO  =     38    algorithm
   LDIAG  =      T    sub-space diagonalisation (order eigenvalues)
   LSUBROT=      F    optimize rotation matrix (better conditioning)
   TURBO    =      0    0=normal 1=particle mesh
   IRESTART =      0    0=no restart 2=restart with 2 vectors
   NREBOOT  =      0    no. of reboots
   NMIN     =      0    reboot dimension
   EREF     =   0.00    reference energy to select bands
   IMIX   =      4    mixing-type and parameters
     AMIX     =   0.40;   BMIX     =  1.00
     AMIX_MAG =   1.60;   BMIX_MAG =  1.00
     AMIN     =   0.10
     WC   =   100.;   INIMIX=   1;  MIXPRE=   1;  MAXMIX= -45

 Intra band minimization:
   WEIMIN = 0.0000     energy-eigenvalue tresh-hold
   EBREAK =  0.31E-07  absolut break condition
   DEPER  =   0.30     relativ break condition  

   TIME   =   0.40     timestep for ELM

  volume/ion in A,a.u.               =      14.47        97.65
  Fermi-wavevector in a.u.,A,eV,Ry     =   1.066440  2.015279 15.473822  1.137294
  Thomas-Fermi vector in A             =   2.202024
 
 Write flags
   LWAVE        =      T    write WAVECAR
   LDOWNSAMPLE  =      F    k-point downsampling of WAVECAR
   LCHARG       =      T    write CHGCAR
   LVTOT        =      F    write LOCPOT, total local potential
   LVHAR        =      F    write LOCPOT, Hartree potential only
   LELF         =      F    write electronic localiz. function (ELF)
   LORBIT       =     11    0 simple, 1 ext, 2 COOP (PROOUT), +10 PAW based schemes


 Dipole corrections
   LMONO  =      F    monopole corrections only (constant potential shift)
   LDIPOL =      F    correct potential (dipole corrections)
   IDIPOL =      0    1-x, 2-y, 3-z, 4-all directions 
   EPSILON=  1.0000000 bulk dielectric constant

 Exchange correlation treatment:
   GGA     =    --    GGA type
   LEXCH   =     8    internal setting for exchange type
   VOSKOWN=      0    Vosko Wilk Nusair interpolation
   LHFCALC =     F    Hartree Fock is set to
   LHFONE  =     F    Hartree Fock one center treatment
   AEXX    =    0.0000 exact exchange contribution

 Linear response parameters
   LEPSILON=     F    determine dielectric tensor
   LRPA    =     F    only Hartree local field effects (RPA)
   LNABLA  =     F    use nabla operator in PAW spheres
   LVEL    =     F    velocity operator in full k-point grid
   LINTERFAST=   F  fast interpolation
   KINTER  =     0    interpolate to denser k-point grid
   CSHIFT  =0.1000    complex shift for real part using Kramers Kronig
   OMEGAMAX=  -1.0    maximum frequency
   DEG_THRESHOLD= 0.2000000E-02 threshold for treating states as degnerate
   RTIME   =   -0.100 relaxation time in fs
  (WPLASMAI=    0.000 imaginary part of plasma frequency in eV, 0.658/RTIME)
   DFIELD  = 0.0000000 0.0000000 0.0000000 field for delta impulse in time
 
 Orbital magnetization related:
   ORBITALMAG=     F  switch on orbital magnetization
   LCHIMAG   =     F  perturbation theory with respect to B field
   DQ        =  0.001000  dq finite difference perturbation B field
   LLRAUG    =     F  two centre corrections for induced B field



--------------------------------------------------------------------------------------------------------


 Static calculation
 charge density and potential will be updated during run
 non-spin polarized calculation
 Variant of blocked Davidson
 Davidson routine will perform the subspace rotation
 perform sub-space diagonalisation
    after iterative eigenvector-optimisation
 modified Broyden-mixing scheme, WC =      100.0
 initial mixing is a Kerker type mixing with AMIX =  0.4000 and BMIX =      1.0000
 Hartree-type preconditioning will be used
 using additional bands            6
 reciprocal scheme for non local part
 use partial core corrections
 calculate Harris-corrections to forces 
   (improved forces if not selfconsistent)
 use gradient corrections 
 use of overlap-Matrix (Vanderbilt PP)
 Gauss-broadening in eV      SIGMA  =   0.05


--------------------------------------------------------------------------------------------------------


  energy-cutoff  :      450.00
  volume of cell :       14.47
      direct lattice vectors                 reciprocal lattice vectors
     2.368794999  0.000000000  1.367623286     0.422155569 -0.149254548 -0.000000000
     0.789598333  2.233321111  1.367623286    -0.000000000  0.447763645 -0.000000000
     0.000000001  0.000000001  2.735248588    -0.211077629 -0.149254438  0.365597483

  length of vectors
     2.735248288  2.735248099  2.735248588     0.447763603  0.447763645  0.447763523


 
 k-points in units of 2pi/SCALE and weight: Automatic                               
   0.00000000  0.00000000  0.00000000       0.000
   0.02030367 -0.00717843 -0.00000000       0.001
   0.04060735 -0.01435687 -0.00000000       0.001
   0.06091102 -0.02153530 -0.00000000       0.001
   0.08121469 -0.02871373 -0.00000000       0.001
   0.10151836 -0.03589217 -0.00000000       0.001
   0.12182204 -0.04307060 -0.00000000       0.001
   0.14212571 -0.05024903 -0.00000000       0.001
   0.16242938 -0.05742746 -0.00000000       0.001
   0.18273305 -0.06460590 -0.00000000       0.001
   0.20303673 -0.07178433 -0.00000000       0.001
   0.02030367  0.01435687 -0.00000000       0.001
   0.04060735  0.00717843 -0.00000000       0.003
   0.06091102  0.00000000 -0.00000000       0.003
   0.08121469 -0.00717843 -0.00000000       0.003
   0.10151836 -0.01435687 -0.00000000       0.003
   0.12182204 -0.02153530 -0.00000000       0.003
   0.14212571 -0.02871373 -0.00000000       0.003
   0.16242938 -0.03589217 -0.00000000       0.003
   0.18273305 -0.04307060 -0.00000000       0.003
   0.20303673 -0.05024903 -0.00000000       0.003
  -0.20303673  0.09331963  0.00000000       0.003
  -0.18273305  0.08614120  0.00000000       0.003
  -0.16242938  0.07896276  0.00000000       0.003
  -0.14212571  0.07178433  0.00000000       0.003
  -0.12182204  0.06460590  0.00000000       0.003
  -0.10151836  0.05742746  0.00000000       0.003
  -0.08121469  0.05024903  0.00000000       0.003
  -0.06091102  0.04307060  0.00000000       0.003
  -0.04060735  0.03589217  0.00000000       0.003
  -0.02030367  0.02871373  0.00000000       0.001
   0.04060735  0.02871373 -0.00000000       0.001
   0.06091102  0.02153530 -0.00000000       0.003
   0.08121469  0.01435687 -0.00000000       0.003
   0.10151836  0.00717843 -0.00000000       0.003
   0.12182204  0.00000000 -0.00000000       0.003
   0.14212571 -0.00717843 -0.00000000       0.003
   0.16242938 -0.01435687 -0.00000000       0.003
   0.18273305 -0.02153530 -0.00000000       0.003
   0.20303673 -0.02871373 -0.00000000       0.003
  -0.20303673  0.11485493  0.00000000       0.003
  -0.18273305  0.10767650  0.00000000       0.003
  -0.16242938  0.10049806  0.00000000       0.003
  -0.14212571  0.09331963  0.00000000       0.003
  -0.12182204  0.08614120  0.00000000       0.003
  -0.10151836  0.07896276  0.00000000       0.003
  -0.08121469  0.07178433  0.00000000       0.003
  -0.06091102  0.06460590  0.00000000       0.003
  -0.04060735  0.05742746  0.00000000       0.001
   0.06091102  0.04307060 -0.00000000       0.001
   0.08121469  0.03589217 -0.00000000       0.003
   0.10151836  0.02871373 -0.00000000       0.003
   0.12182204  0.02153530 -0.00000000       0.003
   0.14212571  0.01435687 -0.00000000       0.003
   0.16242938  0.00717843 -0.00000000       0.003
   0.18273305  0.00000000 -0.00000000       0.003
   0.20303673 -0.00717843 -0.00000000       0.003
  -0.20303673  0.13639023  0.00000000       0.003
  -0.18273305  0.12921179  0.00000000       0.003
  -0.16242938  0.12203336  0.00000000       0.003
  -0.14212571  0.11485493  0.00000000       0.003
  -0.12182204  0.10767650  0.00000000       0.003
  -0.10151836  0.10049806  0.00000000       0.003
  -0.08121469  0.09331963  0.00000000       0.003
  -0.06091102  0.08614120  0.00000000       0.001
   0.08121469  0.05742746 -0.00000000       0.001
   0.10151836  0.05024903 -0.00000000       0.003
   0.12182204  0.04307060 -0.00000000       0.003
   0.14212571  0.03589217 -0.00000000       0.003
   0.16242938  0.02871373 -0.00000000       0.003
   0.18273305  0.02153530 -0.00000000       0.003
   0.20303673  0.01435687 -0.00000000       0.003
  -0.20303673  0.15792553  0.00000000       0.003
  -0.18273305  0.15074709  0.00000000       0.003
  -0.16242938  0.14356866  0.00000000       0.003
  -0.14212571  0.13639023  0.00000000       0.003
  -0.12182204  0.12921179  0.00000000       0.003
  -0.10151836  0.12203336  0.00000000       0.003
  -0.08121469  0.11485493  0.00000000       0.001
   0.10151836  0.07178433 -0.00000000       0.001
   0.12182204  0.06460590 -0.00000000       0.003
   0.14212571  0.05742746 -0.00000000       0.003
   0.16242938  0.05024903 -0.00000000       0.003
   0.18273305  0.04307060 -0.00000000       0.003
   0.20303673  0.03589217 -0.00000000       0.003
  -0.20303673  0.17946083  0.00000000       0.003
  -0.18273305  0.17228239  0.00000000       0.003
  -0.16242938  0.16510396  0.00000000       0.003
  -0.14212571  0.15792553  0.00000000       0.003
  -0.12182204  0.15074709  0.00000000       0.003
  -0.10151836  0.14356866  0.00000000       0.001
   0.12182204  0.08614120 -0.00000000       0.001
   0.14212571  0.07896276 -0.00000000       0.003
   0.16242938  0.07178433 -0.00000000       0.003
   0.18273305  0.06460590 -0.00000000       0.003
   0.20303673  0.05742746 -0.00000000       0.003
  -0.20303673  0.20099612  0.00000000       0.003
  -0.18273305  0.19381769  0.00000000       0.003
  -0.16242938  0.18663926  0.00000000       0.003
  -0.14212571  0.17946083  0.00000000       0.003
  -0.12182204  0.17228239  0.00000000       0.001
   0.14212571  0.10049806 -0.00000000       0.001
   0.16242938  0.09331963 -0.00000000       0.003
   0.18273305  0.08614120 -0.00000000       0.003
   0.20303673  0.07896276 -0.00000000       0.003
  -0.20303673  0.22253142  0.00000000       0.003
  -0.18273305  0.21535299  0.00000000       0.003
  -0.16242938  0.20817456  0.00000000       0.003
  -0.14212571  0.20099612  0.00000000       0.001
   0.16242938  0.11485493 -0.00000000       0.001
   0.18273305  0.10767650 -0.00000000       0.003
   0.20303673  0.10049806 -0.00000000       0.003
  -0.20303673  0.24406672  0.00000000       0.003
  -0.18273305  0.23688829  0.00000000       0.003
  -0.16242938  0.22970986  0.00000000       0.001
   0.18273305  0.12921179 -0.00000000       0.001
   0.20303673  0.12203336 -0.00000000       0.003
  -0.20303673  0.26560202  0.00000000       0.003
  -0.18273305  0.25842359  0.00000000       0.001
   0.20303673  0.14356866 -0.00000000       0.001
  -0.20303673  0.28713732  0.00000000       0.001
   0.05075919  0.01435687  0.01758350       0.003
   0.07106286  0.00717844  0.01758350       0.005
   0.09136653  0.00000001  0.01758350       0.005
   0.11167021 -0.00717843  0.01758350       0.005
   0.13197388 -0.01435686  0.01758350       0.005
   0.15227755 -0.02153529  0.01758350       0.005
   0.17258122 -0.02871373  0.01758350       0.005
   0.19288490 -0.03589216  0.01758350       0.005
  -0.21318855  0.10767650  0.01758350       0.005
   0.07106286  0.02871374  0.01758350       0.003
   0.09136653  0.02153530  0.01758350       0.005
   0.11167021  0.01435687  0.01758350       0.005
   0.13197388  0.00717844  0.01758350       0.005
   0.15227755  0.00000001  0.01758350       0.005
   0.17258122 -0.00717843  0.01758350       0.005
   0.19288490 -0.01435686  0.01758350       0.005
  -0.21318855  0.12921180  0.01758350       0.005
  -0.19288488  0.12203337  0.01758350       0.005
  -0.17258121  0.11485493  0.01758350       0.005
  -0.15227754  0.10767650  0.01758350       0.005
  -0.13197386  0.10049807  0.01758350       0.005
  -0.11167019  0.09331963  0.01758350       0.005
  -0.09136652  0.08614120  0.01758350       0.005
  -0.07106285  0.07896277  0.01758350       0.005
  -0.05075917  0.07178434  0.01758350       0.003
   0.09136653  0.04307060  0.01758350       0.003
   0.11167021  0.03589217  0.01758350       0.005
   0.13197388  0.02871374  0.01758350       0.005
   0.15227755  0.02153530  0.01758350       0.005
   0.17258122  0.01435687  0.01758350       0.005
   0.19288490  0.00717844  0.01758350       0.005
  -0.21318855  0.15074710  0.01758350       0.005
  -0.19288488  0.14356867  0.01758350       0.005
  -0.17258121  0.13639023  0.01758350       0.005
  -0.15227754  0.12921180  0.01758350       0.005
  -0.13197386  0.12203337  0.01758350       0.005
  -0.11167019  0.11485493  0.01758350       0.005
  -0.09136652  0.10767650  0.01758350       0.005
  -0.07106285  0.10049807  0.01758350       0.003
   0.11167021  0.05742747  0.01758350       0.003
   0.13197388  0.05024904  0.01758350       0.005
   0.15227755  0.04307060  0.01758350       0.005
   0.17258122  0.03589217  0.01758350       0.005
   0.19288490  0.02871374  0.01758350       0.005
  -0.21318855  0.17228240  0.01758350       0.005
  -0.19288488  0.16510397  0.01758350       0.005
  -0.17258121  0.15792553  0.01758350       0.005
  -0.15227754  0.15074710  0.01758350       0.005
  -0.13197386  0.14356867  0.01758350       0.005
  -0.11167019  0.13639023  0.01758350       0.005
  -0.09136652  0.12921180  0.01758350       0.003
   0.13197388  0.07178434  0.01758350       0.003
   0.15227755  0.06460590  0.01758350       0.005
   0.17258122  0.05742747  0.01758350       0.005
   0.19288490  0.05024904  0.01758350       0.005
  -0.21318855  0.19381770  0.01758350       0.005
  -0.19288488  0.18663926  0.01758350       0.005
  -0.17258121  0.17946083  0.01758350       0.005
  -0.15227754  0.17228240  0.01758350       0.005
  -0.13197386  0.16510397  0.01758350       0.005
  -0.11167019  0.15792553  0.01758350       0.003
   0.15227755  0.08614120  0.01758350       0.003
   0.17258122  0.07896277  0.01758350       0.005
   0.19288490  0.07178434  0.01758350       0.005
  -0.21318855  0.21535300  0.01758350       0.005
  -0.19288488  0.20817456  0.01758350       0.005
  -0.17258121  0.20099613  0.01758350       0.005
  -0.15227754  0.19381770  0.01758350       0.005
  -0.13197386  0.18663926  0.01758350       0.003
   0.17258122  0.10049807  0.01758350       0.003
   0.19288490  0.09331963  0.01758350       0.005
  -0.21318855  0.23688830  0.01758350       0.005
  -0.19288488  0.22970986  0.01758350       0.005
  -0.17258121  0.22253143  0.01758350       0.005
  -0.15227754  0.21535300  0.01758350       0.003
   0.19288490  0.11485493  0.01758350       0.003
  -0.21318855  0.25842359  0.01758350       0.005
  -0.19288488  0.25124516  0.01758350       0.005
  -0.17258121  0.24406673  0.01758350       0.003
  -0.21318855  0.27995889  0.01758350       0.003
  -0.19288488  0.27278046  0.01758350       0.003
   0.10151838  0.02871374  0.03516700       0.003
   0.12182205  0.02153531  0.03516700       0.005
   0.14212572  0.01435688  0.03516700       0.005
   0.16242940  0.00717844  0.03516700       0.005
   0.18273307  0.00000001  0.03516700       0.005
  -0.22334038  0.14356867  0.03516700       0.005
  -0.20303671  0.13639024  0.03516700       0.005
   0.12182205  0.04307061  0.03516700       0.003
   0.14212572  0.03589218  0.03516700       0.005
   0.16242940  0.02871374  0.03516700       0.005
   0.18273307  0.02153531  0.03516700       0.005
  -0.22334038  0.16510397  0.03516700       0.005
  -0.20303671  0.15792554  0.03516700       0.005
  -0.18273304  0.15074710  0.03516700       0.005
  -0.16242937  0.14356867  0.03516700       0.005
  -0.14212569  0.13639024  0.03516700       0.005
  -0.12182202  0.12921181  0.03516700       0.005
  -0.10151835  0.12203337  0.03516700       0.005
  -0.08121468  0.11485494  0.03516700       0.003
   0.14212572  0.05742747  0.03516700       0.003
   0.16242940  0.05024904  0.03516700       0.005
   0.18273307  0.04307061  0.03516700       0.005
  -0.22334038  0.18663927  0.03516700       0.005
  -0.20303671  0.17946084  0.03516700       0.005
  -0.18273304  0.17228240  0.03516700       0.005
  -0.16242937  0.16510397  0.03516700       0.005
  -0.14212569  0.15792554  0.03516700       0.005
  -0.12182202  0.15074710  0.03516700       0.005
  -0.10151835  0.14356867  0.03516700       0.003
   0.16242940  0.07178434  0.03516700       0.003
   0.18273307  0.06460591  0.03516700       0.005
  -0.22334038  0.20817457  0.03516700       0.005
  -0.20303671  0.20099614  0.03516700       0.005
  -0.18273304  0.19381770  0.03516700       0.005
  -0.16242937  0.18663927  0.03516700       0.005
  -0.14212569  0.17946084  0.03516700       0.005
  -0.12182202  0.17228240  0.03516700       0.003
   0.18273307  0.08614121  0.03516700       0.003
  -0.22334038  0.22970987  0.03516700       0.005
  -0.20303671  0.22253143  0.03516700       0.005
  -0.18273304  0.21535300  0.03516700       0.005
  -0.16242937  0.20817457  0.03516700       0.005
  -0.14212569  0.20099614  0.03516700       0.003
  -0.22334038  0.25124517  0.03516700       0.003
  -0.20303671  0.24406673  0.03516700       0.005
  -0.18273304  0.23688830  0.03516700       0.005
  -0.16242937  0.22970987  0.03516700       0.003
  -0.20303671  0.26560203  0.03516700       0.003
  -0.18273304  0.25842360  0.03516700       0.003
   0.15227757  0.04307061  0.05275049       0.003
   0.17258124  0.03589218  0.05275049       0.005
  -0.23349221  0.17946084  0.05275049       0.005
  -0.21318854  0.17228241  0.05275049       0.005
  -0.19288487  0.16510398  0.05275049       0.005
   0.17258124  0.05742748  0.05275049       0.003
  -0.23349221  0.20099614  0.05275049       0.005
  -0.21318854  0.19381771  0.05275049       0.005
  -0.19288487  0.18663927  0.05275049       0.005
  -0.17258119  0.17946084  0.05275049       0.005
  -0.15227752  0.17228241  0.05275049       0.005
  -0.13197385  0.16510398  0.05275049       0.005
  -0.11167018  0.15792554  0.05275049       0.003
  -0.23349221  0.22253144  0.05275049       0.003
  -0.21318854  0.21535301  0.05275049       0.005
  -0.19288487  0.20817457  0.05275049       0.005
  -0.17258119  0.20099614  0.05275049       0.005
  -0.15227752  0.19381771  0.05275049       0.005
  -0.13197385  0.18663927  0.05275049       0.003
  -0.21318854  0.23688831  0.05275049       0.003
  -0.19288487  0.22970987  0.05275049       0.005
  -0.17258119  0.22253144  0.05275049       0.005
  -0.15227752  0.21535301  0.05275049       0.003
  -0.19288487  0.25124517  0.05275049       0.003
  -0.17258119  0.24406674  0.05275049       0.003
  -0.22334037  0.20817458  0.07033399       0.003
  -0.20303670  0.20099615  0.07033399       0.005
  -0.18273302  0.19381771  0.07033399       0.005
  -0.20303670  0.22253145  0.07033399       0.003
  -0.18273302  0.21535301  0.07033399       0.005
  -0.16242935  0.20817458  0.07033399       0.005
  -0.14212568  0.20099615  0.07033399       0.003
  -0.18273302  0.23688831  0.07033399       0.003
  -0.16242935  0.22970988  0.07033399       0.003
  -0.17258118  0.22253145  0.08791749       0.003
 
 k-points in reciprocal lattice and weights: Automatic                               
   0.00000000  0.00000000  0.00000000       0.000
   0.04761905  0.00000000 -0.00000000       0.001
   0.09523810 -0.00000000 -0.00000000       0.001
   0.14285714 -0.00000000 -0.00000000       0.001
   0.19047619 -0.00000000 -0.00000000       0.001
   0.23809524  0.00000000 -0.00000000       0.001
   0.28571429 -0.00000000 -0.00000000       0.001
   0.33333333  0.00000000 -0.00000000       0.001
   0.38095238 -0.00000000 -0.00000000       0.001
   0.42857143 -0.00000000 -0.00000000       0.001
   0.47619048 -0.00000000 -0.00000000       0.001
   0.04761905  0.04761905 -0.00000000       0.001
   0.09523810  0.04761905 -0.00000000       0.003
   0.14285714  0.04761905 -0.00000000       0.003
   0.19047619  0.04761905 -0.00000000       0.003
   0.23809524  0.04761905 -0.00000000       0.003
   0.28571429  0.04761905 -0.00000000       0.003
   0.33333333  0.04761905 -0.00000000       0.003
   0.38095238  0.04761905 -0.00000000       0.003
   0.42857143  0.04761905 -0.00000000       0.003
   0.47619048  0.04761905 -0.00000000       0.003
  -0.47619048  0.04761905  0.00000000       0.003
  -0.42857143  0.04761905  0.00000000       0.003
  -0.38095238  0.04761905  0.00000000       0.003
  -0.33333333  0.04761905  0.00000000       0.003
  -0.28571429  0.04761905  0.00000000       0.003
  -0.23809524  0.04761905  0.00000000       0.003
  -0.19047619  0.04761905  0.00000000       0.003
  -0.14285714  0.04761905  0.00000000       0.003
  -0.09523810  0.04761905  0.00000000       0.003
  -0.04761905  0.04761905  0.00000000       0.001
   0.09523810  0.09523810 -0.00000000       0.001
   0.14285714  0.09523810 -0.00000000       0.003
   0.19047619  0.09523810 -0.00000000       0.003
   0.23809524  0.09523810 -0.00000000       0.003
   0.28571429  0.09523810 -0.00000000       0.003
   0.33333333  0.09523810  0.00000000       0.003
   0.38095238  0.09523810 -0.00000000       0.003
   0.42857143  0.09523810 -0.00000000       0.003
   0.47619048  0.09523810 -0.00000000       0.003
  -0.47619048  0.09523810  0.00000000       0.003
  -0.42857143  0.09523810  0.00000000       0.003
  -0.38095238  0.09523810  0.00000000       0.003
  -0.33333333  0.09523810  0.00000000       0.003
  -0.28571429  0.09523810  0.00000000       0.003
  -0.23809524  0.09523810  0.00000000       0.003
  -0.19047619  0.09523810  0.00000000       0.003
  -0.14285714  0.09523810  0.00000000       0.003
  -0.09523810  0.09523810  0.00000000       0.001
   0.14285714  0.14285714 -0.00000000       0.001
   0.19047619  0.14285714 -0.00000000       0.003
   0.23809524  0.14285714 -0.00000000       0.003
   0.28571429  0.14285714  0.00000000       0.003
   0.33333333  0.14285714  0.00000000       0.003
   0.38095238  0.14285714 -0.00000000       0.003
   0.42857143  0.14285714 -0.00000000       0.003
   0.47619048  0.14285714 -0.00000000       0.003
  -0.47619048  0.14285714  0.00000000       0.003
  -0.42857143  0.14285714  0.00000000       0.003
  -0.38095238  0.14285714  0.00000000       0.003
  -0.33333333  0.14285714  0.00000000       0.003
  -0.28571429  0.14285714  0.00000000       0.003
  -0.23809524  0.14285714  0.00000000       0.003
  -0.19047619  0.14285714  0.00000000       0.003
  -0.14285714  0.14285714  0.00000000       0.001
   0.19047619  0.19047619 -0.00000000       0.001
   0.23809524  0.19047619  0.00000000       0.003
   0.28571429  0.19047619 -0.00000000       0.003
   0.33333333  0.19047619 -0.00000000       0.003
   0.38095238  0.19047619 -0.00000000       0.003
   0.42857143  0.19047619 -0.00000000       0.003
   0.47619048  0.19047619 -0.00000000       0.003
  -0.47619048  0.19047619  0.00000000       0.003
  -0.42857143  0.19047619  0.00000000       0.003
  -0.38095238  0.19047619  0.00000000       0.003
  -0.33333333  0.19047619  0.00000000       0.003
  -0.28571429  0.19047619  0.00000000       0.003
  -0.23809524  0.19047619  0.00000000       0.003
  -0.19047619  0.19047619  0.00000000       0.001
   0.23809524  0.23809524 -0.00000000       0.001
   0.28571429  0.23809524 -0.00000000       0.003
   0.33333333  0.23809524 -0.00000000       0.003
   0.38095238  0.23809524 -0.00000000       0.003
   0.42857143  0.23809524 -0.00000000       0.003
   0.47619048  0.23809524 -0.00000000       0.003
  -0.47619048  0.23809524  0.00000000       0.003
  -0.42857143  0.23809524  0.00000000       0.003
  -0.38095238  0.23809524  0.00000000       0.003
  -0.33333333  0.23809524  0.00000000       0.003
  -0.28571429  0.23809524  0.00000000       0.003
  -0.23809524  0.23809524  0.00000000       0.001
   0.28571429  0.28571429  0.00000000       0.001
   0.33333333  0.28571429 -0.00000000       0.003
   0.38095238  0.28571429 -0.00000000       0.003
   0.42857143  0.28571429 -0.00000000       0.003
   0.47619048  0.28571429 -0.00000000       0.003
  -0.47619048  0.28571429  0.00000000       0.003
  -0.42857143  0.28571429  0.00000000       0.003
  -0.38095238  0.28571429  0.00000000       0.003
  -0.33333333  0.28571429  0.00000000       0.003
  -0.28571429  0.28571429  0.00000000       0.001
   0.33333333  0.33333333 -0.00000000       0.001
   0.38095238  0.33333333 -0.00000000       0.003
   0.42857143  0.33333333 -0.00000000       0.003
   0.47619048  0.33333333 -0.00000000       0.003
  -0.47619048  0.33333333  0.00000000       0.003
  -0.42857143  0.33333333  0.00000000       0.003
  -0.38095238  0.33333333  0.00000000       0.003
  -0.33333333  0.33333333  0.00000000       0.001
   0.38095238  0.38095238 -0.00000000       0.001
   0.42857143  0.38095238 -0.00000000       0.003
   0.47619048  0.38095238 -0.00000000       0.003
  -0.47619048  0.38095238  0.00000000       0.003
  -0.42857143  0.38095238  0.00000000       0.003
  -0.38095238  0.38095238  0.00000000       0.001
   0.42857143  0.42857143 -0.00000000       0.001
   0.47619048  0.42857143 -0.00000000       0.003
  -0.47619048  0.42857143  0.00000000       0.003
  -0.42857143  0.42857143  0.00000000       0.001
   0.47619048  0.47619048 -0.00000000       0.001
  -0.47619048  0.47619048  0.00000000       0.001
   0.14285714  0.09523810  0.04761905       0.003
   0.19047619  0.09523810  0.04761905       0.005
   0.23809524  0.09523810  0.04761905       0.005
   0.28571429  0.09523810  0.04761905       0.005
   0.33333333  0.09523810  0.04761905       0.005
   0.38095238  0.09523810  0.04761905       0.005
   0.42857143  0.09523810  0.04761905       0.005
   0.47619048  0.09523810  0.04761905       0.005
  -0.47619048  0.09523810  0.04761905       0.005
   0.19047619  0.14285714  0.04761905       0.003
   0.23809524  0.14285714  0.04761905       0.005
   0.28571429  0.14285714  0.04761905       0.005
   0.33333333  0.14285714  0.04761905       0.005
   0.38095238  0.14285714  0.04761905       0.005
   0.42857143  0.14285714  0.04761905       0.005
   0.47619048  0.14285714  0.04761905       0.005
  -0.47619048  0.14285714  0.04761905       0.005
  -0.42857143  0.14285714  0.04761905       0.005
  -0.38095238  0.14285714  0.04761905       0.005
  -0.33333333  0.14285714  0.04761905       0.005
  -0.28571429  0.14285714  0.04761905       0.005
  -0.23809524  0.14285714  0.04761905       0.005
  -0.19047619  0.14285714  0.04761905       0.005
  -0.14285714  0.14285714  0.04761905       0.005
  -0.09523810  0.14285714  0.04761905       0.003
   0.23809524  0.19047619  0.04761905       0.003
   0.28571429  0.19047619  0.04761905       0.005
   0.33333333  0.19047619  0.04761905       0.005
   0.38095238  0.19047619  0.04761905       0.005
   0.42857143  0.19047619  0.04761905       0.005
   0.47619048  0.19047619  0.04761905       0.005
  -0.47619048  0.19047619  0.04761905       0.005
  -0.42857143  0.19047619  0.04761905       0.005
  -0.38095238  0.19047619  0.04761905       0.005
  -0.33333333  0.19047619  0.04761905       0.005
  -0.28571429  0.19047619  0.04761905       0.005
  -0.23809524  0.19047619  0.04761905       0.005
  -0.19047619  0.19047619  0.04761905       0.005
  -0.14285714  0.19047619  0.04761905       0.003
   0.28571429  0.23809524  0.04761905       0.003
   0.33333333  0.23809524  0.04761905       0.005
   0.38095238  0.23809524  0.04761905       0.005
   0.42857143  0.23809524  0.04761905       0.005
   0.47619048  0.23809524  0.04761905       0.005
  -0.47619048  0.23809524  0.04761905       0.005
  -0.42857143  0.23809524  0.04761905       0.005
  -0.38095238  0.23809524  0.04761905       0.005
  -0.33333333  0.23809524  0.04761905       0.005
  -0.28571429  0.23809524  0.04761905       0.005
  -0.23809524  0.23809524  0.04761905       0.005
  -0.19047619  0.23809524  0.04761905       0.003
   0.33333333  0.28571429  0.04761905       0.003
   0.38095238  0.28571429  0.04761905       0.005
   0.42857143  0.28571429  0.04761905       0.005
   0.47619048  0.28571429  0.04761905       0.005
  -0.47619048  0.28571429  0.04761905       0.005
  -0.42857143  0.28571429  0.04761905       0.005
  -0.38095238  0.28571429  0.04761905       0.005
  -0.33333333  0.28571429  0.04761905       0.005
  -0.28571429  0.28571429  0.04761905       0.005
  -0.23809524  0.28571429  0.04761905       0.003
   0.38095238  0.33333333  0.04761905       0.003
   0.42857143  0.33333333  0.04761905       0.005
   0.47619048  0.33333333  0.04761905       0.005
  -0.47619048  0.33333333  0.04761905       0.005
  -0.42857143  0.33333333  0.04761905       0.005
  -0.38095238  0.33333333  0.04761905       0.005
  -0.33333333  0.33333333  0.04761905       0.005
  -0.28571429  0.33333333  0.04761905       0.003
   0.42857143  0.38095238  0.04761905       0.003
   0.47619048  0.38095238  0.04761905       0.005
  -0.47619048  0.38095238  0.04761905       0.005
  -0.42857143  0.38095238  0.04761905       0.005
  -0.38095238  0.38095238  0.04761905       0.005
  -0.33333333  0.38095238  0.04761905       0.003
   0.47619048  0.42857143  0.04761905       0.003
  -0.47619048  0.42857143  0.04761905       0.005
  -0.42857143  0.42857143  0.04761905       0.005
  -0.38095238  0.42857143  0.04761905       0.003
  -0.47619048  0.47619048  0.04761905       0.003
  -0.42857143  0.47619048  0.04761905       0.003
   0.28571429  0.19047619  0.09523810       0.003
   0.33333333  0.19047619  0.09523810       0.005
   0.38095238  0.19047619  0.09523810       0.005
   0.42857143  0.19047619  0.09523810       0.005
   0.47619048  0.19047619  0.09523810       0.005
  -0.47619048  0.19047619  0.09523810       0.005
  -0.42857143  0.19047619  0.09523810       0.005
   0.33333333  0.23809524  0.09523810       0.003
   0.38095238  0.23809524  0.09523810       0.005
   0.42857143  0.23809524  0.09523810       0.005
   0.47619048  0.23809524  0.09523810       0.005
  -0.47619048  0.23809524  0.09523810       0.005
  -0.42857143  0.23809524  0.09523810       0.005
  -0.38095238  0.23809524  0.09523810       0.005
  -0.33333333  0.23809524  0.09523810       0.005
  -0.28571429  0.23809524  0.09523810       0.005
  -0.23809524  0.23809524  0.09523810       0.005
  -0.19047619  0.23809524  0.09523810       0.005
  -0.14285714  0.23809524  0.09523810       0.003
   0.38095238  0.28571429  0.09523810       0.003
   0.42857143  0.28571429  0.09523810       0.005
   0.47619048  0.28571429  0.09523810       0.005
  -0.47619048  0.28571429  0.09523810       0.005
  -0.42857143  0.28571429  0.09523810       0.005
  -0.38095238  0.28571429  0.09523810       0.005
  -0.33333333  0.28571429  0.09523810       0.005
  -0.28571429  0.28571429  0.09523810       0.005
  -0.23809524  0.28571429  0.09523810       0.005
  -0.19047619  0.28571429  0.09523810       0.003
   0.42857143  0.33333333  0.09523810       0.003
   0.47619048  0.33333333  0.09523810       0.005
  -0.47619048  0.33333333  0.09523810       0.005
  -0.42857143  0.33333333  0.09523810       0.005
  -0.38095238  0.33333333  0.09523810       0.005
  -0.33333333  0.33333333  0.09523810       0.005
  -0.28571429  0.33333333  0.09523810       0.005
  -0.23809524  0.33333333  0.09523810       0.003
   0.47619048  0.38095238  0.09523810       0.003
  -0.47619048  0.38095238  0.09523810       0.005
  -0.42857143  0.38095238  0.09523810       0.005
  -0.38095238  0.38095238  0.09523810       0.005
  -0.33333333  0.38095238  0.09523810       0.005
  -0.28571429  0.38095238  0.09523810       0.003
  -0.47619048  0.42857143  0.09523810       0.003
  -0.42857143  0.42857143  0.09523810       0.005
  -0.38095238  0.42857143  0.09523810       0.005
  -0.33333333  0.42857143  0.09523810       0.003
  -0.42857143  0.47619048  0.09523810       0.003
  -0.38095238  0.47619048  0.09523810       0.003
   0.42857143  0.28571429  0.14285714       0.003
   0.47619048  0.28571429  0.14285714       0.005
  -0.47619048  0.28571429  0.14285714       0.005
  -0.42857143  0.28571429  0.14285714       0.005
  -0.38095238  0.28571429  0.14285714       0.005
   0.47619048  0.33333333  0.14285714       0.003
  -0.47619048  0.33333333  0.14285714       0.005
  -0.42857143  0.33333333  0.14285714       0.005
  -0.38095238  0.33333333  0.14285714       0.005
  -0.33333333  0.33333333  0.14285714       0.005
  -0.28571429  0.33333333  0.14285714       0.005
  -0.23809524  0.33333333  0.14285714       0.005
  -0.19047619  0.33333333  0.14285714       0.003
  -0.47619048  0.38095238  0.14285714       0.003
  -0.42857143  0.38095238  0.14285714       0.005
  -0.38095238  0.38095238  0.14285714       0.005
  -0.33333333  0.38095238  0.14285714       0.005
  -0.28571429  0.38095238  0.14285714       0.005
  -0.23809524  0.38095238  0.14285714       0.003
  -0.42857143  0.42857143  0.14285714       0.003
  -0.38095238  0.42857143  0.14285714       0.005
  -0.33333333  0.42857143  0.14285714       0.005
  -0.28571429  0.42857143  0.14285714       0.003
  -0.38095238  0.47619048  0.14285714       0.003
  -0.33333333  0.47619048  0.14285714       0.003
  -0.42857143  0.38095238  0.19047619       0.003
  -0.38095238  0.38095238  0.19047619       0.005
  -0.33333333  0.38095238  0.19047619       0.005
  -0.38095238  0.42857143  0.19047619       0.003
  -0.33333333  0.42857143  0.19047619       0.005
  -0.28571429  0.42857143  0.19047619       0.005
  -0.23809524  0.42857143  0.19047619       0.003
  -0.33333333  0.47619048  0.19047619       0.003
  -0.28571429  0.47619048  0.19047619       0.003
  -0.28571429  0.47619048  0.23809524       0.003
 
 position of ions in fractional coordinates (direct lattice) 
   0.00000000  0.00000000  0.00000000
 
 position of ions in cartesian coordinates  (Angst):
   0.00000000  0.00000000  0.00000000
 


--------------------------------------------------------------------------------------------------------


 k-point   1 :   0.0000 0.0000 0.0000  plane waves:     331
 k-point   2 :   0.0476 0.0000-0.0000  plane waves:     328
 k-point   3 :   0.0952-0.0000-0.0000  plane waves:     319
 k-point   4 :   0.1429-0.0000-0.0000  plane waves:     320
 k-point   5 :   0.1905-0.0000-0.0000  plane waves:     311
 k-point   6 :   0.2381 0.0000-0.0000  plane waves:     311
 k-point   7 :   0.2857-0.0000-0.0000  plane waves:     305
 k-point   8 :   0.3333 0.0000-0.0000  plane waves:     308
 k-point   9 :   0.3810-0.0000-0.0000  plane waves:     314
 k-point  10 :   0.4286-0.0000-0.0000  plane waves:     317
 k-point  11 :   0.4762-0.0000-0.0000  plane waves:     317
 k-point  12 :   0.0476 0.0476-0.0000  plane waves:     327
 k-point  13 :   0.0952 0.0476-0.0000  plane waves:     322
 k-point  14 :   0.1429 0.0476-0.0000  plane waves:     316
 k-point  15 :   0.1905 0.0476-0.0000  plane waves:     315
 k-point  16 :   0.2381 0.0476-0.0000  plane waves:     315
 k-point  17 :   0.2857 0.0476-0.0000  plane waves:     309
 k-point  18 :   0.3333 0.0476-0.0000  plane waves:     307
 k-point  19 :   0.3810 0.0476-0.0000  plane waves:     313
 k-point  20 :   0.4286 0.0476-0.0000  plane waves:     315
 k-point  21 :   0.4762 0.0476-0.0000  plane waves:     317
 k-point  22 :  -0.4762 0.0476 0.0000  plane waves:     317
 k-point  23 :  -0.4286 0.0476 0.0000  plane waves:     317
 k-point  24 :  -0.3810 0.0476 0.0000  plane waves:     317
 k-point  25 :  -0.3333 0.0476 0.0000  plane waves:     314
 k-point  26 :  -0.2857 0.0476 0.0000  plane waves:     308
 k-point  27 :  -0.2381 0.0476 0.0000  plane waves:     310
 k-point  28 :  -0.1905 0.0476 0.0000  plane waves:     314
 k-point  29 :  -0.1429 0.0476 0.0000  plane waves:     316
 k-point  30 :  -0.0952 0.0476 0.0000  plane waves:     317
 k-point  31 :  -0.0476 0.0476 0.0000  plane waves:     321
 k-point  32 :   0.0952 0.0952-0.0000  plane waves:     315
 k-point  33 :   0.1429 0.0952-0.0000  plane waves:     317
 k-point  34 :   0.1905 0.0952-0.0000  plane waves:     316
 k-point  35 :   0.2381 0.0952-0.0000  plane waves:     314
 k-point  36 :   0.2857 0.0952-0.0000  plane waves:     313
 k-point  37 :   0.3333 0.0952 0.0000  plane waves:     312
 k-point  38 :   0.3810 0.0952-0.0000  plane waves:     313
 k-point  39 :   0.4286 0.0952-0.0000  plane waves:     315
 k-point  40 :   0.4762 0.0952-0.0000  plane waves:     314
 k-point  41 :  -0.4762 0.0952 0.0000  plane waves:     316
 k-point  42 :  -0.4286 0.0952 0.0000  plane waves:     316
 k-point  43 :  -0.3810 0.0952 0.0000  plane waves:     314
 k-point  44 :  -0.3333 0.0952 0.0000  plane waves:     313
 k-point  45 :  -0.2857 0.0952 0.0000  plane waves:     311
 k-point  46 :  -0.2381 0.0952 0.0000  plane waves:     310
 k-point  47 :  -0.1905 0.0952 0.0000  plane waves:     313
 k-point  48 :  -0.1429 0.0952 0.0000  plane waves:     317
 k-point  49 :  -0.0952 0.0952 0.0000  plane waves:     315
 k-point  50 :   0.1429 0.1429-0.0000  plane waves:     307
 k-point  51 :   0.1905 0.1429-0.0000  plane waves:     312
 k-point  52 :   0.2381 0.1429-0.0000  plane waves:     310
 k-point  53 :   0.2857 0.1429 0.0000  plane waves:     307
 k-point  54 :   0.3333 0.1429 0.0000  plane waves:     315
 k-point  55 :   0.3810 0.1429-0.0000  plane waves:     317
 k-point  56 :   0.4286 0.1429-0.0000  plane waves:     319
 k-point  57 :   0.4762 0.1429-0.0000  plane waves:     313
 k-point  58 :  -0.4762 0.1429 0.0000  plane waves:     314
 k-point  59 :  -0.4286 0.1429 0.0000  plane waves:     316
 k-point  60 :  -0.3810 0.1429 0.0000  plane waves:     310
 k-point  61 :  -0.3333 0.1429 0.0000  plane waves:     314
 k-point  62 :  -0.2857 0.1429 0.0000  plane waves:     311
 k-point  63 :  -0.2381 0.1429 0.0000  plane waves:     313
 k-point  64 :  -0.1905 0.1429 0.0000  plane waves:     313
 k-point  65 :  -0.1429 0.1429 0.0000  plane waves:     317
 k-point  66 :   0.1905 0.1905-0.0000  plane waves:     307
 k-point  67 :   0.2381 0.1905 0.0000  plane waves:     306
 k-point  68 :   0.2857 0.1905-0.0000  plane waves:     313
 k-point  69 :   0.3333 0.1905-0.0000  plane waves:     316
 k-point  70 :   0.3810 0.1905-0.0000  plane waves:     316
 k-point  71 :   0.4286 0.1905-0.0000  plane waves:     318
 k-point  72 :   0.4762 0.1905-0.0000  plane waves:     315
 k-point  73 :  -0.4762 0.1905 0.0000  plane waves:     311
 k-point  74 :  -0.4286 0.1905 0.0000  plane waves:     309
 k-point  75 :  -0.3810 0.1905 0.0000  plane waves:     309
 k-point  76 :  -0.3333 0.1905 0.0000  plane waves:     312
 k-point  77 :  -0.2857 0.1905 0.0000  plane waves:     313
 k-point  78 :  -0.2381 0.1905 0.0000  plane waves:     313
 k-point  79 :  -0.1905 0.1905 0.0000  plane waves:     311
 k-point  80 :   0.2381 0.2381-0.0000  plane waves:     311
 k-point  81 :   0.2857 0.2381-0.0000  plane waves:     310
 k-point  82 :   0.3333 0.2381-0.0000  plane waves:     314
 k-point  83 :   0.3810 0.2381-0.0000  plane waves:     318
 k-point  84 :   0.4286 0.2381-0.0000  plane waves:     316
 k-point  85 :   0.4762 0.2381-0.0000  plane waves:     315
 k-point  86 :  -0.4762 0.2381 0.0000  plane waves:     314
 k-point  87 :  -0.4286 0.2381 0.0000  plane waves:     311
 k-point  88 :  -0.3810 0.2381 0.0000  plane waves:     309
 k-point  89 :  -0.3333 0.2381 0.0000  plane waves:     311
 k-point  90 :  -0.2857 0.2381 0.0000  plane waves:     312
 k-point  91 :  -0.2381 0.2381 0.0000  plane waves:     315
 k-point  92 :   0.2857 0.2857 0.0000  plane waves:     311
 k-point  93 :   0.3333 0.2857-0.0000  plane waves:     315
 k-point  94 :   0.3810 0.2857-0.0000  plane waves:     317
 k-point  95 :   0.4286 0.2857-0.0000  plane waves:     313
 k-point  96 :   0.4762 0.2857-0.0000  plane waves:     313
 k-point  97 :  -0.4762 0.2857 0.0000  plane waves:     311
 k-point  98 :  -0.4286 0.2857 0.0000  plane waves:     309
 k-point  99 :  -0.3810 0.2857 0.0000  plane waves:     311
 k-point 100 :  -0.3333 0.2857 0.0000  plane waves:     315
 k-point 101 :  -0.2857 0.2857 0.0000  plane waves:     307
 k-point 102 :   0.3333 0.3333-0.0000  plane waves:     315
 k-point 103 :   0.3810 0.3333-0.0000  plane waves:     320
 k-point 104 :   0.4286 0.3333-0.0000  plane waves:     318
 k-point 105 :   0.4762 0.3333-0.0000  plane waves:     316
 k-point 106 :  -0.4762 0.3333 0.0000  plane waves:     315
 k-point 107 :  -0.4286 0.3333 0.0000  plane waves:     311
 k-point 108 :  -0.3810 0.3333 0.0000  plane waves:     311
 k-point 109 :  -0.3333 0.3333 0.0000  plane waves:     309
 k-point 110 :   0.3810 0.3810-0.0000  plane waves:     322
 k-point 111 :   0.4286 0.3810-0.0000  plane waves:     322
 k-point 112 :   0.4762 0.3810-0.0000  plane waves:     320
 k-point 113 :  -0.4762 0.3810 0.0000  plane waves:     318
[...]
      1       5.3516      2.00000
      2       6.1832      2.00000
      3       9.6226      2.00000
      4      11.5263      0.00000
      5      18.4839      0.00000
      6      20.5282      0.00000
      7      32.0723      0.00000
      8      32.1604      0.00000

 k-point   252 :       0.4286    0.2857    0.1429
  band No.  band energies     occupation 
      1      -0.3584      2.00000
      2      11.1211      0.00000
      3      11.9339      0.00000
      4      15.3904      0.00000
      5      21.5041      0.00000
      6      22.3711      0.00000
      7      25.8048      0.00000
      8      30.5249      0.00000

 k-point   253 :       0.4762    0.2857    0.1429
  band No.  band energies     occupation 
      1       0.4812      2.00000
      2       9.6783      2.00000
      3      11.5665      0.00000
      4      14.5261      0.00000
      5      21.7899      0.00000
      6      23.3069      0.00000
      7      25.2567      0.00000
      8      30.9814      0.00000

 k-point   254 :      -0.4762    0.2857    0.1429
  band No.  band energies     occupation 
      1       1.4440      2.00000
      2       8.0694      2.00000
      3      11.5705      0.00000
      4      13.7721      0.00000
      5      21.8593      0.00000
      6      23.8557      0.00000
      7      25.5746      0.00000
      8      31.0605      0.00000

 k-point   255 :      -0.4286    0.2857    0.1429
  band No.  band energies     occupation 
      1       2.5248      2.00000
      2       6.5391      2.00000
      3      11.7055      0.00000
      4      13.1489      0.00000
      5      21.9652      0.00000
      6      23.5688      0.00000
      7      26.9316      0.00000
      8      30.7319      0.00000

 k-point   256 :      -0.3810    0.2857    0.1429
  band No.  band energies     occupation 
      1       3.6942      2.00000
      2       5.1419      2.00000
      3      11.8948      0.00000
      4      12.7168      0.00000
      5      22.0726      0.00000
      6      23.2967      0.00000
      7      28.4348      0.00000
      8      29.8356      0.00000

 k-point   257 :       0.4762    0.3333    0.1429
  band No.  band energies     occupation 
      1       0.7609      2.00000
      2      10.4660      0.00000
      3      11.2494      0.00000
      4      13.1844      0.00000
      5      20.8799      0.00000
      6      21.8778      0.00000
      7      26.7236      0.00000
      8      32.4550      0.00000

 k-point   258 :      -0.4762    0.3333    0.1429
  band No.  band energies     occupation 
      1       1.6800      2.00000
      2       9.0983      2.00000
      3      10.9450      0.00000
      4      12.3875      0.00000
      5      21.2823      0.00000
      6      22.9915      0.00000
      7      26.1274      0.00000
      8      32.6316      0.00000

 k-point   259 :      -0.4286    0.3333    0.1429
  band No.  band energies     occupation 
      1       2.7189      2.00000
      2       7.5695      2.00000
      3      10.9417      0.00000
      4      11.7831      0.00000
      5      21.4701      0.00000
      6      24.2646      0.00000
      7      25.8487      0.00000
      8      31.7895      0.00000

 k-point   260 :      -0.3810    0.3333    0.1429
  band No.  band energies     occupation 
      1       3.8645      2.00000
      2       6.1292      2.00000
      3      10.7808      0.00000
      4      11.6068      0.00000
      5      21.7141      0.00000
      6      24.5398      0.00000
      7      26.7390      0.00000
      8      30.4509      0.00000

 k-point   261 :      -0.3333    0.3333    0.1429
  band No.  band energies     occupation 
      1       4.6083      2.00000
      2       5.3087      2.00000
      3      10.4302      0.00000
      4      11.8734      0.00000
      5      22.0362      0.00000
      6      24.2803      0.00000
      7      27.9788      0.00000
      8      29.1984      0.00000

 k-point   262 :      -0.2857    0.3333    0.1429
  band No.  band energies     occupation 
      1       3.4733      2.00000
      2       6.5853      2.00000
      3      10.1327      1.89046
      4      12.3415      0.00000
      5      22.4162      0.00000
      6      24.0389      0.00000
      7      26.9858      0.00000
      8      30.1561      0.00000

 k-point   263 :      -0.2381    0.3333    0.1429
  band No.  band energies     occupation 
      1       2.3594      2.00000
      2       8.0355      2.00000
      3       9.9713      2.00000
      4      12.9489      0.00000
      5      22.7966      0.00000
      6      23.8220      0.00000
      7      25.5646      0.00000
      8      31.4888      0.00000

 k-point   264 :      -0.1905    0.3333    0.1429
  band No.  band energies     occupation 
      1       1.3595      2.00000
      2       9.3163      2.00000
      3      10.2042      0.67154
      4      13.6803      0.00000
      5      23.0901      0.00000
      6      23.1074      0.00000
      7      24.9417      0.00000
      8      31.9513      0.00000

 k-point   265 :      -0.4762    0.3810    0.1429
  band No.  band energies     occupation 
      1       2.0427      2.00000
      2       9.9738      2.00000
      3      10.4458      0.00000
      4      11.3436      0.00000
      5      20.4054      0.00000
      6      21.4855      0.00000
      7      27.8134      0.00000
      8      33.6715      0.00000

 k-point   266 :      -0.4286    0.3810    0.1429
  band No.  band energies     occupation 
      1       3.0373      2.00000
      2       8.6672      2.00000
      3       9.9746      2.00000
      4      10.8784      0.00000
      5      20.9065      0.00000
      6      22.7071      0.00000
      7      27.2421      0.00000
      8      32.4461      0.00000

 k-point   267 :      -0.3810    0.3810    0.1429
  band No.  band energies     occupation 
      1       4.1438      2.00000
      2       7.2272      2.00000
      3       9.4660      2.00000
      4      10.9311      0.00000
      5      21.1890      0.00000
      6      24.2705      0.00000
      7      26.7965      0.00000
      8      30.8911      0.00000

 k-point   268 :      -0.3333    0.3810    0.1429
  band No.  band energies     occupation 
      1       5.2796      2.00000
      2       5.9429      2.00000
      3       9.0018      2.00000
      4      11.2239      0.00000
      5      21.5260      0.00000
      6      25.4779      0.00000
      7      26.8006      0.00000
      8      29.2966      0.00000

 k-point   269 :      -0.2857    0.3810    0.1429
  band No.  band energies     occupation 
      1       4.5364      2.00000
      2       6.7206      2.00000
      3       8.6747      2.00000
      4      11.6691      0.00000
      5      21.9456      0.00000
      6      25.5445      0.00000
      7      26.9102      0.00000
      8      28.8385      0.00000

 k-point   270 :      -0.2381    0.3810    0.1429
  band No.  band energies     occupation 
      1       3.3940      2.00000
      2       7.8324      2.00000
      3       8.7522      2.00000
      4      12.2466      0.00000
      5      22.4303      0.00000
      6      25.0156      0.00000
      7      25.8498      0.00000
      8      30.2344      0.00000

 k-point   271 :      -0.4286    0.4286    0.1429
  band No.  band energies     occupation 
      1       3.4783      2.00000
      2       8.7561      2.00000
      3       9.6453      2.00000
      4      10.6772      0.00000
      5      20.0865      0.00000
      6      21.2150      0.00000
      7      29.0353      0.00000
      8      32.8954      0.00000

 k-point   272 :      -0.3810    0.4286    0.1429
  band No.  band energies     occupation 
      1       4.5361      2.00000
      2       8.0086      2.00000
      3       8.5838      2.00000
      4      10.4896      0.00000
      5      20.6774      0.00000
      6      22.5222      0.00000
      7      28.5020      0.00000
      8      31.2913      0.00000

 k-point   273 :      -0.3333    0.4286    0.1429
  band No.  band energies     occupation 
      1       5.6686      2.00000
      2       6.9632      2.00000
      3       7.7862      2.00000
      4      10.7236      0.00000
      5      21.0444      0.00000
      6      24.2081      0.00000
      7      27.9970      0.00000
      8      29.6092      0.00000

 k-point   274 :      -0.2857    0.4286    0.1429
  band No.  band energies     occupation 
      1       5.6947      2.00000
      2       6.6755      2.00000
      3       7.6377      2.00000
      4      11.1277      0.00000
      5      21.4598      0.00000
      6      25.8153      0.00000
      7      27.2022      0.00000
      8      28.4625      0.00000

 k-point   275 :      -0.3810    0.4762    0.1429
  band No.  band energies     occupation 
      1       5.0217      2.00000
      2       6.9551      2.00000
      3       9.4809      2.00000
      4      10.4716      0.00000
      5      19.9264      0.00000
      6      21.0774      0.00000
      7      30.3394      0.00000
      8      31.7002      0.00000

 k-point   276 :      -0.3333    0.4762    0.1429
  band No.  band energies     occupation 
      1       5.8482      2.00000
      2       6.6435      2.00000
      3       8.4209      2.00000
      4      10.3911      0.00000
      5      20.6006      0.00000
      6      22.4588      0.00000
      7      29.6193      0.00000
      8      30.1722      0.00000

 k-point   277 :      -0.4286    0.3810    0.1905
  band No.  band energies     occupation 
      1       2.6359      2.00000
      2       8.8224      2.00000
      3       9.6665      2.00000
      4      11.5883      0.00000
      5      22.6474      0.00000
      6      23.1458      0.00000
      7      25.6235      0.00000
      8      32.0782      0.00000

 k-point   278 :      -0.3810    0.3810    0.1905
  band No.  band energies     occupation 
      1       3.7085      2.00000
      2       7.6184      2.00000
      3       9.5015      2.00000
      4      10.9434      0.00000
      5      22.9934      0.00000
      6      24.0639      0.00000
      7      25.6163      0.00000
      8      30.5633      0.00000

 k-point   279 :      -0.3333    0.3810    0.1905
  band No.  band energies     occupation 
      1       4.8727      2.00000
      2       6.2681      2.00000
      3       9.6528      2.00000
      4      10.5052      0.00000
      5      23.0945      0.00000
      6      24.2630      0.00000
      7      26.6699      0.00000
      8      29.0232      0.00000

 k-point   280 :      -0.3810    0.4286    0.1905
  band No.  band energies     occupation 
      1       4.0643      2.00000
      2       8.4928      2.00000
      3       8.9903      2.00000
      4       9.9183      2.00000
      5      22.3371      0.00000
      6      23.0395      0.00000
      7      26.7072      0.00000
      8      30.9233      0.00000

 k-point   281 :      -0.3333    0.4286    0.1905
  band No.  band energies     occupation 
      1       5.1940      2.00000
      2       7.3520      2.00000
      3       8.6720      2.00000
      4       9.6173      2.00000
      5      22.8687      0.00000
      6      24.3206      0.00000
      7      26.3057      0.00000
      8      29.2440      0.00000

 k-point   282 :      -0.2857    0.4286    0.1905
  band No.  band energies     occupation 
      1       5.9531      2.00000
      2       6.5210      2.00000
      3       8.3659      2.00000
      4       9.8357      2.00000
      5      23.1891      0.00000
      6      25.2215      0.00000
      7      26.1822      0.00000
      8      28.0906      0.00000

 k-point   283 :      -0.2381    0.4286    0.1905
  band No.  band energies     occupation 
      1       4.8099      2.00000
      2       7.5022      2.00000
      3       8.3732      2.00000
      4      10.3037      0.00121
      5      23.4922      0.00000
      6      24.7175      0.00000
      7      25.6989      0.00000
      8      28.9646      0.00000

 k-point   284 :      -0.3333    0.4762    0.1905
  band No.  band energies     occupation 
      1       5.5985      2.00000
      2       7.4724      2.00000
      3       8.3280      2.00000
      4       9.4393      2.00000
      5      22.1807      0.00000
      6      22.9584      0.00000
      7      27.9343      0.00000
      8      29.5996      0.00000

 k-point   285 :      -0.2857    0.4762    0.1905
  band No.  band energies     occupation 
      1       6.5102      2.00000
      2       6.9965      2.00000
      3       7.6021      2.00000
      4       9.4130      2.00000
      5      22.8114      0.00000
      6      24.3576      0.00000
      7      27.0601      0.00000
      8      28.3190      0.00000

 k-point   286 :      -0.2857    0.4762    0.2381
  band No.  band energies     occupation 
      1       6.3234      2.00000
      2       7.3370      2.00000
      3       7.8357      2.00000
      4       8.8689      2.00000
      5      24.3043      0.00000
      6      24.5669      0.00000
      7      25.7407      0.00000
      8      27.8687      0.00000


--------------------------------------------------------------------------------------------------------


 soft charge-density along one line, spin component           1
         0         1         2         3         4         5         6         7         8         9
 total charge-density along one line
 
 pseudopotential strength for first ion, spin component:           1
 17.968  25.066  -0.000  -0.000  -0.000  -0.000  -0.000  -0.000
 25.066  34.973  -0.000  -0.000  -0.000  -0.000  -0.000  -0.000
 -0.000  -0.000   4.096  -0.000  -0.000   7.630  -0.000  -0.000
 -0.000  -0.000  -0.000   4.096  -0.000  -0.000   7.630  -0.000
 -0.000  -0.000  -0.000  -0.000   4.096  -0.000  -0.000   7.630
 -0.000  -0.000   7.630  -0.000  -0.000  14.224  -0.000  -0.000
 -0.000  -0.000  -0.000   7.630  -0.000  -0.000  14.224  -0.000
 -0.000  -0.000  -0.000  -0.000   7.630  -0.000  -0.000  14.224
 total augmentation occupancy for first ion, spin component:           1
  4.859  -2.037   0.000   0.000   0.000   0.000   0.000   0.000
 -2.037   1.322   0.000   0.000   0.000   0.000   0.000   0.000
  0.000   0.000   2.291  -0.000  -0.000  -0.542   0.000   0.000
  0.000   0.000  -0.000   2.291  -0.000   0.000  -0.542   0.000
  0.000   0.000  -0.000  -0.000   2.291   0.000   0.000  -0.542
  0.000   0.000  -0.542   0.000   0.000   0.142  -0.000  -0.000
  0.000   0.000   0.000  -0.542   0.000  -0.000   0.142  -0.000
  0.000   0.000   0.000   0.000  -0.542  -0.000  -0.000   0.142


------------------------ aborting loop because EDIFF is reached ----------------------------------------





 total charge

# of ion       s       p       d       tot
------------------------------------------
    1        0.840   0.699   0.000   1.539
 
    CHARGE:  cpu time    0.1180: real time    0.1182
    FORLOC:  cpu time    0.0000: real time    0.0008
    FORNL :  cpu time    0.0870: real time    0.0878
    STRESS:  cpu time    0.9799: real time    0.9792
    FORCOR:  cpu time    0.0170: real time    0.0180
    FORHAR:  cpu time    0.0030: real time    0.0035
    MIXING:  cpu time    0.0000: real time    0.0008
    OFIELD:  cpu time    0.0010: real time    0.0002

  FORCE on cell =-STRESS in cart. coord.  units (eV):
  Direction    XX          YY          ZZ          XY          YZ          ZX
  --------------------------------------------------------------------------------------
  Alpha Z     2.32637     2.32637     2.32637
  Ewald     -45.51340   -45.51340   -45.51340     0.00000     0.00001     0.00001
  Hartree     0.14858     0.14858     0.14858     0.00000     0.00000     0.00000
  E(xc)     -12.69367   -12.69367   -12.69367    -0.00000    -0.00000    -0.00000
  Local      -4.96148    -4.96148    -4.96147     0.00000     0.00000     0.00000
  n-local    36.29611    38.58217    40.23046    -0.21370     0.08687    -0.10767
  augment    -6.28906    -6.28906    -6.28907    -0.00000    -0.00000    -0.00000
  Kinetic    52.30449    27.22133     6.26007    -4.07113     2.03573    -0.20510
  Fock        0.00000     0.00000     0.00000     0.00000     0.00000     0.00000
  -------------------------------------------------------------------------------------
  Total      -0.01778    -0.01778    -0.01778    -0.00000     0.00000     0.00000
  in kB      -1.96843    -1.96843    -1.96843    -0.00000     0.00000     0.00000
  external pressure =       -1.97 kB  Pullay stress =        0.00 kB


 VOLUME and BASIS-vectors are now :
 -----------------------------------------------------------------------------
  energy-cutoff  :      450.00
  volume of cell :       14.47
      direct lattice vectors                 reciprocal lattice vectors
     2.368794999  0.000000000  1.367623286     0.422155569 -0.149254548 -0.000000000
     0.789598333  2.233321111  1.367623286    -0.000000000  0.447763645 -0.000000000
     0.000000001  0.000000001  2.735248588    -0.211077629 -0.149254438  0.365597483

  length of vectors
     2.735248288  2.735248099  2.735248588     0.447763603  0.447763645  0.447763523


 FORCES acting on ions
    electron-ion (+dipol)            ewald-force                    non-local-force                 convergence-correction
 -----------------------------------------------------------------------------------------------
   0.162E-14 -.231E-15 0.148E-15   -.227E-15 -.256E-16 0.167E-15   -.150E-23 -.429E-24 0.000E+00   -.947E-16 0.660E-16 -.396E-17
 -----------------------------------------------------------------------------------------------
   0.162E-14 -.231E-15 0.148E-15   -.227E-15 -.256E-16 0.167E-15   -.150E-23 -.429E-24 0.000E+00   -.947E-16 0.660E-16 -.396E-17
 
 
 POSITION                                       TOTAL-FORCE (eV/Angst)
 -----------------------------------------------------------------------------------
      0.00000      0.00000      0.00000        -0.000000     -0.000000      0.000000
 -----------------------------------------------------------------------------------
    total drift:                                0.000000     -0.000000      0.000000


--------------------------------------------------------------------------------------------------------



  FREE ENERGIE OF THE ION-ELECTRON SYSTEM (eV)
  ---------------------------------------------------
  free  energy   TOTEN  =        -4.89041506 eV

  energy  without entropy=       -4.88978506  energy(sigma->0) =       -4.89010006
 


--------------------------------------------------------------------------------------------------------


    POTLOK:  cpu time    0.1870: real time    0.1942


--------------------------------------------------------------------------------------------------------


 writing wavefunctions
     LOOP+:  cpu time   23.5584: real time   24.7910
    4ORBIT:  cpu time    0.0000: real time    0.0000



 total charge

# of ion       s       p       d       tot
------------------------------------------
    1        0.840   0.699   0.000   1.539
 

 total amount of memory used by VASP MPI-rank0    42739. kBytes
=======================================================================

   base      :      30000. kBytes
   nonl-proj :       6082. kBytes
   fftplans  :       2423. kBytes
   grid      :       1120. kBytes
   one-center:          3. kBytes
   wavefun   :       3111. kBytes
 
  
  
 General timing and accounting informations for this job:
 ========================================================
  
                  Total CPU time used (sec):       25.749
                            User time (sec):       24.527
                          System time (sec):        1.222
                         Elapsed time (sec):       30.133
  
                   Maximum memory used (kb):       75284.
                   Average memory used (kb):          N/A
  
                          Minor page faults:        12027
                          Major page faults:            1
                 Voluntary context switches:       117720
