PROCAR lm decomposed
# of k-points:  286         # of bands:    8         # of ions:    1

 k-point     1 :    0.00000000 0.00000000 0.00000000     weight = 0.00010798

band     1 # energy   -4.28398592 # occ.  2.00000000
 
ion      s     py     pz     px    dxy    dyz    dz2    dxz  x2-y2    tot
    1  0.387  0.000  0.000  0.000  0.000  0.000  0.000  0.000  0.000  0.387
 
band     2 # energy   21.30828614 # occ.  0.00000000
 
ion      s     py     pz     px    dxy    dyz    dz2    dxz  x2-y2    tot
    1  0.000  0.058  0.318  0.300  0.000  0.000  0.000  0.000  0.000  0.676
 
band     3 # energy   21.30829325 # occ.  0.00000000
 
ion      s     py     pz     px    dxy    dyz    dz2    dxz  x2-y2    tot
    1  0.000  0.448  0.024  0.205  0.000  0.000  0.000  0.000  0.000  0.676
 
band     4 # energy   21.30830172 # occ.  0.00000000
 
ion      s     py     pz     px    dxy    dyz    dz2    dxz  x2-y2    tot
    1  0.000  0.170  0.334  0.172  0.000  0.000  0.000  0.000  0.000  0.676
 
band     5 # energy   22.09803737 # occ.  0.00000000
 
ion      s     py     pz     px    dxy    dyz    dz2    dxz  x2-y2    tot
    1  0.000  0.000  0.000  0.000  0.000  0.000  0.000  0.000  0.000  0.000
 
band     6 # energy   22.09804559 # occ.  0.00000000
 
ion      s     py     pz     px    dxy    dyz    dz2    dxz  x2-y2    tot
    1  0.000  0.000  0.000  0.000  0.000  0.000  0.000  0.000  0.000  0.000
 
band     7 # energy   22.09805453 # occ.  0.00000000
 
ion      s     py     pz     px    dxy    dyz    dz2    dxz  x2-y2    tot
    1  0.000  0.000  0.000  0.000  0.000  0.000  0.000  0.000  0.000  0.000
 
band     8 # energy   27.43450212 # occ.  0.00000000
 
ion      s     py     pz     px    dxy    dyz    dz2    dxz  x2-y2    tot
    1  0.000  0.000  0.000  0.000  0.000  0.000  0.000  0.000  0.000  0.000
 

 k-point     2 :    0.04761905 0.00000000-0.00000000     weight = 0.00086384

band     1 # energy   -4.21793394 # occ.  2.00000000
 
ion      s     py     pz     px    dxy    dyz    dz2    dxz  x2-y2    tot
    1  0.385  0.000  0.000  0.002  0.000  0.000  0.000  0.000  0.000  0.387
 
band     2 # energy   19.92686553 # occ.  0.00000000
 
ion      s     py     pz     px    dxy    dyz    dz2    dxz  x2-y2    tot
    1  0.008  0.045  0.000  0.357  0.000  0.000  0.000  0.000  0.000  0.409
 
band     3 # energy   20.88040619 # occ.  0.00000000
 
ion      s     py     pz     px    dxy    dyz    dz2    dxz  x2-y2    tot
    1  0.000  0.214  0.266  0.027  0.000  0.000  0.000  0.000  0.000  0.507
 
band     4 # energy   20.88041841 # occ.  0.00000000
 
ion      s     py     pz     px    dxy    dyz    dz2    dxz  x2-y2    tot
    1  0.000  0.237  0.241  0.030  0.000  0.000  0.000  0.000  0.000  0.507
 
band     5 # energy   22.60885587 # occ.  0.00000000
 
ion      s     py     pz     px    dxy    dyz    dz2    dxz  x2-y2    tot
    1  0.000  0.073  0.090  0.009  0.000  0.000  0.000  0.000  0.000  0.172
 
band     6 # energy   22.60886987 # occ.  0.00000000
 
ion      s     py     pz     px    dxy    dyz    dz2    dxz  x2-y2    tot
    1  0.000  0.080  0.082  0.010  0.000  0.000  0.000  0.000  0.000  0.172
 
band     7 # energy   22.89881106 # occ.  0.00000000
 
ion      s     py     pz     px    dxy    dyz    dz2    dxz  x2-y2    tot
    1  0.007  0.028  0.000  0.224  0.000  0.000  0.000  0.000  0.000  0.260
 
band     8 # energy   27.98429530 # occ.  0.00000000
 
ion      s     py     pz     px    dxy    dyz    dz2    dxz  x2-y2    tot
    1  0.000  0.000  0.000  0.002  0.000  0.000  0.000  0.000  0.000  0.002
 

 k-point     3 :    0.09523810-0.00000000-0.00000000     weight = 0.00086384

band     1 # energy   -4.01986106 # occ.  2.00000000
 
ion      s     py     pz     px    dxy    dyz    dz2    dxz  x2-y2    tot
    1  0.381  0.001  0.000  0.006  0.000  0.000  0.000  0.000  0.000  0.387
 
band     2 # energy   17.96988408 # occ.  0.00000000
 
ion      s     py     pz     px    dxy    dyz    dz2    dxz  x2-y2    tot
    1  0.023  0.038  0.000  0.302  0.000  0.000  0.000  0.000  0.000  0.362
 
band     3 # energy   20.29618689 # occ.  0.00000000
 
ion      s     py     pz     px    dxy    dyz    dz2    dxz  x2-y2    tot
    1  0.000  0.195  0.236  0.024  0.000  0.000  0.000  0.000  0.000  0.456
 
band     4 # energy   20.29619845 # occ.  0.00000000
 
ion      s     py     pz     px    dxy    dyz    dz2    dxz  x2-y2    tot
    1  0.000  0.210  0.220  0.026  0.000  0.000  0.000  0.000  0.000  0.456
 
band     5 # energy   23.34563407 # occ.  0.00000000
 
ion      s     py     pz     px    dxy    dyz    dz2    dxz  x2-y2    tot
    1  0.032  0.028  0.000  0.223  0.000  0.000  0.000  0.000  0.000  0.283
 
band     6 # energy   23.41340477 # occ.  0.00000000
 
ion      s     py     pz     px    dxy    dyz    dz2    dxz  x2-y2    tot
    1  0.000  0.098  0.121  0.012  0.000  0.000  0.000  0.000  0.000  0.232
 
band     7 # energy   23.41341915 # occ.  0.00000000
 
ion      s     py     pz     px    dxy    dyz    dz2    dxz  x2-y2    tot
    1  0.000  0.108  0.110  0.013  0.000  0.000  0.000  0.000  0.000  0.232
 
band     8 # energy   27.85573502 # occ.  0.00000000
 
ion      s     py     pz     px    dxy    dyz    dz2    dxz  x2-y2    tot
    1  0.000  0.000  0.003  0.000  0.000  0.000  0.000  0.000  0.000  0.004
 

 k-point     4 :    0.14285714-0.00000000-0.00000000     weight = 0.00086384

band     1 # energy   -3.69021145 # occ.  2.00000000
 
ion      s     py     pz     px    dxy    dyz    dz2    dxz  x2-y2    tot
    1  0.373  0.002  0.000  0.013  0.000  0.000  0.000  0.000  0.000  0.388
 
band     2 # energy   15.93228794 # occ.  0.00000000
 
ion      s     py     pz     px    dxy    dyz    dz2    dxz  x2-y2    tot
    1  0.040  0.035  0.000  0.276  0.000  0.000  0.000  0.000  0.000  0.351
 
band     3 # energy   19.78677503 # occ.  0.00000000
 
ion      s     py     pz     px    dxy    dyz    dz2    dxz  x2-y2    tot
    1  0.000  0.195  0.229  0.024  0.000  0.000  0.000  0.000  0.000  0.448
 
band     4 # energy   19.78678583 # occ.  0.00000000
 
ion      s     py     pz     px    dxy    dyz    dz2    dxz  x2-y2    tot
    1  0.000  0.203  0.219  0.025  0.000  0.000  0.000  0.000  0.000  0.448
 
band     5 # energy   23.42685946 # occ.  0.00000000
 
ion      s     py     pz     px    dxy    dyz    dz2    dxz  x2-y2    tot
    1  0.067  0.023  0.000  0.182  0.000  0.000  0.000  0.000  0.000  0.271
 
band     6 # energy   24.13241051 # occ.  0.00000000
 
ion      s     py     pz     px    dxy    dyz    dz2    dxz  x2-y2    tot
    1  0.000  0.107  0.129  0.013  0.000  0.000  0.000  0.000  0.000  0.250
 
band     7 # energy   24.13242438 # occ.  0.00000000
 
ion      s     py     pz     px    dxy    dyz    dz2    dxz  x2-y2    tot
    1  0.000  0.114  0.121  0.014  0.000  0.000  0.000  0.000  0.000  0.250
 
band     8 # energy   27.17947566 # occ.  0.00000000
 
ion      s     py     pz     px    dxy    dyz    dz2    dxz  x2-y2    tot
    1  0.000  0.000  0.000  0.000  0.000  0.000  0.000  0.000  0.000  0.000
 

 k-point     5 :    0.19047619-0.00000000-0.00000000     weight = 0.00086384

band     1 # energy   -3.22967624 # occ.  2.00000000
 
ion      s     py     pz     px    dxy    dyz    dz2    dxz  x2-y2    tot
    1  0.363  0.003  0.000  0.023  0.000  0.000  0.000  0.000  0.000  0.389
 
band     2 # energy   13.91229690 # occ.  0.00000000
 
ion      s     py     pz     px    dxy    dyz    dz2    dxz  x2-y2    tot
    1  0.060  0.032  0.000  0.258  0.000  0.000  0.000  0.000  0.000  0.350
 
band     3 # energy   19.37505743 # occ.  0.00000000
 
ion      s     py     pz     px    dxy    dyz    dz2    dxz  x2-y2    tot
    1  0.000  0.201  0.229  0.025  0.000  0.000  0.000  0.000  0.000  0.455
 
band     4 # energy   19.37506742 # occ.  0.00000000
 
ion      s     py     pz     px    dxy    dyz    dz2    dxz  x2-y2    tot
    1  0.000  0.203  0.226  0.025  0.000  0.000  0.000  0.000  0.000  0.455
 
band     5 # energy   23.37266204 # occ.  0.00000000
 
ion      s     py     pz     px    dxy    dyz    dz2    dxz  x2-y2    tot
    1  0.102  0.017  0.000  0.136  0.000  0.000  0.000  0.000  0.000  0.255
 
band     6 # energy   24.30099492 # occ.  0.00000000
 
ion      s     py     pz     px    dxy    dyz    dz2    dxz  x2-y2    tot
    1  0.000  0.099  0.104  0.012  0.000  0.000  0.000  0.000  0.000  0.215
 
band     7 # energy   24.30100573 # occ.  0.00000000
 
ion      s     py     pz     px    dxy    dyz    dz2    dxz  x2-y2    tot
    1  0.000  0.092  0.112  0.012  0.000  0.000  0.000  0.000  0.000  0.215
 
band     8 # energy   27.15270931 # occ.  0.00000000
 
ion      s     py     pz     px    dxy    dyz    dz2    dxz  x2-y2    tot
    1  0.000  0.027  0.001  0.003  0.000  0.000  0.000  0.000  0.000  0.031
 

 k-point     6 :    0.23809524 0.00000000-0.00000000     weight = 0.00086384

band     1 # energy   -2.63923145 # occ.  2.00000000
 
ion      s     py     pz     px    dxy    dyz    dz2    dxz  x2-y2    tot
    1  0.350  0.004  0.000  0.035  0.000  0.000  0.000  0.000  0.000  0.390
 
band     2 # energy   11.95261831 # occ.  0.00000000
 
ion      s     py     pz     px    dxy    dyz    dz2    dxz  x2-y2    tot
    1  0.080  0.030  0.000  0.243  0.000  0.000  0.000  0.000  0.000  0.354
 
band     3 # energy   19.06442903 # occ.  0.00000000
 
ion      s     py     pz     px    dxy    dyz    dz2    dxz  x2-y2    tot
    1  0.000  0.211  0.232  0.026  0.000  0.000  0.000  0.000  0.000  0.469
 
band     4 # energy   19.06443813 # occ.  0.00000000
 
ion      s     py     pz     px    dxy    dyz    dz2    dxz  x2-y2    tot
    1  0.000  0.206  0.237  0.026  0.000  0.000  0.000  0.000  0.000  0.469
 
band     5 # energy   23.29465120 # occ.  0.00000000
 
ion      s     py     pz     px    dxy    dyz    dz2    dxz  x2-y2    tot
    1  0.136  0.012  0.000  0.095  0.000  0.000  0.000  0.000  0.000  0.243
 
band     6 # energy   23.78219463 # occ.  0.00000000
 
ion      s     py     pz     px    dxy    dyz    dz2    dxz  x2-y2    tot
    1  0.000  0.077  0.071  0.010  0.000  0.000  0.000  0.000  0.000  0.158
 
band     7 # energy   23.78220348 # occ.  0.00000000
 
ion      s     py     pz     px    dxy    dyz    dz2    dxz  x2-y2    tot
    1  0.000  0.063  0.087  0.008  0.000  0.000  0.000  0.000  0.000  0.158
 
band     8 # energy   27.97340912 # occ.  0.00000000
 
ion      s     py     pz     px    dxy    dyz    dz2    dxz  x2-y2    tot
    1  0.000  0.040  0.027  0.005  0.000  0.000  0.000  0.000  0.000  0.072
 

 k-point     7 :    0.28571429-0.00000000-0.00000000     weight = 0.00086384

band     1 # energy   -1.92015395 # occ.  2.00000000
 
ion      s     py     pz     px    dxy    dyz    dz2    dxz  x2-y2    tot
    1  0.336  0.006  0.000  0.049  0.000  0.000  0.000  0.000  0.000  0.391
 
band     2 # energy   10.07552311 # occ.  1.99870175
 
ion      s     py     pz     px    dxy    dyz    dz2    dxz  x2-y2    tot
    1  0.101  0.029  0.000  0.229  0.000  0.000  0.000  0.000  0.000  0.359
 
band     3 # energy   18.85282978 # occ.  0.00000000
 
ion      s     py     pz     px    dxy    dyz    dz2    dxz  x2-y2    tot
    1  0.000  0.225  0.236  0.028  0.000  0.000  0.000  0.000  0.000  0.489
 
band     4 # energy   18.85283790 # occ.  0.00000000
 
ion      s     py     pz     px    dxy    dyz    dz2    dxz  x2-y2    tot
    1  0.000  0.210  0.253  0.026  0.000  0.000  0.000  0.000  0.000  0.489
 
band     5 # energy   23.05218191 # occ.  0.00000000
 
ion      s     py     pz     px    dxy    dyz    dz2    dxz  x2-y2    tot
    1  0.000  0.061  0.056  0.008  0.000  0.000  0.000  0.000  0.000  0.124
 
band     6 # energy   23.05219077 # occ.  0.00000000
 
ion      s     py     pz     px    dxy    dyz    dz2    dxz  x2-y2    tot
    1  0.000  0.049  0.068  0.006  0.000  0.000  0.000  0.000  0.000  0.124
 
band     7 # energy   23.24501476 # occ.  0.00000000
 
ion      s     py     pz     px    dxy    dyz    dz2    dxz  x2-y2    tot
    1  0.166  0.008  0.000  0.062  0.000  0.000  0.000  0.000  0.000  0.236
 
band     8 # energy   28.30618393 # occ.  0.00000000
 
ion      s     py     pz     px    dxy    dyz    dz2    dxz  x2-y2    tot
    1  0.013  0.010  0.000  0.078  0.000  0.000  0.000  0.000  0.000  0.101
 

 k-point     8 :    0.33333333 0.00000000-0.00000000     weight = 0.00086384

band     1 # energy   -1.07429682 # occ.  2.00000000
 
ion      s     py     pz     px    dxy    dyz    dz2    dxz  x2-y2    tot
    1  0.320  0.008  0.000  0.064  0.000  0.000  0.000  0.000  0.000  0.392
 
band     2 # energy    8.29430011 # occ.  2.00000000
 
ion      s     py     pz     px    dxy    dyz    dz2    dxz  x2-y2    tot
    1  0.122  0.027  0.000  0.215  0.000  0.000  0.000  0.000  0.000  0.364
 
band     3 # energy   18.73314095 # occ.  0.00000000
 
ion      s     py     pz     px    dxy    dyz    dz2    dxz  x2-y2    tot
    1  0.000  0.244  0.241  0.031  0.000  0.000  0.000  0.000  0.000  0.515
 
band     4 # energy   18.73314799 # occ.  0.00000000
 
ion      s     py     pz     px    dxy    dyz    dz2    dxz  x2-y2    tot
    1  0.000  0.214  0.275  0.027  0.000  0.000  0.000  0.000  0.000  0.515
 
band     5 # energy   22.34514653 # occ.  0.00000000
 
ion      s     py     pz     px    dxy    dyz    dz2    dxz  x2-y2    tot
    1  0.000  0.046  0.044  0.006  0.000  0.000  0.000  0.000  0.000  0.096
 
band     6 # energy   22.34515614 # occ.  0.00000000
 
ion      s     py     pz     px    dxy    dyz    dz2    dxz  x2-y2    tot
    1  0.000  0.039  0.052  0.005  0.000  0.000  0.000  0.000  0.000  0.096
 
band     7 # energy   23.24580889 # occ.  0.00000000
 
ion      s     py     pz     px    dxy    dyz    dz2    dxz  x2-y2    tot
    1  0.194  0.004  0.000  0.036  0.000  0.000  0.000  0.000  0.000  0.235
 
band     8 # energy   27.49467384 # occ.  0.00000000
 
ion      s     py     pz     px    dxy    dyz    dz2    dxz  x2-y2    tot
    1  0.019  0.007  0.000  0.058  0.000  0.000  0.000  0.000  0.000  0.084
 

 k-point     9 :    0.38095238-0.00000000-0.00000000     weight = 0.00086384

band     1 # energy   -0.10431298 # occ.  2.00000000
 
ion      s     py     pz     px    dxy    dyz    dz2    dxz  x2-y2    tot
    1  0.306  0.010  0.000  0.079  0.000  0.000  0.000  0.000  0.000  0.394
 
band     2 # energy    6.61843397 # occ.  2.00000000
 
ion      s     py     pz     px    dxy    dyz    dz2    dxz  x2-y2    tot
    1  0.141  0.025  0.000  0.201  0.000  0.000  0.000  0.000  0.000  0.367
 
band     3 # energy   18.69122846 # occ.  0.00000000
 
ion      s     py     pz     px    dxy    dyz    dz2    dxz  x2-y2    tot
    1  0.000  0.271  0.244  0.034  0.000  0.000  0.000  0.000  0.000  0.548
 
band     4 # energy   18.69123432 # occ.  0.00000000
 
ion      s     py     pz     px    dxy    dyz    dz2    dxz  x2-y2    tot
    1  0.000  0.217  0.304  0.027  0.000  0.000  0.000  0.000  0.000  0.548
 
band     5 # energy   21.74273968 # occ.  0.00000000
 
ion      s     py     pz     px    dxy    dyz    dz2    dxz  x2-y2    tot
    1  0.000  0.031  0.031  0.004  0.000  0.000  0.000  0.000  0.000  0.065
 
band     6 # energy   21.74275035 # occ.  0.00000000
 
ion      s     py     pz     px    dxy    dyz    dz2    dxz  x2-y2    tot
    1  0.000  0.027  0.035  0.003  0.000  0.000  0.000  0.000  0.000  0.065
 
band     7 # energy   23.29869431 # occ.  0.00000000
 
ion      s     py     pz     px    dxy    dyz    dz2    dxz  x2-y2    tot
    1  0.221  0.002  0.000  0.018  0.000  0.000  0.000  0.000  0.000  0.241
 
band     8 # energy   26.80713106 # occ.  0.00000000
 
ion      s     py     pz     px    dxy    dyz    dz2    dxz  x2-y2    tot
    1  0.018  0.005  0.000  0.041  0.000  0.000  0.000  0.000  0.000  0.064
 

 k-point    10 :    0.42857143-0.00000000-0.00000000     weight = 0.00086384

band     1 # energy    0.98394949 # occ.  2.00000000
 
ion      s     py     pz     px    dxy    dyz    dz2    dxz  x2-y2    tot
    1  0.297  0.011  0.000  0.089  0.000  0.000  0.000  0.000  0.000  0.397
 
band     2 # energy    5.05776480 # occ.  2.00000000
 
ion      s     py     pz     px    dxy    dyz    dz2    dxz  x2-y2    tot
    1  0.152  0.024  0.000  0.192  0.000  0.000  0.000  0.000  0.000  0.368
 
band     3 # energy   18.70145785 # occ.  0.00000000
 
ion      s     py     pz     px    dxy    dyz    dz2    dxz  x2-y2    tot
    1  0.000  0.306  0.241  0.038  0.000  0.000  0.000  0.000  0.000  0.585
 
band     4 # energy   18.70146254 # occ.  0.00000000
 
ion      s     py     pz     px    dxy    dyz    dz2    dxz  x2-y2    tot
    1  0.000  0.214  0.344  0.027  0.000  0.000  0.000  0.000  0.000  0.585
 
band     5 # energy   21.29499945 # occ.  0.00000000
 
ion      s     py     pz     px    dxy    dyz    dz2    dxz  x2-y2    tot
    1  0.000  0.014  0.015  0.002  0.000  0.000  0.000  0.000  0.000  0.031
 
band     6 # energy   21.29501126 # occ.  0.00000000
 
ion      s     py     pz     px    dxy    dyz    dz2    dxz  x2-y2    tot
    1  0.000  0.013  0.016  0.002  0.000  0.000  0.000  0.000  0.000  0.031
 
band     7 # energy   23.38255860 # occ.  0.00000000
 
ion      s     py     pz     px    dxy    dyz    dz2    dxz  x2-y2    tot
    1  0.246  0.001  0.000  0.006  0.000  0.000  0.000  0.000  0.000  0.253
 
band     8 # energy   26.28904556 # occ.  0.00000000
 
ion      s     py     pz     px    dxy    dyz    dz2    dxz  x2-y2    tot
    1  0.010  0.004  0.000  0.029  0.000  0.000  0.000  0.000  0.000  0.043
 

 k-point    11 :    0.47619048-0.00000000-0.00000000     weight = 0.00086384

band     1 # energy    2.15517036 # occ.  2.00000000
 
ion      s     py     pz     px    dxy    dyz    dz2    dxz  x2-y2    tot
    1  0.336  0.009  0.000  0.070  0.000  0.000  0.000  0.000  0.000  0.414
 
band     2 # energy    3.64979580 # occ.  2.00000000
 
ion      s     py     pz     px    dxy    dyz    dz2    dxz  x2-y2    tot
    1  0.115  0.026  0.000  0.211  0.000  0.000  0.000  0.000  0.000  0.353
 
band     3 # energy   18.72480420 # occ.  0.00000000
 
ion      s     py     pz     px    dxy    dyz    dz2    dxz  x2-y2    tot
    1  0.000  0.339  0.232  0.042  0.000  0.000  0.000  0.000  0.000  0.614
 
band     4 # energy   18.72480808 # occ.  0.00000000
 
ion      s     py     pz     px    dxy    dyz    dz2    dxz  x2-y2    tot
    1  0.000  0.207  0.381  0.026  0.000  0.000  0.000  0.000  0.000  0.614
 
band     5 # energy   21.05100444 # occ.  0.00000000
 
ion      s     py     pz     px    dxy    dyz    dz2    dxz  x2-y2    tot
    1  0.000  0.002  0.002  0.000  0.000  0.000  0.000  0.000  0.000  0.004
 
band     6 # energy   21.05101708 # occ.  0.00000000
 
ion      s     py     pz     px    dxy    dyz    dz2    dxz  x2-y2    tot
    1  0.000  0.002  0.002  0.000  0.000  0.000  0.000  0.000  0.000  0.004
 
band     7 # energy   23.45012249 # occ.  0.00000000
 
ion      s     py     pz     px    dxy    dyz    dz2    dxz  x2-y2    tot
    1  0.264  0.000  0.000  0.001  0.000  0.000  0.000  0.000  0.000  0.264
 
band     8 # energy   26.00121965 # occ.  0.00000000
 
ion      s     py     pz     px    dxy    dyz    dz2    dxz  x2-y2    tot
    1  0.002  0.003  0.000  0.022  0.000  0.000  0.000  0.000  0.000  0.027
 

 k-point    12 :    0.04761905 0.04761905-0.00000000     weight = 0.00064788

band     1 # energy   -4.19590981 # occ.  2.00000000
 
ion      s     py     pz     px    dxy    dyz    dz2    dxz  x2-y2    tot
    1  0.385  0.001  0.000  0.002  0.000  0.000  0.000  0.000  0.000  0.387
 
band     2 # energy   20.18083556 # occ.  0.00000000
 
ion      s     py     pz     px    dxy    dyz    dz2    dxz  x2-y2    tot
    1  0.000  0.293  0.000  0.146  0.000  0.000  0.000  0.000  0.000  0.439
 
band     3 # energy   20.18083651 # occ.  0.00000000
 
ion      s     py     pz     px    dxy    dyz    dz2    dxz  x2-y2    tot
    1  0.000  0.000  0.439  0.000  0.000  0.000  0.000  0.000  0.000  0.439
 
band     4 # energy   21.09843195 # occ.  0.00000000
 
ion      s     py     pz     px    dxy    dyz    dz2    dxz  x2-y2    tot
    1  0.020  0.218  0.000  0.437  0.000  0.000  0.000  0.000  0.000  0.675
 
band     5 # energy   21.58473254 # occ.  0.00000000
 
ion      s     py     pz     px    dxy    dyz    dz2    dxz  x2-y2    tot
    1  0.000  0.000  0.000  0.000  0.000  0.000  0.000  0.000  0.000  0.000
 
band     6 # energy   23.33647184 # occ.  0.00000000
 
ion      s     py     pz     px    dxy    dyz    dz2    dxz  x2-y2    tot
    1  0.000  0.159  0.000  0.079  0.000  0.000  0.000  0.000  0.000  0.238
 
band     7 # energy   23.33647276 # occ.  0.00000000
 
ion      s     py     pz     px    dxy    dyz    dz2    dxz  x2-y2    tot
    1  0.000  0.000  0.238  0.000  0.000  0.000  0.000  0.000  0.000  0.238
 
band     8 # energy   27.96524132 # occ.  0.00000000
 
ion      s     py     pz     px    dxy    dyz    dz2    dxz  x2-y2    tot
    1  0.001  0.003  0.000  0.006  0.000  0.000  0.000  0.000  0.000  0.010
 

 k-point    13 :    0.09523810 0.04761905-0.00000000     weight = 0.00259151

band     1 # energy   -4.04185419 # occ.  2.00000000
 
ion      s     py     pz     px    dxy    dyz    dz2    dxz  x2-y2    tot
    1  0.381  0.000  0.000  0.006  0.000  0.000  0.000  0.000  0.000  0.387
 
band     2 # energy   18.63954067 # occ.  0.00000000
 
ion      s     py     pz     px    dxy    dyz    dz2    dxz  x2-y2    tot
    1  0.014  0.086  0.000  0.275  0.000  0.000  0.000  0.000  0.000  0.375
 
band     3 # energy   19.54016933 # occ.  0.00000000
 
ion      s     py     pz     px    dxy    dyz    dz2    dxz  x2-y2    tot
    1  0.000  0.000  0.423  0.000  0.000  0.000  0.000  0.000  0.000  0.423
 
band     4 # energy   20.80636009 # occ.  0.00000000
 
ion      s     py     pz     px    dxy    dyz    dz2    dxz  x2-y2    tot
    1  0.022  0.290  0.000  0.190  0.000  0.000  0.000  0.000  0.000  0.502
 
band     5 # energy   21.83440935 # occ.  0.00000000
 
ion      s     py     pz     px    dxy    dyz    dz2    dxz  x2-y2    tot
    1  0.002  0.213  0.000  0.005  0.000  0.000  0.000  0.000  0.000  0.220
 
band     6 # energy   23.97461547 # occ.  0.00000000
 
ion      s     py     pz     px    dxy    dyz    dz2    dxz  x2-y2    tot
    1  0.013  0.090  0.000  0.144  0.000  0.000  0.000  0.000  0.000  0.247
 
band     7 # energy   24.15628444 # occ.  0.00000000
 
ion      s     py     pz     px    dxy    dyz    dz2    dxz  x2-y2    tot
    1  0.000  0.000  0.257  0.000  0.000  0.000  0.000  0.000  0.000  0.257
 
band     8 # energy   27.00511987 # occ.  0.00000000
 
ion      s     py     pz     px    dxy    dyz    dz2    dxz  x2-y2    tot
    1  0.001  0.004  0.000  0.009  0.000  0.000  0.000  0.000  0.000  0.015
 

 k-point    14 :    0.14285714 0.04761905-0.00000000     weight = 0.00259151

band     1 # energy   -3.75607087 # occ.  2.00000000
 
ion      s     py     pz     px    dxy    dyz    dz2    dxz  x2-y2    tot
    1  0.375  0.000  0.000  0.013  0.000  0.000  0.000  0.000  0.000  0.388
 
band     2 # energy   16.64825694 # occ.  0.00000000
 
ion      s     py     pz     px    dxy    dyz    dz2    dxz  x2-y2    tot
    1  0.032  0.059  0.000  0.262  0.000  0.000  0.000  0.000  0.000  0.353
 
band     3 # energy   18.99492226 # occ.  0.00000000
 
ion      s     py     pz     px    dxy    dyz    dz2    dxz  x2-y2    tot
    1  0.000  0.000  0.423  0.000  0.000  0.000  0.000  0.000  0.000  0.423
 
band     4 # energy   20.31643272 # occ.  0.00000000
 
ion      s     py     pz     px    dxy    dyz    dz2    dxz  x2-y2    tot
    1  0.026  0.283  0.000  0.148  0.000  0.000  0.000  0.000  0.000  0.456
 
band     5 # energy   22.54130122 # occ.  0.00000000
 
ion      s     py     pz     px    dxy    dyz    dz2    dxz  x2-y2    tot
    1  0.000  0.303  0.000  0.001  0.000  0.000  0.000  0.000  0.000  0.304
 
band     6 # energy   24.23034977 # occ.  0.00000000
 
ion      s     py     pz     px    dxy    dyz    dz2    dxz  x2-y2    tot
    1  0.041  0.041  0.000  0.138  0.000  0.000  0.000  0.000  0.000  0.220
 
band     7 # energy   24.93334107 # occ.  0.00000000
 
ion      s     py     pz     px    dxy    dyz    dz2    dxz  x2-y2    tot
    1  0.000  0.000  0.267  0.000  0.000  0.000  0.000  0.000  0.000  0.267
 
band     8 # energy   26.08178965 # occ.  0.00000000
 
ion      s     py     pz     px    dxy    dyz    dz2    dxz  x2-y2    tot
    1  0.002  0.000  0.000  0.006  0.000  0.000  0.000  0.000  0.000  0.009
 

 k-point    15 :    0.19047619 0.04761905-0.00000000     weight = 0.00259151

band     1 # energy   -3.33920047 # occ.  2.00000000
 
ion      s     py     pz     px    dxy    dyz    dz2    dxz  x2-y2    tot
    1  0.365  0.000  0.000  0.023  0.000  0.000  0.000  0.000  0.000  0.389
 
band     2 # energy   14.62586795 # occ.  0.00000000
 
ion      s     py     pz     px    dxy    dyz    dz2    dxz  x2-y2    tot
    1  0.051  0.050  0.000  0.249  0.000  0.000  0.000  0.000  0.000  0.350
 
band     3 # energy   18.55458109 # occ.  0.00000000
 
ion      s     py     pz     px    dxy    dyz    dz2    dxz  x2-y2    tot
    1  0.000  0.000  0.429  0.000  0.000  0.000  0.000  0.000  0.000  0.429
 
band     4 # energy   19.87415600 # occ.  0.00000000
 
ion      s     py     pz     px    dxy    dyz    dz2    dxz  x2-y2    tot
    1  0.030  0.305  0.000  0.127  0.000  0.000  0.000  0.000  0.000  0.461
 
band     5 # energy   22.95510266 # occ.  0.00000000
 
ion      s     py     pz     px    dxy    dyz    dz2    dxz  x2-y2    tot
    1  0.003  0.294  0.000  0.000  0.000  0.000  0.000  0.000  0.000  0.298
 
band     6 # energy   24.20502354 # occ.  0.00000000
 
ion      s     py     pz     px    dxy    dyz    dz2    dxz  x2-y2    tot
    1  0.061  0.025  0.000  0.113  0.000  0.000  0.000  0.000  0.000  0.199
 
band     7 # energy   25.31436939 # occ.  0.00000000
 
ion      s     py     pz     px    dxy    dyz    dz2    dxz  x2-y2    tot
    1  0.000  0.000  0.249  0.000  0.000  0.000  0.000  0.000  0.000  0.249
 
band     8 # energy   25.70587907 # occ.  0.00000000
 
ion      s     py     pz     px    dxy    dyz    dz2    dxz  x2-y2    tot
    1  0.010  0.012  0.000  0.000  0.000  0.000  0.000  0.000  0.000  0.022
 

 k-point    16 :    0.23809524 0.04761905-0.00000000     weight = 0.00259151

band     1 # energy   -2.79207205 # occ.  2.00000000
 
ion      s     py     pz     px    dxy    dyz    dz2    dxz  x2-y2    tot
    1  0.353  0.001  0.000  0.036  0.000  0.000  0.000  0.000  0.000  0.390
 
band     2 # energy   12.64729654 # occ.  0.00000000
 
ion      s     py     pz     px    dxy    dyz    dz2    dxz  x2-y2    tot
    1  0.072  0.045  0.000  0.236  0.000  0.000  0.000  0.000  0.000  0.352
 
band     3 # energy   18.22228755 # occ.  0.00000000
 
ion      s     py     pz     px    dxy    dyz    dz2    dxz  x2-y2    tot
    1  0.000  0.000  0.438  0.000  0.000  0.000  0.000  0.000  0.000  0.438
 
band     4 # energy   19.50776917 # occ.  0.00000000
 
ion      s     py     pz     px    dxy    dyz    dz2    dxz  x2-y2    tot
    1  0.033  0.336  0.000  0.113  0.000  0.000  0.000  0.000  0.000  0.481
 
band     5 # energy   22.71507877 # occ.  0.00000000
 
ion      s     py     pz     px    dxy    dyz    dz2    dxz  x2-y2    tot
    1  0.003  0.179  0.000  0.006  0.000  0.000  0.000  0.000  0.000  0.188
 
band     6 # energy   23.98327761 # occ.  0.00000000
 
ion      s     py     pz     px    dxy    dyz    dz2    dxz  x2-y2    tot
    1  0.087  0.068  0.000  0.073  0.000  0.000  0.000  0.000  0.000  0.228
 
band     7 # energy   24.96675727 # occ.  0.00000000
 
ion      s     py     pz     px    dxy    dyz    dz2    dxz  x2-y2    tot
    1  0.000  0.000  0.196  0.000  0.000  0.000  0.000  0.000  0.000  0.196
 
band     8 # energy   26.31439385 # occ.  0.00000000
 
ion      s     py     pz     px    dxy    dyz    dz2    dxz  x2-y2    tot
    1  0.014  0.057  0.000  0.001  0.000  0.000  0.000  0.000  0.000  0.072
 

 k-point    17 :    0.28571429 0.04761905-0.00000000     weight = 0.00259151

band     1 # energy   -2.11588044 # occ.  2.00000000
 
ion      s     py     pz     px    dxy    dyz    dz2    dxz  x2-y2    tot
    1  0.339  0.001  0.000  0.050  0.000  0.000  0.000  0.000  0.000  0.391
 
band     2 # energy   10.74325638 # occ.  0.00000000
 
ion      s     py     pz     px    dxy    dyz    dz2    dxz  x2-y2    tot
    1  0.093  0.042  0.000  0.222  0.000  0.000  0.000  0.000  0.000  0.357
 
band     3 # energy   17.99867609 # occ.  0.00000000
 
ion      s     py     pz     px    dxy    dyz    dz2    dxz  x2-y2    tot
    1  0.000  0.000  0.449  0.000  0.000  0.000  0.000  0.000  0.000  0.449
 
band     4 # energy   19.21355843 # occ.  0.00000000
 
ion      s     py     pz     px    dxy    dyz    dz2    dxz  x2-y2    tot
    1  0.036  0.374  0.000  0.103  0.000  0.000  0.000  0.000  0.000  0.512
 
band     5 # energy   22.08335763 # occ.  0.00000000
 
ion      s     py     pz     px    dxy    dyz    dz2    dxz  x2-y2    tot
    1  0.002  0.090  0.000  0.009  0.000  0.000  0.000  0.000  0.000  0.101
 
band     6 # energy   23.86561097 # occ.  0.00000000
 
ion      s     py     pz     px    dxy    dyz    dz2    dxz  x2-y2    tot
    1  0.120  0.091  0.000  0.040  0.000  0.000  0.000  0.000  0.000  0.251
 
band     7 # energy   24.26682892 # occ.  0.00000000
 
ion      s     py     pz     px    dxy    dyz    dz2    dxz  x2-y2    tot
    1  0.000  0.000  0.165  0.000  0.000  0.000  0.000  0.000  0.000  0.165
 
band     8 # energy   27.40549337 # occ.  0.00000000
 
ion      s     py     pz     px    dxy    dyz    dz2    dxz  x2-y2    tot
    1  0.008  0.089  0.000  0.000  0.000  0.000  0.000  0.000  0.000  0.098
 

 k-point    18 :    0.33333333 0.04761905-0.00000000     weight = 0.00259151

band     1 # energy   -1.31226046 # occ.  2.00000000
 
ion      s     py     pz     px    dxy    dyz    dz2    dxz  x2-y2    tot
    1  0.324  0.003  0.000  0.065  0.000  0.000  0.000  0.000  0.000  0.392
 
band     2 # energy    8.93041208 # occ.  2.00000000
 
ion      s     py     pz     px    dxy    dyz    dz2    dxz  x2-y2    tot