 running on    4 total cores
 distrk:  each k-point on    4 cores,    1 groups
 distr:  one band on    1 cores,    4 groups
 vasp.6.2.0 18Jan21 (build Aug 12 2022 13:00:08) complex                        
  
 POSCAR found type information on POSCAR Si
 POSCAR found :  1 types and       1 ions
 scaLAPACK will be used
 LDA part: xc-table for Pade appr. of Perdew
 POSCAR, INCAR and KPOINTS ok, starting setup
 FFT: planning ...
 WAVECAR not read
 entering main loop
       N       E                     dE             d eps       ncg     rms          rms(c)
DAV:   1    -0.291778241050E+01   -0.29178E+01   -0.16218E+03  4976   0.336E+02
DAV:   2    -0.490029576863E+01   -0.19825E+01   -0.19239E+01  6968   0.270E+01
DAV:   3    -0.491077667126E+01   -0.10481E-01   -0.10479E-01  5000   0.204E+00
DAV:   4    -0.491078644496E+01   -0.97737E-05   -0.97742E-05  7872   0.677E-02
DAV:   5    -0.491078644662E+01   -0.16630E-08   -0.10071E-08  5056   0.426E-04    0.265E+00
DAV:   6    -0.489785459198E+01    0.12932E-01   -0.39357E-03  5320   0.275E-01    0.146E+00
DAV:   7    -0.489044935362E+01    0.74052E-02   -0.79505E-03  5416   0.389E-01    0.133E-01
DAV:   8    -0.489041471523E+01    0.34638E-04   -0.27729E-05  7088   0.426E-02    0.150E-02
DAV:   9    -0.489041505784E+01   -0.34261E-06   -0.33465E-07  5608   0.332E-03
   1 F= -.48904151E+01 E0= -.48901001E+01  d E =-.629998E-03
 writing wavefunctions
