<?xml version="1.0" encoding="ISO-8859-1"?>
<modeling>
 <generator>
  <i name="program" type="string">vasp </i>
  <i name="version" type="string">6.2.0  </i>
  <i name="subversion" type="string">18Jan21 (build Aug 12 2022 13:00:08) complex                          parallel </i>
  <i name="platform" type="string">LinuxIFC </i>
  <i name="date" type="string">2024 11 05 </i>
  <i name="time" type="string">06:24:55 </i>
 </generator>
 <incar>
  <i type="int" name="ISTART">     0</i>
  <i type="string" name="PREC">Accurate      (Accurate strictly avoids</i>
  <i type="logical" name="ADDGRID"> T  </i>
  <i type="int" name="ISPIN">     1</i>
  <i type="int" name="NELM">    90</i>
  <i type="int" name="NELMIN">     6</i>
  <i type="int" name="IBRION">    -1</i>
  <i name="EDIFF">      0.00000100</i>
  <i name="EDIFFG">     -0.00200000</i>
  <i type="int" name="NSW">     0</i>
  <i type="int" name="ISIF">     3</i>
  <i type="int" name="ISYM">     2</i>
  <i name="ENCUT">    450.00000000</i>
  <i type="logical" name="LREAL"> F  </i>
  <i type="int" name="ISMEAR">     0</i>
  <i name="SIGMA">      0.05000000</i>
  <i type="logical" name="LWAVE"> T  </i>
  <i type="logical" name="LCHARG"> T  </i>
  <i type="int" name="LORBIT">    11</i>
  <i type="logical" name="LASPH"> T  </i>
 </incar>
 <primitive_cell>
  <structure name="primitive_cell" >
   <crystal>
    <varray name="basis" >
     <v>       2.36879500       0.00000000       1.36762329 </v>
     <v>       0.78959833       2.23332111       1.36762329 </v>
     <v>       0.00000000       0.00000000       2.73524859 </v>
    </varray>
    <i name="volume">     14.47023056 </i>
    <varray name="rec_basis" >
     <v>       0.42215557      -0.14925455      -0.00000000 </v>
     <v>      -0.00000000       0.44776364      -0.00000000 </v>
     <v>      -0.21107763      -0.14925444       0.36559748 </v>
    </varray>
   </crystal>
   <varray name="positions" >
    <v>       0.00000000       0.00000000       0.00000000 </v>
   </varray>
  </structure>
  <varray name="primitive_index" >
   <v type="int" >        1 </v>
  </varray>
 </primitive_cell>
 <kpoints>
  <generation param="Monkhorst-Pack">
   <v type="int" name="divisions">      21       21       21 </v>
   <v name="usershift">      0.00000000       0.00000000       0.00000000 </v>
   <v name="genvec1">      0.04761905       0.00000000       0.00000000 </v>
   <v name="genvec2">      0.00000000       0.04761905      -0.00000000 </v>
   <v name="genvec3">      0.00000000       0.00000000       0.04761905 </v>
   <v name="shift">      0.00000000       0.00000000       0.00000000 </v>
  </generation>
  <varray name="kpointlist" >
   <v>       0.00000000       0.00000000       0.00000000 </v>
   <v>       0.04761905       0.00000000      -0.00000000 </v>
   <v>       0.09523810      -0.00000000      -0.00000000 </v>
   <v>       0.14285714      -0.00000000      -0.00000000 </v>
   <v>       0.19047619      -0.00000000      -0.00000000 </v>
   <v>       0.23809524       0.00000000      -0.00000000 </v>
   <v>       0.28571429      -0.00000000      -0.00000000 </v>
   <v>       0.33333333       0.00000000      -0.00000000 </v>
   <v>       0.38095238      -0.00000000      -0.00000000 </v>
   <v>       0.42857143      -0.00000000      -0.00000000 </v>
   <v>       0.47619048      -0.00000000      -0.00000000 </v>
   <v>       0.04761905       0.04761905      -0.00000000 </v>
   <v>       0.09523810       0.04761905      -0.00000000 </v>
   <v>       0.14285714       0.04761905      -0.00000000 </v>
   <v>       0.19047619       0.04761905      -0.00000000 </v>
   <v>       0.23809524       0.04761905      -0.00000000 </v>
   <v>       0.28571429       0.04761905      -0.00000000 </v>
   <v>       0.33333333       0.04761905      -0.00000000 </v>
   <v>       0.38095238       0.04761905      -0.00000000 </v>
   <v>       0.42857143       0.04761905      -0.00000000 </v>
   <v>       0.47619048       0.04761905      -0.00000000 </v>
   <v>      -0.47619048       0.04761905       0.00000000 </v>
   <v>      -0.42857143       0.04761905       0.00000000 </v>
   <v>      -0.38095238       0.04761905       0.00000000 </v>
   <v>      -0.33333333       0.04761905       0.00000000 </v>
   <v>      -0.28571429       0.04761905       0.00000000 </v>
   <v>      -0.23809524       0.04761905       0.00000000 </v>
   <v>      -0.19047619       0.04761905       0.00000000 </v>
   <v>      -0.14285714       0.04761905       0.00000000 </v>
   <v>      -0.09523810       0.04761905       0.00000000 </v>
   <v>      -0.04761905       0.04761905       0.00000000 </v>
   <v>       0.09523810       0.09523810      -0.00000000 </v>
   <v>       0.14285714       0.09523810      -0.00000000 </v>
   <v>       0.19047619       0.09523810      -0.00000000 </v>
   <v>       0.23809524       0.09523810      -0.00000000 </v>
   <v>       0.28571429       0.09523810      -0.00000000 </v>
   <v>       0.33333333       0.09523810       0.00000000 </v>
   <v>       0.38095238       0.09523810      -0.00000000 </v>
   <v>       0.42857143       0.09523810      -0.00000000 </v>
   <v>       0.47619048       0.09523810      -0.00000000 </v>
   <v>      -0.47619048       0.09523810       0.00000000 </v>
   <v>      -0.42857143       0.09523810       0.00000000 </v>
   <v>      -0.38095238       0.09523810       0.00000000 </v>
   <v>      -0.33333333       0.09523810       0.00000000 </v>
   <v>      -0.28571429       0.09523810       0.00000000 </v>
   <v>      -0.23809524       0.09523810       0.00000000 </v>
   <v>      -0.19047619       0.09523810       0.00000000 </v>
   <v>      -0.14285714       0.09523810       0.00000000 </v>
   <v>      -0.09523810       0.09523810       0.00000000 </v>
   <v>       0.14285714       0.14285714      -0.00000000 </v>
   <v>       0.19047619       0.14285714      -0.00000000 </v>
   <v>       0.23809524       0.14285714      -0.00000000 </v>
   <v>       0.28571429       0.14285714       0.00000000 </v>
   <v>       0.33333333       0.14285714       0.00000000 </v>
   <v>       0.38095238       0.14285714      -0.00000000 </v>
   <v>       0.42857143       0.14285714      -0.00000000 </v>
   <v>       0.47619048       0.14285714      -0.00000000 </v>
   <v>      -0.47619048       0.14285714       0.00000000 </v>
   <v>      -0.42857143       0.14285714       0.00000000 </v>
   <v>      -0.38095238       0.14285714       0.00000000 </v>
   <v>      -0.33333333       0.14285714       0.00000000 </v>
   <v>      -0.28571429       0.14285714       0.00000000 </v>
   <v>      -0.23809524       0.14285714       0.00000000 </v>
   <v>      -0.19047619       0.14285714       0.00000000 </v>
   <v>      -0.14285714       0.14285714       0.00000000 </v>
   <v>       0.19047619       0.19047619      -0.00000000 </v>
   <v>       0.23809524       0.19047619       0.00000000 </v>
   <v>       0.28571429       0.19047619      -0.00000000 </v>
   <v>       0.33333333       0.19047619      -0.00000000 </v>
   <v>       0.38095238       0.19047619      -0.00000000 </v>
   <v>       0.42857143       0.19047619      -0.00000000 </v>
   <v>       0.47619048       0.19047619      -0.00000000 </v>
   <v>      -0.47619048       0.19047619       0.00000000 </v>
   <v>      -0.42857143       0.19047619       0.00000000 </v>
   <v>      -0.38095238       0.19047619       0.00000000 </v>
   <v>      -0.33333333       0.19047619       0.00000000 </v>
   <v>      -0.28571429       0.19047619       0.00000000 </v>
   <v>      -0.23809524       0.19047619       0.00000000 </v>
   <v>      -0.19047619       0.19047619       0.00000000 </v>
   <v>       0.23809524       0.23809524      -0.00000000 </v>
   <v>       0.28571429       0.23809524      -0.00000000 </v>
   <v>       0.33333333       0.23809524      -0.00000000 </v>
   <v>       0.38095238       0.23809524      -0.00000000 </v>
   <v>       0.42857143       0.23809524      -0.00000000 </v>
   <v>       0.47619048       0.23809524      -0.00000000 </v>
   <v>      -0.47619048       0.23809524       0.00000000 </v>
   <v>      -0.42857143       0.23809524       0.00000000 </v>
   <v>      -0.38095238       0.23809524       0.00000000 </v>
   <v>      -0.33333333       0.23809524       0.00000000 </v>
   <v>      -0.28571429       0.23809524       0.00000000 </v>
   <v>      -0.23809524       0.23809524       0.00000000 </v>
   <v>       0.28571429       0.28571429       0.00000000 </v>
   <v>       0.33333333       0.28571429      -0.00000000 </v>
   <v>       0.38095238       0.28571429      -0.00000000 </v>
   <v>       0.42857143       0.28571429      -0.00000000 </v>
   <v>       0.47619048       0.28571429      -0.00000000 </v>
   <v>      -0.47619048       0.28571429       0.00000000 </v>
   <v>      -0.42857143       0.28571429       0.00000000 </v>
   <v>      -0.38095238       0.28571429       0.00000000 </v>
   <v>      -0.33333333       0.28571429       0.00000000 </v>
   <v>      -0.28571429       0.28571429       0.00000000 </v>
   <v>       0.33333333       0.33333333      -0.00000000 </v>
   <v>       0.38095238       0.33333333      -0.00000000 </v>
   <v>       0.42857143       0.33333333      -0.00000000 </v>
   <v>       0.47619048       0.33333333      -0.00000000 </v>
   <v>      -0.47619048       0.33333333       0.00000000 </v>
   <v>      -0.42857143       0.33333333       0.00000000 </v>
   <v>      -0.38095238       0.33333333       0.00000000 </v>
   <v>      -0.33333333       0.33333333       0.00000000 </v>
   <v>       0.38095238       0.38095238      -0.00000000 </v>
   <v>       0.42857143       0.38095238      -0.00000000 </v>
   <v>       0.47619048       0.38095238      -0.00000000 </v>
   <v>      -0.47619048       0.38095238       0.00000000 </v>
   <v>      -0.42857143       0.38095238       0.00000000 </v>
   <v>      -0.38095238       0.38095238       0.00000000 </v>
   <v>       0.42857143       0.42857143      -0.00000000 </v>
   <v>       0.47619048       0.42857143      -0.00000000 </v>
   <v>      -0.47619048       0.42857143       0.00000000 </v>
   <v>      -0.42857143       0.42857143       0.00000000 </v>
   <v>       0.47619048       0.47619048      -0.00000000 </v>
   <v>      -0.47619048       0.47619048       0.00000000 </v>
   <v>       0.14285714       0.09523810       0.04761905 </v>
   <v>       0.19047619       0.09523810       0.04761905 </v>
   <v>       0.23809524       0.09523810       0.04761905 </v>
   <v>       0.28571429       0.09523810       0.04761905 </v>
   <v>       0.33333333       0.09523810       0.04761905 </v>
   <v>       0.38095238       0.09523810       0.04761905 </v>
   <v>       0.42857143       0.09523810       0.04761905 </v>
   <v>       0.47619048       0.09523810       0.04761905 </v>
   <v>      -0.47619048       0.09523810       0.04761905 </v>
   <v>       0.19047619       0.14285714       0.04761905 </v>
   <v>       0.23809524       0.14285714       0.04761905 </v>
   <v>       0.28571429       0.14285714       0.04761905 </v>
   <v>       0.33333333       0.14285714       0.04761905 </v>
   <v>       0.38095238       0.14285714       0.04761905 </v>
   <v>       0.42857143       0.14285714       0.04761905 </v>
   <v>       0.47619048       0.14285714       0.04761905 </v>
   <v>      -0.47619048       0.14285714       0.04761905 </v>
   <v>      -0.42857143       0.14285714       0.04761905 </v>
   <v>      -0.38095238       0.14285714       0.04761905 </v>
   <v>      -0.33333333       0.14285714       0.04761905 </v>
   <v>      -0.28571429       0.14285714       0.04761905 </v>
   <v>      -0.23809524       0.14285714       0.04761905 </v>
   <v>      -0.19047619       0.14285714       0.04761905 </v>
   <v>      -0.14285714       0.14285714       0.04761905 </v>
   <v>      -0.09523810       0.14285714       0.04761905 </v>
   <v>       0.23809524       0.19047619       0.04761905 </v>
   <v>       0.28571429       0.19047619       0.04761905 </v>
   <v>       0.33333333       0.19047619       0.04761905 </v>
   <v>       0.38095238       0.19047619       0.04761905 </v>
   <v>       0.42857143       0.19047619       0.04761905 </v>
   <v>       0.47619048       0.19047619       0.04761905 </v>
   <v>      -0.47619048       0.19047619       0.04761905 </v>
   <v>      -0.42857143       0.19047619       0.04761905 </v>
   <v>      -0.38095238       0.19047619       0.04761905 </v>
   <v>      -0.33333333       0.19047619       0.04761905 </v>
   <v>      -0.28571429       0.19047619       0.04761905 </v>
   <v>      -0.23809524       0.19047619       0.04761905 </v>
   <v>      -0.19047619       0.19047619       0.04761905 </v>
   <v>      -0.14285714       0.19047619       0.04761905 </v>
   <v>       0.28571429       0.23809524       0.04761905 </v>
   <v>       0.33333333       0.23809524       0.04761905 </v>
   <v>       0.38095238       0.23809524       0.04761905 </v>
   <v>       0.42857143       0.23809524       0.04761905 </v>
   <v>       0.47619048       0.23809524       0.04761905 </v>
   <v>      -0.47619048       0.23809524       0.04761905 </v>
   <v>      -0.42857143       0.23809524       0.04761905 </v>
   <v>      -0.38095238       0.23809524       0.04761905 </v>
   <v>      -0.33333333       0.23809524       0.04761905 </v>
   <v>      -0.28571429       0.23809524       0.04761905 </v>
   <v>      -0.23809524       0.23809524       0.04761905 </v>
   <v>      -0.19047619       0.23809524       0.04761905 </v>
   <v>       0.33333333       0.28571429       0.04761905 </v>
   <v>       0.38095238       0.28571429       0.04761905 </v>
   <v>       0.42857143       0.28571429       0.04761905 </v>
   <v>       0.47619048       0.28571429       0.04761905 </v>
   <v>      -0.47619048       0.28571429       0.04761905 </v>
   <v>      -0.42857143       0.28571429       0.04761905 </v>
   <v>      -0.38095238       0.28571429       0.04761905 </v>
   <v>      -0.33333333       0.28571429       0.04761905 </v>
   <v>      -0.28571429       0.28571429       0.04761905 </v>
   <v>      -0.23809524       0.28571429       0.04761905 </v>
   <v>       0.38095238       0.33333333       0.04761905 </v>
   <v>       0.42857143       0.33333333       0.04761905 </v>
   <v>       0.47619048       0.33333333       0.04761905 </v>
   <v>      -0.47619048       0.33333333       0.04761905 </v>
   <v>      -0.42857143       0.33333333       0.04761905 </v>
   <v>      -0.38095238       0.33333333       0.04761905 </v>
   <v>      -0.33333333       0.33333333       0.04761905 </v>
   <v>      -0.28571429       0.33333333       0.04761905 </v>
   <v>       0.42857143       0.38095238       0.04761905 </v>
   <v>       0.47619048       0.38095238       0.04761905 </v>
   <v>      -0.47619048       0.38095238       0.04761905 </v>
   <v>      -0.42857143       0.38095238       0.04761905 </v>
   <v>      -0.38095238       0.38095238       0.04761905 </v>
   <v>      -0.33333333       0.38095238       0.04761905 </v>
   <v>       0.47619048       0.42857143       0.04761905 </v>
   <v>      -0.47619048       0.42857143       0.04761905 </v>
   <v>      -0.42857143       0.42857143       0.04761905 </v>
   <v>      -0.38095238       0.42857143       0.04761905 </v>
   <v>      -0.47619048       0.47619048       0.04761905 </v>
   <v>      -0.42857143       0.47619048       0.04761905 </v>
   <v>       0.28571429       0.19047619       0.09523810 </v>
   <v>       0.33333333       0.19047619       0.09523810 </v>
   <v>       0.38095238       0.19047619       0.09523810 </v>
   <v>       0.42857143       0.19047619       0.09523810 </v>
   <v>       0.47619048       0.19047619       0.09523810 </v>
   <v>      -0.47619048       0.19047619       0.09523810 </v>
   <v>      -0.42857143       0.19047619       0.09523810 </v>
   <v>       0.33333333       0.23809524       0.09523810 </v>
   <v>       0.38095238       0.23809524       0.09523810 </v>
   <v>       0.42857143       0.23809524       0.09523810 </v>
   <v>       0.47619048       0.23809524       0.09523810 </v>
   <v>      -0.47619048       0.23809524       0.09523810 </v>
   <v>      -0.42857143       0.23809524       0.09523810 </v>
   <v>      -0.38095238       0.23809524       0.09523810 </v>
   <v>      -0.33333333       0.23809524       0.09523810 </v>
   <v>      -0.28571429       0.23809524       0.09523810 </v>
   <v>      -0.23809524       0.23809524       0.09523810 </v>
   <v>      -0.19047619       0.23809524       0.09523810 </v>
   <v>      -0.14285714       0.23809524       0.09523810 </v>
   <v>       0.38095238       0.28571429       0.09523810 </v>
   <v>       0.42857143       0.28571429       0.09523810 </v>
   <v>       0.47619048       0.28571429       0.09523810 </v>
   <v>      -0.47619048       0.28571429       0.09523810 </v>
   <v>      -0.42857143       0.28571429       0.09523810 </v>
   <v>      -0.38095238       0.28571429       0.09523810 </v>
   <v>      -0.33333333       0.28571429       0.09523810 </v>
   <v>      -0.28571429       0.28571429       0.09523810 </v>
   <v>      -0.23809524       0.28571429       0.09523810 </v>
   <v>      -0.19047619       0.28571429       0.09523810 </v>
   <v>       0.42857143       0.33333333       0.09523810 </v>
   <v>       0.47619048       0.33333333       0.09523810 </v>
   <v>      -0.47619048       0.33333333       0.09523810 </v>
   <v>      -0.42857143       0.33333333       0.09523810 </v>
   <v>      -0.38095238       0.33333333       0.09523810 </v>
   <v>      -0.33333333       0.33333333       0.09523810 </v>
   <v>      -0.28571429       0.33333333       0.09523810 </v>
   <v>      -0.23809524       0.33333333       0.09523810 </v>
   <v>       0.47619048       0.38095238       0.09523810 </v>
   <v>      -0.47619048       0.38095238       0.09523810 </v>
   <v>      -0.42857143       0.38095238       0.09523810 </v>
   <v>      -0.38095238       0.38095238       0.09523810 </v>
   <v>      -0.33333333       0.38095238       0.09523810 </v>
   <v>      -0.28571429       0.38095238       0.09523810 </v>
   <v>      -0.47619048       0.42857143       0.09523810 </v>
   <v>      -0.42857143       0.42857143       0.09523810 </v>
   <v>      -0.38095238       0.42857143       0.09523810 </v>
   <v>      -0.33333333       0.42857143       0.09523810 </v>
   <v>      -0.42857143       0.47619048       0.09523810 </v>
   <v>      -0.38095238       0.47619048       0.09523810 </v>
   <v>       0.42857143       0.28571429       0.14285714 </v>
   <v>       0.47619048       0.28571429       0.14285714 </v>
   <v>      -0.47619048       0.28571429       0.14285714 </v>
   <v>      -0.42857143       0.28571429       0.14285714 </v>
   <v>      -0.38095238       0.28571429       0.14285714 </v>
   <v>       0.47619048       0.33333333       0.14285714 </v>
   <v>      -0.47619048       0.33333333       0.14285714 </v>
   <v>      -0.42857143       0.33333333       0.14285714 </v>
   <v>      -0.38095238       0.33333333       0.14285714 </v>
   <v>      -0.33333333       0.33333333       0.14285714 </v>
   <v>      -0.28571429       0.33333333       0.14285714 </v>
   <v>      -0.23809524       0.33333333       0.14285714 </v>
   <v>      -0.19047619       0.33333333       0.14285714 </v>
   <v>      -0.47619048       0.38095238       0.14285714 </v>
   <v>      -0.42857143       0.38095238       0.14285714 </v>
   <v>      -0.38095238       0.38095238       0.14285714 </v>
   <v>      -0.33333333       0.38095238       0.14285714 </v>
   <v>      -0.28571429       0.38095238       0.14285714 </v>
   <v>      -0.23809524       0.38095238       0.14285714 </v>
   <v>      -0.42857143       0.42857143       0.14285714 </v>
   <v>      -0.38095238       0.42857143       0.14285714 </v>
   <v>      -0.33333333       0.42857143       0.14285714 </v>
   <v>      -0.28571429       0.42857143       0.14285714 </v>
   <v>      -0.38095238       0.47619048       0.14285714 </v>
   <v>      -0.33333333       0.47619048       0.14285714 </v>
   <v>      -0.42857143       0.38095238       0.19047619 </v>
   <v>      -0.38095238       0.38095238       0.19047619 </v>
   <v>      -0.33333333       0.38095238       0.19047619 </v>
   <v>      -0.38095238       0.42857143       0.19047619 </v>
   <v>      -0.33333333       0.42857143       0.19047619 </v>
   <v>      -0.28571429       0.42857143       0.19047619 </v>
   <v>      -0.23809524       0.42857143       0.19047619 </v>
   <v>      -0.33333333       0.47619048       0.19047619 </v>
   <v>      -0.28571429       0.47619048       0.19047619 </v>
   <v>      -0.28571429       0.47619048       0.23809524 </v>
  </varray>
  <varray name="weights" >
   <v>       0.00010798 </v>
   <v>       0.00086384 </v>
   <v>       0.00086384 </v>
   <v>       0.00086384 </v>
   <v>       0.00086384 </v>
   <v>       0.00086384 </v>
   <v>       0.00086384 </v>
   <v>       0.00086384 </v>
   <v>       0.00086384 </v>
   <v>       0.00086384 </v>
   <v>       0.00086384 </v>
   <v>       0.00064788 </v>
   <v>       0.00259151 </v>
   <v>       0.00259151 </v>
   <v>       0.00259151 </v>
   <v>       0.00259151 </v>
   <v>       0.00259151 </v>
   <v>       0.00259151 </v>
   <v>       0.00259151 </v>
   <v>       0.00259151 </v>
   <v>       0.00259151 </v>
   <v>       0.00259151 </v>
   <v>       0.00259151 </v>
   <v>       0.00259151 </v>
   <v>       0.00259151 </v>
   <v>       0.00259151 </v>
   <v>       0.00259151 </v>
   <v>       0.00259151 </v>
   <v>       0.00259151 </v>
   <v>       0.00259151 </v>
   <v>       0.00129576 </v>
   <v>       0.00064788 </v>
   <v>       0.00259151 </v>
   <v>       0.00259151 </v>
   <v>       0.00259151 </v>
   <v>       0.00259151 </v>
   <v>       0.00259151 </v>
   <v>       0.00259151 </v>
   <v>       0.00259151 </v>
   <v>       0.00259151 </v>
   <v>       0.00259151 </v>
   <v>       0.00259151 </v>
   <v>       0.00259151 </v>
   <v>       0.00259151 </v>
   <v>       0.00259151 </v>
   <v>       0.00259151 </v>
   <v>       0.00259151 </v>
   <v>       0.00259151 </v>
   <v>       0.00129576 </v>
   <v>       0.00064788 </v>
   <v>       0.00259151 </v>
   <v>       0.00259151 </v>
   <v>       0.00259151 </v>
   <v>       0.00259151 </v>
   <v>       0.00259151 </v>
   <v>       0.00259151 </v>
   <v>       0.00259151 </v>
   <v>       0.00259151 </v>
   <v>       0.00259151 </v>
   <v>       0.00259151 </v>
   <v>       0.00259151 </v>
   <v>       0.00259151 </v>
   <v>       0.00259151 </v>
   <v>       0.00259151 </v>
   <v>       0.00129576 </v>
   <v>       0.00064788 </v>
   <v>       0.00259151 </v>
   <v>       0.00259151 </v>
   <v>       0.00259151 </v>
   <v>       0.00259151 </v>
   <v>       0.00259151 </v>
   <v>       0.00259151 </v>
   <v>       0.00259151 </v>
   <v>       0.00259151 </v>
   <v>       0.00259151 </v>
   <v>       0.00259151 </v>
   <v>       0.00259151 </v>
   <v>       0.00259151 </v>
   <v>       0.00129576 </v>
   <v>       0.00064788 </v>
   <v>       0.00259151 </v>
   <v>       0.00259151 </v>
   <v>       0.00259151 </v>
   <v>       0.00259151 </v>
   <v>       0.00259151 </v>
   <v>       0.00259151 </v>
   <v>       0.00259151 </v>
   <v>       0.00259151 </v>
   <v>       0.00259151 </v>
   <v>       0.00259151 </v>
   <v>       0.00129576 </v>
   <v>       0.00064788 </v>
   <v>       0.00259151 </v>
   <v>       0.00259151 </v>
   <v>       0.00259151 </v>
   <v>       0.00259151 </v>
   <v>       0.00259151 </v>
   <v>       0.00259151 </v>
   <v>       0.00259151 </v>
   <v>       0.00259151 </v>
   <v>       0.00129576 </v>
   <v>       0.00064788 </v>
   <v>       0.00259151 </v>
   <v>       0.00259151 </v>
   <v>       0.00259151 </v>
   <v>       0.00259151 </v>
   <v>       0.00259151 </v>
   <v>       0.00259151 </v>
   <v>       0.00129576 </v>
   <v>       0.00064788 </v>
   <v>       0.00259151 </v>
   <v>       0.00259151 </v>
   <v>       0.00259151 </v>
   <v>       0.00259151 </v>
   <v>       0.00129576 </v>
   <v>       0.00064788 </v>
   <v>       0.00259151 </v>
   <v>       0.00259151 </v>
   <v>       0.00129576 </v>
   <v>       0.00064788 </v>
   <v>       0.00129576 </v>
   <v>       0.00259151 </v>
   <v>       0.00518303 </v>
   <v>       0.00518303 </v>
   <v>       0.00518303 </v>
   <v>       0.00518303 </v>
   <v>       0.00518303 </v>
   <v>       0.00518303 </v>
   <v>       0.00518303 </v>
   <v>       0.00518303 </v>
   <v>       0.00259151 </v>
   <v>       0.00518303 </v>
   <v>       0.00518303 </v>
   <v>       0.00518303 </v>
   <v>       0.00518303 </v>
   <v>       0.00518303 </v>
   <v>       0.00518303 </v>
   <v>       0.00518303 </v>
   <v>       0.00518303 </v>
   <v>       0.00518303 </v>
   <v>       0.00518303 </v>
   <v>       0.00518303 </v>
   <v>       0.00518303 </v>
   <v>       0.00518303 </v>
   <v>       0.00518303 </v>
   <v>       0.00259151 </v>
   <v>       0.00259151 </v>
   <v>       0.00518303 </v>
   <v>       0.00518303 </v>
   <v>       0.00518303 </v>
   <v>       0.00518303 </v>
   <v>       0.00518303 </v>
   <v>       0.00518303 </v>
   <v>       0.00518303 </v>
   <v>       0.00518303 </v>
   <v>       0.00518303 </v>
   <v>       0.00518303 </v>
   <v>       0.00518303 </v>
   <v>       0.00518303 </v>
   <v>       0.00259151 </v>
   <v>       0.00259151 </v>
   <v>       0.00518303 </v>
   <v>       0.00518303 </v>
   <v>       0.00518303 </v>
   <v>       0.00518303 </v>
   <v>       0.00518303 </v>
   <v>       0.00518303 </v>
   <v>       0.00518303 </v>
   <v>       0.00518303 </v>
   <v>       0.00518303 </v>
   <v>       0.00518303 </v>
   <v>       0.00259151 </v>
   <v>       0.00259151 </v>
   <v>       0.00518303 </v>
   <v>       0.00518303 </v>
   <v>       0.00518303 </v>
   <v>       0.00518303 </v>
   <v>       0.00518303 </v>
   <v>       0.00518303 </v>
   <v>       0.00518303 </v>
   <v>       0.00518303 </v>
   <v>       0.00259151 </v>
   <v>       0.00259151 </v>
   <v>       0.00518303 </v>
   <v>       0.00518303 </v>
   <v>       0.00518303 </v>
   <v>       0.00518303 </v>
   <v>       0.00518303 </v>
   <v>       0.00518303 </v>
   <v>       0.00259151 </v>
   <v>       0.00259151 </v>
   <v>       0.00518303 </v>
   <v>       0.00518303 </v>
   <v>       0.00518303 </v>
   <v>       0.00518303 </v>
   <v>       0.00259151 </v>
   <v>       0.00259151 </v>
   <v>       0.00518303 </v>
   <v>       0.00518303 </v>
   <v>       0.00259151 </v>
   <v>       0.00259151 </v>
   <v>       0.00259151 </v>
   <v>       0.00259151 </v>
   <v>       0.00518303 </v>
   <v>       0.00518303 </v>
   <v>       0.00518303 </v>
   <v>       0.00518303 </v>
   <v>       0.00518303 </v>
   <v>       0.00518303 </v>
   <v>       0.00259151 </v>
   <v>       0.00518303 </v>
   <v>       0.00518303 </v>
   <v>       0.00518303 </v>
   <v>       0.00518303 </v>
   <v>       0.00518303 </v>
   <v>       0.00518303 </v>
   <v>       0.00518303 </v>
   <v>       0.00518303 </v>
   <v>       0.00518303 </v>
   <v>       0.00518303 </v>
   <v>       0.00259151 </v>
   <v>       0.00259151 </v>
   <v>       0.00518303 </v>
   <v>       0.00518303 </v>
   <v>       0.00518303 </v>
   <v>       0.00518303 </v>
   <v>       0.00518303 </v>
   <v>       0.00518303 </v>
   <v>       0.00518303 </v>
   <v>       0.00518303 </v>
   <v>       0.00259151 </v>
   <v>       0.00259151 </v>
   <v>       0.00518303 </v>
   <v>       0.00518303 </v>
   <v>       0.00518303 </v>
   <v>       0.00518303 </v>
   <v>       0.00518303 </v>
   <v>       0.00518303 </v>
   <v>       0.00259151 </v>
   <v>       0.00259151 </v>
   <v>       0.00518303 </v>
   <v>       0.00518303 </v>
   <v>       0.00518303 </v>
   <v>       0.00518303 </v>
   <v>       0.00259151 </v>
   <v>       0.00259151 </v>
   <v>       0.00518303 </v>
   <v>       0.00518303 </v>
   <v>       0.00259151 </v>
   <v>       0.00259151 </v>
   <v>       0.00259151 </v>
   <v>       0.00259151 </v>
   <v>       0.00518303 </v>
   <v>       0.00518303 </v>
   <v>       0.00518303 </v>
   <v>       0.00518303 </v>
   <v>       0.00259151 </v>
   <v>       0.00518303 </v>
   <v>       0.00518303 </v>
   <v>       0.00518303 </v>
   <v>       0.00518303 </v>
   <v>       0.00518303 </v>
   <v>       0.00518303 </v>
   <v>       0.00259151 </v>
   <v>       0.00259151 </v>
   <v>       0.00518303 </v>
   <v>       0.00518303 </v>
   <v>       0.00518303 </v>
   <v>       0.00518303 </v>
   <v>       0.00259151 </v>
   <v>       0.00259151 </v>
   <v>       0.00518303 </v>
   <v>       0.00518303 </v>
   <v>       0.00259151 </v>
   <v>       0.00259151 </v>
   <v>       0.00259151 </v>
   <v>       0.00259151 </v>
   <v>       0.00518303 </v>
   <v>       0.00518303 </v>
   <v>       0.00259151 </v>
   <v>       0.00518303 </v>
   <v>       0.00518303 </v>
   <v>       0.00259151 </v>
   <v>       0.00259151 </v>
   <v>       0.00259151 </v>
   <v>       0.00259151 </v>
  </varray>
 </kpoints>
 <parameters>
  <separator name="general" >
   <i type="string" name="SYSTEM">unknown system</i>
   <i type="logical" name="LCOMPAT"> F  </i>
  </separator>
  <separator name="electronic" >
   <i type="string" name="PREC">accura</i>
   <i name="ENMAX">    450.00000000</i>
   <i name="ENAUG">    322.06900000</i>
   <i name="EDIFF">      0.00000100</i>
   <i type="int" name="IALGO">    38</i>
   <i type="int" name="IWAVPR">    10</i>
   <i type="int" name="NBANDS">     8</i>
   <i type="int" name="NBANDSLOW">    -1</i>
   <i type="int" name="NBANDSHIGH">    -1</i>
   <i name="NELECT">      4.00000000</i>
   <i type="int" name="TURBO">     0</i>
   <i type="int" name="IRESTART">     0</i>
   <i type="int" name="NREBOOT">     0</i>
   <i type="int" name="NMIN">     0</i>
   <i name="EREF">      0.00000000</i>
   <separator name="electronic smearing" >
    <i type="int" name="ISMEAR">     0</i>
    <i name="SIGMA">      0.05000000</i>
    <i name="KSPACING">      0.50000000</i>
    <i type="logical" name="KGAMMA"> T  </i>
    <i type="logical" name="KBLOWUP"> T  </i>
   </separator>
   <separator name="electronic projectors" >
    <i type="logical" name="LREAL"> F  </i>
    <v name="ROPT">      0.00000000</v>
    <i type="int" name="LMAXPAW">  -100</i>
    <i type="int" name="LMAXMIX">     2</i>
    <i type="logical" name="NLSPLINE"> F  </i>
   </separator>
   <separator name="electronic startup" >
    <i type="int" name="ISTART">     0</i>
    <i type="int" name="ICHARG">     2</i>
    <i type="int" name="INIWAV">     1</i>
   </separator>
   <separator name="electronic spin" >
    <i type="int" name="ISPIN">     1</i>
    <i type="logical" name="LNONCOLLINEAR"> F  </i>
    <v name="MAGMOM">      1.00000000</v>
    <i name="NUPDOWN">     -1.00000000</i>
    <i type="logical" name="LSORBIT"> F  </i>
    <v name="SAXIS">      0.00000000      0.00000000      1.00000000</v>
    <i type="logical" name="LSPIRAL"> F  </i>
    <v name="QSPIRAL">      0.00000000      0.00000000      0.00000000</v>
    <i type="logical" name="LZEROZ"> F  </i>
   </separator>
   <separator name="electronic exchange-correlation" >
    <i type="logical" name="LASPH"> T  </i>
    <i type="logical" name="LMETAGGA"> F  </i>
   </separator>
   <separator name="electronic convergence" >
    <i type="int" name="NELM">    90</i>
    <i type="int" name="NELMDL">    -5</i>
    <i type="int" name="NELMIN">     6</i>
    <i name="ENINI">    450.00000000</i>
    <separator name="electronic convergence detail" >
     <i type="logical" name="LDIAG"> T  </i>
     <i type="logical" name="LSUBROT"> F  </i>
     <i name="WEIMIN">      0.00000000</i>
     <i name="EBREAK">      0.00000003</i>
     <i name="DEPER">      0.30000000</i>
     <i type="int" name="NRMM">     4</i>
     <i name="TIME">      0.40000000</i>
    </separator>
   </separator>
   <separator name="electronic mixer" >
    <i name="AMIX">      0.40000000</i>
    <i name="BMIX">      1.00000000</i>
    <i name="AMIN">      0.10000000</i>
    <i name="AMIX_MAG">      1.60000000</i>
    <i name="BMIX_MAG">      1.00000000</i>
    <separator name="electronic mixer details" >
     <i type="int" name="IMIX">     4</i>
     <i type="logical" name="MIXFIRST"> F  </i>
     <i type="int" name="MAXMIX">   -45</i>
     <i name="WC">    100.00000000</i>
     <i type="int" name="INIMIX">     1</i>
     <i type="int" name="MIXPRE">     1</i>
     <i type="int" name="MREMOVE">     5</i>
    </separator>
   </separator>
   <separator name="electronic dipolcorrection" >
    <i type="logical" name="LDIPOL"> F  </i>
    <i type="logical" name="LMONO"> F  </i>
    <i type="int" name="IDIPOL">     0</i>
    <i name="EPSILON">      1.00000000</i>
    <v name="DIPOL">   -100.00000000   -100.00000000   -100.00000000</v>
    <i name="EFIELD">      0.00000000</i>
   </separator>
  </separator>
  <separator name="grids" >
   <i type="int" name="NGX">    20</i>
   <i type="int" name="NGY">    20</i>
   <i type="int" name="NGZ">    20</i>
   <i type="int" name="NGXF">    40</i>
   <i type="int" name="NGYF">    40</i>
   <i type="int" name="NGZF">    40</i>
   <i type="logical" name="ADDGRID"> T  </i>
  </separator>
  <separator name="ionic" >
   <i type="int" name="NSW">     0</i>
   <i type="int" name="IBRION">    -1</i>
   <i type="int" name="MDALGO">     0</i>
   <i type="int" name="ISIF">     3</i>
   <i name="PSTRESS">      0.00000000</i>
   <i name="EDIFFG">     -0.00200000</i>
   <i type="int" name="NFREE">     0</i>
   <i name="POTIM">      0.50000000</i>
   <i name="SMASS">     -3.00000000</i>
   <i name="SCALEE">      1.00000000</i>
  </separator>
  <separator name="ionic md" >
   <i name="TEBEG">      0.00010000</i>
   <i name="TEEND">      0.00010000</i>
   <i type="int" name="NBLOCK">     1</i>
   <i type="int" name="KBLOCK">     1</i>
   <i type="int" name="NPACO">   256</i>
   <i name="APACO">     16.00000000</i>
  </separator>
  <separator name="symmetry" >
   <i type="int" name="ISYM">     2</i>
   <i name="SYMPREC">      0.00001000</i>
  </separator>
  <separator name="dos" >
   <i type="int" name="LORBIT">    11</i>
   <v name="RWIGS">     -1.00000000</v>
   <i type="int" name="NEDOS">   301</i>
   <i name="EMIN">     10.00000000</i>
   <i name="EMAX">    -10.00000000</i>
   <i name="EFERMI">      0.00000000</i>
  </separator>
  <separator name="writing" >
   <i type="int" name="NWRITE">     2</i>
   <i type="logical" name="LWAVE"> T  </i>
   <i type="logical" name="LDOWNSAMPLE"> F  </i>
   <i type="logical" name="LCHARG"> T  </i>
   <i type="logical" name="LPARD"> F  </i>
   <i type="logical" name="LVTOT"> F  </i>
   <i type="logical" name="LVHAR"> F  </i>
   <i type="logical" name="LELF"> F  </i>
   <i type="logical" name="LOPTICS"> F  </i>
   <v name="STM">      0.00000000      0.00000000      0.00000000      0.00000000      0.00000000      0.00000000      0.00000000</v>
  </separator>
  <separator name="performance" >
   <i type="int" name="NPAR">     4</i>
   <i type="int" name="NSIM">     4</i>
   <i type="int" name="NBLK">    -1</i>
   <i type="logical" name="LPLANE"> T  </i>
   <i type="logical" name="LSCALAPACK"> T  </i>
   <i type="logical" name="LSCAAWARE"> F  </i>
   <i type="logical" name="LSCALU"> F  </i>
   <i type="logical" name="LASYNC"> F  </i>
   <i type="logical" name="LORBITALREAL"> F  </i>
  </separator>
  <separator name="miscellaneous" >
   <i type="int" name="IDIOT">     3</i>
   <i type="int" name="PHON_NSTRUCT">    -1</i>
   <i type="logical" name="LMUSIC"> F  </i>
   <v name="POMASS">     28.08500000</v>
   <v name="DARWINR">      0.00000000</v>
   <v name="DARWINV">      1.00000000</v>
   <i type="logical" name="LCORR"> T  </i>
  </separator>
  <i type="logical" name="GGA_COMPAT"> T  </i>
  <i type="logical" name="LBERRY"> F  </i>
  <i type="int" name="ICORELEVEL">     0</i>
  <i type="logical" name="LDAU"> F  </i>
  <i type="int" name="I_CONSTRAINED_M">     0</i>
  <separator name="electronic exchange-correlation" >
   <i type="string" name="GGA">--</i>
   <i type="int" name="VOSKOWN">     0</i>
   <i type="logical" name="LHFCALC"> F  </i>
   <i type="string" name="PRECFOCK"></i>
   <i type="logical" name="LSYMGRAD"> F  </i>
   <i type="logical" name="LHFONE"> F  </i>
   <i type="logical" name="LRHFCALC"> F  </i>
   <i type="logical" name="LTHOMAS"> F  </i>
   <i type="logical" name="LMODELHF"> F  </i>
   <i type="logical" name="LFOCKACE"> F  </i>
   <i name="ENCUT4O">     -1.00000000</i>
   <i type="int" name="EXXOEP">     0</i>
   <i type="int" name="FOURORBIT">     0</i>
   <i name="AEXX">      0.00000000</i>
   <i name="HFALPHA">      0.00000000</i>
   <i name="MCALPHA">      0.00000000</i>
   <i name="ALDAX">      1.00000000</i>
   <i name="AGGAX">      1.00000000</i>
   <i name="ALDAC">      1.00000000</i>
   <i name="AGGAC">      1.00000000</i>
   <i type="int" name="NKREDX">     1</i>
   <i type="int" name="NKREDY">     1</i>
   <i type="int" name="NKREDZ">     1</i>
   <i type="logical" name="SHIFTRED"> F  </i>
   <i type="logical" name="ODDONLY"> F  </i>
   <i type="logical" name="EVENONLY"> F  </i>
   <i type="int" name="LMAXFOCK">     0</i>
   <i type="int" name="NMAXFOCKAE">     0</i>
   <i type="logical" name="LFOCKAEDFT"> F  </i>
   <i name="HFSCREEN">      0.00000000</i>
   <i name="HFSCREENC">      0.00000000</i>
   <i type="int" name="NBANDSGWLOW">     0</i>
  </separator>
  <separator name="vdW DFT" >
   <i type="logical" name="LUSE_VDW"> F  </i>
   <i name="Zab_VDW">     -0.84910000</i>
   <i name="PARAM1">      0.12340000</i>
   <i name="PARAM2">      1.00000000</i>
   <i name="PARAM3">      0.00000000</i>
  </separator>
  <separator name="model GW" >
   <i type="int" name="MODEL_GW">     0</i>
   <i name="MODEL_EPS0">      8.68213833</i>
   <i name="MODEL_ALPHA">      1.00000000</i>
  </separator>
  <separator name="linear response parameters" >
   <i type="logical" name="LEPSILON"> F  </i>
   <i type="logical" name="LRPA"> F  </i>
   <i type="logical" name="LNABLA"> F  </i>
   <i type="logical" name="LVEL"> F  </i>
   <i type="int" name="KINTER">     0</i>
   <i name="CSHIFT">      0.10000000</i>
   <i name="OMEGAMAX">     -1.00000000</i>
   <i name="DEG_THRESHOLD">      0.00200000</i>
   <i name="RTIME">     -0.10000000</i>
   <i name="WPLASMAI">      0.00000000</i>
   <v name="DFIELD">      0.00000000      0.00000000      0.00000000</v>
   <v name="WPLASMA">      0.00000000      0.00000000      0.00000000      0.00000000      0.00000000      0.00000000      0.00000000      0.00000000      0.00000000</v>
  </separator>
  <separator name="orbital magnetization" >
   <i type="logical" name="NUCIND"> F  </i>
   <v name="MAGPOS">      0.00000000      0.00000000      0.00000000</v>
   <i type="logical" name="LNICSALL"> T  </i>
   <i type="logical" name="ORBITALMAG"> F  </i>
   <i type="logical" name="LMAGBLOCH"> F  </i>
   <i type="logical" name="LCHIMAG"> F  </i>
   <i type="logical" name="LGAUGE"> T  </i>
   <i type="int" name="MAGATOM">     0</i>
   <v name="MAGDIPOL">      0.00000000      0.00000000      0.00000000</v>
   <v name="AVECCONST">      0.00000000      0.00000000      0.00000000</v>
  </separator>
  <separator name="response functions" >
   <i type="logical" name="LFINITE_TEMPERATURE"> F  </i>
   <i type="logical" name="LADDER"> F  </i>
   <i type="logical" name="LRPAFORCE"> F  </i>
   <i type="logical" name="LFXC"> F  </i>
   <i type="logical" name="LHARTREE"> T  </i>
   <i type="int" name="IBSE">     0</i>
   <v type="int" name="KPOINT">    -1     0     0     0</v>
   <i type="logical" name="LTCTC"> F  </i>
   <i type="logical" name="LTCTE"> F  </i>
   <i type="logical" name="LTETE"> F  </i>
   <i type="logical" name="LTRIPLET"> F  </i>
   <i type="logical" name="LFXCEPS"> F  </i>
   <i type="logical" name="LFXHEG"> F  </i>
   <i type="int" name="NATURALO">     2</i>
   <i type="logical" name="LHOLEGF"> F  </i>
   <i type="logical" name="L2ORDER"> F  </i>
   <i type="logical" name="LDMP1"> F  </i>
   <i type="logical" name="LMP2LT"> F  </i>
   <i type="logical" name="LSMP2LT"> F  </i>
   <i type="logical" name="LGWLF"> F  </i>
   <i name="ENCUTGW">     -2.00000000</i>
   <i name="ENCUTGWSOFT">     -2.00000000</i>
   <i name="ENCUTLF">     -1.00000000</i>
   <i type="logical" name="LESF_SPLINES"> F  </i>
   <i type="int" name="LMAXMP2">    -1</i>
   <i name="SCISSOR">      0.00000000</i>
   <i type="int" name="NOMEGA">     0</i>
   <i type="int" name="NOMEGAR">     0</i>
   <i type="int" name="NBANDSGW">    -1</i>
   <i type="int" name="NBANDSO">    -1</i>
   <i type="int" name="NBANDSV">    -1</i>
   <i type="int" name="NELM">    90</i>
   <i type="int" name="NELMHF">     1</i>
   <i type="int" name="DIM">     3</i>
   <i type="int" name="IESPILON">     4</i>
   <i type="int" name="ANTIRES">     0</i>
   <i name="OMEGAMAX">    -30.00000000</i>
   <i name="OMEGAMIN">    -30.00000000</i>
   <i name="OMEGATL">   -200.00000000</i>
   <i type="int" name="OMEGAGRID">     0</i>
   <i name="CSHIFT">     -0.10000000</i>
   <i type="logical" name="LSELFENERGY"> F  </i>
   <i type="logical" name="LSPECTRAL"> F  </i>
   <i type="logical" name="LSPECTRALGW"> F  </i>
   <i type="logical" name="LSINGLES"> F  </i>
   <i type="logical" name="LFERMIGW"> F  </i>
   <i type="logical" name="ODDONLYGW"> F  </i>
   <i type="logical" name="EVENONLYGW"> F  </i>
   <i type="int" name="NKREDLFX">     1</i>
   <i type="int" name="NKREDLFY">     1</i>
   <i type="int" name="NKREDLFZ">     1</i>
   <i type="int" name="MAXMEM">  2800</i>
   <i type="int" name="TELESCOPE">     0</i>
   <i type="int" name="NTAUPAR">    -1</i>
   <i type="int" name="NOMEGAPAR">    -1</i>
   <i name="DAMP_NEWTON">      0.80000001</i>
   <i name="LAMBDA">      1.00000000</i>
  </separator>
  <separator name="External order field" >
   <i name="OFIELD_KAPPA">      0.00000000</i>
   <v name="OFIELD_K">      0.00000000      0.00000000      0.00000000</v>
   <i name="OFIELD_Q6_NEAR">      0.00000000</i>
   <i name="OFIELD_Q6_FAR">      0.00000000</i>
   <i name="OFIELD_A">      0.00000000</i>
  </separator>
 </parameters>
 <atominfo>
  <atoms>       1 </atoms>
  <types>       1 </types>
  <array name="atoms" >
   <dimension dim="1">ion</dimension>
   <field type="string">element</field>
   <field type="int">atomtype</field>
   <set>
    <rc><c>Si</c><c>   1</c></rc>
   </set>
  </array>
  <array name="atomtypes" >
   <dimension dim="1">type</dimension>
   <field type="int">atomspertype</field>
   <field type="string">element</field>
   <field>mass</field>
   <field>valence</field>
   <field type="string">pseudopotential</field>
   <set>
    <rc><c>   1</c><c>Si</c><c>     28.08500000</c><c>      4.00000000</c><c>  PAW_PBE Si 05Jan2001                  </c></rc>
   </set>
  </array>
 </atominfo>
 <structure name="initialpos" >
  <crystal>
   <varray name="basis" >
    <v>       2.36879500       0.00000000       1.36762329 </v>
    <v>       0.78959833       2.23332111       1.36762329 </v>
    <v>       0.00000000       0.00000000       2.73524859 </v>
   </varray>
   <i name="volume">     14.47023056 </i>
   <varray name="rec_basis" >
    <v>       0.42215557      -0.14925455      -0.00000000 </v>
    <v>      -0.00000000       0.44776364      -0.00000000 </v>
    <v>      -0.21107763      -0.14925444       0.36559748 </v>
   </varray>
  </crystal>
  <varray name="positions" >
   <v>       0.00000000       0.00000000       0.00000000 </v>
  </varray>
 </structure>
 <calculation>
  <scstep>
   <time name="dav">    1.88    1.88</time>
   <time name="total">    2.08    2.08</time>
   <energy>
    <i name="alphaZ">      2.32637142 </i>
    <i name="ewald">   -136.54019582 </i>
    <i name="hartreedc">     -0.59840030 </i>
    <i name="XCdc">     -8.80627650 </i>
    <i name="pawpsdc">     88.12379961 </i>
    <i name="pawaedc">    -70.53051779 </i>
    <i name="eentropy">     -0.00050418 </i>
    <i name="bandstr">     20.04197741 </i>
    <i name="atom">    103.06596374 </i>
    <i name="e_fr_energy">     -2.91778241 </i>
    <i name="e_wo_entrp">     -2.91727823 </i>
    <i name="e_0_energy">     -2.91753032 </i>
   </energy>
  </scstep>
  <scstep>
   <time name="dav">    2.55    2.57</time>
   <time name="total">    2.56    2.57</time>
   <energy>
    <i name="e_fr_energy">     -4.90029577 </i>
    <i name="e_wo_entrp">     -4.89970202 </i>
    <i name="e_0_energy">     -4.89999890 </i>
   </energy>
  </scstep>
  <scstep>
   <time name="dav">    1.90    1.92</time>
   <time name="total">    1.90    1.92</time>
   <energy>
    <i name="e_fr_energy">     -4.91077667 </i>
    <i name="e_wo_entrp">     -4.91015648 </i>
    <i name="e_0_energy">     -4.91046658 </i>
   </energy>
  </scstep>
  <scstep>
   <time name="dav">    2.88    2.90</time>
   <time name="total">    2.88    2.90</time>
   <energy>
    <i name="e_fr_energy">     -4.91078644 </i>
    <i name="e_wo_entrp">     -4.91016621 </i>
    <i name="e_0_energy">     -4.91047633 </i>
   </energy>
  </scstep>
  <scstep>
   <time name="dav">    1.92    1.93</time>
   <time name="total">    2.04    2.06</time>
   <energy>
    <i name="e_fr_energy">     -4.91078645 </i>
    <i name="e_wo_entrp">     -4.91016621 </i>
    <i name="e_0_energy">     -4.91047633 </i>
   </energy>
  </scstep>
  <scstep>
   <time name="dav">    2.01    2.01</time>
   <time name="total">    2.32    2.34</time>
   <energy>
    <i name="e_fr_energy">     -4.89785459 </i>
    <i name="e_wo_entrp">     -4.89723116 </i>
    <i name="e_0_energy">     -4.89754288 </i>
   </energy>
  </scstep>
  <scstep>
   <time name="dav">    2.04    2.04</time>
   <time name="total">    2.34    2.36</time>
   <energy>
    <i name="e_fr_energy">     -4.89044935 </i>
    <i name="e_wo_entrp">     -4.88981953 </i>
    <i name="e_0_energy">     -4.89013444 </i>
   </energy>
  </scstep>
  <scstep>
   <time name="dav">    2.61    2.62</time>
   <time name="total">    2.92    2.94</time>
   <energy>
    <i name="e_fr_energy">     -4.89041472 </i>
    <i name="e_wo_entrp">     -4.88978476 </i>
    <i name="e_0_energy">     -4.89009974 </i>
   </energy>
  </scstep>
  <scstep>
   <time name="dav">    2.12    2.12</time>
   <time name="total">    2.31    2.33</time>
   <energy>
    <i name="alphaZ">      2.32637142 </i>
    <i name="ewald">   -136.54019582 </i>
    <i name="hartreedc">     -0.44581300 </i>
    <i name="XCdc">     -8.75294384 </i>
    <i name="pawpsdc">    296.95859322 </i>
    <i name="pawaedc">   -279.37232569 </i>
    <i name="eentropy">     -0.00063000 </i>
    <i name="bandstr">     17.87056491 </i>
    <i name="atom">    103.06596374 </i>
    <i name="e_fr_energy">     -4.89041506 </i>
    <i name="e_wo_entrp">     -4.88978506 </i>
    <i name="e_0_energy">     -4.89010006 </i>
   </energy>
  </scstep>
  <structure>
   <crystal>
    <varray name="basis" >
     <v>       2.36879500       0.00000000       1.36762329 </v>
     <v>       0.78959833       2.23332111       1.36762329 </v>
     <v>       0.00000000       0.00000000       2.73524859 </v>
    </varray>
    <i name="volume">     14.47023056 </i>
    <varray name="rec_basis" >
     <v>       0.42215557      -0.14925455      -0.00000000 </v>
     <v>      -0.00000000       0.44776364      -0.00000000 </v>
     <v>      -0.21107763      -0.14925444       0.36559748 </v>
    </varray>
   </crystal>
   <varray name="positions" >
    <v>       0.00000000       0.00000000       0.00000000 </v>
   </varray>
  </structure>
  <varray name="forces" >
   <v>      -0.00000000      -0.00000000       0.00000000 </v>
  </varray>
  <varray name="stress" >
   <v>      -1.96842783      -0.00000000       0.00000084 </v>
   <v>      -0.00000000      -1.96842742       0.00000059 </v>
   <v>       0.00000084       0.00000059      -1.96842744 </v>
  </varray>
  <energy>
   <i name="e_fr_energy">     -4.89041506 </i>
   <i name="e_wo_entrp">     -4.88978506 </i>
   <i name="e_0_energy">     -4.89010006 </i>
  </energy>
  <time name="totalsc">   23.56   24.79</time>
  <eigenvalues>
   <array>
    <dimension dim="1">band</dimension>
    <dimension dim="2">kpoint</dimension>
    <dimension dim="3">spin</dimension>
    <field>eigene</field>
    <field>occ</field>
    <set>
     <set comment="spin 1">
      <set comment="kpoint 1">
       <r>   -4.2840    1.0000 </r>
       <r>   21.3083    0.0000 </r>
       <r>   21.3083    0.0000 </r>
       <r>   21.3083    0.0000 </r>
       <r>   22.0980    0.0000 </r>
       <r>   22.0980    0.0000 </r>
       <r>   22.0981    0.0000 </r>
       <r>   27.4345    0.0000 </r>
      </set>
      <set comment="kpoint 2">
       <r>   -4.2179    1.0000 </r>
       <r>   19.9269    0.0000 </r>
       <r>   20.8804    0.0000 </r>
       <r>   20.8804    0.0000 </r>
       <r>   22.6089    0.0000 </r>
       <r>   22.6089    0.0000 </r>
       <r>   22.8988    0.0000 </r>
       <r>   27.9843    0.0000 </r>
      </set>
      <set comment="kpoint 3">
       <r>   -4.0199    1.0000 </r>
       <r>   17.9699    0.0000 </r>
       <r>   20.2962    0.0000 </r>
       <r>   20.2962    0.0000 </r>
       <r>   23.3456    0.0000 </r>
       <r>   23.4134    0.0000 </r>
       <r>   23.4134    0.0000 </r>
       <r>   27.8557    0.0000 </r>
      </set>
      <set comment="kpoint 4">
       <r>   -3.6902    1.0000 </r>
       <r>   15.9323    0.0000 </r>
       <r>   19.7868    0.0000 </r>
       <r>   19.7868    0.0000 </r>
       <r>   23.4269    0.0000 </r>
       <r>   24.1324    0.0000 </r>
       <r>   24.1324    0.0000 </r>
       <r>   27.1795    0.0000 </r>
      </set>
      <set comment="kpoint 5">
       <r>   -3.2297    1.0000 </r>
       <r>   13.9123    0.0000 </r>
       <r>   19.3751    0.0000 </r>
       <r>   19.3751    0.0000 </r>
       <r>   23.3727    0.0000 </r>
       <r>   24.3010    0.0000 </r>
       <r>   24.3010    0.0000 </r>
       <r>   27.1527    0.0000 </r>
      </set>
      <set comment="kpoint 6">
       <r>   -2.6392    1.0000 </r>
       <r>   11.9526    0.0000 </r>
       <r>   19.0644    0.0000 </r>
       <r>   19.0644    0.0000 </r>
       <r>   23.2947    0.0000 </r>
       <r>   23.7822    0.0000 </r>
       <r>   23.7822    0.0000 </r>
       <r>   27.9734    0.0000 </r>
      </set>
      <set comment="kpoint 7">
       <r>   -1.9202    1.0000 </r>
       <r>   10.0755    0.9994 </r>
       <r>   18.8528    0.0000 </r>
       <r>   18.8528    0.0000 </r>
       <r>   23.0522    0.0000 </r>
       <r>   23.0522    0.0000 </r>
       <r>   23.2450    0.0000 </r>
       <r>   28.3062    0.0000 </r>
      </set>
      <set comment="kpoint 8">
       <r>   -1.0743    1.0000 </r>
       <r>    8.2943    1.0000 </r>
       <r>   18.7331    0.0000 </r>
       <r>   18.7331    0.0000 </r>
       <r>   22.3451    0.0000 </r>
       <r>   22.3452    0.0000 </r>
       <r>   23.2458    0.0000 </r>
       <r>   27.4947    0.0000 </r>
      </set>
      <set comment="kpoint 9">
       <r>   -0.1043    1.0000 </r>
       <r>    6.6184    1.0000 </r>
       <r>   18.6912    0.0000 </r>
       <r>   18.6912    0.0000 </r>
       <r>   21.7427    0.0000 </r>
       <r>   21.7428    0.0000 </r>
       <r>   23.2987    0.0000 </r>
       <r>   26.8071    0.0000 </r>
      </set>
      <set comment="kpoint 10">
       <r>    0.9839    1.0000 </r>
       <r>    5.0578    1.0000 </r>
       <r>   18.7015    0.0000 </r>
       <r>   18.7015    0.0000 </r>
       <r>   21.2950    0.0000 </r>
       <r>   21.2950    0.0000 </r>
       <r>   23.3826    0.0000 </r>
       <r>   26.2890    0.0000 </r>
      </set>
      <set comment="kpoint 11">
       <r>    2.1552    1.0000 </r>
       <r>    3.6498    1.0000 </r>
       <r>   18.7248    0.0000 </r>
       <r>   18.7248    0.0000 </r>
       <r>   21.0510    0.0000 </r>
       <r>   21.0510    0.0000 </r>
       <r>   23.4501    0.0000 </r>
       <r>   26.0012    0.0000 </r>
      </set>
      <set comment="kpoint 12">
       <r>   -4.1959    1.0000 </r>
       <r>   20.1808    0.0000 </r>
       <r>   20.1808    0.0000 </r>
       <r>   21.0984    0.0000 </r>
       <r>   21.5847    0.0000 </r>
       <r>   23.3365    0.0000 </r>
       <r>   23.3365    0.0000 </r>
       <r>   27.9652    0.0000 </r>
      </set>
      <set comment="kpoint 13">
       <r>   -4.0419    1.0000 </r>
       <r>   18.6395    0.0000 </r>
       <r>   19.5402    0.0000 </r>
       <r>   20.8064    0.0000 </r>
       <r>   21.8344    0.0000 </r>
       <r>   23.9746    0.0000 </r>
       <r>   24.1563    0.0000 </r>
       <r>   27.0051    0.0000 </r>
      </set>
      <set comment="kpoint 14">
       <r>   -3.7561    1.0000 </r>
       <r>   16.6483    0.0000 </r>
       <r>   18.9949    0.0000 </r>
       <r>   20.3164    0.0000 </r>
       <r>   22.5413    0.0000 </r>
       <r>   24.2303    0.0000 </r>
       <r>   24.9333    0.0000 </r>
       <r>   26.0818    0.0000 </r>
      </set>
      <set comment="kpoint 15">
       <r>   -3.3392    1.0000 </r>
       <r>   14.6259    0.0000 </r>
       <r>   18.5546    0.0000 </r>
       <r>   19.8742    0.0000 </r>
       <r>   22.9551    0.0000 </r>
       <r>   24.2050    0.0000 </r>
       <r>   25.3144    0.0000 </r>
       <r>   25.7059    0.0000 </r>
      </set>
      <set comment="kpoint 16">
       <r>   -2.7921    1.0000 </r>
       <r>   12.6473    0.0000 </r>
       <r>   18.2223    0.0000 </r>
       <r>   19.5078    0.0000 </r>
       <r>   22.7151    0.0000 </r>
       <r>   23.9833    0.0000 </r>
       <r>   24.9668    0.0000 </r>
       <r>   26.3144    0.0000 </r>
      </set>
      <set comment="kpoint 17">
       <r>   -2.1159    1.0000 </r>
       <r>   10.7433    0.0000 </r>
       <r>   17.9987    0.0000 </r>
       <r>   19.2136    0.0000 </r>
       <r>   22.0834    0.0000 </r>
       <r>   23.8656    0.0000 </r>
       <r>   24.2668    0.0000 </r>
       <r>   27.4055    0.0000 </r>
      </set>
      <set comment="kpoint 18">
       <r>   -1.3123    1.0000 </r>
       <r>    8.9304    1.0000 </r>
       <r>   17.8826    0.0000 </r>
       <r>   18.9698    0.0000 </r>
       <r>   21.4450    0.0000 </r>
       <r>   23.5230    0.0000 </r>
       <r>   23.8272    0.0000 </r>
       <r>   28.0694    0.0000 </r>
      </set>
      <set comment="kpoint 19">
       <r>   -0.3835    1.0000 </r>
       <r>    7.2195    1.0000 </r>
       <r>   17.8713    0.0000 </r>
       <r>   18.7370    0.0000 </r>
       <r>   20.9619    0.0000 </r>
       <r>   22.8372    0.0000 </r>
       <r>   23.8415    0.0000 </r>
       <r>   27.5232    0.0000 </r>
      </set>
      <set comment="kpoint 20">
       <r>    0.6662    1.0000 </r>
       <r>    5.6196    1.0000 </r>
       <r>   17.9594    0.0000 </r>
       <r>   18.4745    0.0000 </r>
       <r>   20.7121    0.0000 </r>
       <r>   22.2496    0.0000 </r>
       <r>   23.8870    0.0000 </r>
       <r>   27.0006    0.0000 </r>
      </set>
      <set comment="kpoint 21">
       <r>    1.8211    1.0000 </r>
       <r>    4.1496    1.0000 </r>
       <r>   18.1376    0.0000 </r>
       <r>   18.1809    0.0000 </r>
       <r>   20.7107    0.0000 </r>
       <r>   21.7845    0.0000 </r>
       <r>   23.9247    0.0000 </r>
       <r>   26.6754    0.0000 </r>
      </set>
      <set comment="kpoint 22">
       <r>    2.5485    1.0000 </r>
       <r>    3.3432    1.0000 </r>
       <r>   17.8962    0.0000 </r>
       <r>   18.3895    0.0000 </r>
       <r>   20.9232    0.0000 </r>
       <r>   21.4648    0.0000 </r>
       <r>   23.9105    0.0000 </r>
       <r>   26.6110    0.0000 </r>
      </set>
      <set comment="kpoint 23">
       <r>    1.4273    1.0000 </r>
       <r>    4.6222    1.0000 </r>
       <r>   17.6631    0.0000 </r>
       <r>   18.6874    0.0000 </r>
       <r>   21.3078    0.0000 </r>
       <r>   21.3200    0.0000 </r>
       <r>   23.8369    0.0000 </r>
       <r>   26.8182    0.0000 </r>
      </set>
      <set comment="kpoint 24">
       <r>    0.3033    1.0000 </r>
       <r>    6.1398    1.0000 </r>
       <r>   17.5092    0.0000 </r>
       <r>   18.9934    0.0000 </r>
       <r>   21.3866    0.0000 </r>
       <r>   21.8345    0.0000 </r>
       <r>   23.7421    0.0000 </r>
       <r>   27.2518    0.0000 </r>
      </set>
      <set comment="kpoint 25">
       <r>   -0.7068    1.0000 </r>
       <r>    7.7778    1.0000 </r>
       <r>   17.4497    0.0000 </r>
       <r>   19.2774    0.0000 </r>
       <r>   21.6881    0.0000 </r>
       <r>   22.4806    0.0000 </r>
       <r>   23.6700    0.0000 </r>
       <r>   27.8461    0.0000 </r>
      </set>
      <set comment="kpoint 26">
       <r>   -1.5942    1.0000 </r>
       <r>    9.5236    1.0000 </r>
       <r>   17.4927    0.0000 </r>
       <r>   19.5455    0.0000 </r>
       <r>   22.2020    0.0000 </r>
       <r>   23.2220    0.0000 </r>
       <r>   23.6435    0.0000 </r>
       <r>   28.4998    0.0000 </r>
      </set>
      <set comment="kpoint 27">
       <r>   -2.3555    1.0000 </r>
       <r>   11.3681    0.0000 </r>
       <r>   17.6425    0.0000 </r>
       <r>   19.8322    0.0000 </r>
       <r>   22.8479    0.0000 </r>
       <r>   23.6604    0.0000 </r>
       <r>   24.0173    0.0000 </r>
       <r>   27.3676    0.0000 </r>
      </set>
      <set comment="kpoint 28">
       <r>   -2.9888    1.0000 </r>
       <r>   13.2990    0.0000 </r>
       <r>   17.9008    0.0000 </r>
       <r>   20.1706    0.0000 </r>
       <r>   23.4349    0.0000 </r>
       <r>   23.7031    0.0000 </r>
       <r>   24.7394    0.0000 </r>
       <r>   26.3676    0.0000 </r>
      </set>
      <set comment="kpoint 29">
       <r>   -3.4927    1.0000 </r>
       <r>   15.2963    0.0000 </r>
       <r>   18.2677    0.0000 </r>
       <r>   20.5775    0.0000 </r>
       <r>   23.4693    0.0000 </r>
       <r>   23.7148    0.0000 </r>
       <r>   25.0027    0.0000 </r>
       <r>   26.1473    0.0000 </r>
      </set>
      <set comment="kpoint 30">
       <r>   -3.8659    1.0000 </r>
       <r>   17.3215    0.0000 </r>
       <r>   18.7407    0.0000 </r>
       <r>   21.0407    0.0000 </r>
       <r>   22.8416    0.0000 </r>
       <r>   23.5884    0.0000 </r>
       <r>   24.5424    0.0000 </r>
       <r>   26.7994    0.0000 </r>
      </set>
      <set comment="kpoint 31">
       <r>   -4.1079    1.0000 </r>
       <r>   19.2322    0.0000 </r>
       <r>   19.3629    0.0000 </r>
       <r>   21.3576    0.0000 </r>
       <r>   22.2686    0.0000 </r>
       <r>   23.2122    0.0000 </r>
       <r>   23.7754    0.0000 </r>
       <r>   27.7363    0.0000 </r>
      </set>
      <set comment="kpoint 32">
       <r>   -3.9319    1.0000 </r>
       <r>   18.8600    0.0000 </r>
       <r>   18.8600    0.0000 </r>
       <r>   20.4935    0.0000 </r>
       <r>   20.5167    0.0000 </r>
       <r>   24.9824    0.0000 </r>
       <r>   24.9824    0.0000 </r>
       <r>   25.8448    0.0000 </r>
      </set>
      <set comment="kpoint 33">
       <r>   -3.6901    1.0000 </r>
       <r>   17.3842    0.0000 </r>
       <r>   18.2782    0.0000 </r>
       <r>   20.0204    0.0000 </r>
       <r>   20.8057    0.0000 </r>
       <r>   24.7211    0.0000 </r>
       <r>   25.5727    0.0000 </r>
       <r>   25.8058    0.0000 </r>
      </set>
      <set comment="kpoint 34">
       <r>   -3.3172    1.0000 </r>
       <r>   15.4225    0.0000 </r>
       <r>   17.8030    0.0000 </r>
       <r>   19.5505    0.0000 </r>
       <r>   21.4029    0.0000 </r>
       <r>   23.9272    0.0000 </r>
       <r>   25.7915    0.0000 </r>
       <r>   26.3728    0.0000 </r>
      </set>
      <set comment="kpoint 35">
       <r>   -2.8138    1.0000 </r>
       <r>   13.4445    0.0000 </r>
       <r>   17.4378    0.0000 </r>
       <r>   19.1205    0.0000 </r>
       <r>   21.3713    0.0000 </r>
       <r>   23.9750    0.0000 </r>
       <r>   25.9178    0.0000 </r>
       <r>   26.2517    0.0000 </r>
      </set>
      <set comment="kpoint 36">
       <r>   -2.1809    1.0000 </r>
       <r>   11.5226    0.0000 </r>
       <r>   17.1839    0.0000 </r>
       <r>   18.7168    0.0000 </r>
       <r>   20.8115    0.0000 </r>
       <r>   24.5821    0.0000 </r>
       <r>   25.6343    0.0000 </r>
       <r>   26.2525    0.0000 </r>
      </set>
      <set comment="kpoint 37">
       <r>   -1.4202    1.0000 </r>
       <r>    9.6833    1.0000 </r>
       <r>   17.0414    0.0000 </r>
       <r>   18.2957    0.0000 </r>
       <r>   20.2724    0.0000 </r>
       <r>   24.8995    0.0000 </r>
       <r>   24.9627    0.0000 </r>
       <r>   27.1118    0.0000 </r>
      </set>
      <set comment="kpoint 38">
       <r>   -0.5335    1.0000 </r>
       <r>    7.9409    1.0000 </r>
       <r>   17.0097    0.0000 </r>
       <r>   17.8214    0.0000 </r>
       <r>   19.9489    0.0000 </r>
       <r>   24.1894    0.0000 </r>
       <r>   25.0877    0.0000 </r>
       <r>   28.2493    0.0000 </r>
      </set>
      <set comment="kpoint 39">
       <r>    0.4759    1.0000 </r>
       <r>    6.3053    1.0000 </r>
       <r>   17.0873    0.0000 </r>
       <r>   17.3154    0.0000 </r>
       <r>   19.8631    0.0000 </r>
       <r>   23.5550    0.0000 </r>
       <r>   25.1196    0.0000 </r>
       <r>   28.4391    0.0000 </r>
      </set>
      <set comment="kpoint 40">
       <r>    1.5991    1.0000 </r>
       <r>    4.7891    1.0000 </r>
       <r>   16.8323    0.0000 </r>
       <r>   17.2714    0.0000 </r>
       <r>   19.9759    0.0000 </r>
       <r>   23.0202    0.0000 </r>
       <r>   25.0931    0.0000 </r>
       <r>   28.1985    0.0000 </r>
      </set>
      <set comment="kpoint 41">
       <r>    2.7217    1.0000 </r>
       <r>    3.5091    1.0000 </r>
       <r>   16.4143    0.0000 </r>
       <r>   17.5576    0.0000 </r>
       <r>   20.2515    0.0000 </r>
       <r>   22.5992    0.0000 </r>
       <r>   25.0051    0.0000 </r>
       <r>   28.1511    0.0000 </r>
      </set>
      <set comment="kpoint 42">
       <r>    1.9928    1.0000 </r>
       <r>    4.3165    1.0000 </r>
       <r>   16.0850    0.0000 </r>
       <r>   17.9386    0.0000 </r>
       <r>   20.6679    0.0000 </r>
       <r>   22.3035    0.0000 </r>
       <r>   24.8716    0.0000 </r>
       <r>   28.3291    0.0000 </r>
      </set>
      <set comment="kpoint 43">
       <r>    0.8385    1.0000 </r>
       <r>    5.7852    1.0000 </r>
       <r>   15.8570    0.0000 </r>
       <r>   18.4024    0.0000 </r>
       <r>   21.2115    0.0000 </r>
       <r>   22.1456    0.0000 </r>
       <r>   24.7294    0.0000 </r>
       <r>   28.6901    0.0000 </r>
      </set>
      <set comment="kpoint 44">
       <r>   -0.2105    1.0000 </r>
       <r>    7.3824    1.0000 </r>
       <r>   15.7370    0.0000 </r>
       <r>   18.9295    0.0000 </r>
       <r>   21.8707    0.0000 </r>
       <r>   22.1413    0.0000 </r>
       <r>   24.6114    0.0000 </r>
       <r>   29.1520    0.0000 </r>
      </set>
      <set comment="kpoint 45">
       <r>   -1.1386    1.0000 </r>
       <r>    9.0895    1.0000 </r>
       <r>   15.7288    0.0000 </r>
       <r>   19.4906    0.0000 </r>
       <r>   22.3091    0.0000 </r>
       <r>   22.6318    0.0000 </r>
       <r>   24.5323    0.0000 </r>
       <r>   28.2650    0.0000 </r>
      </set>
      <set comment="kpoint 46">
       <r>   -1.9416    1.0000 </r>
       <r>   10.8961    0.0000 </r>
       <r>   15.8347    0.0000 </r>
       <r>   20.0510    0.0000 </r>
       <r>   22.6531    0.0000 </r>
       <r>   23.4715    0.0000 </r>
       <r>   24.4857    0.0000 </r>
       <r>   26.8748    0.0000 </r>
      </set>
      <set comment="kpoint 47">
       <r>   -2.6172    1.0000 </r>
       <r>   12.7889    0.0000 </r>
       <r>   16.0565    0.0000 </r>
       <r>   20.5843    0.0000 </r>
       <r>   23.0909    0.0000 </r>
       <r>   24.3194    0.0000 </r>
       <r>   24.4545    0.0000 </r>
       <r>   25.7296    0.0000 </r>
      </set>
      <set comment="kpoint 48">
       <r>   -3.1639    1.0000 </r>
       <r>   14.7415    0.0000 </r>
       <r>   16.4007    0.0000 </r>
       <r>   21.0709    0.0000 </r>
       <r>   23.2035    0.0000 </r>
       <r>   24.3111    0.0000 </r>
       <r>   25.0540    0.0000 </r>
       <r>   25.2684    0.0000 </r>
      </set>
      <set comment="kpoint 49">
       <r>   -3.5804    1.0000 </r>
       <r>   16.5714    0.0000 </r>
       <r>   17.0094    0.0000 </r>
       <r>   21.3792    0.0000 </r>
       <r>   22.7787    0.0000 </r>
       <r>   24.0244    0.0000 </r>
       <r>   25.1431    0.0000 </r>
       <r>   25.8227    0.0000 </r>
      </set>
      <set comment="kpoint 50">
       <r>   -3.4925    1.0000 </r>
       <r>   17.6596    0.0000 </r>
       <r>   17.6596    0.0000 </r>
       <r>   19.2982    0.0000 </r>
       <r>   19.6337    0.0000 </r>
       <r>   23.4535    0.0000 </r>
       <r>   26.6978    0.0000 </r>
       <r>   26.6978    0.0000 </r>
      </set>
      <set comment="kpoint 51">
       <r>   -3.1637    1.0000 </r>
       <r>   16.2388    0.0000 </r>
       <r>   17.1476    0.0000 </r>
       <r>   18.9557    0.0000 </r>
       <r>   19.6578    0.0000 </r>
       <r>   22.4630    0.0000 </r>
       <r>   27.2970    0.0000 </r>
       <r>   27.4388    0.0000 </r>
      </set>
      <set comment="kpoint 52">
       <r>   -2.7043    1.0000 </r>
       <r>   14.3252    0.0000 </r>
       <r>   16.7461    0.0000 </r>
       <r>   18.4386    0.0000 </r>
       <r>   19.9009    0.0000 </r>
       <r>   22.2210    0.0000 </r>
       <r>   27.5266    0.0000 </r>
       <r>   27.5820    0.0000 </r>
      </set>
      <set comment="kpoint 53">
       <r>   -2.1152    1.0000 </r>
       <r>   12.4048    0.0000 </r>
       <r>   16.4569    0.0000 </r>
       <r>   17.8648    0.0000 </r>
       <r>   19.5673    0.0000 </r>
       <r>   22.9667    0.0000 </r>
       <r>   27.0923    0.0000 </r>
       <r>   27.6102    0.0000 </r>
      </set>
      <set comment="kpoint 54">
       <r>   -1.3979    1.0000 </r>
       <r>   10.5480    0.0000 </r>
       <r>   16.2805    0.0000 </r>
       <r>   17.2183    0.0000 </r>
       <r>   19.1945    0.0000 </r>
       <r>   24.0966    0.0000 </r>
       <r>   26.3936    0.0000 </r>
       <r>   27.6939    0.0000 </r>
      </set>
      <set comment="kpoint 55">
       <r>   -0.5540    1.0000 </r>
       <r>    8.7792    1.0000 </r>
       <r>   16.2169    0.0000 </r>
       <r>   16.5343    0.0000 </r>
       <r>   18.9998    0.0000 </r>
       <r>   25.2279    0.0000 </r>
       <r>   25.6817    0.0000 </r>
       <r>   27.9308    0.0000 </r>
      </set>
      <set comment="kpoint 56">
       <r>    0.4137    1.0000 </r>
       <r>    7.1117    1.0000 </r>
       <r>   15.8753    0.0000 </r>
       <r>   16.2656    0.0000 </r>
       <r>   18.9834    0.0000 </r>
       <r>   25.0254    0.0000 </r>
       <r>   26.0102    0.0000 </r>
       <r>   28.5856    0.0000 </r>
      </set>
      <set comment="kpoint 57">
       <r>    1.4996    1.0000 </r>
       <r>    5.5567    1.0000 </r>
       <r>   15.2850    0.0000 </r>
       <r>   16.4254    0.0000 </r>
       <r>   19.1223    0.0000 </r>
       <r>   24.4551    0.0000 </r>
       <r>   26.2816    0.0000 </r>
       <r>   29.7237    0.0000 </r>
      </set>
      <set comment="kpoint 58">
       <r>    2.6706    1.0000 </r>
       <r>    4.1503    1.0000 </r>
       <r>   14.7865    0.0000 </r>
       <r>   16.6944    0.0000 </r>
       <r>   19.4008    0.0000 </r>
       <r>   23.9862    0.0000 </r>
       <r>   26.2580    0.0000 </r>
       <r>   30.1463    0.0000 </r>
      </set>
      <set comment="kpoint 59">
       <r>    2.6707    1.0000 </r>
       <r>    4.1497    1.0000 </r>
       <r>   14.3922    0.0000 </r>
       <r>   17.0697    0.0000 </r>
       <r>   19.8096    0.0000 </r>
       <r>   23.6289    0.0000 </r>
       <r>   26.1149    0.0000 </r>
       <r>   30.2943    0.0000 </r>
      </set>
      <set comment="kpoint 60">
       <r>    1.4995    1.0000 </r>
       <r>    5.5552    1.0000 </r>
       <r>   14.1089    0.0000 </r>
       <r>   17.5466    0.0000 </r>
       <r>   20.3417    0.0000 </r>
       <r>   23.3905    0.0000 </r>
       <r>   25.9378    0.0000 </r>
       <r>   30.5578    0.0000 </r>
      </set>
      <set comment="kpoint 61">
       <r>    0.4134    1.0000 </r>
       <r>    7.1086    1.0000 </r>
       <r>   13.9408    0.0000 </r>
       <r>   18.1172    0.0000 </r>
       <r>   20.9897    0.0000 </r>
       <r>   23.2772    0.0000 </r>
       <r>   25.7673    0.0000 </r>
       <r>   29.5341    0.0000 </r>
      </set>
      <set comment="kpoint 62">
       <r>   -0.5543    1.0000 </r>
       <r>    8.7728    1.0000 </r>
       <r>   13.8911    0.0000 </r>
       <r>   18.7689    0.0000 </r>
       <r>   21.7448    0.0000 </r>
       <r>   23.2958    0.0000 </r>
       <r>   25.6141    0.0000 </r>
       <r>   27.9647    0.0000 </r>
      </set>
      <set comment="kpoint 63">
       <r>   -1.3982    1.0000 </r>
       <r>   10.5336    0.0000 </r>
       <r>   13.9640    0.0000 </r>
       <r>   19.4788    0.0000 </r>
       <r>   22.5917    0.0000 </r>
       <r>   23.4487    0.0000 </r>
       <r>   25.4578    0.0000 </r>
       <r>   26.5028    0.0000 </r>
      </set>
      <set comment="kpoint 64">
       <r>   -2.1155    1.0000 </r>
       <r>   12.3639    0.0000 </r>
       <r>   14.1749    0.0000 </r>
       <r>   20.2038    0.0000 </r>
       <r>   23.5004    0.0000 </r>
       <r>   23.7015    0.0000 </r>
       <r>   25.2399    0.0000 </r>
       <r>   25.2434    0.0000 </r>
      </set>
      <set comment="kpoint 65">
       <r>   -2.7045    1.0000 </r>
       <r>   14.0436    0.0000 </r>
       <r>   14.7234    0.0000 </r>
       <r>   20.8402    0.0000 </r>
       <r>   23.6250    0.0000 </r>
       <r>   24.3957    0.0000 </r>
       <r>   24.7228    0.0000 </r>
       <r>   24.8691    0.0000 </r>
      </set>
      <set comment="kpoint 66">
       <r>   -2.8790    1.0000 </r>
       <r>   16.5983    0.0000 </r>
       <r>   16.5983    0.0000 </r>
       <r>   18.1705    0.0000 </r>
       <r>   18.3942    0.0000 </r>
       <r>   21.2950    0.0000 </r>
       <r>   28.4244    0.0000 </r>
       <r>   28.4244    0.0000 </r>
      </set>
      <set comment="kpoint 67">
       <r>   -2.4638    1.0000 </r>
       <r>   15.2262    0.0000 </r>
       <r>   16.1595    0.0000 </r>
       <r>   17.6229    0.0000 </r>
       <r>   18.3580    0.0000 </r>
       <r>   20.6967    0.0000 </r>
       <r>   28.9183    0.0000 </r>
       <r>   29.0328    0.0000 </r>
      </set>
      <set comment="kpoint 68">
       <r>   -1.9189    1.0000 </r>
       <r>   13.3696    0.0000 </r>
       <r>   15.8332    0.0000 </r>
       <r>   16.8211    0.0000 </r>
       <r>   18.4531    0.0000 </r>
       <r>   21.0742    0.0000 </r>
       <r>   28.6046    0.0000 </r>
       <r>   29.2777    0.0000 </r>
      </set>
      <set comment="kpoint 69">
       <r>   -1.2454    1.0000 </r>
       <r>   11.5148    0.0000 </r>
       <r>   15.6204    0.0000 </r>
       <r>   15.9753    0.0000 </r>
       <r>   18.2880    0.0000 </r>
       <r>   22.1487    0.0000 </r>
       <r>   27.9696    0.0000 </r>
       <r>   29.3351    0.0000 </r>
      </set>
      <set comment="kpoint 70">
       <r>   -0.4451    1.0000 </r>
       <r>    9.7289    1.0000 </r>
       <r>   15.1508    0.0000 </r>
       <r>   15.5213    0.0000 </r>
       <r>   18.1709    0.0000 </r>
       <r>   23.4784    0.0000 </r>
       <r>   27.2746    0.0000 </r>
       <r>   29.3049    0.0000 </r>
      </set>
      <set comment="kpoint 71">
       <r>    0.4799    1.0000 </r>
       <r>    8.0349    1.0000 </r>
       <r>   14.3934    0.0000 </r>
       <r>   15.5357    0.0000 </r>
       <r>   18.1740    0.0000 </r>
       <r>   24.8853    0.0000 </r>
       <r>   26.6108    0.0000 </r>
       <r>   29.2532    0.0000 </r>
      </set>
      <set comment="kpoint 72">
       <r>    1.5255    1.0000 </r>
       <r>    6.4465    1.0000 </r>
       <r>   13.7278    0.0000 </r>
       <r>   15.6630    0.0000 </r>
       <r>   18.3063    0.0000 </r>
       <r>   26.0183    0.0000 </r>
       <r>   26.1977    0.0000 </r>
       <r>   29.3008    0.0000 </r>
      </set>
      <set comment="kpoint 73">
       <r>    2.6773    1.0000 </r>
       <r>    4.9828    1.0000 </r>
       <r>   13.1671    0.0000 </r>
       <r>   15.9024    0.0000 </r>
       <r>   18.5669    0.0000 </r>
       <r>   25.5175    0.0000 </r>
       <r>   27.0703    0.0000 </r>
       <r>   29.7444    0.0000 </r>
      </set>
      <set comment="kpoint 74">
       <r>    3.4119    1.0000 </r>
       <r>    4.1691    1.0000 </r>
       <r>   12.7186    0.0000 </r>
       <r>   16.2520    0.0000 </r>
       <r>   18.9530    0.0000 </r>
       <r>   25.1200    0.0000 </r>
       <r>   27.3001    0.0000 </r>
       <r>   30.6841    0.0000 </r>
      </set>
      <set comment="kpoint 75">
       <r>    2.2842    1.0000 </r>
       <r>    5.4506    1.0000 </r>
       <r>   12.3872    0.0000 </r>
       <r>   16.7094    0.0000 </r>
       <r>   19.4608    0.0000 </r>
       <r>   24.8331    0.0000 </r>
       <r>   27.2030    0.0000 </r>
       <r>   31.0764    0.0000 </r>
      </set>
      <set comment="kpoint 76">
       <r>    1.1636    1.0000 </r>
       <r>    6.9552    1.0000 </r>
       <r>   12.1769    0.0000 </r>
       <r>   17.2703    0.0000 </r>
       <r>   20.0858    0.0000 </r>
       <r>   24.6624    0.0000 </r>
       <r>   27.0030    0.0000 </r>
       <r>   29.4051    0.0000 </r>
      </set>
      <set comment="kpoint 77">
       <r>    0.1573    1.0000 </r>
       <r>    8.5688    1.0000 </r>
       <r>   12.0939    0.0000 </r>
       <r>   17.9272    0.0000 </r>
       <r>   20.8207    0.0000 </r>
       <r>   24.6120    0.0000 </r>
       <r>   26.7525    0.0000 </r>
       <r>   27.7826    0.0000 </r>
      </set>
      <set comment="kpoint 78">
       <r>   -0.7266    1.0000 </r>
       <r>   10.2568    0.0280 </r>
       <r>   12.1600    0.0000 </r>
       <r>   18.6662    0.0000 </r>
       <r>   21.6539    0.0000 </r>
       <r>   24.6858    0.0000 </r>
       <r>   26.2572    0.0000 </r>
       <r>   26.4208    0.0000 </r>
      </set>
      <set comment="kpoint 79">
       <r>   -1.4848    1.0000 </r>
       <r>   11.7757    0.0000 </r>
       <r>   12.6065    0.0000 </r>
       <r>   19.4557    0.0000 </r>
       <r>   22.5635    0.0000 </r>
       <r>   24.8013    0.0000 </r>
       <r>   24.9595    0.0000 </r>
       <r>   25.9302    0.0000 </r>
      </set>
      <set comment="kpoint 80">
       <r>   -2.0929    1.0000 </r>
       <r>   15.6830    0.0000 </r>
       <r>   15.6830    0.0000 </r>
       <r>   16.6273    0.0000 </r>
       <r>   17.1696    0.0000 </r>
       <r>   19.7345    0.0000 </r>
       <r>   30.1078    0.0000 </r>
       <r>   30.1078    0.0000 </r>
      </set>
      <set comment="kpoint 81">
       <r>   -1.5923    1.0000 </r>
       <r>   14.3489    0.0000 </r>
       <r>   15.3191    0.0000 </r>
       <r>   15.6777    0.0000 </r>
       <r>   17.3335    0.0000 </r>
       <r>   19.5373    0.0000 </r>
       <r>   30.1415    0.0000 </r>
       <r>   30.6982    0.0000 </r>
      </set>
      <set comment="kpoint 82">
       <r>   -0.9631    1.0000 </r>
       <r>   12.5582    0.0000 </r>
       <r>   14.7075    0.0000 </r>
       <r>   15.0689    0.0000 </r>
       <r>   17.4751    0.0000 </r>
       <r>   20.2458    0.0000 </r>
       <r>   29.5946    0.0000 </r>
       <r>   30.9178    0.0000 </r>
      </set>
      <set comment="kpoint 83">
       <r>   -0.2068    1.0000 </r>
       <r>   10.7768    0.0000 </r>
       <r>   13.7884    0.0000 </r>
       <r>   14.9328    0.0000 </r>
       <r>   17.4460    0.0000 </r>
       <r>   21.4853    0.0000 </r>
       <r>   28.9377    0.0000 </r>
       <r>   30.8975    0.0000 </r>
      </set>
      <set comment="kpoint 84">
       <r>    0.6747    1.0000 </r>
       <r>    9.0672    1.0000 </r>
       <r>   12.9568    0.0000 </r>
       <r>   14.9108    0.0000 </r>
       <r>   17.4594    0.0000 </r>
       <r>   22.9433    0.0000 </r>
       <r>   28.2821    0.0000 </r>
       <r>   30.7235    0.0000 </r>
      </set>
      <set comment="kpoint 85">
       <r>    1.6780    1.0000 </r>
       <r>    7.4524    1.0000 </r>
       <r>   12.2288    0.0000 </r>
       <r>   15.0028    0.0000 </r>
       <r>   17.5763    0.0000 </r>
       <r>   24.5010    0.0000 </r>
       <r>   27.6789    0.0000 </r>
       <r>   30.4604    0.0000 </r>
      </set>
      <set comment="kpoint 86">
       <r>    2.7951    1.0000 </r>
       <r>    5.9492    1.0000 </r>
       <r>   11.6133    0.0000 </r>
       <r>   15.2080    0.0000 </r>
       <r>   17.8116    0.0000 </r>
       <r>   26.0674    0.0000 </r>
       <r>   27.1552    0.0000 </r>
       <r>   30.1803    0.0000 </r>
      </set>
      <set comment="kpoint 87">
       <r>    3.9254    1.0000 </r>
       <r>    4.6620    1.0000 </r>
       <r>   11.1156    0.0000 </r>
       <r>   15.5256    0.0000 </r>
       <r>   18.1685    0.0000 </r>
       <r>   26.7259    0.0000 </r>
       <r>   27.4621    0.0000 </r>
       <r>   30.0164    0.0000 </r>
      </set>
      <set comment="kpoint 88">
       <r>    3.1884    1.0000 </r>
       <r>    5.4710    1.0000 </r>
       <r>   10.7404    0.0000 </r>
       <r>   15.9538    0.0000 </r>
       <r>   18.6464    0.0000 </r>
       <r>   26.3999    0.0000 </r>
       <r>   28.2371    0.0000 </r>
       <r>   30.2648    0.0000 </r>
      </set>
      <set comment="kpoint 89">
       <r>    2.0379    1.0000 </r>
       <r>    6.9167    1.0000 </r>
       <r>   10.4951    0.0000 </r>
       <r>   16.4899    0.0000 </r>
       <r>   19.2421    0.0000 </r>
       <r>   26.1824    0.0000 </r>
       <r>   28.2271    0.0000 </r>
       <r>   29.3972    0.0000 </r>
      </set>
      <set comment="kpoint 90">
       <r>    0.9945    1.0000 </r>
       <r>    8.4516    1.0000 </r>
       <r>   10.4056    0.0000 </r>
       <r>   17.1290    0.0000 </r>
       <r>   19.9499    0.0000 </r>
       <r>   26.0730    0.0000 </r>
       <r>   27.7392    0.0000 </r>
       <r>   27.8546    0.0000 </r>
      </set>
      <set comment="kpoint 91">
       <r>    0.0717    1.0000 </r>
       <r>    9.8097    1.0000 </r>
       <r>   10.7201    0.0000 </r>
       <r>   17.8617    0.0000 </r>
       <r>   20.7600    0.0000 </r>
       <r>   25.9590    0.0000 </r>
       <r>   26.2943    0.0000 </r>
       <r>   27.2471    0.0000 </r>
      </set>
      <set comment="kpoint 92">
       <r>   -1.1362    1.0000 </r>
       <r>   14.4877    0.0000 </r>
       <r>   14.9174    0.0000 </r>
       <r>   14.9174    0.0000 </r>
       <r>   16.3203    0.0000 </r>
       <r>   18.7177    0.0000 </r>
       <r>   31.6262    0.0000 </r>
       <r>   31.7015    0.0000 </r>
      </set>
      <set comment="kpoint 93">
       <r>   -0.5515    1.0000 </r>
       <r>   13.3203    0.0000 </r>
       <r>   13.7838    0.0000 </r>
       <r>   14.6293    0.0000 </r>
       <r>   16.5579    0.0000 </r>
       <r>   18.7355    0.0000 </r>
       <r>   31.2158    0.0000 </r>
       <r>   32.2422    0.0000 </r>
      </set>
      <set comment="kpoint 94">
       <r>    0.1602    1.0000 </r>
       <r>   11.8411    0.0000 </r>
       <r>   12.5600    0.0000 </r>
       <r>   14.4556    0.0000 </r>
       <r>   16.7679    0.0000 </r>
       <r>   19.6122    0.0000 </r>
       <r>   30.6310    0.0000 </r>
       <r>   32.3899    0.0000 </r>
      </set>
      <set comment="kpoint 95">
       <r>    0.9973    1.0000 </r>
       <r>   10.1784    0.6207 </r>
       <r>   11.6231    0.0000 </r>
       <r>   14.3963    0.0000 </r>
       <r>   16.8344    0.0000 </r>
       <r>   20.9661    0.0000 </r>
       <r>   30.0066    0.0000 </r>
       <r>   32.2559    0.0000 </r>
      </set>
      <set comment="kpoint 96">
       <r>    1.9568    1.0000 </r>
       <r>    8.5587    1.0000 </r>
[...]
       </set>
       <set comment="band 7">
        <r>  0.0074  0.0200  0.0436  0.1345  0.0000  0.0000  0.0000  0.0000  0.0000 </r>
       </set>
       <set comment="band 8">
        <r>  0.0344  0.0728  0.0308  0.0079  0.0000  0.0000  0.0000  0.0000  0.0000 </r>
       </set>
      </set>
      <set comment="kpoint 270">
       <set comment="band 1">
        <r>  0.2437  0.0951  0.0110  0.0475  0.0000  0.0000  0.0000  0.0000  0.0000 </r>
       </set>
       <set comment="band 2">
        <r>  0.0000  0.1070  0.0000  0.2141  0.0000  0.0000  0.0000  0.0000  0.0000 </r>
       </set>
       <set comment="band 3">
        <r>  0.2934  0.1006  0.0058  0.0503  0.0000  0.0000  0.0000  0.0000  0.0000 </r>
       </set>
       <set comment="band 4">
        <r>  0.0698  0.0059  0.2640  0.0029  0.0000  0.0000  0.0000  0.0000  0.0000 </r>
       </set>
       <set comment="band 5">
        <r>  0.0226  0.0234  0.2285  0.0117  0.0000  0.0000  0.0000  0.0000  0.0000 </r>
       </set>
       <set comment="band 6">
        <r>  0.0000  0.0434  0.0000  0.0869  0.0000  0.0000  0.0000  0.0000  0.0000 </r>
       </set>
       <set comment="band 7">
        <r>  0.0581  0.0427  0.0844  0.0214  0.0000  0.0000  0.0000  0.0000  0.0000 </r>
       </set>
       <set comment="band 8">
        <r>  0.0069  0.0906  0.0139  0.0453  0.0000  0.0000  0.0000  0.0000  0.0000 </r>
       </set>
      </set>
      <set comment="kpoint 271">
       <set comment="band 1">
        <r>  0.2189  0.0284  0.0060  0.1386  0.0000  0.0000  0.0000  0.0000  0.0000 </r>
       </set>
       <set comment="band 2">
        <r>  0.2697  0.0755  0.0009  0.1133  0.0000  0.0000  0.0000  0.0000  0.0000 </r>
       </set>
       <set comment="band 3">
        <r>  0.0000  0.1031  0.1546  0.0515  0.0000  0.0000  0.0000  0.0000  0.0000 </r>
       </set>
       <set comment="band 4">
        <r>  0.1042  0.0861  0.1240  0.0381  0.0000  0.0000  0.0000  0.0000  0.0000 </r>
       </set>
       <set comment="band 5">
        <r>  0.0000  0.0523  0.0785  0.0262  0.0000  0.0000  0.0000  0.0000  0.0000 </r>
       </set>
       <set comment="band 6">
        <r>  0.1026  0.1100  0.1192  0.0166  0.0000  0.0000  0.0000  0.0000  0.0000 </r>
       </set>
       <set comment="band 7">
        <r>  0.0234  0.0640  0.0351  0.0011  0.0000  0.0000  0.0000  0.0000  0.0000 </r>
       </set>
       <set comment="band 8">
        <r>  0.0015  0.0021  0.0147  0.0757  0.0000  0.0000  0.0000  0.0000  0.0000 </r>
       </set>
      </set>
      <set comment="kpoint 272">
       <set comment="band 1">
        <r>  0.1935  0.0304  0.0054  0.1612  0.0000  0.0000  0.0000  0.0000  0.0000 </r>
       </set>
       <set comment="band 2">
        <r>  0.3172  0.0157  0.0125  0.1359  0.0000  0.0000  0.0000  0.0000  0.0000 </r>
       </set>
       <set comment="band 3">
        <r>  0.0005  0.2396  0.0221  0.0294  0.0000  0.0000  0.0000  0.0000  0.0000 </r>
       </set>
       <set comment="band 4">
        <r>  0.0942  0.0061  0.2450  0.0027  0.0000  0.0000  0.0000  0.0000  0.0000 </r>
       </set>
       <set comment="band 5">
        <r>  0.0267  0.0009  0.1692  0.0031  0.0000  0.0000  0.0000  0.0000  0.0000 </r>
       </set>
       <set comment="band 6">
        <r>  0.0558  0.1695  0.0309  0.0506  0.0000  0.0000  0.0000  0.0000  0.0000 </r>
       </set>
       <set comment="band 7">
        <r>  0.0251  0.0548  0.0342  0.0089  0.0000  0.0000  0.0000  0.0000  0.0000 </r>
       </set>
       <set comment="band 8">
        <r>  0.0100  0.0010  0.0367  0.0732  0.0000  0.0000  0.0000  0.0000  0.0000 </r>
       </set>
      </set>
      <set comment="kpoint 273">
       <set comment="band 1">
        <r>  0.1636  0.0500  0.0051  0.1715  0.0000  0.0000  0.0000  0.0000  0.0000 </r>
       </set>
       <set comment="band 2">
        <r>  0.2322  0.0295  0.0180  0.1491  0.0000  0.0000  0.0000  0.0000  0.0000 </r>
       </set>
       <set comment="band 3">
        <r>  0.1297  0.2150  0.0000  0.0000  0.0000  0.0000  0.0000  0.0000  0.0000 </r>
       </set>
       <set comment="band 4">
        <r>  0.0870  0.0000  0.2609  0.0000  0.0000  0.0000  0.0000  0.0000  0.0000 </r>
       </set>
       <set comment="band 5">
        <r>  0.0382  0.0019  0.1881  0.0001  0.0000  0.0000  0.0000  0.0000  0.0000 </r>
       </set>
       <set comment="band 6">
        <r>  0.0230  0.1743  0.0174  0.0655  0.0000  0.0000  0.0000  0.0000  0.0000 </r>
       </set>
       <set comment="band 7">
        <r>  0.0186  0.0433  0.0216  0.0343  0.0000  0.0000  0.0000  0.0000  0.0000 </r>
       </set>
       <set comment="band 8">
        <r>  0.0292  0.0001  0.0621  0.0503  0.0000  0.0000  0.0000  0.0000  0.0000 </r>
       </set>
      </set>
      <set comment="kpoint 274">
       <set comment="band 1">
        <r>  0.2585  0.0993  0.0158  0.0497  0.0000  0.0000  0.0000  0.0000  0.0000 </r>
       </set>
       <set comment="band 2">
        <r>  0.0000  0.1108  0.0000  0.2216  0.0000  0.0000  0.0000  0.0000  0.0000 </r>
       </set>
       <set comment="band 3">
        <r>  0.2752  0.0877  0.0032  0.0438  0.0000  0.0000  0.0000  0.0000  0.0000 </r>
       </set>
       <set comment="band 4">
        <r>  0.0809  0.0011  0.2637  0.0005  0.0000  0.0000  0.0000  0.0000  0.0000 </r>
       </set>
       <set comment="band 5">
        <r>  0.0382  0.0062  0.1967  0.0031  0.0000  0.0000  0.0000  0.0000  0.0000 </r>
       </set>
       <set comment="band 6">
        <r>  0.0015  0.1644  0.0280  0.0822  0.0000  0.0000  0.0000  0.0000  0.0000 </r>
       </set>
       <set comment="band 7">
        <r>  0.0000  0.0391  0.0000  0.0782  0.0000  0.0000  0.0000  0.0000  0.0000 </r>
       </set>
       <set comment="band 8">
        <r>  0.0608  0.0000  0.0787  0.0000  0.0000  0.0000  0.0000  0.0000  0.0000 </r>
       </set>
      </set>
      <set comment="kpoint 275">
       <set comment="band 1">
        <r>  0.1379  0.0535  0.0035  0.1839  0.0000  0.0000  0.0000  0.0000  0.0000 </r>
       </set>
       <set comment="band 2">
        <r>  0.3221  0.0647  0.0058  0.0521  0.0000  0.0000  0.0000  0.0000  0.0000 </r>
       </set>
       <set comment="band 3">
        <r>  0.0000  0.1035  0.1553  0.0518  0.0000  0.0000  0.0000  0.0000  0.0000 </r>
       </set>
       <set comment="band 4">
        <r>  0.1365  0.0794  0.1217  0.0423  0.0000  0.0000  0.0000  0.0000  0.0000 </r>
       </set>
       <set comment="band 5">
        <r>  0.0000  0.0528  0.0791  0.0264  0.0000  0.0000  0.0000  0.0000  0.0000 </r>
       </set>
       <set comment="band 6">
        <r>  0.1089  0.0890  0.1190  0.0308  0.0000  0.0000  0.0000  0.0000  0.0000 </r>
       </set>
       <set comment="band 7">
        <r>  0.0132  0.0656  0.0253  0.0075  0.0000  0.0000  0.0000  0.0000  0.0000 </r>
       </set>
       <set comment="band 8">
        <r>  0.0097  0.0004  0.0284  0.0704  0.0000  0.0000  0.0000  0.0000  0.0000 </r>
       </set>
      </set>
      <set comment="kpoint 276">
       <set comment="band 1">
        <r>  0.0000  0.1138  0.0000  0.2275  0.0000  0.0000  0.0000  0.0000  0.0000 </r>
       </set>
       <set comment="band 2">
        <r>  0.4793  0.0054  0.0119  0.0027  0.0000  0.0000  0.0000  0.0000  0.0000 </r>
       </set>
       <set comment="band 3">
        <r>  0.0218  0.1749  0.0284  0.0875  0.0000  0.0000  0.0000  0.0000  0.0000 </r>
       </set>
       <set comment="band 4">
        <r>  0.1064  0.0049  0.2449  0.0025  0.0000  0.0000  0.0000  0.0000  0.0000 </r>
       </set>
       <set comment="band 5">
        <r>  0.0272  0.0023  0.1691  0.0011  0.0000  0.0000  0.0000  0.0000  0.0000 </r>
       </set>
       <set comment="band 6">
        <r>  0.0588  0.1442  0.0308  0.0721  0.0000  0.0000  0.0000  0.0000  0.0000 </r>
       </set>
       <set comment="band 7">
        <r>  0.0000  0.0334  0.0000  0.0668  0.0000  0.0000  0.0000  0.0000  0.0000 </r>
       </set>
       <set comment="band 8">
        <r>  0.0343  0.0260  0.0726  0.0130  0.0000  0.0000  0.0000  0.0000  0.0000 </r>
       </set>
      </set>
      <set comment="kpoint 277">
       <set comment="band 1">
        <r>  0.2480  0.0123  0.0123  0.1220  0.0000  0.0000  0.0000  0.0000  0.0000 </r>
       </set>
       <set comment="band 2">
        <r>  0.0000  0.1044  0.1566  0.0522  0.0000  0.0000  0.0000  0.0000  0.0000 </r>
       </set>
       <set comment="band 3">
        <r>  0.3007  0.0029  0.0617  0.1256  0.0000  0.0000  0.0000  0.0000  0.0000 </r>
       </set>
       <set comment="band 4">
        <r>  0.0535  0.1671  0.0455  0.0435  0.0000  0.0000  0.0000  0.0000  0.0000 </r>
       </set>
       <set comment="band 5">
        <r>  0.0000  0.0480  0.0720  0.0240  0.0000  0.0000  0.0000  0.0000  0.0000 </r>
       </set>
       <set comment="band 6">
        <r>  0.0262  0.1894  0.1683  0.0090  0.0000  0.0000  0.0000  0.0000  0.0000 </r>
       </set>
       <set comment="band 7">
        <r>  0.0726  0.0175  0.0068  0.0019  0.0000  0.0000  0.0000  0.0000  0.0000 </r>
       </set>
       <set comment="band 8">
        <r>  0.0003  0.0077  0.0137  0.1067  0.0000  0.0000  0.0000  0.0000  0.0000 </r>
       </set>
      </set>
      <set comment="kpoint 278">
       <set comment="band 1">
        <r>  0.2344  0.0117  0.0120  0.1386  0.0000  0.0000  0.0000  0.0000  0.0000 </r>
       </set>
       <set comment="band 2">
        <r>  0.0854  0.1005  0.0401  0.1284  0.0000  0.0000  0.0000  0.0000  0.0000 </r>
       </set>
       <set comment="band 3">
        <r>  0.2440  0.0281  0.1580  0.0270  0.0000  0.0000  0.0000  0.0000  0.0000 </r>
       </set>
       <set comment="band 4">
        <r>  0.0473  0.1501  0.0656  0.0372  0.0000  0.0000  0.0000  0.0000  0.0000 </r>
       </set>
       <set comment="band 5">
        <r>  0.0088  0.0287  0.2378  0.0007  0.0000  0.0000  0.0000  0.0000  0.0000 </r>
       </set>
       <set comment="band 6">
        <r>  0.0032  0.2077  0.0129  0.0163  0.0000  0.0000  0.0000  0.0000  0.0000 </r>
       </set>
       <set comment="band 7">
        <r>  0.0743  0.0111  0.0000  0.0325  0.0000  0.0000  0.0000  0.0000  0.0000 </r>
       </set>
       <set comment="band 8">
        <r>  0.0087  0.0086  0.0303  0.0969  0.0000  0.0000  0.0000  0.0000  0.0000 </r>
       </set>
      </set>
      <set comment="kpoint 279">
       <set comment="band 1">
        <r>  0.2487  0.0188  0.0141  0.1300  0.0000  0.0000  0.0000  0.0000  0.0000 </r>
       </set>
       <set comment="band 2">
        <r>  0.0951  0.0843  0.0198  0.1522  0.0000  0.0000  0.0000  0.0000  0.0000 </r>
       </set>
       <set comment="band 3">
        <r>  0.2580  0.0918  0.1130  0.0174  0.0000  0.0000  0.0000  0.0000  0.0000 </r>
       </set>
       <set comment="band 4">
        <r>  0.0139  0.1015  0.1280  0.0226  0.0000  0.0000  0.0000  0.0000  0.0000 </r>
       </set>
       <set comment="band 5">
        <r>  0.0016  0.0717  0.2522  0.0000  0.0000  0.0000  0.0000  0.0000  0.0000 </r>
       </set>
       <set comment="band 6">
        <r>  0.0423  0.0789  0.0013  0.0002  0.0000  0.0000  0.0000  0.0000  0.0000 </r>
       </set>
       <set comment="band 7">
        <r>  0.0181  0.0742  0.0055  0.0943  0.0000  0.0000  0.0000  0.0000  0.0000 </r>
       </set>
       <set comment="band 8">
        <r>  0.0317  0.0210  0.0353  0.0577  0.0000  0.0000  0.0000  0.0000  0.0000 </r>
       </set>
      </set>
      <set comment="kpoint 280">
       <set comment="band 1">
        <r>  0.2177  0.0213  0.0102  0.1451  0.0000  0.0000  0.0000  0.0000  0.0000 </r>
       </set>
       <set comment="band 2">
        <r>  0.0000  0.1054  0.1581  0.0527  0.0000  0.0000  0.0000  0.0000  0.0000 </r>
       </set>
       <set comment="band 3">
        <r>  0.3911  0.0170  0.0110  0.1338  0.0000  0.0000  0.0000  0.0000  0.0000 </r>
       </set>
       <set comment="band 4">
        <r>  0.0029  0.1448  0.0974  0.0000  0.0000  0.0000  0.0000  0.0000  0.0000 </r>
       </set>
       <set comment="band 5">
        <r>  0.0000  0.0488  0.0733  0.0244  0.0000  0.0000  0.0000  0.0000  0.0000 </r>
       </set>
       <set comment="band 6">
        <r>  0.0490  0.1475  0.1572  0.0206  0.0000  0.0000  0.0000  0.0000  0.0000 </r>
       </set>
       <set comment="band 7">
        <r>  0.0465  0.0464  0.0159  0.0075  0.0000  0.0000  0.0000  0.0000  0.0000 </r>
       </set>
       <set comment="band 8">
        <r>  0.0109  0.0010  0.0233  0.0954  0.0000  0.0000  0.0000  0.0000  0.0000 </r>
       </set>
      </set>
      <set comment="kpoint 281">
       <set comment="band 1">
        <r>  0.2031  0.0262  0.0098  0.1584  0.0000  0.0000  0.0000  0.0000  0.0000 </r>
       </set>
       <set comment="band 2">
        <r>  0.1090  0.0841  0.0408  0.1345  0.0000  0.0000  0.0000  0.0000  0.0000 </r>
       </set>
       <set comment="band 3">
        <r>  0.2810  0.1475  0.0173  0.0286  0.0000  0.0000  0.0000  0.0000  0.0000 </r>
       </set>
       <set comment="band 4">
        <r>  0.0259  0.0338  0.2078  0.0003  0.0000  0.0000  0.0000  0.0000  0.0000 </r>
       </set>
       <set comment="band 5">
        <r>  0.0169  0.0046  0.2115  0.0001  0.0000  0.0000  0.0000  0.0000  0.0000 </r>
       </set>
       <set comment="band 6">
        <r>  0.0071  0.2156  0.0326  0.0442  0.0000  0.0000  0.0000  0.0000  0.0000 </r>
       </set>
       <set comment="band 7">
        <r>  0.0464  0.0147  0.0054  0.0411  0.0000  0.0000  0.0000  0.0000  0.0000 </r>
       </set>
       <set comment="band 8">
        <r>  0.0331  0.0015  0.0357  0.0701  0.0000  0.0000  0.0000  0.0000  0.0000 </r>
       </set>
      </set>
      <set comment="kpoint 282">
       <set comment="band 1">
        <r>  0.2787  0.1192  0.0315  0.0086  0.0000  0.0000  0.0000  0.0000  0.0000 </r>
       </set>
       <set comment="band 2">
        <r>  0.0234  0.0011  0.0000  0.2998  0.0000  0.0000  0.0000  0.0000  0.0000 </r>
       </set>
       <set comment="band 3">
        <r>  0.2618  0.1748  0.0000  0.0071  0.0000  0.0000  0.0000  0.0000  0.0000 </r>
       </set>
       <set comment="band 4">
        <r>  0.0573  0.0016  0.2432  0.0003  0.0000  0.0000  0.0000  0.0000  0.0000 </r>
       </set>
       <set comment="band 5">
        <r>  0.0147  0.0204  0.2411  0.0024  0.0000  0.0000  0.0000  0.0000  0.0000 </r>
       </set>
       <set comment="band 6">
        <r>  0.0112  0.1691  0.0167  0.0002  0.0000  0.0000  0.0000  0.0000  0.0000 </r>
       </set>
       <set comment="band 7">
        <r>  0.0019  0.0192  0.0108  0.1571  0.0000  0.0000  0.0000  0.0000  0.0000 </r>
       </set>
       <set comment="band 8">
        <r>  0.0730  0.0167  0.0281  0.0035  0.0000  0.0000  0.0000  0.0000  0.0000 </r>
       </set>
      </set>
      <set comment="kpoint 283">
       <set comment="band 1">
        <r>  0.2230  0.1032  0.0229  0.0516  0.0000  0.0000  0.0000  0.0000  0.0000 </r>
       </set>
       <set comment="band 2">
        <r>  0.0000  0.1081  0.0000  0.2163  0.0000  0.0000  0.0000  0.0000  0.0000 </r>
       </set>
       <set comment="band 3">
        <r>  0.3344  0.0906  0.0026  0.0453  0.0000  0.0000  0.0000  0.0000  0.0000 </r>
       </set>
       <set comment="band 4">
        <r>  0.0613  0.0005  0.2482  0.0003  0.0000  0.0000  0.0000  0.0000  0.0000 </r>
       </set>
       <set comment="band 5">
        <r>  0.0051  0.0317  0.2757  0.0159  0.0000  0.0000  0.0000  0.0000  0.0000 </r>
       </set>
       <set comment="band 6">
        <r>  0.0000  0.0443  0.0000  0.0887  0.0000  0.0000  0.0000  0.0000  0.0000 </r>
       </set>
       <set comment="band 7">
        <r>  0.0572  0.0675  0.0233  0.0338  0.0000  0.0000  0.0000  0.0000  0.0000 </r>
       </set>
       <set comment="band 8">
        <r>  0.0355  0.0662  0.0064  0.0331  0.0000  0.0000  0.0000  0.0000  0.0000 </r>
       </set>
      </set>
      <set comment="kpoint 284">
       <set comment="band 1">
        <r>  0.1438  0.0457  0.0056  0.1865  0.0000  0.0000  0.0000  0.0000  0.0000 </r>
       </set>
       <set comment="band 2">
        <r>  0.3617  0.0636  0.0053  0.0532  0.0000  0.0000  0.0000  0.0000  0.0000 </r>
       </set>
       <set comment="band 3">
        <r>  0.0000  0.1059  0.1588  0.0529  0.0000  0.0000  0.0000  0.0000  0.0000 </r>
       </set>
       <set comment="band 4">
        <r>  0.1109  0.0787  0.1072  0.0291  0.0000  0.0000  0.0000  0.0000  0.0000 </r>
       </set>
       <set comment="band 5">
        <r>  0.0000  0.0492  0.0738  0.0246  0.0000  0.0000  0.0000  0.0000  0.0000 </r>
       </set>
       <set comment="band 6">
        <r>  0.0594  0.1146  0.1522  0.0388  0.0000  0.0000  0.0000  0.0000  0.0000 </r>
       </set>
       <set comment="band 7">
        <r>  0.0191  0.0609  0.0115  0.0266  0.0000  0.0000  0.0000  0.0000  0.0000 </r>
       </set>
       <set comment="band 8">
        <r>  0.0335  0.0024  0.0360  0.0677  0.0000  0.0000  0.0000  0.0000  0.0000 </r>
       </set>
      </set>
      <set comment="kpoint 285">
       <set comment="band 1">
        <r>  0.0000  0.1114  0.0000  0.2228  0.0000  0.0000  0.0000  0.0000  0.0000 </r>
       </set>
       <set comment="band 2">
        <r>  0.4526  0.0237  0.0407  0.0119  0.0000  0.0000  0.0000  0.0000  0.0000 </r>
       </set>
       <set comment="band 3">
        <r>  0.0846  0.1554  0.0113  0.0777  0.0000  0.0000  0.0000  0.0000  0.0000 </r>
       </set>
       <set comment="band 4">
        <r>  0.0843  0.0055  0.2239  0.0027  0.0000  0.0000  0.0000  0.0000  0.0000 </r>
       </set>
       <set comment="band 5">
        <r>  0.0186  0.0007  0.2049  0.0004  0.0000  0.0000  0.0000  0.0000  0.0000 </r>
       </set>
       <set comment="band 6">
        <r>  0.0151  0.1678  0.0337  0.0839  0.0000  0.0000  0.0000  0.0000  0.0000 </r>
       </set>
       <set comment="band 7">
        <r>  0.0000  0.0395  0.0000  0.0790  0.0000  0.0000  0.0000  0.0000  0.0000 </r>
       </set>
       <set comment="band 8">
        <r>  0.0730  0.0114  0.0480  0.0057  0.0000  0.0000  0.0000  0.0000  0.0000 </r>
       </set>
      </set>
      <set comment="kpoint 286">
       <set comment="band 1">
        <r>  0.1751  0.0390  0.0067  0.1769  0.0000  0.0000  0.0000  0.0000  0.0000 </r>
       </set>
       <set comment="band 2">
        <r>  0.0000  0.1087  0.1630  0.0543  0.0000  0.0000  0.0000  0.0000  0.0000 </r>
       </set>
       <set comment="band 3">
        <r>  0.4491  0.0174  0.0032  0.0810  0.0000  0.0000  0.0000  0.0000  0.0000 </r>
       </set>
       <set comment="band 4">
        <r>  0.0001  0.1271  0.1032  0.0027  0.0000  0.0000  0.0000  0.0000  0.0000 </r>
       </set>
       <set comment="band 5">
        <r>  0.0021  0.1812  0.1915  0.0243  0.0000  0.0000  0.0000  0.0000  0.0000 </r>
       </set>
       <set comment="band 6">
        <r>  0.0000  0.0447  0.0671  0.0224  0.0000  0.0000  0.0000  0.0000  0.0000 </r>
       </set>
       <set comment="band 7">
        <r>  0.0183  0.0083  0.0113  0.0978  0.0000  0.0000  0.0000  0.0000  0.0000 </r>
       </set>
       <set comment="band 8">
        <r>  0.0837  0.0001  0.0078  0.0270  0.0000  0.0000  0.0000  0.0000  0.0000 </r>
       </set>
      </set>
     </set>
    </set>
   </array>
  </projected>
 </calculation>
 <structure name="finalpos" >
  <crystal>
   <varray name="basis" >
    <v>       2.36879500       0.00000000       1.36762329 </v>
    <v>       0.78959833       2.23332111       1.36762329 </v>
    <v>       0.00000000       0.00000000       2.73524859 </v>
   </varray>
   <i name="volume">     14.47023056 </i>
   <varray name="rec_basis" >
    <v>       0.42215557      -0.14925455      -0.00000000 </v>
    <v>      -0.00000000       0.44776364      -0.00000000 </v>
    <v>      -0.21107763      -0.14925444       0.36559748 </v>
   </varray>
  </crystal>
  <varray name="positions" >
   <v>       0.00000000       0.00000000       0.00000000 </v>
  </varray>
 </structure>
</modeling>
