unknown system                          
           1
     2.368795    0.000000    1.367623
     0.789598    2.233321    1.367623
     0.000000    0.000000    2.735249
   Si
     1
Direct configuration=     1
   0.00000000  0.00000000  0.00000000
