   1   1   0   0
  0.1408159E+02  0.2710538E-09  0.2710538E-09  0.2710538E-09  0.5000000E-15
  1.000000000000000E-004
  CAR 
 unknown system                          
     38.94570581     -6.33746475  301     10.18729675      1.00000000
     -6.337  0.0000E+00  0.0000E+00
     -6.187  0.0000E+00  0.0000E+00
     -6.036  0.0000E+00  0.0000E+00
     -5.885  0.0000E+00  0.0000E+00
     -5.734  0.0000E+00  0.0000E+00
     -5.583  0.0000E+00  0.0000E+00
     -5.432  0.0000E+00  0.0000E+00
     -5.281  0.0000E+00  0.0000E+00
     -5.130  0.0000E+00  0.0000E+00
     -4.979  0.0000E+00  0.0000E+00
     -4.828  0.0000E+00  0.0000E+00
     -4.677  0.0000E+00  0.0000E+00
     -4.526  0.5544E-16  0.8369E-17
     -4.375  0.1294E-06  0.1953E-07
     -4.224  0.4226E-04  0.6399E-05
     -4.073  0.5002E-03  0.8190E-04
     -3.922  0.3412E-03  0.1334E-03
     -3.771  0.1074E-02  0.2954E-03
     -3.620  0.4024E-03  0.3562E-03
     -3.470  0.6242E-03  0.4504E-03
     -3.319  0.1467E-02  0.6718E-03
     -3.168  0.1003E-02  0.8232E-03
     -3.017  0.1178E-02  0.1001E-02
     -2.866  0.4074E-03  0.1063E-02
     -2.715  0.2635E-02  0.1460E-02
     -2.564  0.9028E-03  0.1597E-02
     -2.413  0.1396E-02  0.1807E-02
     -2.262  0.1052E-02  0.1966E-02
     -2.111  0.7849E-03  0.2085E-02
     -1.960  0.2332E-02  0.2437E-02
     -1.809  0.1921E-02  0.2727E-02
     -1.658  0.2765E-02  0.3144E-02
     -1.507  0.1981E-03  0.3174E-02
     -1.356  0.1993E-02  0.3475E-02
     -1.205  0.1386E-02  0.3684E-02
     -1.054  0.2452E-02  0.4054E-02
     -0.903  0.1672E-02  0.4306E-02
     -0.753  0.1537E-02  0.4538E-02
     -0.602  0.4034E-02  0.5147E-02
     -0.451  0.9834E-03  0.5296E-02
     -0.300  0.1843E-02  0.5574E-02
     -0.149  0.7531E-03  0.5688E-02
      0.002  0.3495E-02  0.6215E-02
      0.153  0.1788E-02  0.6485E-02
      0.304  0.3872E-02  0.7070E-02
      0.455  0.1962E-02  0.7366E-02
      0.606  0.6547E-03  0.7465E-02
      0.757  0.4060E-02  0.8078E-02
      0.908  0.1962E-02  0.8374E-02
      1.059  0.1798E-02  0.8645E-02
      1.210  0.4324E-03  0.8710E-02
      1.361  0.5929E-02  0.9605E-02
      1.512  0.1852E-02  0.9885E-02
      1.663  0.3708E-02  0.1044E-01
      1.814  0.2085E-02  0.1076E-01
      1.964  0.1989E-02  0.1106E-01
      2.115  0.2163E-02  0.1139E-01
      2.266  0.3811E-02  0.1196E-01
      2.417  0.2616E-02  0.1236E-01
      2.568  0.1431E-02  0.1257E-01
      2.719  0.3883E-02  0.1316E-01
      2.870  0.2136E-02  0.1348E-01
      3.021  0.5543E-02  0.1432E-01
      3.172  0.7720E-03  0.1443E-01
      3.323  0.5686E-02  0.1529E-01
      3.474  0.2287E-02  0.1564E-01
      3.625  0.2289E-02  0.1598E-01
      3.776  0.7844E-03  0.1610E-01
      3.927  0.2498E-02  0.1648E-01
      4.078  0.2757E-02  0.1689E-01
      4.229  0.4233E-02  0.1753E-01
      4.380  0.6276E-02  0.1848E-01
      4.530  0.1028E-02  0.1864E-01
      4.681  0.3058E-02  0.1910E-01
      4.832  0.4203E-02  0.1973E-01
      4.983  0.4474E-02  0.2041E-01
      5.134  0.1827E-02  0.2068E-01
      5.285  0.3686E-02  0.2124E-01
      5.436  0.4903E-02  0.2198E-01
      5.587  0.2813E-02  0.2240E-01
      5.738  0.1261E-02  0.2259E-01
      5.889  0.1651E-02  0.2284E-01
      6.040  0.4836E-02  0.2357E-01
      6.191  0.4761E-02  0.2429E-01
      6.342  0.5517E-02  0.2512E-01
      6.493  0.1724E-02  0.2539E-01
      6.644  0.2692E-02  0.2579E-01
      6.795  0.4782E-02  0.2651E-01
      6.946  0.5016E-02  0.2727E-01
      7.097  0.2179E-02  0.2760E-01
      7.247  0.3853E-02  0.2818E-01
      7.398  0.5556E-02  0.2902E-01
      7.549  0.1744E-02  0.2928E-01
      7.700  0.1167E-02  0.2946E-01
      7.851  0.2047E-02  0.2977E-01
      8.002  0.4662E-02  0.3047E-01
      8.153  0.6021E-02  0.3138E-01
      8.304  0.9404E-02  0.3280E-01
      8.455  0.2317E-02  0.3315E-01
      8.606  0.1502E-02  0.3338E-01
      8.757  0.4113E-02  0.3400E-01
      8.908  0.4732E-02  0.3471E-01
      9.059  0.2309E-02  0.3506E-01
      9.210  0.2033E-02  0.3537E-01
      9.361  0.7092E-02  0.3644E-01
      9.512  0.3168E-02  0.3692E-01
      9.663  0.4293E-02  0.3756E-01
      9.814  0.1603E-02  0.3781E-01
      9.964  0.6695E-02  0.3882E-01
     10.115  0.4894E-02  0.3955E-01
     10.266  0.6378E-02  0.4052E-01
     10.417  0.2837E-02  0.4095E-01
     10.568  0.1636E-02  0.4119E-01
     10.719  0.4630E-02  0.4189E-01
     10.870  0.6570E-02  0.4288E-01
     11.021  0.5747E-02  0.4375E-01
     11.172  0.3422E-02  0.4427E-01
     11.323  0.5930E-02  0.4516E-01
     11.474  0.3919E-02  0.4575E-01
     11.625  0.1620E-02  0.4600E-01
     11.776  0.3967E-02  0.4660E-01
     11.927  0.4013E-02  0.4720E-01
     12.078  0.4354E-02  0.4786E-01
     12.229  0.9606E-02  0.4931E-01
     12.380  0.3998E-02  0.4991E-01
     12.531  0.6052E-02  0.5083E-01
     12.681  0.2176E-02  0.5116E-01
     12.832  0.5627E-02  0.5200E-01
     12.983  0.2787E-02  0.5243E-01
     13.134  0.8498E-02  0.5371E-01
     13.285  0.5976E-02  0.5461E-01
     13.436  0.4501E-02  0.5529E-01
     13.587  0.4128E-02  0.5591E-01
     13.738  0.6021E-02  0.5682E-01
     13.889  0.5323E-02  0.5763E-01
     14.040  0.6118E-02  0.5855E-01
     14.191  0.4785E-02  0.5927E-01
     14.342  0.4923E-02  0.6001E-01
     14.493  0.4459E-02  0.6069E-01
     14.644  0.8835E-02  0.6202E-01
     14.795  0.4132E-02  0.6264E-01
     14.946  0.3745E-02  0.6321E-01
     15.097  0.5443E-02  0.6403E-01
     15.248  0.2028E-02  0.6434E-01
     15.398  0.2544E-02  0.6472E-01
     15.549  0.6712E-02  0.6573E-01
     15.700  0.4369E-02  0.6639E-01
     15.851  0.9256E-02  0.6779E-01
     16.002  0.4073E-02  0.6841E-01
     16.153  0.3799E-02  0.6898E-01
     16.304  0.3272E-02  0.6947E-01
     16.455  0.4848E-02  0.7021E-01
     16.606  0.4227E-02  0.7084E-01
     16.757  0.2061E-02  0.7115E-01
     16.908  0.6697E-02  0.7217E-01
     17.059  0.5429E-02  0.7298E-01
     17.210  0.4950E-02  0.7373E-01
     17.361  0.4425E-02  0.7440E-01
     17.512  0.3838E-02  0.7498E-01
     17.663  0.6860E-02  0.7601E-01
     17.814  0.4968E-02  0.7676E-01
     17.965  0.2489E-02  0.7714E-01
     18.115  0.3260E-02  0.7763E-01
     18.266  0.9673E-02  0.7909E-01
     18.417  0.8281E-02  0.8034E-01
     18.568  0.3250E-02  0.8083E-01
     18.719  0.4219E-02  0.8147E-01
     18.870  0.6281E-02  0.8242E-01
     19.021  0.2988E-02  0.8287E-01
     19.172  0.4910E-02  0.8361E-01
     19.323  0.8468E-02  0.8489E-01
     19.474  0.6519E-02  0.8587E-01
     19.625  0.1304E-02  0.8607E-01
     19.776  0.3438E-02  0.8659E-01
     19.927  0.3546E-02  0.8712E-01
     20.078  0.6307E-02  0.8808E-01
     20.229  0.7400E-02  0.8919E-01
     20.380  0.8696E-02  0.9050E-01
     20.531  0.5492E-02  0.9133E-01
     20.681  0.4857E-02  0.9207E-01
     20.832  0.6787E-02  0.9309E-01
     20.983  0.1904E-02  0.9338E-01
     21.134  0.8364E-02  0.9464E-01
     21.285  0.7821E-02  0.9582E-01
     21.436  0.5392E-02  0.9664E-01
     21.587  0.6467E-02  0.9761E-01
     21.738  0.2510E-02  0.9799E-01
     21.889  0.7960E-02  0.9919E-01
     22.040  0.7267E-02  0.1003E+00
     22.191  0.3802E-02  0.1009E+00
     22.342  0.1796E-02  0.1011E+00
     22.493  0.5283E-02  0.1019E+00
     22.644  0.7185E-02  0.1030E+00
     22.795  0.5764E-02  0.1039E+00
     22.946  0.3860E-02  0.1045E+00
     23.097  0.5464E-02  0.1053E+00
     23.248  0.4427E-02  0.1060E+00
     23.398  0.9205E-02  0.1074E+00
     23.549  0.1206E-01  0.1092E+00
     23.700  0.5884E-02  0.1101E+00
     23.851  0.8036E-02  0.1113E+00
     24.002  0.4476E-02  0.1119E+00
     24.153  0.5254E-02  0.1127E+00
     24.304  0.5169E-02  0.1135E+00
     24.455  0.2558E-02  0.1139E+00
     24.606  0.9516E-02  0.1153E+00
     24.757  0.5827E-02  0.1162E+00
     24.908  0.4961E-02  0.1170E+00
     25.059  0.4404E-02  0.1176E+00
     25.210  0.2315E-02  0.1180E+00
     25.361  0.1012E-01  0.1195E+00
     25.512  0.1384E-01  0.1216E+00
     25.663  0.5776E-02  0.1225E+00
     25.814  0.4149E-02  0.1231E+00
     25.965  0.6542E-02  0.1241E+00
     26.115  0.5991E-02  0.1250E+00
     26.266  0.6646E-02  0.1260E+00
     26.417  0.6965E-02  0.1270E+00
     26.568  0.4088E-02  0.1277E+00
     26.719  0.9376E-02  0.1291E+00
     26.870  0.6270E-02  0.1300E+00
     27.021  0.1965E-02  0.1303E+00
     27.172  0.4220E-02  0.1310E+00
     27.323  0.5805E-02  0.1318E+00
     27.474  0.7436E-02  0.1330E+00
     27.625  0.6918E-02  0.1340E+00
     27.776  0.1091E-01  0.1357E+00
     27.927  0.7089E-02  0.1367E+00
     28.078  0.1058E-02  0.1369E+00
     28.229  0.4984E-02  0.1376E+00
     28.380  0.6850E-02  0.1387E+00
     28.531  0.8151E-02  0.1399E+00
     28.682  0.3582E-02  0.1404E+00
     28.832  0.1928E-02  0.1407E+00
     28.983  0.8762E-03  0.1409E+00
     29.134  0.8772E-02  0.1422E+00
     29.285  0.5350E-02  0.1430E+00
     29.436  0.5066E-02  0.1438E+00
     29.587  0.4083E-02  0.1444E+00
     29.738  0.1189E-02  0.1446E+00
     29.889  0.1011E-01  0.1461E+00
     30.040  0.8565E-02  0.1474E+00
     30.191  0.6290E-02  0.1483E+00
     30.342  0.5745E-02  0.1492E+00
     30.493  0.2717E-02  0.1496E+00
     30.644  0.2936E-02  0.1500E+00
     30.795  0.1973E-02  0.1503E+00
     30.946  0.6308E-02  0.1513E+00
     31.097  0.3611E-02  0.1518E+00
     31.248  0.3338E-02  0.1523E+00
     31.399  0.2742E-02  0.1528E+00
     31.549  0.4139E-02  0.1534E+00
     31.700  0.4956E-02  0.1541E+00
     31.851  0.3553E-02  0.1547E+00
     32.002  0.1832E-04  0.1547E+00
     32.153  0.8445E-03  0.1548E+00
     32.304  0.4976E-02  0.1555E+00
     32.455  0.1191E-02  0.1557E+00
     32.606  0.8148E-03  0.1558E+00
     32.757  0.2188E-02  0.1562E+00
     32.908  0.8230E-03  0.1563E+00
     33.059  0.2678E-02  0.1567E+00
     33.210  0.3203E-02  0.1572E+00
     33.361  0.1701E-02  0.1574E+00
     33.512  0.3072E-03  0.1575E+00
     33.663  0.1802E-02  0.1578E+00
     33.814  0.2450E-02  0.1581E+00
     33.965  0.8337E-03  0.1583E+00
     34.116  0.1679E-02  0.1585E+00
     34.266  0.1581E-02  0.1588E+00
     34.417  0.8511E-03  0.1589E+00
     34.568  0.1127E-03  0.1589E+00
     34.719  0.1729E-02  0.1592E+00
     34.870  0.1519E-03  0.1592E+00
     35.021  0.3499E-03  0.1592E+00
     35.172  0.7499E-03  0.1593E+00
     35.323  0.3393E-03  0.1594E+00
     35.474  0.2466E-03  0.1594E+00
     35.625  0.1992E-02  0.1597E+00
     35.776  0.1271E-03  0.1598E+00
     35.927  0.9004E-03  0.1599E+00
     36.078  0.5926E-05  0.1599E+00
     36.229  0.6289E-14  0.1599E+00
     36.380  0.1659E-10  0.1599E+00
     36.531  0.6181E-04  0.1599E+00
     36.682  0.4089E-03  0.1600E+00
     36.832  0.1458E-04  0.1600E+00
     36.983  0.2206E-03  0.1600E+00
     37.134  0.7762E-06  0.1600E+00
     37.285  0.3327E-15  0.1600E+00
     37.436  0.0000E+00  0.1600E+00
     37.587  0.0000E+00  0.1600E+00
     37.738  0.0000E+00  0.1600E+00
     37.889  0.0000E+00  0.1600E+00
     38.040  0.0000E+00  0.1600E+00
     38.191  0.0000E+00  0.1600E+00
     38.342  0.0000E+00  0.1600E+00
     38.493  0.0000E+00  0.1600E+00
     38.644  0.0000E+00  0.1600E+00
     38.795  0.0000E+00  0.1600E+00
     38.946  0.0000E+00  0.1600E+00
