    1    1  100    1
  0.1408159E+02  0.2710538E-09  0.2710538E-09  0.2710538E-09  0.5000000E-15
  1.000000000000000E-004
  CAR 
 unknown system                          
      4    120      8
 
  0.0000000E+00  0.0000000E+00  0.0000000E+00  0.2962963E-03
    1       -4.279139   1.000000
    2       21.330168   0.000000
    3       21.330176   0.000000
    4       21.330181   0.000000
    5       22.391084   0.000000
    6       22.391093   0.000000
    7       22.391102   0.000000
    8       27.477878   0.000000
 
  0.6666667E-01 -0.6938894E-17  0.0000000E+00  0.2370370E-02
    1       -4.149460   1.000000
    2       19.260837   0.000000
    3       20.722905   0.000000
    4       20.722915   0.000000
    5       23.176392   0.000000
    6       23.176405   0.000000
    7       23.349345   0.000000
    8       28.578519   0.000000
 
  0.1333333E+00  0.0000000E+00  0.0000000E+00  0.2370370E-02
    1       -3.761260   1.000000
    2       16.413142   0.000000
    3       19.958719   0.000000
    4       19.958728   0.000000
    5       23.586617   0.000000
    6       24.231375   0.000000
    7       24.231389   0.000000
    8       27.643895   0.000000
 
  0.2000000E+00  0.0000000E+00  0.0000000E+00  0.2370370E-02
    1       -3.115981   1.000000
    2       13.571491   0.000000
    3       19.374486   0.000000
    4       19.374494   0.000000
    5       23.512801   0.000000
    6       24.452899   0.000000
    7       24.452909   0.000000
    8       27.603894   0.000000
 
  0.2666667E+00  0.0000000E+00  0.0000000E+00  0.2370370E-02
    1       -2.216348   1.000000
    2       10.862836   0.000000
    3       18.992631   0.000000
    4       18.992638   0.000000
    5       23.430352   0.000000
    6       23.599209   0.000000
    7       23.599218   0.000000
    8       28.717899   0.000000
 
  0.3333333E+00  0.0000000E+00  0.0000000E+00  0.2370370E-02
    1       -1.066540   1.000000
    2        8.321124   1.000000
    3       18.786325   0.000000
    4       18.786330   0.000000
    5       22.581280   0.000000
    6       22.581290   0.000000
    7       23.396405   0.000000
    8       27.548605   0.000000
 
  0.4000000E+00 -0.2775558E-16  0.0000000E+00  0.2370370E-02
    1        0.327114   1.000000
    2        5.999804   1.000000
    3       18.729074   0.000000
    4       18.729077   0.000000
    5       21.795750   0.000000
    6       21.795762   0.000000
    7       23.496623   0.000000
    8       26.627784   0.000000
 
  0.4666667E+00  0.0000000E+00  0.0000000E+00  0.2370370E-02
    1        1.934180   1.000000
    2        3.924007   1.000000
    3       18.744894   0.000000
    4       18.744895   0.000000
    5       21.340313   0.000000
    6       21.340327   0.000000
    7       23.598847   0.000000
    8       26.076816   0.000000
 
  0.6666667E-01  0.6666667E-01  0.0000000E+00  0.1777778E-02
    1       -4.106254   1.000000
    2       19.730358   0.000000
    3       19.730359   0.000000
    4       20.928193   0.000000
    5       21.443928   0.000000
    6       24.252621   0.000000
    7       24.252621   0.000000
    8       27.559878   0.000000
 
  0.1333333E+00  0.6666667E-01  0.0000000E+00  0.7111111E-02
    1       -3.804241   1.000000
    2       17.434748   0.000000
    3       18.888181   0.000000
    4       20.439478   0.000000
    5       21.880837   0.000000
    6       24.974107   0.000000
    7       25.428685   0.000000
    8       26.020810   0.000000
 
  0.2000000E+00  0.6666667E-01  0.0000000E+00  0.7111111E-02
    1       -3.244703   1.000000
    2       14.608009   0.000000
    3       18.244570   0.000000
    4       19.811315   0.000000
    5       22.606959   0.000000
    6       24.740275   0.000000
    7       25.553249   0.000000
    8       26.082630   0.000000
 
  0.2666667E+00  0.6666667E-01  0.0000000E+00  0.7111111E-02
    1       -2.429998   1.000000
    2       11.850888   0.000000
    3       17.815219   0.000000
    4       19.279042   0.000000
    5       22.053894   0.000000
    6       24.542872   0.000000
    7       25.407347   0.000000
    8       26.594818   0.000000
 
  0.3333333E+00  0.6666667E-01  0.0000000E+00  0.7111111E-02
    1       -1.363603   1.000000
    2        9.248715   1.000000
    3       17.602494   0.000000
    4       18.821298   0.000000
    5       21.193522   0.000000
    6       24.344267   0.000000
    7       24.497400   0.000000
    8       28.127512   0.000000
 
  0.4000000E+00  0.6666667E-01  0.0000000E+00  0.7111111E-02
    1       -0.050719   1.000000
    2        6.857490   1.000000
    3       17.602176   0.000000
    4       18.339174   0.000000
    5       20.684255   0.000000
    6       23.372199   0.000000
    7       24.522809   0.000000
    8       27.884552   0.000000
 
  0.4666667E+00  0.6666667E-01  0.0000000E+00  0.7111111E-02
    1        1.493952   1.000000
    2        4.692780   1.000000
    3       17.806677   0.000000
    4       17.809960   0.000000
    5       20.643288   0.000000
    6       22.586953   0.000000
    7       24.550418   0.000000
    8       27.344957   0.000000
 
 -0.4666667E+00  0.6666667E-01  0.0000000E+00  0.7111111E-02
    1        2.564297   1.000000
    2        3.464435   1.000000
    3       17.330648   0.000000
    4       18.188530   0.000000
    5       20.982251   0.000000
    6       22.066834   0.000000
    7       24.456058   0.000000
    8       27.266931   0.000000
 
 -0.4000000E+00  0.6666667E-01  0.0000000E+00  0.7111111E-02
    1        0.955598   1.000000
    2        5.386113   1.000000
    3       16.996068   0.000000
    4       18.704979   0.000000
    5       21.618209   0.000000
    6       21.853477   0.000000
    7       24.311228   0.000000
    8       27.676423   0.000000
 
 -0.3333333E+00  0.6666667E-01  0.0000000E+00  0.7111111E-02
    1       -0.515053   1.000000
    2        7.629841   1.000000
    3       16.850421   0.000000
    4       19.278997   0.000000
    5       21.994773   0.000000
    6       22.512243   0.000000
    7       24.162579   0.000000
    8       28.414050   0.000000
 
 -0.2666667E+00  0.6666667E-01  0.0000000E+00  0.7111111E-02
    1       -1.746780   1.000000
    2       10.093343   0.996063
    3       16.915204   0.000000
    4       19.836892   0.000000
    5       22.548801   0.000000
    6       23.610206   0.000000
    7       24.109779   0.000000
    8       28.287357   0.000000
 
 -0.2000000E+00  0.6666667E-01  0.0000000E+00  0.7111111E-02
    1       -2.729783   1.000000
    2       12.749029   0.000000
    3       17.194378   0.000000
    4       20.389461   0.000000
    5       23.356280   0.000000
    6       24.127999   0.000000
    7       24.756245   0.000000
    8       26.580734   0.000000
 
 -0.1333333E+00  0.6666667E-01  0.0000000E+00  0.7111111E-02
    1       -3.459773   1.000000
    2       15.541078   0.000000
    3       17.695336   0.000000
    4       20.983784   0.000000
    5       23.469206   0.000000
    6       24.075301   0.000000
    7       25.398014   0.000000
    8       26.152309   0.000000
 
 -0.6666667E-01  0.6666667E-01  0.0000000E+00  0.3555556E-02
    1       -3.933642   1.000000
    2       18.274827   0.000000
    3       18.489126   0.000000
    4       21.409255   0.000000
    5       22.755740   0.000000
    6       23.733635   0.000000
    7       24.700626   0.000000
    8       27.318116   0.000000
 
  0.1333333E+00  0.1333333E+00  0.0000000E+00  0.1777778E-02
    1       -3.588724   1.000000
    2       17.963558   0.000000
    3       17.963559   0.000000
    4       19.794648   0.000000
    5       19.855591   0.000000
    6       24.174977   0.000000
    7       26.678121   0.000000
    8       26.678121   0.000000
 
  0.2000000E+00  0.1333333E+00  0.0000000E+00  0.7111111E-02
    1       -3.115656   1.000000
    2       15.773861   0.000000
    3       17.248292   0.000000
    4       19.079170   0.000000
    5       20.247156   0.000000
    6       22.816039   0.000000
    7       27.388246   0.000000
    8       27.661985   0.000000
 
  0.2666667E+00  0.1333333E+00  0.0000000E+00  0.7111111E-02
    1       -2.386855   1.000000
    2       13.044155   0.000000
    3       16.755732   0.000000
    4       18.340404   0.000000
    5       20.199391   0.000000
    6       23.149912   0.000000
    7       27.428617   0.000000
    8       27.575728   0.000000
 
  0.3333333E+00  0.1333333E+00  0.0000000E+00  0.7111111E-02
    1       -1.405145   1.000000
    2       10.408852   0.000000
    3       16.481938   0.000000
    4       17.507848   0.000000
    5       19.585481   0.000000
    6       24.633885   0.000000
    7       26.422927   0.000000
    8       27.732623   0.000000
 
  0.4000000E+00  0.1333333E+00  0.0000000E+00  0.7111111E-02
    1       -0.175633   1.000000
    2        7.951057   1.000000
    3       16.430512   0.000000
    4       16.598766   0.000000
    5       19.326586   0.000000
    6       25.405978   0.000000
    7       25.883826   0.000000
    8       28.442960   0.000000
 
  0.4666667E+00  0.1333333E+00  0.0000000E+00  0.7111111E-02
    1        1.292754   1.000000
    2        5.712578   1.000000
    3       15.760561   0.000000
    4       16.599035   0.000000
    5       19.422741   0.000000
    6       24.545833   0.000000
    7       26.279665   0.000000
    8       29.838572   0.000000
 
 -0.4666667E+00  0.1333333E+00  0.0000000E+00  0.7111111E-02
    1        2.902209   1.000000
    2        3.790758   1.000000
    3       15.079816   0.000000
    4       16.982568   0.000000
    5       19.805114   0.000000
    6       23.887989   0.000000
    7       26.170054   0.000000
    8       29.900650   0.000000
 
 -0.4000000E+00  0.1333333E+00  0.0000000E+00  0.7111111E-02
    1        1.830534   1.000000
    2        5.018972   1.000000
    3       14.605528   0.000000
    4       17.571569   0.000000
    5       20.457480   0.000000
    6       23.462847   0.000000
    7       25.948593   0.000000
    8       30.222769   0.000000
 
 -0.3333333E+00  0.1333333E+00  0.0000000E+00  0.7111111E-02
    1        0.288001   1.000000
    2        7.177649   1.000000
    3       14.355604   0.000000
    4       18.347319   0.000000
    5       21.346284   0.000000
    6       23.302292   0.000000
    7       25.708201   0.000000
    8       29.989988   0.000000
 
 -0.2666667E+00  0.1333333E+00  0.0000000E+00  0.7111111E-02
    1       -1.023076   1.000000
    2        9.560495   1.000000
    3       14.331275   0.000000
    4       19.261263   0.000000
    5       22.452789   0.000000
    6       23.392905   0.000000
    7       25.517067   0.000000
    8       27.759852   0.000000
 
 -0.2000000E+00  0.1333333E+00  0.0000000E+00  0.7111111E-02
    1       -2.087787   1.000000
    2       12.126801   0.000000
    3       14.542730   0.000000
    4       20.241033   0.000000
    5       23.679341   0.000000
    6       23.755691   0.000000
    7       25.304865   0.000000
    8       25.837576   0.000000
 
 -0.1333333E+00  0.1333333E+00  0.0000000E+00  0.3555556E-02
    1       -2.901178   1.000000
    2       14.613751   0.000000
    3       15.211709   0.000000
    4       21.059928   0.000000
    5       23.751658   0.000000
    6       24.848066   0.000000
    7       24.925561   0.000000
    8       25.110146   0.000000
 
  0.2000000E+00  0.2000000E+00  0.0000000E+00  0.1777778E-02
    1       -2.729267   1.000000
    2       16.460232   0.000000
    3       16.460233   0.000000
    4       18.114442   0.000000
    5       18.190881   0.000000
    6       21.107940   0.000000
    7       29.159058   0.000000
    8       29.159059   0.000000
 
  0.2666667E+00  0.2000000E+00  0.0000000E+00  0.7111111E-02
    1       -2.086814   1.000000
    2       14.374065   0.000000
    3       15.890898   0.000000
    4       16.996027   0.000000
    5       18.407632   0.000000
    6       20.635840   0.000000
    7       29.503721   0.000000
    8       29.895810   0.000000
 
  0.3333333E+00  0.2000000E+00  0.0000000E+00  0.7111111E-02
    1       -1.191501   1.000000
    2       11.766999   0.000000
    3       15.545467   0.000000
    4       15.778859   0.000000
    5       18.310803   0.000000
    6       21.911287   0.000000
    7       28.671860   0.000000
    8       30.028883   0.000000
 
  0.4000000E+00  0.2000000E+00  0.0000000E+00  0.7111111E-02
    1       -0.047042   1.000000
    2        9.278185   1.000000
    3       14.613046   0.000000
    4       15.429075   0.000000
    5       18.183891   0.000000
    6       23.838199   0.000000
    7       27.713099   0.000000
    8       29.948397   0.000000
 
  0.4666667E+00  0.2000000E+00  0.0000000E+00  0.7111111E-02
    1        1.339600   1.000000
    2        6.970880   1.000000
    3       13.599547   0.000000
    4       15.530385   0.000000
    5       18.270762   0.000000
    6       25.848775   0.000000
    7       26.767400   0.000000
    8       29.798959   0.000000
 
 -0.4666667E+00  0.2000000E+00  0.0000000E+00  0.7111111E-02
    1        2.941384   1.000000
    2        4.906049   1.000000
    3       12.793777   0.000000
    4       15.858084   0.000000
    5       18.619213   0.000000
    6       26.040065   0.000000
    7       27.371875   0.000000
    8       30.091796   0.000000
 
 -0.4000000E+00  0.2000000E+00  0.0000000E+00  0.7111111E-02
    1        2.942176   1.000000
    2        4.902846   1.000000
    3       12.216830   0.000000
    4       16.407945   0.000000
    5       19.223486   0.000000
    6       25.534597   0.000000
    7       27.690128   0.000000
    8       31.322321   0.000000
 
 -0.3333333E+00  0.2000000E+00  0.0000000E+00  0.7111111E-02
    1        1.339251   1.000000
    2        6.960773   1.000000
    3       11.870266   0.000000
    4       17.163952   0.000000
    5       20.057790   0.000000
    6       25.235601   0.000000
    7       27.458355   0.000000
    8       29.791628   0.000000
 
 -0.2666667E+00  0.2000000E+00  0.0000000E+00  0.7111111E-02
    1       -0.047807   1.000000
    2        9.237071   1.000000
    3       11.787497   0.000000
    4       18.110990   0.000000
    5       21.121670   0.000000
    6       25.182873   0.000000
    7       27.045094   0.000000
    8       27.476145   0.000000
 
 -0.2000000E+00  0.2000000E+00  0.0000000E+00  0.3555556E-02
    1       -1.192677   1.000000
    2       11.406946   0.000000
    3       12.237405   0.000000
    4       19.195374   0.000000
    5       22.345468   0.000000
    6       25.337496   0.000000
    7       25.401221   0.000000
    8       26.351990   0.000000
 
  0.2666667E+00  0.2666667E+00  0.0000000E+00  0.1777778E-02
    1       -1.531638   1.000000
    2       15.247740   0.000000
    3       15.247740   0.000000
    4       15.414581   0.000000
    5       16.857604   0.000000
    6       19.214179   0.000000
    7       31.554667   0.000000
    8       31.554668   0.000000
 
  0.3333333E+00  0.2666667E+00  0.0000000E+00  0.7111111E-02
    1       -0.723358   1.000000
    2       13.222295   0.000000
    3       14.059028   0.000000
    4       14.828486   0.000000
    5       17.139646   0.000000
    6       19.387358   0.000000
    7       31.065256   0.000000
    8       32.218411   0.000000
 
  0.4000000E+00  0.2666667E+00  0.0000000E+00  0.7111111E-02
    1        0.334342   1.000000
    2       10.785478   0.000000
    3       12.704122   0.000000
    4       14.631868   0.000000
    5       17.220839   0.000000
    6       21.014052   0.000000
    7       30.092609   0.000000
    8       32.189674   0.000000
 
  0.4666667E+00  0.2666667E+00  0.0000000E+00  0.7111111E-02
    1        1.635721   1.000000
    2        8.449874   1.000000
    3       11.560828   0.000000
    4       14.665331   0.000000
    5       17.314324   0.000000
    6       23.156912   0.000000
    7       29.179518   0.000000
    8       31.764499   0.000000
 
 -0.4666667E+00  0.2666667E+00  0.0000000E+00  0.7111111E-02
    1        3.167314   1.000000
    2        6.316510   1.000000
    3       10.651526   0.000000
    4       14.928030   0.000000
    5       17.621670   0.000000
    6       25.505463   0.000000
    7       28.445935   0.000000
    8       31.196058   0.000000
 
 -0.4000000E+00  0.2666667E+00  0.0000000E+00  0.7111111E-02
    1        4.246655   1.000000
    2        5.076032   1.000000
    3        9.977106   1.000000
    4       15.413733   0.000000
    5       18.155790   0.000000
    6       27.779833   0.000000
    7       27.862491   0.000000
    8       30.566544   0.000000
 
 -0.3333333E+00  0.2666667E+00  0.0000000E+00  0.7111111E-02
    1        2.633284   1.000000
    2        6.962483   1.000000
    3        9.574744   1.000000
    4       16.115297   0.000000
    5       18.935634   0.000000
    6       27.464472   0.000000
    7       29.130137   0.000000
    8       29.866715   0.000000
 
 -0.2666667E+00  0.2666667E+00  0.0000000E+00  0.3555556E-02
    1        1.173769   1.000000
    2        8.817142   1.000000
    3        9.745821   1.000000
    4       17.024145   0.000000
    5       19.941044   0.000000
    6       27.067547   0.000000
    7       27.707830   0.000000
    8       28.407211   0.000000
 
  0.3333333E+00  0.3333333E+00  0.0000000E+00  0.1777778E-02
    1       -0.002818   1.000000
    2       12.317498   0.000000
    3       14.331414   0.000000
    4       14.331415   0.000000
    5       15.829538   0.000000
    6       18.118546   0.000000
    7       33.118374   0.000000
    8       33.683067   0.000000
 
  0.4000000E+00  0.3333333E+00  0.0000000E+00  0.7111111E-02
    1        0.966842   1.000000
    2       10.856599   0.000000
    3       12.549154   0.000000
    4       14.064464   0.000000
    5       16.279874   0.000000
    6       18.575681   0.000000
    7       32.588348   0.000000
    8       34.225701   0.000000
 
  0.4666667E+00  0.3333333E+00  0.0000000E+00  0.7111111E-02
    1        2.179786   1.000000
    2        9.540390   1.000000
    3       10.313123   0.000186
    4       14.024207   0.000000
    5       16.534495   0.000000
    6       20.418872   0.000000
    7       31.713624   0.000000
    8       33.951605   0.000000
 
 -0.4666667E+00  0.3333333E+00  0.0000000E+00  0.7111111E-02
    1        3.624486   1.000000
    2        7.877293   1.000000
    3        8.779376   1.000000
    4       14.210279   0.000000
    5       16.803706   0.000000
    6       22.733809   0.000000
    7       30.905414   0.000000
    8       33.201056   0.000000
 
 -0.4000000E+00  0.3333333E+00  0.0000000E+00  0.7111111E-02
    1        5.223109   1.000000
    2        6.003629   1.000000
    3        7.990400   1.000000
    4       14.621865   0.000000
    5       17.285519   0.000000
    6       25.265761   0.000000
    7       30.228013   0.000000
    8       32.203207   0.000000
 
 -0.3333333E+00  0.3333333E+00  0.0000000E+00  0.3555556E-02
    1        4.157414   1.000000
    2        6.864790   1.000000
    3        7.830282   1.000000
    4       15.264022   0.000000
    5       18.006488   0.000000
    6       27.836871   0.000000
    7       29.495890   0.000000
    8       30.547713   0.000000
 
  0.4000000E+00  0.4000000E+00  0.0000000E+00  0.1777778E-02
    1        1.846667   1.000000
    2        9.326601   1.000000
    3       13.722536   0.000000
    4       13.722536   0.000000
    5       15.145823   0.000000
    6       17.453847   0.000000
    7       34.414011   0.000000
    8       35.592951   0.000000
 
  0.4666667E+00  0.4000000E+00  0.0000000E+00  0.7111111E-02
    1        2.966422   1.000000
    2        7.988670   1.000000
    3       12.053426   0.000000
    4       13.607650   0.000000
    5       15.769112   0.000000
    6       18.076704   0.000000
    7       34.110727   0.000000
    8       35.838600   0.000000
 
 -0.4666667E+00  0.4000000E+00  0.0000000E+00  0.7111111E-02
    1        4.303127   1.000000
    2        6.911418   1.000000
    3        9.896552   1.000000
    4       13.719988   0.000000
    5       16.189732   0.000000
    6       20.104395   0.000000
    7       33.331161   0.000000
    8       35.156820   0.000000
 
 -0.4000000E+00  0.4000000E+00  0.0000000E+00  0.3555556E-02
    1        5.555430   1.000000
    2        6.345003   1.000000
    3        7.921861   1.000000
    4       14.058524   0.000000
    5       16.635002   0.000000
    6       22.595955   0.000000
    7       32.271169   0.000000
    8       33.740141   0.000000
 
  0.4666667E+00  0.4666667E+00  0.0000000E+00  0.1777778E-02
    1        3.975508   1.000000
    2        6.598520   1.000000
    3       13.417826   0.000000
    4       13.417826   0.000000
    5       14.801969   0.000000
    6       17.095977   0.000000
    7       35.366519   0.000000
    8       36.887380   0.000000
 
 -0.4666667E+00  0.4666667E+00  0.0000000E+00  0.3555556E-02
    1        4.904165   1.000000
    2        5.758216   1.000000
    3       11.892040   0.000000
    4       13.455411   0.000000
    5       15.600472   0.000000
    6       17.918677   0.000000
    7       34.998129   0.000000
    8       36.570229   0.000000
 
  0.2000000E+00  0.1333333E+00  0.6666667E-01  0.7111111E-02
    1       -3.416661   1.000000
    2       16.466624   0.000000
    3       16.846721   0.000000
    4       20.707100   0.000000
    5       21.514037   0.000000
    6       24.505683   0.000000
    7       25.880373   0.000000
    8       26.308852   0.000000
 
  0.2666667E+00  0.1333333E+00  0.6666667E-01  0.1422222E-01
    1       -2.772472   1.000000
    2       13.848420   0.000000
    3       16.120288   0.000000
    4       20.083637   0.000000
    5       21.946178   0.000000
    6       24.009854   0.000000
    7       26.161983   0.000000
    8       26.333177   0.000000
 
  0.3333333E+00  0.1333333E+00  0.6666667E-01  0.1422222E-01
    1       -1.874356   1.000000
    2       11.163453   0.000000
    3       15.760994   0.000000
    4       19.218687   0.000000
    5       21.499490   0.000000
    6       24.590055   0.000000
    7       25.566680   0.000000
    8       26.752933   0.000000
 
  0.4000000E+00  0.1333333E+00  0.6666667E-01  0.1422222E-01
    1       -0.726022   1.000000
    2        8.642476   1.000000
    3       15.626212   0.000000
    4       18.290279   0.000000
    5       21.157707   0.000000
    6       23.859756   0.000000
    7       25.774750   0.000000
    8       28.155925   0.000000
 
  0.4666667E+00  0.1333333E+00  0.6666667E-01  0.1422222E-01
    1        0.665346   1.000000
    2        6.324852   1.000000
    3       15.705258   0.000000
    4       17.434281   0.000000
    5       21.107179   0.000000
    6       22.961393   0.000000
    7       25.933641   0.000000
    8       29.443561   0.000000
 
 -0.4666667E+00  0.1333333E+00  0.6666667E-01  0.1422222E-01
    1        2.271195   1.000000
    2        4.252339   1.000000
    3       15.936536   0.000000
    4       16.796428   0.000000
    5       21.227009   0.000000
    6       22.364152   0.000000
    7       26.009730   0.000000
    8       29.152668   0.000000
 
  0.2666667E+00  0.2000000E+00  0.6666667E-01  0.7111111E-02
    1       -2.557981   1.000000
    2       14.903207   0.000000
    3       15.365226   0.000000
    4       18.740600   0.000000
    5       20.010925   0.000000
    6       21.867639   0.000000
    7       27.922195   0.000000
    8       28.543529   0.000000
 
  0.3333333E+00  0.2000000E+00  0.6666667E-01  0.1422222E-01
    1       -1.745585   1.000000
    2       12.423749   0.000000
    3       14.749075   0.000000
    4       17.591170   0.000000
    5       20.223435   0.000000
    6       22.553277   0.000000
    7       27.163310   0.000000
    8       28.994568   0.000000
 
  0.4000000E+00  0.2000000E+00  0.6666667E-01  0.1422222E-01
    1       -0.682470   1.000000
    2        9.878290   1.000000
    3       14.520933   0.000000
    4       16.409780   0.000000
    5       20.069701   0.000000
    6       24.202350   0.000000
    7       26.233782   0.000000
    8       29.138779   0.000000
 
  0.4666667E+00  0.2000000E+00  0.6666667E-01  0.1422222E-01
    1        0.626097   1.000000
    2        7.499684   1.000000
    3       14.468087   0.000000
    4       15.426046   0.000000
    5       20.080842   0.000000
    6       24.805751   0.000000
    7       26.530861   0.000000
    8       29.354282   0.000000
 
 -0.4666667E+00  0.2000000E+00  0.6666667E-01  0.1422222E-01
    1        2.166397   1.000000
    2        5.346074   1.000000
    3       14.219383   0.000000
    4       15.070215   0.000000
    5       20.325192   0.000000
    6       24.146524   0.000000
    7       27.694879   0.000000
    8       30.164593   0.000000
 
 -0.4000000E+00  0.2000000E+00  0.6666667E-01  0.1422222E-01
    1        3.239702   1.000000
    2        4.115467   1.000000
    3       13.672310   0.000000
    4       15.447933   0.000000
    5       20.774269   0.000000
    6       23.574470   0.000000
    7       27.880790   0.000000
    8       31.291817   0.000000
 
 -0.3333333E+00  0.2000000E+00  0.6666667E-01  0.1422222E-01
    1        1.629268   1.000000
    2        6.034467   1.000000
    3       13.276351   0.000000
    4       16.138934   0.000000
    5       21.423666   0.000000
    6       23.266271   0.000000
    7       27.630563   0.000000
    8       30.111551   0.000000
 
 -0.2666667E+00  0.2000000E+00  0.6666667E-01  0.1422222E-01
    1        0.162914   1.000000
    2        8.265287   1.000000
    3       13.100446   0.000000
    4       17.051590   0.000000
    5       22.142185   0.000000
    6       23.295936   0.000000
    7       26.828495   0.000000
    8       28.557266   0.000000
 
 -0.2000000E+00  0.2000000E+00  0.6666667E-01  0.1422222E-01
    1       -1.064825   1.000000
    2       10.683951   0.000000
    3       13.169221   0.000000
    4       18.140731   0.000000
    5       22.675886   0.000000
    6       23.719872   0.000000
    7       25.362728   0.000000
    8       27.883367   0.000000
 
 -0.1333333E+00  0.2000000E+00  0.6666667E-01  0.7111111E-02
    1       -2.044896   1.000000
    2       13.023636   0.000000
    3       13.736668   0.000000
    4       19.319532   0.000000
    5       22.780566   0.000000
    6       23.441379   0.000000
    7       25.381639   0.000000
    8       27.296480   0.000000
 
  0.3333333E+00  0.2666667E+00  0.6666667E-01  0.7111111E-02
    1       -1.361468   1.000000
    2       13.633191   0.000000
    3       14.100765   0.000000
    4       15.818534   0.000000
    5       18.761311   0.000000
    6       20.313549   0.000000
    7       29.298472   0.000000
    8       31.163342   0.000000
 
  0.4000000E+00  0.2666667E+00  0.6666667E-01  0.1422222E-01
    1       -0.384726   1.000000
    2       11.299908   0.000000
    3       13.566019   0.000000
    4       14.544588   0.000000
    5       19.064934   0.000000
    6       21.521888   0.000000
    7       28.418590   0.000000
    8       31.594887   0.000000
 
  0.4666667E+00  0.2666667E+00  0.6666667E-01  0.1422222E-01
    1        0.838670   1.000000
    2        8.899302   1.000000
    3       13.015819   0.000000
    4       13.847922   0.000000
    5       19.110047   0.000000
    6       23.516752   0.000000
    7       27.483778   0.000000
    8       31.490820   0.000000
 
 -0.4666667E+00  0.2666667E+00  0.6666667E-01  0.1422222E-01
    1        2.299539   1.000000
    2        6.681807   1.000000
    3       12.145570   0.000000
    4       13.921115   0.000000
    5       19.317695   0.000000
    6       25.485117   0.000000
    7       26.896695   0.000000
    8       31.106226   0.000000
 
 -0.4000000E+00  0.2666667E+00  0.6666667E-01  0.1422222E-01
    1        3.910117   1.000000
    2        4.762916   1.000000
    3       11.422077   0.000000
    4       14.319263   0.000000
    5       19.744746   0.000000
    6       25.676603   0.000000
    7       28.260922   0.000000
    8       30.473584   0.000000
 
 -0.3333333E+00  0.2666667E+00  0.6666667E-01  0.1422222E-01
    1        2.835288   1.000000
    2        5.985400   1.000000
    3       10.922797   0.000000
    4       14.965443   0.000000
    5       20.396741   0.000000
    6       25.295890   0.000000
    7       29.032641   0.000000
    8       29.916503   0.000000
 
 -0.2666667E+00  0.2666667E+00  0.6666667E-01  0.1422222E-01
    1        1.299239   1.000000
    2        8.102335   1.000000
    3       10.680902   0.000000
    4       15.835285   0.000000
    5       21.253473   0.000000
    6       25.045734   0.000000
    7       27.131048   0.000000
    8       29.890517   0.000000
 
 -0.2000000E+00  0.2666667E+00  0.6666667E-01  0.7111111E-02
    1       -0.005142   1.000000
    2       10.114418   0.980363
    3       10.996007   0.000000
    4       16.911592   0.000000
    5       22.257658   0.000000
    6       24.677834   0.000000
    7       25.416344   0.000000
    8       29.128485   0.000000
 
  0.4000000E+00  0.3333333E+00  0.6666667E-01  0.7111111E-02
    1        0.165897   1.000000
    2       12.359881   0.000000
    3       12.677929   0.000000
    4       13.469852   0.000000
    5       17.793679   0.000000
    6       19.340120   0.000000
    7       30.768413   0.000000
    8       33.553204   0.000000
 
  0.4666667E+00  0.3333333E+00  0.6666667E-01  0.1422222E-01
    1        1.302018   1.000000
    2       10.431780   0.000000
    3       11.270781   0.000000
    4       13.014336   0.000000
    5       18.255890   0.000000
    6       20.788070   0.000000
    7       29.901099   0.000000
    8       33.756096   0.000000
 
 -0.4666667E+00  0.3333333E+00  0.6666667E-01  0.1422222E-01
    1        2.677429   1.000000
    2        8.223980   1.000000
    3       10.176346   0.621615
    4       13.083707   0.000000
    5       18.470154   0.000000
    6       22.980445   0.000000
    7       29.071129   0.000000
    8       33.100139   0.000000
 