unknown system                          
           1
     2.347395    0.000000    1.355268
     0.782465    2.213145    1.355268
     0.000000    0.000000    2.710538
   Si
     1
Direct configuration=     1
   0.00000000  0.00000000  0.00000000
unknown system                          
           1
     2.369906   -0.000000    1.368265
     0.789969    2.234368    1.368265
    -0.000000   -0.000000    2.736531
   Si
     1
Direct configuration=     2
   0.00000000  0.00000000 -0.00000000
unknown system                          
           1
     2.368276   -0.000000    1.367324
     0.789425    2.232832    1.367324
    -0.000000   -0.000000    2.734650
   Si
     1
Direct configuration=     3
   0.00000000  0.00000000 -0.00000000
