   2   2   1   0
  0.1173411E+02  0.2863036E-09  0.2863036E-09  0.2863036E-09  0.5000000E-15
  1.000000000000000E-004
  CAR 
 unknown system                          
     45.18155978     -4.87358145  301      5.83820954      1.00000000
     -4.874  0.0000E+00  0.0000E+00  0.0000E+00  0.0000E+00
     -4.707  0.0000E+00  0.0000E+00  0.0000E+00  0.0000E+00
     -4.540  0.0000E+00  0.0000E+00  0.0000E+00  0.0000E+00
     -4.373  0.0000E+00  0.0000E+00  0.0000E+00  0.0000E+00
     -4.206 -0.3457E-32  0.0000E+00 -0.5768E-33  0.0000E+00
     -4.039 -0.1037E-26 -0.5495E-32 -0.1730E-27 -0.9168E-33
     -3.872 -0.7660E-22 -0.1569E-26 -0.1278E-22 -0.2619E-27
     -3.706 -0.1352E-17 -0.1104E-21 -0.2255E-18 -0.1842E-22
     -3.539 -0.6018E-14 -0.1854E-17 -0.1004E-14 -0.3093E-18
     -3.372 -0.6675E-11 -0.7857E-14 -0.1115E-11 -0.1311E-14
     -3.205 -0.1878E-08 -0.8294E-11 -0.3144E-09 -0.1385E-11
     -3.038 -0.1373E-06 -0.2222E-08 -0.2322E-07 -0.3721E-09
     -2.871 -0.2535E-05 -0.1547E-06 -0.4462E-06 -0.2618E-07
     -2.705 -0.6098E-05 -0.2709E-05 -0.1464E-05 -0.4782E-06
     -2.538  0.6482E-04 -0.5634E-05  0.9352E-05 -0.1418E-05
     -2.371  0.2307E-03  0.6953E-04  0.4784E-04  0.1018E-04
     -2.204  0.3650E-03  0.2339E-03  0.1087E-03  0.4921E-04
     -2.037  0.5350E-03  0.3656E-03  0.1980E-03  0.1102E-03
     -1.870  0.4672E-03  0.5329E-03  0.2760E-03  0.1991E-03
     -1.703  0.7040E-03  0.4567E-03  0.3934E-03  0.2753E-03
     -1.537  0.7569E-03  0.6938E-03  0.5197E-03  0.3911E-03
     -1.370  0.8088E-03  0.7390E-03  0.6547E-03  0.5144E-03
     -1.203  0.7293E-03  0.7907E-03  0.7763E-03  0.6463E-03
     -1.036  0.1047E-02  0.7058E-03  0.9511E-03  0.7641E-03
     -0.869  0.1232E-02  0.9541E-03  0.1157E-02  0.9233E-03
     -0.702  0.1011E-02  0.1186E-02  0.1325E-02  0.1121E-02
     -0.535  0.1004E-02  0.1044E-02  0.1493E-02  0.1295E-02
     -0.369  0.1519E-02  0.8035E-03  0.1746E-02  0.1429E-02
     -0.202  0.1634E-02  0.1322E-02  0.2019E-02  0.1650E-02
     -0.035  0.1535E-02  0.1500E-02  0.2275E-02  0.1900E-02
      0.132  0.1585E-02  0.1420E-02  0.2539E-02  0.2137E-02
      0.299  0.1933E-02  0.1229E-02  0.2862E-02  0.2343E-02
      0.466  0.2447E-02  0.1589E-02  0.3270E-02  0.2608E-02
      0.632  0.2730E-02  0.1552E-02  0.3726E-02  0.2867E-02
      0.799  0.3163E-02  0.1939E-02  0.4254E-02  0.3190E-02
      0.966  0.5871E-02  0.2182E-02  0.5233E-02  0.3554E-02
      1.133  0.1056E-01  0.1972E-02  0.6995E-02  0.3883E-02
      1.300  0.1158E-01  0.1760E-02  0.8928E-02  0.4177E-02
      1.467  0.1413E-01  0.2711E-02  0.1129E-01  0.4629E-02
      1.634  0.1814E-01  0.3011E-02  0.1431E-01  0.5131E-02
      1.800  0.1805E-01  0.3048E-02  0.1732E-01  0.5640E-02
      1.967  0.1373E-01  0.3652E-02  0.1961E-01  0.6249E-02
      2.134  0.9756E-02  0.4496E-02  0.2124E-01  0.7000E-02
      2.301  0.8624E-02  0.6271E-02  0.2268E-01  0.8046E-02
      2.468  0.1904E-01  0.7829E-02  0.2586E-01  0.9352E-02
      2.635  0.3040E-01  0.6629E-02  0.3093E-01  0.1046E-01
      2.802  0.2405E-01  0.7312E-02  0.3494E-01  0.1168E-01
      2.968  0.2021E-01  0.9197E-02  0.3831E-01  0.1321E-01
      3.135  0.2252E-01  0.1155E-01  0.4207E-01  0.1514E-01
      3.302  0.2841E-01  0.1302E-01  0.4681E-01  0.1731E-01
      3.469  0.2710E-01  0.1126E-01  0.5133E-01  0.1919E-01
      3.636  0.1637E-01  0.8299E-02  0.5407E-01  0.2057E-01
      3.803  0.9388E-02  0.5519E-02  0.5563E-01  0.2150E-01
      3.969  0.8447E-02  0.9605E-02  0.5704E-01  0.2310E-01
      4.136  0.9102E-02  0.2065E-01  0.5856E-01  0.2654E-01
      4.303  0.1210E-01  0.2646E-01  0.6058E-01  0.3096E-01
      4.470  0.1906E-01  0.2463E-01  0.6376E-01  0.3507E-01
      4.637  0.3131E-01  0.2284E-01  0.6898E-01  0.3888E-01
      4.804  0.4365E-01  0.2260E-01  0.7627E-01  0.4265E-01
      4.971  0.5053E-01  0.2428E-01  0.8470E-01  0.4670E-01
      5.137  0.3496E-01  0.2349E-01  0.9053E-01  0.5062E-01
      5.304  0.1852E-01  0.1919E-01  0.9362E-01  0.5382E-01
      5.471  0.1664E-01  0.1325E-01  0.9640E-01  0.5603E-01
      5.638  0.1393E-01  0.6576E-02  0.9872E-01  0.5713E-01
      5.805  0.1511E-01  0.5458E-02  0.1012E+00  0.5804E-01
      5.972  0.1543E-01  0.4751E-02  0.1038E+00  0.5883E-01
      6.139  0.9502E-02  0.5448E-02  0.1054E+00  0.5974E-01
      6.305  0.4367E-02  0.5924E-02  0.1061E+00  0.6073E-01
      6.472  0.2222E-02  0.8668E-02  0.1065E+00  0.6217E-01
      6.639  0.2779E-02  0.1191E-01  0.1070E+00  0.6416E-01
      6.806  0.3554E-02  0.1498E-01  0.1076E+00  0.6666E-01
      6.973  0.3204E-02  0.1780E-01  0.1081E+00  0.6963E-01
      7.140  0.2381E-02  0.2261E-01  0.1085E+00  0.7340E-01
      7.307  0.3116E-02  0.2683E-01  0.1090E+00  0.7788E-01
      7.473  0.3393E-02  0.2535E-01  0.1096E+00  0.8211E-01
      7.640  0.2023E-02  0.3213E-01  0.1099E+00  0.8747E-01
      7.807  0.2221E-02  0.4812E-01  0.1103E+00  0.9550E-01
      7.974  0.3176E-02  0.3280E-01  0.1108E+00  0.1010E+00
      8.141  0.3303E-02  0.1664E-01  0.1114E+00  0.1038E+00
      8.308  0.2824E-02  0.1138E-01  0.1118E+00  0.1056E+00
      8.474  0.2681E-02  0.6104E-02  0.1123E+00  0.1067E+00
      8.641  0.2051E-02  0.4163E-02  0.1126E+00  0.1074E+00
      8.808  0.1895E-02  0.4621E-02  0.1129E+00  0.1081E+00
      8.975  0.2590E-02  0.4406E-02  0.1134E+00  0.1089E+00
      9.142  0.2592E-02  0.3747E-02  0.1138E+00  0.1095E+00
      9.309  0.2368E-02  0.2633E-02  0.1142E+00  0.1099E+00
      9.476  0.2505E-02  0.3335E-02  0.1146E+00  0.1105E+00
      9.642  0.2646E-02  0.4874E-02  0.1151E+00  0.1113E+00
      9.809  0.1945E-02  0.3647E-02  0.1154E+00  0.1119E+00
      9.976  0.1665E-02  0.2224E-02  0.1157E+00  0.1123E+00
     10.143  0.1822E-02  0.2282E-02  0.1160E+00  0.1127E+00
     10.310  0.2117E-02  0.3444E-02  0.1163E+00  0.1132E+00
     10.477  0.1269E-02  0.3470E-02  0.1165E+00  0.1138E+00
     10.644  0.1353E-02  0.2400E-02  0.1168E+00  0.1142E+00
     10.810  0.2505E-02  0.2415E-02  0.1172E+00  0.1146E+00
     10.977  0.2085E-02  0.3194E-02  0.1175E+00  0.1152E+00
     11.144  0.1816E-02  0.2228E-02  0.1178E+00  0.1155E+00
     11.311  0.1134E-02  0.1783E-02  0.1180E+00  0.1158E+00
     11.478  0.1211E-02  0.2385E-02  0.1182E+00  0.1162E+00
     11.645  0.1107E-02  0.1902E-02  0.1184E+00  0.1165E+00
     11.811  0.4177E-03  0.1774E-02  0.1185E+00  0.1168E+00
     11.978  0.1044E-02  0.2536E-02  0.1186E+00  0.1173E+00
     12.145  0.1411E-02  0.2148E-02  0.1189E+00  0.1176E+00
     12.312  0.9944E-03  0.1692E-02  0.1190E+00  0.1179E+00
     12.479  0.9740E-03  0.1161E-02  0.1192E+00  0.1181E+00
     12.646  0.8596E-03  0.1139E-02  0.1194E+00  0.1183E+00
     12.813  0.9009E-03  0.1021E-02  0.1195E+00  0.1185E+00
     12.979  0.5646E-03  0.1176E-02  0.1196E+00  0.1186E+00
     13.146  0.3452E-03  0.1823E-02  0.1197E+00  0.1190E+00
     13.313  0.1630E-02  0.1398E-02  0.1199E+00  0.1192E+00
     13.480  0.3812E-02  0.5580E-03  0.1206E+00  0.1193E+00
     13.647  0.5278E-02  0.5907E-03  0.1214E+00  0.1194E+00
     13.814  0.5512E-02  0.8853E-03  0.1224E+00  0.1195E+00
     13.981  0.4897E-02  0.4972E-03  0.1232E+00  0.1196E+00
     14.147  0.3837E-02  0.2250E-03  0.1238E+00  0.1196E+00
     14.314  0.3642E-02  0.1524E-03  0.1244E+00  0.1197E+00
     14.481  0.3736E-02  0.1447E-02  0.1251E+00  0.1199E+00
     14.648  0.3039E-02  0.4273E-02  0.1256E+00  0.1206E+00
     14.815  0.3082E-02  0.6082E-02  0.1261E+00  0.1216E+00
     14.982  0.3003E-02  0.7074E-02  0.1266E+00  0.1228E+00
     15.148  0.2768E-02  0.5849E-02  0.1270E+00  0.1238E+00
     15.315  0.3676E-02  0.3085E-02  0.1277E+00  0.1243E+00
     15.482  0.3423E-02  0.3327E-02  0.1282E+00  0.1249E+00
     15.649  0.2992E-02  0.4151E-02  0.1287E+00  0.1256E+00
     15.816  0.4384E-02  0.4404E-02  0.1295E+00  0.1263E+00
     15.983  0.4273E-02  0.4169E-02  0.1302E+00  0.1270E+00
     16.150  0.3798E-02  0.2634E-02  0.1308E+00  0.1274E+00
     16.316  0.3372E-02  0.3397E-02  0.1314E+00  0.1280E+00
     16.483  0.3639E-02  0.3801E-02  0.1320E+00  0.1286E+00
     16.650  0.4052E-02  0.4858E-02  0.1326E+00  0.1294E+00
     16.817  0.3735E-02  0.4672E-02  0.1333E+00  0.1302E+00
     16.984  0.3606E-02  0.3898E-02  0.1339E+00  0.1309E+00
     17.151  0.3554E-02  0.4441E-02  0.1345E+00  0.1316E+00
     17.318  0.5017E-02  0.4150E-02  0.1353E+00  0.1323E+00
     17.484  0.4403E-02  0.2742E-02  0.1360E+00  0.1328E+00
     17.651  0.2374E-02  0.3645E-02  0.1364E+00  0.1334E+00
     17.818  0.2461E-02  0.4346E-02  0.1368E+00  0.1341E+00
     17.985  0.3726E-02  0.4185E-02  0.1375E+00  0.1348E+00
     18.152  0.3342E-02  0.5368E-02  0.1380E+00  0.1357E+00
     18.319  0.4075E-02  0.4450E-02  0.1387E+00  0.1364E+00
     18.485  0.5776E-02  0.2164E-02  0.1397E+00  0.1368E+00
     18.652  0.3861E-02  0.2323E-02  0.1403E+00  0.1372E+00
     18.819  0.2565E-02  0.3325E-02  0.1407E+00  0.1377E+00
     18.986  0.3569E-02  0.4817E-02  0.1413E+00  0.1385E+00
     19.153  0.2089E-02  0.5053E-02  0.1417E+00  0.1394E+00
     19.320  0.1418E-02  0.4810E-02  0.1419E+00  0.1402E+00
     19.487  0.4430E-02  0.3570E-02  0.1427E+00  0.1408E+00
     19.653  0.5580E-02  0.2876E-02  0.1436E+00  0.1413E+00
     19.820  0.4536E-02  0.2372E-02  0.1443E+00  0.1417E+00
     19.987  0.4551E-02  0.2180E-02  0.1451E+00  0.1420E+00
     20.154  0.2338E-02  0.4234E-02  0.1455E+00  0.1427E+00
     20.321  0.1544E-02  0.4882E-02  0.1458E+00  0.1435E+00
     20.488  0.2627E-02  0.5198E-02  0.1462E+00  0.1444E+00
     20.655  0.3310E-02  0.4603E-02  0.1467E+00  0.1452E+00
     20.821  0.3072E-02  0.1882E-02  0.1473E+00  0.1455E+00
     20.988  0.3607E-02  0.2597E-02  0.1479E+00  0.1459E+00
     21.155  0.5232E-02  0.3062E-02  0.1487E+00  0.1464E+00
     21.322  0.4774E-02  0.2762E-02  0.1495E+00  0.1469E+00
     21.489  0.3395E-02  0.3358E-02  0.1501E+00  0.1475E+00
     21.656  0.1850E-02  0.4467E-02  0.1504E+00  0.1482E+00
     21.822  0.1485E-02  0.5492E-02  0.1507E+00  0.1491E+00
     21.989  0.3495E-02  0.4088E-02  0.1512E+00  0.1498E+00
     22.156  0.3993E-02  0.2847E-02  0.1519E+00  0.1503E+00
     22.323  0.4002E-02  0.1318E-02  0.1526E+00  0.1505E+00
     22.490  0.4999E-02  0.2579E-02  0.1534E+00  0.1509E+00
     22.657  0.5024E-02  0.3852E-02  0.1542E+00  0.1516E+00
     22.824  0.4880E-02  0.3767E-02  0.1551E+00  0.1522E+00
     22.990  0.4333E-02  0.4198E-02  0.1558E+00  0.1529E+00
     23.157  0.3140E-02  0.5288E-02  0.1563E+00  0.1538E+00
     23.324  0.3000E-02  0.5447E-02  0.1568E+00  0.1547E+00
     23.491  0.4352E-02  0.4245E-02  0.1575E+00  0.1554E+00
     23.658  0.5722E-02  0.3710E-02  0.1585E+00  0.1560E+00
     23.825  0.5020E-02  0.4394E-02  0.1593E+00  0.1567E+00
     23.992  0.5093E-02  0.4325E-02  0.1602E+00  0.1575E+00
     24.158  0.6983E-02  0.4888E-02  0.1613E+00  0.1583E+00
     24.325  0.5416E-02  0.6640E-02  0.1622E+00  0.1594E+00
     24.492  0.4010E-02  0.7087E-02  0.1629E+00  0.1606E+00
     24.659  0.3942E-02  0.5814E-02  0.1636E+00  0.1615E+00
     24.826  0.4200E-02  0.4259E-02  0.1643E+00  0.1623E+00
     24.993  0.4169E-02  0.4396E-02  0.1650E+00  0.1630E+00
     25.160  0.5423E-02  0.4505E-02  0.1659E+00  0.1637E+00
     25.326  0.6034E-02  0.3733E-02  0.1669E+00  0.1644E+00
     25.493  0.6042E-02  0.5178E-02  0.1679E+00  0.1652E+00
     25.660  0.6119E-02  0.5720E-02  0.1689E+00  0.1662E+00
     25.827  0.5616E-02  0.5409E-02  0.1698E+00  0.1671E+00
     25.994  0.3730E-02  0.7085E-02  0.1705E+00  0.1683E+00
     26.161  0.3056E-02  0.6608E-02  0.1710E+00  0.1694E+00
     26.327  0.4513E-02  0.3996E-02  0.1717E+00  0.1700E+00
     26.494  0.6132E-02  0.3266E-02  0.1727E+00  0.1706E+00
     26.661  0.6137E-02  0.4212E-02  0.1738E+00  0.1713E+00
     26.828  0.5739E-02  0.5255E-02  0.1747E+00  0.1722E+00
     26.995  0.4327E-02  0.5878E-02  0.1755E+00  0.1731E+00
     27.162  0.4154E-02  0.5951E-02  0.1761E+00  0.1741E+00
     27.329  0.3256E-02  0.5816E-02  0.1767E+00  0.1751E+00
     27.495  0.2858E-02  0.4701E-02  0.1772E+00  0.1759E+00
     27.662  0.3565E-02  0.2799E-02  0.1778E+00  0.1764E+00
     27.829  0.3327E-02  0.3378E-02  0.1783E+00  0.1769E+00
     27.996  0.3933E-02  0.4087E-02  0.1790E+00  0.1776E+00
     28.163  0.4278E-02  0.2539E-02  0.1797E+00  0.1780E+00
     28.330  0.3980E-02  0.2501E-02  0.1803E+00  0.1784E+00
     28.497  0.3532E-02  0.4627E-02  0.1809E+00  0.1792E+00
     28.663  0.2759E-02  0.5583E-02  0.1814E+00  0.1801E+00
     28.830  0.2885E-02  0.3108E-02  0.1819E+00  0.1807E+00
     28.997  0.2099E-02  0.2339E-02  0.1822E+00  0.1811E+00
     29.164  0.2184E-02  0.3277E-02  0.1826E+00  0.1816E+00
     29.331  0.2261E-02  0.3172E-02  0.1830E+00  0.1821E+00
     29.498  0.3287E-02  0.2303E-02  0.1835E+00  0.1825E+00
     29.664  0.3944E-02  0.2358E-02  0.1842E+00  0.1829E+00
     29.831  0.3178E-02  0.2447E-02  0.1847E+00  0.1833E+00
     29.998  0.3139E-02  0.3792E-02  0.1852E+00  0.1839E+00
     30.165  0.4104E-02  0.4207E-02  0.1859E+00  0.1847E+00
     30.332  0.4577E-02  0.2765E-02  0.1867E+00  0.1851E+00
     30.499  0.5537E-02  0.3708E-02  0.1876E+00  0.1857E+00
     30.666  0.5775E-02  0.5584E-02  0.1886E+00  0.1867E+00
     30.832  0.6753E-02  0.5208E-02  0.1897E+00  0.1875E+00
     30.999  0.6222E-02  0.5935E-02  0.1907E+00  0.1885E+00
     31.166  0.5830E-02  0.6643E-02  0.1917E+00  0.1896E+00
     31.333  0.4848E-02  0.5663E-02  0.1925E+00  0.1906E+00
     31.500  0.4358E-02  0.6160E-02  0.1932E+00  0.1916E+00
     31.667  0.3722E-02  0.5408E-02  0.1939E+00  0.1925E+00
     31.834  0.3048E-02  0.3666E-02  0.1944E+00  0.1931E+00
     32.000  0.3979E-02  0.4789E-02  0.1950E+00  0.1939E+00
     32.167  0.3123E-02  0.4809E-02  0.1956E+00  0.1947E+00
     32.334  0.1649E-02  0.2836E-02  0.1958E+00  0.1952E+00
     32.501  0.1145E-02  0.2263E-02  0.1960E+00  0.1956E+00
     32.668  0.9817E-03  0.1494E-02  0.1962E+00  0.1958E+00
     32.835  0.1918E-02  0.1443E-02  0.1965E+00  0.1961E+00
     33.001  0.1355E-02  0.2455E-02  0.1967E+00  0.1965E+00
     33.168  0.7691E-03  0.1227E-02  0.1969E+00  0.1967E+00
     33.335  0.1166E-02  0.6170E-03  0.1971E+00  0.1968E+00
     33.502  0.1419E-02  0.1652E-02  0.1973E+00  0.1971E+00
     33.669  0.1388E-02  0.2080E-02  0.1975E+00  0.1974E+00
     33.836  0.7711E-03  0.1135E-02  0.1977E+00  0.1976E+00
     34.003  0.7506E-03  0.5638E-03  0.1978E+00  0.1977E+00
     34.169  0.8388E-03  0.7366E-03  0.1979E+00  0.1978E+00
     34.336  0.3199E-03  0.6780E-03  0.1980E+00  0.1979E+00
     34.503  0.6038E-04  0.3357E-03  0.1980E+00  0.1980E+00
     34.670  0.5526E-04  0.6214E-04  0.1980E+00  0.1980E+00
     34.837  0.8012E-03  0.4726E-03  0.1981E+00  0.1981E+00
     35.004  0.1014E-02  0.9776E-03  0.1983E+00  0.1982E+00
     35.171  0.2712E-03  0.5795E-03  0.1983E+00  0.1983E+00
     35.337  0.6434E-04  0.1799E-03  0.1983E+00  0.1984E+00
     35.504  0.9415E-03  0.8100E-03  0.1985E+00  0.1985E+00
     35.671  0.1108E-02  0.1109E-02  0.1987E+00  0.1987E+00
     35.838  0.7804E-03  0.8710E-03  0.1988E+00  0.1988E+00
     36.005  0.5106E-03  0.5452E-03  0.1989E+00  0.1989E+00
     36.172  0.1469E-03  0.1433E-04  0.1989E+00  0.1989E+00
     36.338  0.5078E-03  0.3461E-03  0.1990E+00  0.1990E+00
     36.505  0.2909E-03  0.5570E-03  0.1991E+00  0.1991E+00
     36.672  0.2417E-03  0.3134E-03  0.1991E+00  0.1991E+00
     36.839  0.9852E-04  0.4144E-04  0.1991E+00  0.1991E+00
     37.006  0.8878E-04  0.5921E-04  0.1991E+00  0.1991E+00
     37.173  0.5214E-03  0.5032E-03  0.1992E+00  0.1992E+00
     37.340  0.2784E-03  0.3151E-03  0.1993E+00  0.1993E+00
     37.506 -0.5126E-04 -0.4783E-04  0.1993E+00  0.1993E+00
     37.673  0.6028E-04  0.1523E-03  0.1993E+00  0.1993E+00
     37.840  0.8247E-03  0.8619E-03  0.1994E+00  0.1994E+00
     38.007  0.7956E-03  0.7121E-03  0.1995E+00  0.1995E+00
     38.174  0.2143E-03  0.2759E-03  0.1996E+00  0.1996E+00
     38.341  0.2438E-03  0.1688E-03  0.1996E+00  0.1996E+00
     38.508  0.1995E-03  0.1419E-03  0.1997E+00  0.1996E+00
     38.674  0.1100E-03  0.1327E-03  0.1997E+00  0.1997E+00
     38.841 -0.6077E-05 -0.1784E-05  0.1997E+00  0.1997E+00
     39.008 -0.1352E-04 -0.3575E-05  0.1997E+00  0.1997E+00
     39.175  0.1381E-03  0.1915E-03  0.1997E+00  0.1997E+00
     39.342  0.2635E-03  0.2288E-03  0.1997E+00  0.1997E+00
     39.509  0.4740E-04  0.6246E-05  0.1997E+00  0.1997E+00
     39.675 -0.2201E-04  0.6969E-04  0.1997E+00  0.1998E+00
     39.842  0.1298E-03  0.2719E-03  0.1998E+00  0.1998E+00
     40.009  0.2636E-03  0.9665E-04  0.1998E+00  0.1998E+00
     40.176  0.4405E-04 -0.7402E-05  0.1998E+00  0.1998E+00
     40.343  0.8241E-04  0.1900E-03  0.1998E+00  0.1998E+00
     40.510  0.2596E-03  0.2525E-03  0.1999E+00  0.1999E+00
     40.677  0.1588E-03  0.2611E-03  0.1999E+00  0.1999E+00
     40.843  0.2593E-03  0.1598E-03  0.1999E+00  0.2000E+00
     41.010  0.1088E-03 -0.4965E-05  0.2000E+00  0.2000E+00
     41.177 -0.1178E-04 -0.5551E-05  0.2000E+00  0.2000E+00
     41.344 -0.3159E-05 -0.2358E-06  0.2000E+00  0.2000E+00
     41.511 -0.8985E-07 -0.1961E-08  0.2000E+00  0.2000E+00
     41.678 -0.5275E-09 -0.3685E-11  0.2000E+00  0.2000E+00
     41.845 -0.7098E-12 -0.2562E-13  0.2000E+00  0.2000E+00
     42.011 -0.7014E-12 -0.3137E-10  0.2000E+00  0.2000E+00
     42.178 -0.4820E-09 -0.9574E-08  0.2000E+00  0.2000E+00
     42.345 -0.7568E-07 -0.6387E-06  0.2000E+00  0.2000E+00
     42.512 -0.2427E-05 -0.7112E-05  0.2000E+00  0.2000E+00
     42.679 -0.7178E-05  0.2193E-04  0.2000E+00  0.2000E+00
     42.846  0.8286E-04  0.1661E-03  0.2000E+00  0.2000E+00
     43.013  0.1791E-03  0.1109E-03  0.2000E+00  0.2000E+00
     43.179  0.4124E-04 -0.3201E-05  0.2000E+00  0.2000E+00
     43.346 -0.8224E-05 -0.3633E-05  0.2000E+00  0.2000E+00
     43.513 -0.1101E-05 -0.1524E-06  0.2000E+00  0.2000E+00
     43.680 -0.2159E-07 -0.1254E-08  0.2000E+00  0.2000E+00
     43.847 -0.9064E-10 -0.2333E-11  0.2000E+00  0.2000E+00
     44.014 -0.8815E-13 -0.1025E-14  0.2000E+00  0.2000E+00
     44.180 -0.2044E-16 -0.1262E-18  0.2000E+00  0.2000E+00
     44.347  0.0000E+00  0.0000E+00  0.2000E+00  0.2000E+00
     44.514  0.0000E+00  0.0000E+00  0.2000E+00  0.2000E+00
     44.681  0.0000E+00  0.0000E+00  0.2000E+00  0.2000E+00
     44.848  0.0000E+00  0.0000E+00  0.2000E+00  0.2000E+00
     45.015  0.0000E+00  0.0000E+00  0.2000E+00  0.2000E+00
     45.182  0.0000E+00  0.0000E+00  0.2000E+00  0.2000E+00
     45.18155978     -4.87358145  301      5.83820954      1.00000000
     -4.874  0.0000E+00  0.0000E+00  0.0000E+00  0.0000E+00  0.0000E+00  0.0000E+00  0.0000E+00  0.0000E+00  0.0000E+00  0.0000E+00  0.0000E+00  0.0000E+00  0.0000E+00  0.0000E+00  0.0000E+00  0.0000E+00  0.0000E+00  0.0000E+00
     -4.707  0.0000E+00  0.0000E+00  0.0000E+00  0.0000E+00  0.0000E+00  0.0000E+00  0.0000E+00  0.0000E+00  0.0000E+00  0.0000E+00  0.0000E+00  0.0000E+00  0.0000E+00  0.0000E+00  0.0000E+00  0.0000E+00  0.0000E+00  0.0000E+00
     -4.540  0.0000E+00  0.0000E+00  0.0000E+00  0.0000E+00  0.0000E+00  0.0000E+00  0.0000E+00  0.0000E+00  0.0000E+00  0.0000E+00  0.0000E+00  0.0000E+00  0.0000E+00  0.0000E+00  0.0000E+00  0.0000E+00  0.0000E+00  0.0000E+00
     -4.373  0.0000E+00  0.0000E+00  0.0000E+00  0.0000E+00  0.0000E+00  0.0000E+00  0.0000E+00  0.0000E+00  0.0000E+00  0.0000E+00  0.0000E+00  0.0000E+00  0.0000E+00  0.0000E+00  0.0000E+00  0.0000E+00  0.0000E+00  0.0000E+00
     -4.206 -0.1266E-30  0.0000E+00 -0.1143E-35  0.0000E+00 -0.1143E-35  0.0000E+00 -0.1143E-35  0.0000E+00 -0.1786E-43  0.0000E+00 -0.1786E-43  0.0000E+00 -0.1272E-37  0.0000E+00 -0.1786E-43  0.0000E+00 -0.1272E-37  0.0000E+00
     -4.039 -0.3798E-25 -0.2012E-30 -0.7458E-30 -0.1811E-35 -0.7458E-30 -0.1811E-35 -0.7458E-30 -0.1811E-35 -0.3379E-34 -0.1185E-42 -0.3379E-34 -0.1185E-42 -0.8288E-32 -0.1414E-37 -0.3379E-34 -0.1185E-42 -0.8288E-32 -0.1414E-37
     -3.872 -0.2806E-20 -0.5746E-25 -0.1196E-24 -0.1129E-29 -0.1196E-24 -0.1129E-29 -0.1196E-24 -0.1129E-29 -0.1171E-28 -0.3593E-34 -0.1171E-28 -0.3593E-34 -0.1327E-26 -0.8808E-32 -0.1171E-28 -0.3593E-34 -0.1327E-26 -0.8808E-32
     -3.706 -0.4950E-16 -0.4041E-20 -0.4719E-20 -0.1731E-24 -0.4719E-20 -0.1731E-24 -0.4719E-20 -0.1731E-24 -0.9974E-24 -0.1194E-28 -0.9974E-24 -0.1194E-28 -0.5218E-22 -0.1348E-26 -0.9974E-24 -0.1194E-28 -0.5218E-22 -0.1348E-26
     -3.539 -0.2203E-12 -0.6786E-16 -0.4410E-16 -0.6521E-20 -0.4410E-16 -0.6521E-20 -0.4410E-16 -0.6521E-20 -0.2019E-19 -0.9753E-24 -0.2019E-19 -0.9753E-24 -0.4838E-18 -0.5060E-22 -0.2019E-19 -0.9753E-24 -0.4838E-18 -0.5060E-22
     -3.372 -0.2442E-09 -0.2875E-12 -0.1039E-12 -0.5818E-16 -0.1039E-12 -0.5818E-16 -0.1039E-12 -0.5818E-16 -0.1018E-15 -0.1891E-19 -0.1018E-15 -0.1891E-19 -0.1121E-14 -0.4478E-18 -0.1018E-15 -0.1891E-19 -0.1121E-14 -0.4478E-18
     -3.205 -0.6861E-07 -0.3033E-09 -0.6018E-10 -0.1308E-12 -0.6018E-10 -0.1308E-12 -0.6018E-10 -0.1308E-12 -0.1244E-12 -0.9151E-16 -0.1244E-12 -0.9151E-16 -0.6269E-12 -0.9902E-15 -0.1244E-12 -0.9151E-16 -0.6269E-12 -0.9902E-15
     -3.038 -0.5003E-05 -0.8113E-07 -0.8615E-08 -0.7236E-10 -0.8615E-08 -0.7236E-10 -0.8615E-08 -0.7236E-10 -0.3645E-10 -0.1072E-12 -0.3645E-10 -0.1072E-12 -0.8338E-10 -0.5282E-12 -0.3645E-10 -0.1072E-12 -0.8338E-10 -0.5282E-12
     -2.871 -0.9198E-04 -0.5633E-05 -0.2988E-06 -0.9884E-08 -0.2988E-06 -0.9884E-08 -0.2988E-06 -0.9884E-08 -0.2486E-08 -0.3008E-10 -0.2486E-08 -0.3008E-10 -0.2515E-08 -0.6688E-10 -0.2486E-08 -0.3008E-10 -0.2515E-08 -0.6688E-10
     -2.705 -0.2174E-03 -0.9822E-04 -0.2007E-05 -0.3264E-06 -0.2007E-05 -0.3264E-06 -0.2007E-05 -0.3264E-06 -0.3484E-07 -0.1961E-08 -0.3484E-07 -0.1961E-08 -0.1523E-07 -0.1910E-08 -0.3484E-07 -0.1961E-08 -0.1523E-07 -0.1910E-08
     -2.538  0.2361E-02 -0.2001E-03  0.4898E-05 -0.2044E-05  0.4898E-05 -0.2044E-05  0.4898E-05 -0.2044E-05 -0.2748E-07 -0.2601E-07 -0.2748E-07 -0.2601E-07 -0.4337E-07 -0.1065E-07 -0.2748E-07 -0.2601E-07 -0.4337E-07 -0.1065E-07
     -2.371  0.8327E-02  0.2529E-02  0.4140E-04  0.5657E-05  0.4140E-04  0.5657E-05  0.4140E-04  0.5657E-05  0.4261E-06 -0.1272E-07  0.4261E-06 -0.1272E-07  0.7793E-07 -0.2775E-07  0.4261E-06 -0.1272E-07  0.7793E-07 -0.2775E-07
     -2.204  0.1294E-01  0.8436E-02  0.1426E-03  0.4297E-04  0.1426E-03  0.4297E-04  0.1426E-03  0.4297E-04  0.2908E-05  0.3314E-06  0.2908E-05  0.3314E-06  0.3423E-05  0.7355E-07  0.2908E-05  0.3314E-06  0.3423E-05  0.7355E-07
     -2.037  0.1870E-01  0.1294E-01  0.2940E-03  0.1458E-03  0.2940E-03  0.1458E-03  0.2940E-03  0.1458E-03  0.9863E-05  0.2122E-05  0.9863E-05  0.2122E-05  0.6921E-05  0.2431E-05  0.9863E-05  0.2122E-05  0.6921E-05  0.2431E-05
     -1.870  0.1604E-01  0.1861E-01  0.3429E-03  0.2958E-03  0.3429E-03  0.2958E-03  0.3429E-03  0.2958E-03  0.1973E-04  0.6974E-05  0.1973E-04  0.6974E-05  0.9483E-05  0.4763E-05  0.1973E-04  0.6974E-05  0.9483E-05  0.4763E-05
     -1.703  0.2363E-01  0.1567E-01  0.6788E-03  0.3384E-03  0.6788E-03  0.3384E-03  0.6788E-03  0.3384E-03  0.3784E-04  0.1350E-04  0.3784E-04  0.1350E-04  0.4092E-04  0.6108E-05  0.3784E-04  0.1350E-04  0.4092E-04  0.6108E-05
     -1.537  0.2502E-01  0.2328E-01  0.8349E-03  0.6747E-03  0.8349E-03  0.6747E-03  0.8349E-03  0.6747E-03  0.6022E-04  0.2579E-04  0.6022E-04  0.2579E-04  0.5902E-04  0.2658E-04  0.6022E-04  0.2579E-04  0.5902E-04  0.2658E-04
     -1.370  0.2613E-01  0.2445E-01  0.1045E-02  0.8191E-03  0.1045E-02  0.8191E-03  0.1045E-02  0.8191E-03  0.1276E-03  0.3826E-04  0.1276E-03  0.3826E-04  0.6141E-04  0.3802E-04  0.1276E-03  0.3826E-04  0.6141E-04  0.3802E-04
     -1.203  0.2313E-01  0.2559E-01  0.1059E-02  0.1037E-02  0.1059E-02  0.1037E-02  0.1059E-02  0.1037E-02  0.1231E-03  0.8277E-04  0.1231E-03  0.8277E-04  0.9799E-04  0.3823E-04  0.1231E-03  0.8277E-04  0.9799E-04  0.3823E-04
     -1.036  0.3220E-01  0.2249E-01  0.1759E-02  0.1025E-02  0.1759E-02  0.1025E-02  0.1759E-02  0.1025E-02  0.2230E-03  0.7977E-04  0.2230E-03  0.7977E-04  0.2503E-03  0.5448E-04  0.2230E-03  0.7977E-04  0.2503E-03  0.5448E-04
     -0.869  0.3715E-01  0.2952E-01  0.2202E-02  0.1624E-02  0.2202E-02  0.1624E-02  0.2202E-02  0.1624E-02  0.3776E-03  0.1260E-03  0.3776E-03  0.1260E-03  0.3289E-03  0.1407E-03  0.3776E-03  0.1260E-03  0.3289E-03  0.1407E-03
     -0.702  0.2986E-01  0.3612E-01  0.1940E-02  0.2155E-02  0.1940E-02  0.2155E-02  0.1940E-02  0.2155E-02  0.4229E-03  0.2215E-03  0.4229E-03  0.2215E-03  0.2494E-03  0.1916E-03  0.4229E-03  0.2215E-03  0.2494E-03  0.1916E-03
     -0.535  0.2847E-01  0.3116E-01  0.2110E-02  0.2047E-02  0.2110E-02  0.2047E-02  0.2110E-02  0.2047E-02  0.5963E-03  0.2628E-03  0.5963E-03  0.2628E-03  0.3855E-03  0.1633E-03  0.5963E-03  0.2628E-03  0.3855E-03  0.1633E-03
     -0.369  0.4183E-01  0.2337E-01  0.3416E-02  0.1714E-02  0.3416E-02  0.1714E-02  0.3416E-02  0.1714E-02  0.8714E-03  0.2820E-03  0.8714E-03  0.2820E-03  0.9425E-03  0.1358E-03  0.8714E-03  0.2820E-03  0.9425E-03  0.1358E-03
     -0.202  0.4366E-01  0.3729E-01  0.3900E-02  0.3068E-02  0.3900E-02  0.3068E-02  0.3900E-02  0.3068E-02  0.1128E-02  0.4796E-03  0.1128E-02  0.4796E-03  0.1148E-02  0.4372E-03  0.1128E-02  0.4796E-03  0.1148E-02  0.4372E-03
     -0.035  0.3938E-01  0.4148E-01  0.3696E-02  0.3690E-02  0.3696E-02  0.3690E-02  0.3696E-02  0.3690E-02  0.1606E-02  0.5663E-03  0.1606E-02  0.5663E-03  0.1239E-02  0.5845E-03  0.1606E-02  0.5663E-03  0.1239E-02  0.5845E-03
      0.132  0.3876E-01  0.3828E-01  0.3926E-02  0.3667E-02  0.3926E-02  0.3667E-02  0.3926E-02  0.3667E-02  0.2229E-02  0.6926E-03  0.2229E-02  0.6926E-03  0.1409E-02  0.5985E-03  0.2229E-02  0.6926E-03  0.1409E-02  0.5985E-03
      0.299  0.4498E-01  0.3199E-01  0.5065E-02  0.3277E-02  0.5065E-02  0.3277E-02  0.5065E-02  0.3277E-02  0.2768E-02  0.9084E-03  0.2768E-02  0.9084E-03  0.2514E-02  0.5668E-03  0.2768E-02  0.9084E-03  0.2514E-02  0.5668E-03
      0.466  0.5339E-01  0.4022E-01  0.6467E-02  0.4438E-02  0.6467E-02  0.4438E-02  0.6467E-02  0.4438E-02  0.4005E-02  0.1362E-02  0.4005E-02  0.1362E-02  0.4493E-02  0.7641E-03  0.4005E-02  0.1362E-02  0.4493E-02  0.7641E-03
      0.632  0.5626E-01  0.3807E-01  0.7153E-02  0.4634E-02  0.7153E-02  0.4634E-02  0.7153E-02  0.4634E-02  0.6013E-02  0.1147E-02  0.6013E-02  0.1147E-02  0.4929E-02  0.1178E-02  0.6013E-02  0.1147E-02  0.4929E-02  0.1178E-02
      0.799  0.5714E-01  0.4543E-01  0.7012E-02  0.5929E-02  0.7012E-02  0.5929E-02  0.7012E-02  0.5929E-02  0.1099E-01  0.1794E-02  0.1099E-01  0.1794E-02  0.7150E-02  0.1950E-02  0.1099E-01  0.1794E-02  0.7150E-02  0.1950E-02
      0.966  0.7440E-01  0.4963E-01  0.8760E-02  0.6747E-02  0.8760E-02  0.6747E-02  0.8760E-02  0.6747E-02  0.2884E-01  0.2649E-02  0.2884E-01  0.2649E-02  0.2801E-01  0.2055E-02  0.2884E-01  0.2649E-02  0.2801E-01  0.2055E-02
      1.133  0.1049E+00  0.4323E-01  0.1301E-01  0.6182E-02  0.1301E-01  0.6182E-02  0.1301E-01  0.6182E-02  0.5188E-01  0.2913E-02  0.5188E-01  0.2913E-02  0.7276E-01  0.1946E-02  0.5188E-01  0.2913E-02  0.7276E-01  0.1946E-02
      1.300  0.8516E-01  0.3630E-01  0.1157E-01  0.5398E-02  0.1157E-01  0.5398E-02  0.1157E-01  0.5398E-02  0.5527E-01  0.3331E-02  0.5527E-01  0.3331E-02  0.1052E+00  0.2258E-02  0.5527E-01  0.3331E-02  0.1052E+00  0.2258E-02
      1.467  0.8139E-01  0.5310E-01  0.1538E-01  0.8741E-02  0.1538E-01  0.8741E-02  0.1538E-01  0.8741E-02  0.6054E-01  0.5152E-02  0.6054E-01  0.5152E-02  0.1498E+00  0.4303E-02  0.6054E-01  0.5152E-02  0.1498E+00  0.4303E-02
      1.634  0.7964E-01  0.5601E-01  0.2059E-01  0.9742E-02  0.2059E-01  0.9742E-02  0.2059E-01  0.9742E-02  0.6693E-01  0.6054E-02  0.6693E-01  0.6054E-02  0.2216E+00  0.5974E-02  0.6693E-01  0.6054E-02  0.2216E+00  0.5974E-02
      1.800  0.6236E-01  0.5263E-01  0.2093E-01  0.9266E-02  0.2093E-01  0.9266E-02  0.2093E-01  0.9266E-02  0.6957E-01  0.8015E-02  0.6957E-01  0.8015E-02  0.2266E+00  0.6885E-02  0.6957E-01  0.8015E-02  0.2266E+00  0.6885E-02
      1.967  0.3991E-01  0.5805E-01  0.1447E-01  0.1028E-01  0.1447E-01  0.1028E-01  0.1447E-01  0.1028E-01  0.7355E-01  0.1269E-01  0.7355E-01  0.1269E-01  0.1511E+00  0.8381E-02  0.7355E-01  0.1269E-01  0.1511E+00  0.8381E-02
      2.134  0.1919E-01  0.6186E-01  0.9224E-02  0.1008E-01  0.9224E-02  0.1008E-01  0.9224E-02  0.1008E-01  0.6213E-01  0.1998E-01  0.6213E-01  0.1998E-01  0.1014E+00  0.1446E-01  0.6213E-01  0.1998E-01  0.1014E+00  0.1446E-01
      2.301  0.9928E-02  0.7383E-01  0.8872E-02  0.1250E-01  0.8872E-02  0.1250E-01  0.8872E-02  0.1250E-01  0.5477E-01  0.3106E-01  0.5477E-01  0.3106E-01  0.9326E-01  0.2582E-01  0.5477E-01  0.3106E-01  0.9326E-01  0.2582E-01
      2.468  0.2974E-02  0.8534E-01  0.1590E-01  0.1521E-01  0.1590E-01  0.1521E-01  0.1590E-01  0.1521E-01  0.1963E+00  0.4118E-01  0.1963E+00  0.4118E-01  0.1192E+00  0.3368E-01  0.1963E+00  0.4118E-01  0.1192E+00  0.3368E-01
      2.635  0.3300E-02  0.6454E-01  0.2220E-01  0.1182E-01  0.2220E-01  0.1182E-01  0.2220E-01  0.1182E-01  0.3405E+00  0.3918E-01  0.3405E+00  0.3918E-01  0.1602E+00  0.2907E-01  0.3405E+00  0.3918E-01  0.1602E+00  0.2907E-01
      2.802  0.5921E-02  0.6042E-01  0.1621E-01  0.1384E-01  0.1621E-01  0.1384E-01  0.1621E-01  0.1384E-01  0.2695E+00  0.4125E-01  0.2695E+00  0.4125E-01  0.1282E+00  0.3973E-01  0.2695E+00  0.4125E-01  0.1282E+00  0.3973E-01
      2.968  0.9217E-02  0.5858E-01  0.1780E-01  0.1643E-01  0.1780E-01  0.1643E-01  0.1780E-01  0.1643E-01  0.2234E+00  0.4259E-01  0.2234E+00  0.4259E-01  0.1028E+00  0.7474E-01  0.2234E+00  0.4259E-01  0.1028E+00  0.7474E-01
      3.135  0.1291E-01  0.5049E-01  0.2603E-01  0.1863E-01  0.2603E-01  0.1863E-01  0.2603E-01  0.1863E-01  0.2463E+00  0.4649E-01  0.2463E+00  0.4649E-01  0.1062E+00  0.1207E+00  0.2463E+00  0.4649E-01  0.1062E+00  0.1207E+00
      3.302  0.1891E-01  0.4228E-01  0.3424E-01  0.1956E-01  0.3424E-01  0.1956E-01  0.3424E-01  0.1956E-01  0.3113E+00  0.4863E-01  0.3113E+00  0.4863E-01  0.1305E+00  0.1527E+00  0.3113E+00  0.4863E-01  0.1305E+00  0.1527E+00
      3.469  0.1847E-01  0.2924E-01  0.3053E-01  0.1579E-01  0.3053E-01  0.1579E-01  0.3053E-01  0.1579E-01  0.2996E+00  0.5181E-01  0.2996E+00  0.5181E-01  0.1262E+00  0.1254E+00  0.2996E+00  0.5181E-01  0.1262E+00  0.1254E+00