    2    2  100    2
  0.1173411E+02  0.2863035E-09  0.2863035E-09  0.2863035E-09  0.5000000E-15
  1.000000000000000E-004
  CAR 
 unknown system                          
     16    120     20
 
  0.0000000E+00  0.0000000E+00  0.0000000E+00  0.2962963E-03
    1       -2.598348     -2.437318   1.000000   1.000000
    2        0.985863      2.800593   1.000000   1.000000
    3        0.985863      2.800734   1.000000   1.000000
    4        3.536907      5.437174   1.000000   1.007862
    5        3.536908      5.437307   1.000000   1.007879
    6        3.536908      5.437317   1.000000   1.007880
    7        4.749430      7.496027   1.000000  -0.000000
    8        4.749431      7.496191   1.000000  -0.000000
    9        5.961454      8.135492   0.072840  -0.000000
   10        5.961455      8.135616   0.072836  -0.000000
   11        5.961455      8.135628   0.072836  -0.000000
   12       15.792481     16.057215   0.000000   0.000000
   13       15.792481     16.057215   0.000000   0.000000
   14       15.792481     16.057218   0.000000   0.000000
   15       21.507793     22.558608   0.000000   0.000000
   16       21.507794     22.558621   0.000000   0.000000
   17       26.644292     27.744420   0.000000   0.000000
   18       30.883862     30.625524   0.000000   0.000000
   19       30.883862     30.625524   0.000000   0.000000
   20       30.883862     30.625524   0.000000   0.000000
 
  0.6666667E-01  0.1540744E-32  0.0000000E+00  0.1777778E-02
    1       -2.505828     -2.344397   1.000000   1.000000
    2        1.025335      2.833922   1.000000   1.000000
    3        1.027048      2.847524   1.000000   1.000000
    4        3.536138      5.432956   1.000000   1.007337
    5        3.536139      5.433099   1.000000   1.007355
    6        3.562256      5.465240   1.000000   1.012066
    7        4.708145      7.442216   1.000000  -0.000000
    8        4.765780      7.516832   1.000000  -0.000000
    9        5.883131      8.032044   0.315136  -0.000000
   10        5.883132      8.032178   0.315130  -0.000000
   11        5.933859      8.104597   0.142083  -0.000000
   12       15.121565     15.503046   0.000000   0.000000
   13       15.967913     16.258492   0.000000   0.000000
   14       15.967913     16.258493   0.000000   0.000000
   15       21.534424     22.577077   0.000000   0.000000
   16       22.014311     22.966790   0.000000   0.000000
   17       26.944363     28.029633   0.000000   0.000000
   18       30.250037     30.074288   0.000000   0.000000
   19       30.802788     30.584415   0.000000   0.000000
   20       30.802788     30.584416   0.000000   0.000000
 
  0.1333333E+00  0.0000000E+00  0.0000000E+00  0.1777778E-02
    1       -2.231940     -2.068746   1.000000   1.000000
    2        1.142367      2.921787   1.000000   1.000000
    3        1.143062      2.986851   1.000000   1.000000
    4        3.536464      5.423619   1.000000   1.006271
    5        3.536465      5.423761   1.000000   1.006286
    6        3.637325      5.547974   1.000000   1.029763
    7        4.585861      7.282921   1.000000  -0.000000
    8        4.813669      7.576165   1.000000  -0.000000
    9        5.667668      7.754665   1.002330  -0.000000
   10        5.667670      7.754798   1.002328  -0.000000
   11        5.852447      8.013123   0.439926  -0.000000
   12       13.648568     14.233043   0.000000   0.000000
   13       16.473814     16.828397   0.000000   0.000000
   14       16.473814     16.828400   0.000000   0.000000
   15       21.615903     22.634071   0.000000   0.000000
   16       22.895102     23.716343   0.000000   0.000000
   17       27.953084     28.935214   0.000000   0.000000
   18       28.983628     28.981821   0.000000   0.000000
   19       30.442740     30.368458   0.000000   0.000000
   20       30.442740     30.368461   0.000000   0.000000
 
  0.2000000E+00 -0.6162976E-32  0.0000000E+00  0.1777778E-02
    1       -1.788436     -1.619937   1.000000   1.000000
    2        1.310785      3.027587   1.000000   1.000000
    3        1.332741      3.214347   1.000000   1.000000
    4        3.545223      5.418452   1.000000   1.005735
    5        3.545224      5.418594   1.000000   1.005749
    6        3.759268      5.682481   1.000000   0.984380
    7        4.387313      7.025018   1.000000  -0.000000
    8        4.890780      7.375418   1.000000  -0.000000
    9        5.361459      7.375549   1.001916  -0.000000
   10        5.361461      7.666902   1.001916  -0.000000
   11        5.721119      7.865692   0.913380  -0.000000
   12       11.958789     12.755350   0.000000   0.000000
   13       17.260871     17.691708   0.000000   0.000000
   14       17.260871     17.691712   0.000000   0.000000
   15       21.756941     22.734330   0.000000   0.000000
   16       23.534872     24.276523   0.000000   0.000000
   17       27.658022     27.729445   0.000000   0.000000
   18       29.600752     29.766769   0.000000   0.000000
   19       29.600752     29.766774   0.000000   0.000000
   20       29.728963     30.666842   0.000000   0.000000
 
  0.2666667E+00  0.0000000E+00  0.0000000E+00  0.1777778E-02
    1       -1.197717     -1.015175   1.000000   1.000000
    2        1.489971      3.086649   1.000000   1.000000
    3        1.589419      3.522796   1.000000   1.000000
    4        3.573013      5.430810   1.000000   1.007081
    5        3.573013      5.430950   1.000000   1.007097
    6        3.923381      5.863724   1.000000   0.393007
    7        4.120600      6.680206   1.000000  -0.000000
    8        4.997637      6.963753   1.000000  -0.000000
    9        5.015674      6.963883   1.000000  -0.000000
   10        5.015675      7.669557   1.000000  -0.000000
   11        5.546187      7.779615   1.029388  -0.000000
   12       10.289364     11.333701  -0.000000   0.000000
   13       18.272863     18.773457   0.000000   0.000000
   14       18.272863     18.773462   0.000000   0.000000
   15       21.965335     22.885810   0.000000   0.000000
   16       23.955550     24.630097   0.000000   0.000000
   17       26.440880     26.630850   0.000000   0.000000
   18       28.326113     28.707388   0.000000   0.000000
   19       28.326114     28.707395   0.000000   0.000000
   20       30.131398     30.551895   0.000000   0.000000
 
  0.3333333E+00  0.0000000E+00  0.0000000E+00  0.1777778E-02
    1       -0.498791     -0.281921   1.000000   1.000000
    2        1.620420      3.008071   1.000000   1.000000
    3        1.902515      3.901802   1.000000   1.000000
    4        3.631879      5.475802   1.000000   1.013973
    5        3.631880      5.475940   1.000000   1.013999
    6        3.797305      6.084753   1.000000  -0.035448
    7        4.123214      6.265035   1.000000  -0.005061
    8        4.672104      6.568994   1.000000  -0.000002
    9        4.672105      6.569124   1.000000  -0.000002
   10        5.146192      7.434243   1.000006  -0.000000
   11        5.335980      7.908055   1.001102  -0.000000
   12        8.754073     10.117977  -0.000000  -0.000000
   13       19.460579     20.016067   0.000000   0.000000
   14       19.460579     20.016071   0.000000   0.000000
   15       22.251869     23.099737   0.000000   0.000000
   16       24.334684     24.936863   0.000000   0.000000
   17       25.376915     25.687307   0.000000   0.000000
   18       26.834889     27.347232   0.000000   0.000000
   19       26.834890     27.347238   0.000000   0.000000
   20       28.633693     29.043400   0.000000   0.000000
 
  0.4000000E+00  0.0000000E+00  0.0000000E+00  0.1777778E-02
    1        0.241554      0.536998   1.000000   1.000000
    2        1.620076      2.700450   1.000000   1.000000
    3        2.259361      4.337609   1.000000   1.000000
    4        3.432025      5.567807   1.000000   1.033371
    5        3.733156      5.567943   1.000000   1.033392
    6        3.733157      5.799981   1.000000   0.658528
    7        4.350733      6.221058   1.000000  -0.010442
    8        4.359427      6.221190   1.000000  -0.010422
    9        4.359428      6.336859   1.000000  -0.001193
   10        5.100308      7.170911   1.000001  -0.000000
   11        5.375084      8.059134   1.002536  -0.000000
   12        7.441407      9.205091  -0.000000  -0.000000
   13       20.784855     21.377702   0.000000   0.000000
   14       20.784855     21.377704   0.000000   0.000000
   15       22.629995     23.390506   0.000000   0.000000
   16       24.473759     24.905059   0.000000   0.000000
   17       24.798048     25.328385   0.000000   0.000000
   18       25.274975     25.855374   0.000000   0.000000
   19       25.274976     25.855378   0.000000   0.000000
   20       27.334728     27.744280   0.000000   0.000000
 
  0.4666667E+00 -0.1232595E-31  0.0000000E+00  0.1777778E-02
    1        0.916710      1.374839   1.000000   1.000000
    2        1.398886      2.133735   1.000000   1.000000
    3        2.644823      4.813118   1.000000   1.000000
    4        3.041796      5.308121   1.000000   1.000576
    5        3.885804      5.718606   1.000000   0.919124
    6        3.885805      5.718740   1.000000   0.918820
    7        4.094743      5.935733   1.000000   0.136779
    8        4.094744      5.935866   1.000000   0.136406
    9        4.596530      6.609767   1.000000  -0.000000
   10        4.850094      6.891907   1.000000  -0.000000
   11        5.766841      8.268276   0.781726  -0.000000
   12        6.434167      8.613817  -0.000105  -0.000000
   13       22.214238     22.825753   0.000000   0.000000
   14       22.214239     22.825753   0.000000   0.000000
   15       23.115272     23.775357   0.000000   0.000000
   16       23.720846     24.273584   0.000000   0.000000
   17       23.720847     24.330099   0.000000   0.000000
   18       23.724398     24.330102   0.000000   0.000000
   19       25.424962     25.894639   0.000000   0.000000
   20       26.263515     26.691977   0.000000   0.000000
 
  0.6666667E-01  0.6666667E-01  0.0000000E+00  0.3555556E-02
    1       -2.414022     -2.252100   1.000000   1.000000
    2        1.064018      2.875558   1.000000   1.000000
    3        1.068359      2.885311   1.000000   1.000000
    4        3.486652      5.376740   1.000000   1.002621
    5        3.532908      5.426249   1.000000   1.006559
    6        3.636052      5.545149   1.000000   1.029167
    7        4.699889      7.429978   1.000000  -0.000000
    8        4.753524      7.500725   1.000000  -0.000000
    9        5.743625      7.862869   0.854867  -0.000000
   10        5.804880      7.929023   0.638879  -0.000000
   11        5.973012      8.148509   0.049528  -0.000000
   12       15.139188     15.560672   0.000000   0.000000
   13       15.435520     15.827808   0.000000   0.000000
   14       16.137965     16.450924   0.000000   0.000000
   15       21.795394     22.784284   0.000000   0.000000
   16       22.329737     23.226011   0.000000   0.000000
   17       27.219446     28.293746   0.000000   0.000000
   18       29.688035     29.614362   0.000000   0.000000
   19       30.607407     30.408342   0.000000   0.000000
   20       30.752740     30.562992   0.000000   0.000000
 
  0.1333333E+00  0.6666667E-01  0.0000000E+00  0.7111111E-02
    1       -2.142354     -1.978298   1.000000   1.000000
    2        1.175629      2.967387   1.000000   1.000000
    3        1.187600      3.018200   1.000000   1.000000
    4        3.447212      5.325744   1.000000   1.000873
    5        3.525966      5.409653   1.000000   1.004906
    6        3.750082      5.669102   1.000000   1.000798
    7        4.599373      7.296033   1.000000  -0.000000
    8        4.792684      7.548781   1.000000  -0.000000
    9        5.490256      7.550771   1.016850  -0.000000
   10        5.590511      7.654660   1.035429  -0.000000
   11        5.943826      8.113832   0.114871  -0.000000
   12       13.766504     14.374827   0.000000   0.000000
   13       15.796311     16.265535   0.000000   0.000000
   14       16.629944     16.999259   0.000000   0.000000
   15       21.964231     22.913588   0.000000   0.000000
   16       23.231887     24.003508   0.000000   0.000000
   17       28.160196     28.477383   0.000000   0.000000
   18       28.412214     29.187614   0.000000   0.000000
   19       30.151879     30.074729   0.000000   0.000000
   20       30.471761     30.401005   0.000000   0.000000
 
  0.2000000E+00  0.6666667E-01  0.0000000E+00  0.7111111E-02
    1       -1.703050     -1.532841   1.000000   1.000000
    2        1.345184      3.074053   1.000000   1.000000
    3        1.371733      3.239277   1.000000   1.000000
    4        3.429806      5.294364   1.000000   1.000411
    5        3.521598      5.392313   1.000000   1.003556
    6        3.896661      5.828821   1.000000   0.539679
    7        4.421952      7.058475   1.000000  -0.000000
    8        4.871299      7.166172   1.000000  -0.000000
    9        5.171645      7.285447   1.000013  -0.000000
   10        5.288827      7.642027   1.000358  -0.000000
   11        5.843430      7.997883   0.477918  -0.000000
   12       12.073785     12.887504   0.000000   0.000000
   13       16.517616     17.064804   0.000000   0.000000
   14       17.399170     17.837323   0.000000   0.000000
   15       22.142839     23.045798   0.000000   0.000000
   16       23.962206     24.654304   0.000000   0.000000
   17       27.018149     27.211882   0.000000   0.000000
   18       29.263915     29.380078   0.000000   0.000000
   19       29.687315     29.850794   0.000000   0.000000
   20       29.866947     30.808916   0.000000   0.000000
 
  0.2666667E+00  0.6666667E-01  0.0000000E+00  0.7111111E-02
    1       -1.119260     -0.933258   1.000000   1.000000
    2        1.525828      3.131981   1.000000   1.000000
    3        1.618979      3.537784   1.000000   1.000000
    4        3.440182      5.290003   1.000000   1.000369
    5        3.521684      5.384527   1.000000   1.003059
    6        4.075718      6.024911   1.000000  -0.016780
    7        4.194586      6.743911   1.000000  -0.000000
    8        4.826039      6.760668   1.000000  -0.000000
    9        4.954255      6.896868   1.000000  -0.000000
   10        4.979827      7.758417   1.000000  -0.000000
   11        5.687121      7.819858   0.977753  -0.000000
   12       10.397628     11.449909  -0.000000   0.000000
   13       17.434338     18.051409   0.000000   0.000000
   14       18.393331     18.896038   0.000000   0.000000
   15       22.393337     23.233912   0.000000   0.000000
   16       24.469067     25.099186   0.000000   0.000000
   17       25.677744     26.001665   0.000000   0.000000
   18       28.054753     28.321424   0.000000   0.000000
   19       28.417737     28.802326   0.000000   0.000000
   20       31.194380     31.601281   0.000000   0.000000
 
  0.3333333E+00  0.6666667E-01  0.0000000E+00  0.7111111E-02
    1       -0.431083     -0.207441   1.000000   1.000000
    2        1.653669      3.049485   1.000000   1.000000
    3        1.921255      3.901580   1.000000   1.000000
    4        3.486837      5.323637   1.000000   1.000831
    5        3.492820      5.387537   1.000000   1.003244
    6        3.974430      6.254212   1.000000  -0.006121
    7        4.284091      6.375140   1.000000  -0.000488
    8        4.487784      6.383237   1.000000  -0.000400
    9        4.633000      6.544484   1.000000  -0.000004
   10        5.130255      7.595569   1.000003  -0.000000
   11        5.488505      7.890327   1.016486  -0.000000
   12        8.850799     10.208723  -0.000000  -0.000000
   13       18.486076     19.155166   0.000000   0.000000
   14       19.565389     20.120006   0.000000   0.000000
   15       22.737715     23.499719   0.000000   0.000000
   16       24.413466     24.868626   0.000000   0.000000
   17       24.937764     25.504373   0.000000   0.000000
   18       26.775754     27.126887   0.000000   0.000000
   19       26.917773     27.433271   0.000000   0.000000
   20       29.713117     30.136445   0.000000   0.000000
 
  0.4000000E+00  0.6666667E-01  0.0000000E+00  0.7111111E-02
    1        0.294049      0.601473   1.000000   1.000000
    2        1.647844      2.738661   1.000000   1.000000
    3        2.264059      4.313306   1.000000   1.000000
    4        3.315230      5.356298   1.000000   1.001718
    5        3.578748      5.406965   1.000000   1.004673
    6        3.902373      6.036472   1.000000  -0.024202
    7        4.182158      6.054128   1.000000  -0.031537
    8        4.358132      6.257679   1.000000  -0.005764
    9        4.515746      6.510222   1.000000  -0.000011
   10        5.260201      7.339228   1.000170  -0.000000
   11        5.365990      8.046140   1.002106  -0.000000
   12        7.517555      9.260397  -0.000000  -0.000000
   13       19.623419     20.320847   0.000000   0.000000
   14       20.877104     21.467788   0.000000   0.000000
   15       23.199763     23.772874   0.000000   0.000000
   16       23.199834     23.869880   0.000000   0.000000
   17       25.352738     25.933915   0.000000   0.000000
   18       25.503847     26.007508   0.000000   0.000000
   19       25.596839     26.011758   0.000000   0.000000
   20       28.365258     28.795522   0.000000   0.000000
 
  0.4666667E+00  0.6666667E-01  0.0000000E+00  0.7111111E-02
    1        0.952366      1.427416   1.000000   1.000000
    2        1.424860      2.175782   1.000000   1.000000
    3        2.629742      4.745529   1.000000   1.000000
    4        2.994586      5.139378   1.000000   1.000005
    5        3.723400      5.550107   1.000000   1.030202
    6        3.924846      5.759533   1.000000   0.806069
    7        3.987090      5.936979   1.000000   0.133300
    8        4.143971      6.044556   1.000000  -0.028114
    9        4.762427      6.783887   1.000000  -0.000000
   10        5.014262      7.064305   1.000000  -0.000000
   11        5.777866      8.265835   0.742906  -0.000000
   12        6.478583      8.634092  -0.000029  -0.000000
   13       20.805578     21.501552   0.000000   0.000000
   14       22.001976     22.658447   0.000000   0.000000
   15       22.297442     22.906761   0.000000   0.000000
   16       23.798976     24.382086   0.000000   0.000000
   17       23.810009     24.407050   0.000000   0.000000
   18       24.601879     25.083351   0.000000   0.000000
   19       26.245958     26.710320   0.000000   0.000000
   20       27.199912     27.640075   0.000000   0.000000
 
  0.1333333E+00  0.1333333E+00  0.0000000E+00  0.3555556E-02
    1       -1.877926     -1.710404   1.000000   1.000000
    2        1.271242      3.100481   1.000000   1.000000
    3        1.315653      3.101286   1.000000   1.000000
    4        3.346409      5.208297   1.000000   1.000039
    5        3.499969      5.373147   1.000000   1.002438
    6        3.922887      5.857924   1.000000   0.417029
    7        4.600053      7.188680   1.000000  -0.000000
    8        4.766992      7.282214   1.000000  -0.000000
    9        5.183679      7.393916   1.000019  -0.000000
   10        5.382094      7.516510   1.002916  -0.000000
   11        6.005773      8.185049   0.000901  -0.000000
   12       13.749346     14.421233   0.000000   0.000000
   13       14.723242     15.375386   0.000000   0.000000
   14       17.085255     17.493280   0.000000   0.000000
   15       22.306279     23.189776   0.000000   0.000000
   16       24.232187     24.885080   0.000000   0.000000
   17       27.097101     27.325053   0.000000   0.000000
   18       28.892754     29.589144   0.000000   0.000000
   19       29.633927     29.903383   0.000000   0.000000
   20       30.445659     30.411155   0.000000   0.000000
 
  0.2000000E+00  0.1333333E+00  0.0000000E+00  0.7111111E-02
    1       -1.452242     -1.275490   1.000000   1.000000
    2        1.416260      3.198268   1.000000   1.000000
    3        1.510218      3.313038   1.000000   1.000000
    4        3.273507      5.117744   1.000000   1.000002
    5        3.469025      5.326406   1.000000   1.000886
    6        4.120145      6.073472   1.000000  -0.035072
    7        4.501691      6.781428   1.000000  -0.000000
    8        4.821911      7.059383   1.000000  -0.000000
    9        4.834657      7.134456   1.000000  -0.000000
   10        5.097466      7.580741   1.000001  -0.000000
   11        5.986073      8.160912   0.027146  -0.000000
   12       12.333754     13.179682   0.000000   0.000000
   13       15.075582     15.808224   0.000000   0.000000
   14       17.806179     18.264715   0.000000   0.000000
   15       22.526766     23.355333   0.000000   0.000000
   16       25.230313     25.798904   0.000000   0.000000
   17       25.608488     25.966140   0.000000   0.000000
   18       28.820887     28.877340   0.000000   0.000000
   19       29.924201     30.072980   0.000000   0.000000
   20       30.347824     31.299101   0.000000   0.000000
 
  0.2666667E+00  0.1333333E+00  0.0000000E+00  0.7111111E-02
    1       -0.891321     -0.692369   1.000000   1.000000
    2        1.578048      3.241908   1.000000   1.000000
    3        1.751858      3.592333   1.000000   1.000000
    4        3.237153      5.064687   1.000000   1.000000
    5        3.434387      5.279561   1.000000   1.000283
    6        4.338213      6.312220   1.000000  -0.002029
    7        4.350702      6.373863   1.000000  -0.000503
    8        4.478494      6.739607   1.000000  -0.000000
    9        4.799054      6.897228   1.000000  -0.000000
   10        4.929691      7.699642   1.000000  -0.000000
   11        5.892746      8.051947   0.278473  -0.000000
   12       10.670815     11.732672  -0.000000   0.000000
   13       15.867090     16.650094   0.000000   0.000000
   14       18.750598     19.259888   0.000000   0.000000
   15       22.769513     23.532070   0.000000   0.000000
   16       24.140269     24.613571   0.000000   0.000000
   17       25.970430     26.492764   0.000000   0.000000
   18       27.761006     27.922328   0.000000   0.000000
   19       28.689116     29.083029   0.000000   0.000000
   20       32.454765     33.371801   0.000000   0.000000
 
  0.3333333E+00  0.1333333E+00  0.0000000E+00  0.7111111E-02
    1       -0.239439      0.009341   1.000000   1.000000
    2        1.692191      3.141327   1.000000   1.000000
    3        2.029590      3.923252   1.000000   1.000000
    4        3.245561      5.059262   1.000000   1.000000
    5        3.367596      5.227862   1.000000   1.000070
    6        4.142816      5.997688   1.000000   0.010622
    7        4.220048      6.499807   1.000000  -0.000015
    8        4.542077      6.570722   1.000000  -0.000001
    9        4.573392      6.631946   1.000000  -0.000000
   10        5.083212      7.839002   1.000001  -0.000000
   11        5.740050      7.876320   0.865002  -0.000000
   12        9.102530     10.437267  -0.000000  -0.000000
   13       16.807468     17.617116   0.000000   0.000000
   14       19.877750     20.430506   0.000000   0.000000
   15       22.737412     23.315197   0.000000   0.000000
   16       23.083394     23.766047   0.000000   0.000000
   17       26.619431     26.894287   0.000000   0.000000
   18       26.649003     27.103541   0.000000   0.000000
   19       27.161145     27.686615   0.000000   0.000000
   20       31.614934     32.027011   0.000000   0.000000
 
  0.4000000E+00  0.1333333E+00  0.0000000E+00  0.7111111E-02
    1        0.433095      0.785093   1.000000   1.000000
    2        1.674703      2.823211   1.000000   1.000000
    3        2.336089      4.284018   1.000000   1.000000
    4        3.213000      5.111197   1.000000   1.000002
    5        3.306424      5.135171   1.000000   1.000004
    6        3.847871      5.674249   1.000000   0.994942
    7        4.174744      6.358540   1.000000  -0.000727
    8        4.363480      6.405858   1.000000  -0.000224
    9        4.820111      6.843321   1.000000  -0.000000
   10        5.338264      7.652041   1.001159  -0.000000
   11        5.542865      8.006891   1.028676  -0.000000
   12        7.720402      9.404077  -0.000000  -0.000000
   13       17.846197     18.656242   0.000000   0.000000
   14       21.152447     21.737314   0.000000   0.000000
   15       21.407591     22.074332   0.000000   0.000000
   16       23.499632     24.091750   0.000000   0.000000
   17       25.581445     25.947083   0.000000   0.000000
   18       25.624575     26.165036   0.000000   0.000000
   19       27.328144     27.778535   0.000000   0.000000
   20       30.333606     30.742955   0.000000   0.000000
 
  0.4666667E+00  0.1333333E+00  0.0000000E+00  0.7111111E-02
    1        1.030384      1.570257   1.000000   1.000000
    2        1.459565      2.279685   1.000000   1.000000
    3        2.655488      4.641002   1.000000   1.000000
    4        2.961153      4.942409   1.000000   1.000000
    5        3.425798      5.228528   1.000000   1.000071
    6        3.606683      5.416084   1.000000   1.005502
    7        4.204754      6.289961   1.000000  -0.003176
    8        4.263103      6.290736   1.000000  -0.003129
    9        5.070684      7.121824   1.000000  -0.000000
   10        5.315413      7.395641   1.000686  -0.000000
   11        5.809914      8.255802   0.618409  -0.000000
   12        6.601777      8.686945  -0.000000  -0.000000
   13       18.962675     19.747569   0.000000   0.000000
   14       20.149964     20.886401   0.000000   0.000000
   15       22.545245     23.148377   0.000000   0.000000
   16       24.030374     24.544987   0.000000   0.000000
   17       24.047570     24.635039   0.000000   0.000000
   18       24.752086     25.157969   0.000000   0.000000
   19       28.171357     28.597368   0.000000   0.000000
   20       29.175098     29.588048   0.000000   0.000000
 
  0.2000000E+00  0.2000000E+00  0.0000000E+00  0.3555556E-02
    1       -1.053027     -0.859900   1.000000   1.000000
    2        1.513038      3.309846   1.000000   1.000000
    3        1.726720      3.476181   1.000000   1.000000
    4        3.144460      4.967214   1.000000   1.000000
    5        3.419442      5.246523   1.000000   1.000118
    6        4.364740      6.342324   1.000000  -0.001056
    7        4.467416      6.363582   1.000000  -0.000645
    8        4.555885      6.793720   1.000000  -0.000000
    9        4.792043      7.167037   1.000000  -0.000000
   10        4.850025      7.548001   1.000000  -0.000000
   11        6.054240      8.239139  -0.031570  -0.000000
   12       12.178089     13.060571   0.000000   0.000000
   13       14.085963     14.994292   0.000000   0.000000
   14       18.460512     18.948323   0.000000   0.000000
   15       22.746123     23.512894   0.000000   0.000000
   16       24.036796     24.515323   0.000000   0.000000
   17       26.678007     27.133172   0.000000   0.000000
   18       28.201257     28.263520   0.000000   0.000000
   19       30.103678     30.235507   0.000000   0.000000
   20       31.365854     32.309322   0.000000   0.000000
 
  0.2666667E+00  0.2000000E+00  0.0000000E+00  0.7111111E-02
    1       -0.537903     -0.307721   1.000000   1.000000
    2        1.608860      3.316580   1.000000   1.000000
    3        1.992877      3.738962   1.000000   1.000000
    4        3.056587      4.859725   1.000000   1.000000
    5        3.389471      5.172892   1.000000   1.000013
    6        4.107263      5.959082   1.000000   0.078037
    7        4.510665      6.584527   1.000000  -0.000001
    8        4.616477      6.624043   1.000000  -0.000000
    9        4.620505      7.065685   1.000000  -0.000000
   10        4.861755      7.624479   1.000000  -0.000000
   11        6.041120      8.222569  -0.026572  -0.000000
   12       10.913910     11.960529  -0.000000   0.000000
   13       14.391703     15.349423   0.000000   0.000000
   14       19.332761     19.853314   0.000000   0.000000
   15       22.492959     23.073897   0.000000   0.000000
   16       22.960813     23.655500   0.000000   0.000000
   17       27.356911     27.464712   0.000000   0.000000
   18       27.821497     28.222076   0.000000   0.000000
   19       29.129677     29.537174   0.000000   0.000000
   20       31.395600     31.957793   0.000000   0.000000
 
  0.3333333E+00  0.2000000E+00  0.0000000E+00  0.7111111E-02
    1        0.039900      0.347566   1.000000   1.000000
    2        1.657544      3.181348   1.000000   1.000000
    3        2.281691      4.044386   1.000000   1.000000
    4        3.019517      4.806815   1.000000   1.000000
    5        3.360948      5.107619   1.000000   1.000002
    6        3.778820      5.595808   1.000000   1.035432
    7        4.448906      6.491073   1.000000  -0.000020
    8        4.454850      6.897121   1.000000  -0.000000
    9        4.881108      6.912107   1.000000  -0.000000
   10        5.008626      7.761775   1.000000  -0.000000
   11        5.954649      8.121547   0.088134  -0.000000
   12        9.397123     10.680037  -0.000000  -0.000000
   13       15.181507     16.138822   0.000000   0.000000
   14       20.391312     20.942964   0.000000   0.000000
   15       21.027040     21.700109   0.000000   0.000000
   16       23.233710     23.843043   0.000000   0.000000
   17       26.416364     26.586096   0.000000   0.000000
   18       27.544606     28.090039   0.000000   0.000000
   19       28.706134     29.089238   0.000000   0.000000
   20       32.057125     32.520062   0.000000   0.000000
 
  0.4000000E+00  0.2000000E+00  0.0000000E+00  0.7111111E-02
    1        0.605369      1.057608   1.000000   1.000000
    2        1.605827      2.868487   1.000000   1.000000
    3        2.573191      4.359917   1.000000   1.000000
    4        3.041140      4.818047   1.000000   1.000000
    5        3.275504      5.025355   1.000000   1.000000
    6        3.499445      5.292007   1.000000   1.000388