 vasp.6.2.0 18Jan21 (build Aug 12 2022 13:00:08) complex                        
  
 executed on             LinuxIFC date 2024.11.04  07:23:38
 running on    4 total cores
 distrk:  each k-point on    4 cores,    1 groups
 distr:  one band on NCORE=   1 cores,    4 groups


--------------------------------------------------------------------------------------------------------


 INCAR:
   ISTART = 0            (Read existing wavefunction, if there)
   ISPIN = 2            (Non-Spin polarised DFT)
   MAGMOM = 5 5          (Set this parameters manually)
   GGA_COMPAT = .FALSE.   (Apply spherical cutoff on gradient field)
   VOSKOWN = 1        (Enhances the magnetic moments and the magnetic energies)
   LMAXMIX = 4        (For d elements increase LMAXMIX to 4, f: LMAXMIX \= 6)
   LREAL = .FALSE.       (Projection operators: automatic)
   ENCUT = 700          (Cut-off energy for plane wave basis set, in eV)
   LORBIT = 11           (Write orbital decomposed charge densities and magnetic moments)
   ADDGRID = .TRUE.        (Increase grid, helps GGA convergence)
   LASPH = .TRUE.        (Give more accurate total energies and band structure calculations)
   PREC = Accurate      (Accurate strictly avoids any aliasing or wrap around errors)
   ISMEAR = 1            (Gaussian smearing, metals:1)
   SIGMA = 0.2          (Smearing value in eV, metals:0.2)
   NELM = 90           (Max electronic SCF steps)
   NELMIN = 6            (Min electronic SCF steps)
   EDIFF = 1E-06        (SCF energy convergence, in eV)
   NSW = 100          (Max ionic steps)
   IBRION = 2            (Algorithm: 0-MD, 1-Quasi-New, 2-CG)
   ISIF = 3            (Stress/relaxation: 2-Ions, 3-Shape/Ions/V, 4-Shape/Ions)
   EDIFFG = -2E-03        (Ionic convergence, eV/AA)
   ISYM = 2              (Symmetry: 0\=none, 2\=GGA, 3\=hybrids)

 POTCAR:    PAW_PBE Fe 06Sep2000                  
 POTCAR:    PAW_PBE Fe 06Sep2000                  
   VRHFIN =Fe:  d7 s1                                                                               
   LEXCH  = PE                                                                                      
   EATOM  =   594.3153 eV,   43.6809 Ry                                                             
                                                                                                    
   TITEL  = PAW_PBE Fe 06Sep2000                                                                    
   LULTRA =        F    use ultrasoft PP ?                                                          
   IUNSCR =        1    unscreen: 0-lin 1-nonlin 2-no                                               
   RPACOR =    2.000    partial core radius                                                         
   POMASS =   55.847; ZVAL   =    8.000    mass and valenz                                          
   RCORE  =    2.300    outmost cutoff radius                                                       
   RWIGS  =    2.460; RWIGS  =    1.302    wigner-seitz radius (au A)                               
   ENMAX  =  267.882; ENMIN  =  200.911 eV                                                          
   RCLOC  =    1.701    cutoff for local pot                                                        
   LCOR   =        T    correct aug charges                                                         
   LPAW   =        T    paw PP                                                                      
   EAUG   =  511.368                                                                                
   DEXC   =    0.000                                                                                
   RMAX   =    2.356    core radius for proj-oper                                                   
   RAUG   =    1.300    factor for augmentation sphere                                              
   RDEP   =    2.442    radius for radial grids                                                     
   RDEPT  =    1.890    core radius for aug-charge                                                  
                                                                                                    
   Atomic configuration                                                                             
    9 entries                                                                                       
     n  l   j            E        occ.                                                              
     1  0  0.50     -6993.8440   2.0000                                                             
     2  0  0.50      -814.6047   2.0000                                                             
     2  1  1.50      -693.3689   6.0000                                                             
     3  0  0.50       -89.4732   2.0000                                                             
     3  1  1.50       -55.6373   6.0000                                                             
     3  2  2.50        -3.8151   7.0000                                                             
     4  0  0.50        -4.2551   1.0000                                                             
     4  1  1.50        -3.4015   0.0000                                                             
     4  3  2.50        -1.3606   0.0000                                                             
   Description                                                                                      
     l       E           TYP  RCUT    TYP  RCUT                                                     
     2     -3.8151135     23  2.300                                                                 
     2     -5.1756961     23  2.300                                                                 
     0     -4.2550963     23  2.300                                                                 
     0      7.2035603     23  2.300                                                                 
     1     -2.7211652     23  2.300                                                                 
     1     18.4316424     23  2.300                                                                 
  local pseudopotential read in
  partial core-charges read in
  partial kinetic energy density read in
  atomic valenz-charges read in
  non local Contribution for L=           2  read in
    real space projection operators read in
  non local Contribution for L=           2  read in
    real space projection operators read in
  non local Contribution for L=           0  read in
    real space projection operators read in
  non local Contribution for L=           0  read in
    real space projection operators read in
  non local Contribution for L=           1  read in
    real space projection operators read in
  non local Contribution for L=           1  read in
    real space projection operators read in
    PAW grid and wavefunctions read in
 
   number of l-projection  operators is LMAX  =           6
   number of lm-projection operators is LMMAX =          18
 
  PAW_PBE Fe 06Sep2000                  :
 energy of atom  1       EATOM= -594.3153
 kinetic energy error for atom=    0.0006 (will be added to EATOM!!)
 
 
 POSCAR: Fe2
  positions in direct lattice
  No initial velocities read in
 exchange correlation table for  LEXCH =        8
   RHO(1)=    0.500       N(1)  =     2000
   RHO(2)=  100.500       N(2)  =     4000
 


--------------------------------------------------------------------------------------------------------


 ion  position               nearest neighbor table
   1  0.000  0.000  0.000-   2 2.48   2 2.48   2 2.48   2 2.48   2 2.48   2 2.48   2 2.48   2 2.48

   2  0.500  0.500  0.500-   1 2.48   1 2.48   1 2.48   1 2.48   1 2.48   1 2.48   1 2.48   1 2.48

 
  LATTYP: Found a simple cubic cell.
 ALAT       =     2.8630354989
  
  Lattice vectors:
  
 A1 = (   2.8630354989,   0.0000000000,   0.0000000000)
 A2 = (   0.0000000000,   2.8630354989,   0.0000000000)
 A3 = (   0.0000000000,   0.0000000000,   2.8630354989)


Analysis of symmetry for initial positions (statically):
=====================================================================
 Subroutine PRICEL returns following result:
 
  LATTYP: Found a body centered cubic cell.
 ALAT       =     2.8630354989
  
  Lattice vectors:
  
 A1 = (   1.4315177495,   1.4315177495,  -1.4315177495)
 A2 = (  -1.4315177495,   1.4315177495,   1.4315177495)
 A3 = (   1.4315177495,  -1.4315177495,   1.4315177495)
 
   2 primitive cells build up your supercell.
 

 Routine SETGRP: Setting up the symmetry group for a 
 simple cubic supercell.


 Subroutine GETGRP returns: Found 48 space group operations
 (whereof 48 operations were pure point group operations)
 out of a pool of 48 trial point group operations.


The static configuration has the point symmetry O_h .


Analysis of symmetry for dynamics (positions and initial velocities):
=====================================================================
 Subroutine PRICEL returns following result:
 
  LATTYP: Found a body centered cubic cell.
 ALAT       =     2.8630354989
  
  Lattice vectors:
  
 A1 = (   1.4315177495,   1.4315177495,  -1.4315177495)
 A2 = (  -1.4315177495,   1.4315177495,   1.4315177495)
 A3 = (   1.4315177495,  -1.4315177495,   1.4315177495)
 
   2 primitive cells build up your supercell.
 

 Routine SETGRP: Setting up the symmetry group for a 
 simple cubic supercell.


 Subroutine GETGRP returns: Found 48 space group operations
 (whereof 48 operations were pure point group operations)
 out of a pool of 48 trial point group operations.


The dynamic configuration has the point symmetry O_h .


Analysis of structural, dynamic, and magnetic symmetry:
=====================================================================
 Subroutine PRICEL returns following result:
 
  LATTYP: Found a body centered cubic cell.
 ALAT       =     2.8630354989
  
  Lattice vectors:
  
 A1 = (   1.4315177495,   1.4315177495,  -1.4315177495)
 A2 = (  -1.4315177495,   1.4315177495,   1.4315177495)
 A3 = (   1.4315177495,  -1.4315177495,   1.4315177495)
 
   2 primitive cells build up your supercell.
 

 Routine SETGRP: Setting up the symmetry group for a 
 simple cubic supercell.


 Subroutine GETGRP returns: Found 48 space group operations
 (whereof 48 operations were pure point group operations)
 out of a pool of 48 trial point group operations.


The overall configuration has the point symmetry O_h .


 Subroutine INISYM returns: Found 48 space group operations
 (whereof 48 operations are pure point group operations),
 and found     2 'primitive' translations


----------------------------------------------------------------------------------------

                                     Primitive cell                                     

  volume of cell :      11.7341

  direct lattice vectors                    reciprocal lattice vectors
     1.431517749  1.431517749 -1.431517749     0.349279637  0.349279637  0.000000000
    -1.431517749  1.431517749  1.431517749     0.000000000  0.349279637  0.349279637
     1.431517749 -1.431517749  1.431517749     0.349279637 -0.000000000  0.349279637

  length of vectors
     2.479461474  2.479461474  2.479461474     0.493956000  0.493956000  0.493956000

  position of ions in fractional coordinates (direct lattice)
     0.000000000  0.000000000  0.000000000

  ion indices of the primitive-cell ions
   primitive index   ion index
                 1           1

----------------------------------------------------------------------------------------

 
 
 KPOINTS: Automatic                               

Automatic generation of k-mesh.
 Grid dimensions read from file:
 generate k-points for:   15   15   15

 Generating k-lattice:

  Cartesian coordinates                     Fractional coordinates (reciprocal lattice)
     0.023285309 -0.000000000  0.000000000     0.066666667  0.000000000  0.000000000
     0.000000000  0.023285309  0.000000000     0.000000000  0.066666667  0.000000000
    -0.000000000 -0.000000000  0.023285309     0.000000000  0.000000000  0.066666667

  Length of vectors
     0.023285309  0.023285309  0.023285309

  Shift w.r.t. Gamma in fractional coordinates (k-lattice)
     0.000000000  0.000000000  0.000000000

 
 Subroutine IBZKPT returns following result:
 ===========================================
 
 Found    120 irreducible k-points:
 
 Following reciprocal coordinates:
            Coordinates               Weight
  0.000000  0.000000  0.000000      1.000000
  0.066667  0.000000  0.000000      6.000000
  0.133333  0.000000  0.000000      6.000000
  0.200000 -0.000000  0.000000      6.000000
  0.266667  0.000000  0.000000      6.000000
  0.333333  0.000000  0.000000      6.000000
  0.400000  0.000000  0.000000      6.000000
  0.466667 -0.000000  0.000000      6.000000
  0.066667  0.066667  0.000000     12.000000
  0.133333  0.066667  0.000000     24.000000
  0.200000  0.066667  0.000000     24.000000
  0.266667  0.066667  0.000000     24.000000
  0.333333  0.066667  0.000000     24.000000
  0.400000  0.066667  0.000000     24.000000
  0.466667  0.066667  0.000000     24.000000
  0.133333  0.133333  0.000000     12.000000
  0.200000  0.133333  0.000000     24.000000
  0.266667  0.133333  0.000000     24.000000
  0.333333  0.133333  0.000000     24.000000
  0.400000  0.133333  0.000000     24.000000
  0.466667  0.133333  0.000000     24.000000
  0.200000  0.200000  0.000000     12.000000
  0.266667  0.200000  0.000000     24.000000
  0.333333  0.200000  0.000000     24.000000
  0.400000  0.200000  0.000000     24.000000
  0.466667  0.200000  0.000000     24.000000
  0.266667  0.266667  0.000000     12.000000
  0.333333  0.266667  0.000000     24.000000
  0.400000  0.266667  0.000000     24.000000
  0.466667  0.266667  0.000000     24.000000
  0.333333  0.333333  0.000000     12.000000
  0.400000  0.333333  0.000000     24.000000
  0.466667  0.333333  0.000000     24.000000
  0.400000  0.400000  0.000000     12.000000
  0.466667  0.400000  0.000000     24.000000
  0.466667  0.466667  0.000000     12.000000
  0.066667  0.066667  0.066667      8.000000
  0.133333  0.066667  0.066667     24.000000
  0.200000  0.066667  0.066667     24.000000
  0.266667  0.066667  0.066667     24.000000
  0.333333  0.066667  0.066667     24.000000
  0.400000  0.066667  0.066667     24.000000
  0.466667  0.066667  0.066667     24.000000
  0.133333  0.133333  0.066667     24.000000
  0.200000  0.133333  0.066667     48.000000
  0.266667  0.133333  0.066667     48.000000
  0.333333  0.133333  0.066667     48.000000
  0.400000  0.133333  0.066667     48.000000
  0.466667  0.133333  0.066667     48.000000
  0.200000  0.200000  0.066667     24.000000
  0.266667  0.200000  0.066667     48.000000
  0.333333  0.200000  0.066667     48.000000
  0.400000  0.200000  0.066667     48.000000
  0.466667  0.200000  0.066667     48.000000
  0.266667  0.266667  0.066667     24.000000
  0.333333  0.266667  0.066667     48.000000
  0.400000  0.266667  0.066667     48.000000
  0.466667  0.266667  0.066667     48.000000
  0.333333  0.333333  0.066667     24.000000
  0.400000  0.333333  0.066667     48.000000
  0.466667  0.333333  0.066667     48.000000
  0.400000  0.400000  0.066667     24.000000
  0.466667  0.400000  0.066667     48.000000
  0.466667  0.466667  0.066667     24.000000
  0.133333  0.133333  0.133333      8.000000
  0.200000  0.133333  0.133333     24.000000
  0.266667  0.133333  0.133333     24.000000
  0.333333  0.133333  0.133333     24.000000
  0.400000  0.133333  0.133333     24.000000
  0.466667  0.133333  0.133333     24.000000
  0.200000  0.200000  0.133333     24.000000
  0.266667  0.200000  0.133333     48.000000
  0.333333  0.200000  0.133333     48.000000
  0.400000  0.200000  0.133333     48.000000
  0.466667  0.200000  0.133333     48.000000
  0.266667  0.266667  0.133333     24.000000
  0.333333  0.266667  0.133333     48.000000
  0.400000  0.266667  0.133333     48.000000
  0.466667  0.266667  0.133333     48.000000
  0.333333  0.333333  0.133333     24.000000
  0.400000  0.333333  0.133333     48.000000
  0.466667  0.333333  0.133333     48.000000
  0.400000  0.400000  0.133333     24.000000
  0.466667  0.400000  0.133333     48.000000
  0.466667  0.466667  0.133333     24.000000
  0.200000  0.200000  0.200000      8.000000
  0.266667  0.200000  0.200000     24.000000
  0.333333  0.200000  0.200000     24.000000
  0.400000  0.200000  0.200000     24.000000
  0.466667  0.200000  0.200000     24.000000
  0.266667  0.266667  0.200000     24.000000
  0.333333  0.266667  0.200000     48.000000
  0.400000  0.266667  0.200000     48.000000
  0.466667  0.266667  0.200000     48.000000
  0.333333  0.333333  0.200000     24.000000
  0.400000  0.333333  0.200000     48.000000
  0.466667  0.333333  0.200000     48.000000
  0.400000  0.400000  0.200000     24.000000
  0.466667  0.400000  0.200000     48.000000
  0.466667  0.466667  0.200000     24.000000
  0.266667  0.266667  0.266667      8.000000
  0.333333  0.266667  0.266667     24.000000
  0.400000  0.266667  0.266667     24.000000
  0.466667  0.266667  0.266667     24.000000
  0.333333  0.333333  0.266667     24.000000
  0.400000  0.333333  0.266667     48.000000
  0.466667  0.333333  0.266667     48.000000
  0.400000  0.400000  0.266667     24.000000
  0.466667  0.400000  0.266667     48.000000
  0.466667  0.466667  0.266667     24.000000
  0.333333  0.333333  0.333333      8.000000
  0.400000  0.333333  0.333333     24.000000
  0.466667  0.333333  0.333333     24.000000
  0.400000  0.400000  0.333333     24.000000
  0.466667  0.400000  0.333333     48.000000
  0.466667  0.466667  0.333333     24.000000
  0.400000  0.400000  0.400000      8.000000
  0.466667  0.400000  0.400000     24.000000
  0.466667  0.466667  0.400000     24.000000
  0.466667  0.466667  0.466667      8.000000
 
 Following cartesian coordinates:
            Coordinates               Weight
  0.000000  0.000000  0.000000      1.000000
  0.023285 -0.000000  0.000000      6.000000
  0.046571 -0.000000  0.000000      6.000000
  0.069856 -0.000000  0.000000      6.000000
  0.093141 -0.000000  0.000000      6.000000
  0.116427 -0.000000  0.000000      6.000000
  0.139712 -0.000000  0.000000      6.000000
  0.162997 -0.000000  0.000000      6.000000
  0.023285  0.023285  0.000000     12.000000
  0.046571  0.023285  0.000000     24.000000
  0.069856  0.023285  0.000000     24.000000
  0.093141  0.023285  0.000000     24.000000
  0.116427  0.023285  0.000000     24.000000
  0.139712  0.023285  0.000000     24.000000
  0.162997  0.023285  0.000000     24.000000
  0.046571  0.046571  0.000000     12.000000
  0.069856  0.046571  0.000000     24.000000
  0.093141  0.046571  0.000000     24.000000
  0.116427  0.046571  0.000000     24.000000
  0.139712  0.046571  0.000000     24.000000
  0.162997  0.046571  0.000000     24.000000
  0.069856  0.069856  0.000000     12.000000
  0.093141  0.069856  0.000000     24.000000
  0.116427  0.069856  0.000000     24.000000
  0.139712  0.069856  0.000000     24.000000
  0.162997  0.069856  0.000000     24.000000
  0.093141  0.093141  0.000000     12.000000
  0.116427  0.093141  0.000000     24.000000
  0.139712  0.093141  0.000000     24.000000
  0.162997  0.093141  0.000000     24.000000
  0.116427  0.116427  0.000000     12.000000
  0.139712  0.116427  0.000000     24.000000
  0.162997  0.116427  0.000000     24.000000
  0.139712  0.139712  0.000000     12.000000
  0.162997  0.139712  0.000000     24.000000
  0.162997  0.162997  0.000000     12.000000
  0.023285  0.023285  0.023285      8.000000
  0.046571  0.023285  0.023285     24.000000
  0.069856  0.023285  0.023285     24.000000
  0.093141  0.023285  0.023285     24.000000
  0.116427  0.023285  0.023285     24.000000
  0.139712  0.023285  0.023285     24.000000
  0.162997  0.023285  0.023285     24.000000
  0.046571  0.046571  0.023285     24.000000
  0.069856  0.046571  0.023285     48.000000
  0.093141  0.046571  0.023285     48.000000
  0.116427  0.046571  0.023285     48.000000
  0.139712  0.046571  0.023285     48.000000
  0.162997  0.046571  0.023285     48.000000
  0.069856  0.069856  0.023285     24.000000
  0.093141  0.069856  0.023285     48.000000
  0.116427  0.069856  0.023285     48.000000
  0.139712  0.069856  0.023285     48.000000
  0.162997  0.069856  0.023285     48.000000
  0.093141  0.093141  0.023285     24.000000
  0.116427  0.093141  0.023285     48.000000
  0.139712  0.093141  0.023285     48.000000
  0.162997  0.093141  0.023285     48.000000
  0.116427  0.116427  0.023285     24.000000
  0.139712  0.116427  0.023285     48.000000
  0.162997  0.116427  0.023285     48.000000
  0.139712  0.139712  0.023285     24.000000
  0.162997  0.139712  0.023285     48.000000
  0.162997  0.162997  0.023285     24.000000
  0.046571  0.046571  0.046571      8.000000
  0.069856  0.046571  0.046571     24.000000
  0.093141  0.046571  0.046571     24.000000
  0.116427  0.046571  0.046571     24.000000
  0.139712  0.046571  0.046571     24.000000
  0.162997  0.046571  0.046571     24.000000
  0.069856  0.069856  0.046571     24.000000
  0.093141  0.069856  0.046571     48.000000
  0.116427  0.069856  0.046571     48.000000
  0.139712  0.069856  0.046571     48.000000
  0.162997  0.069856  0.046571     48.000000
  0.093141  0.093141  0.046571     24.000000
  0.116427  0.093141  0.046571     48.000000
  0.139712  0.093141  0.046571     48.000000
  0.162997  0.093141  0.046571     48.000000
  0.116427  0.116427  0.046571     24.000000
  0.139712  0.116427  0.046571     48.000000
  0.162997  0.116427  0.046571     48.000000
  0.139712  0.139712  0.046571     24.000000
  0.162997  0.139712  0.046571     48.000000
  0.162997  0.162997  0.046571     24.000000
  0.069856  0.069856  0.069856      8.000000
  0.093141  0.069856  0.069856     24.000000
  0.116427  0.069856  0.069856     24.000000
  0.139712  0.069856  0.069856     24.000000
  0.162997  0.069856  0.069856     24.000000
  0.093141  0.093141  0.069856     24.000000
  0.116427  0.093141  0.069856     48.000000
  0.139712  0.093141  0.069856     48.000000
  0.162997  0.093141  0.069856     48.000000
  0.116427  0.116427  0.069856     24.000000
  0.139712  0.116427  0.069856     48.000000
  0.162997  0.116427  0.069856     48.000000
  0.139712  0.139712  0.069856     24.000000
  0.162997  0.139712  0.069856     48.000000
  0.162997  0.162997  0.069856     24.000000
  0.093141  0.093141  0.093141      8.000000
  0.116427  0.093141  0.093141     24.000000
  0.139712  0.093141  0.093141     24.000000
  0.162997  0.093141  0.093141     24.000000
  0.116427  0.116427  0.093141     24.000000
  0.139712  0.116427  0.093141     48.000000
  0.162997  0.116427  0.093141     48.000000
  0.139712  0.139712  0.093141     24.000000
  0.162997  0.139712  0.093141     48.000000
  0.162997  0.162997  0.093141     24.000000
  0.116427  0.116427  0.116427      8.000000
  0.139712  0.116427  0.116427     24.000000
  0.162997  0.116427  0.116427     24.000000
  0.139712  0.139712  0.116427     24.000000
  0.162997  0.139712  0.116427     48.000000
  0.162997  0.162997  0.116427     24.000000
  0.139712  0.139712  0.139712      8.000000
  0.162997  0.139712  0.139712     24.000000
  0.162997  0.162997  0.139712     24.000000
  0.162997  0.162997  0.162997      8.000000
 


--------------------------------------------------------------------------------------------------------




 Dimension of arrays:
   k-points           NKPTS =    120   k-points in BZ     NKDIM =    120   number of bands    NBANDS=     20
   number of dos      NEDOS =    301   number of ions     NIONS =      2
   non local maximal  LDIM  =      6   non local SUM 2l+1 LMDIM =     18
   total plane-waves  NPLWV =  21952
   max r-space proj   IRMAX =      1   max aug-charges    IRDMAX= 266733
   dimension x,y,z NGX =    28 NGY =   28 NGZ =   28
   dimension x,y,z NGXF=    56 NGYF=   56 NGZF=   56
   support grid    NGXF=   112 NGYF=  112 NGZF=  112
   ions per type =               2
   NGX,Y,Z   is equivalent  to a cutoff of  16.26, 16.26, 16.26 a.u.
   NGXF,Y,Z  is equivalent  to a cutoff of  32.52, 32.52, 32.52 a.u.

 SYSTEM =  unknown system                          
 POSCAR =  Fe2                                     

 Startparameter for this run:
   NWRITE =      2    write-flag & timer
   PREC   = accura    normal or accurate (medium, high low for compatibility)
   ISTART =      0    job   : 0-new  1-cont  2-samecut
   ICHARG =      2    charge: 1-file 2-atom 10-const
   ISPIN  =      2    spin polarized calculation?
   LNONCOLLINEAR =      F non collinear calculations
   LSORBIT =      F    spin-orbit coupling
   INIWAV =      1    electr: 0-lowe 1-rand  2-diag
   LASPH  =      T    aspherical Exc in radial PAW
   METAGGA=      F    non-selfconsistent MetaGGA calc.

 Electronic Relaxation 1
   ENCUT  =  700.0 eV  51.45 Ry    7.17 a.u.   6.18  6.18  6.18*2*pi/ulx,y,z
   ENINI  =  700.0     initial cutoff
   ENAUG  =  511.4 eV  augmentation charge cutoff
   NELM   =     90;   NELMIN=  6; NELMDL= -5     # of ELM steps 
   EDIFF  = 0.1E-05   stopping-criterion for ELM
   LREAL  =      F    real-space projection
   NLSPLINE    = F    spline interpolate recip. space projectors
   LCOMPAT=      F    compatible to vasp.4.4
   GGA_COMPAT  = F    GGA compatible to vasp.4.4-vasp.4.6
   LMAXPAW     = -100 max onsite density
   LMAXMIX     =    4 max onsite mixed and CHGCAR
   VOSKOWN=      1    Vosko Wilk Nusair interpolation
   ROPT   =    0.00000
 Ionic relaxation
   EDIFFG = -.2E-02   stopping-criterion for IOM
   NSW    =    100    number of steps for IOM
   NBLOCK =      1;   KBLOCK =    100    inner block; outer block 
   IBRION =      2    ionic relax: 0-MD 1-quasi-New 2-CG
   NFREE  =      1    steps in history (QN), initial steepest desc. (CG)
   ISIF   =      3    stress and relaxation
   IWAVPR =     11    prediction:  0-non 1-charg 2-wave 3-comb
   ISYM   =      2    0-nonsym 1-usesym 2-fastsym
   LCORR  =      T    Harris-Foulkes like correction to forces

   POTIM  = 0.5000    time-step for ionic-motion
   TEIN   =    0.0    initial temperature
   TEBEG  =    0.0;   TEEND  =   0.0 temperature during run
   SMASS  =  -3.00    Nose mass-parameter (am)
   estimated Nose-frequenzy (Omega)   =  0.10E-29 period in steps = 0.13E+47 mass=  -0.187E-27a.u.
   SCALEE = 1.0000    scale energy and forces
   NPACO  =    256;   APACO  = 16.0  distance and # of slots for P.C.
   PSTRESS=    0.0 pullay stress

  Mass of Ions in am
   POMASS =  55.85
  Ionic Valenz
   ZVAL   =   8.00
  Atomic Wigner-Seitz radii
   RWIGS  =  -1.00
  virtual crystal weights 
   VCA    =   1.00
   NELECT =      16.0000    total number of electrons
   NUPDOWN=      -1.0000    fix difference up-down

 DOS related values:
   EMIN   =  10.00;   EMAX   =-10.00  energy-range for DOS
   EFERMI =   0.00
   ISMEAR =     1;   SIGMA  =   0.20  broadening in eV -4-tet -1-fermi 0-gaus

 Electronic relaxation 2 (details)
   IALGO  =     38    algorithm
   LDIAG  =      T    sub-space diagonalisation (order eigenvalues)
   LSUBROT=      F    optimize rotation matrix (better conditioning)
   TURBO    =      0    0=normal 1=particle mesh
   IRESTART =      0    0=no restart 2=restart with 2 vectors
   NREBOOT  =      0    no. of reboots
   NMIN     =      0    reboot dimension
   EREF     =   0.00    reference energy to select bands
   IMIX   =      4    mixing-type and parameters
     AMIX     =   0.40;   BMIX     =  1.00
     AMIX_MAG =   1.60;   BMIX_MAG =  1.00
     AMIN     =   0.10
     WC   =   100.;   INIMIX=   1;  MIXPRE=   1;  MAXMIX= -45

 Intra band minimization:
   WEIMIN = 0.0010     energy-eigenvalue tresh-hold
   EBREAK =  0.12E-07  absolut break condition
   DEPER  =   0.30     relativ break condition  

   TIME   =   0.40     timestep for ELM

  volume/ion in A,a.u.               =      11.73        79.19
  Fermi-wavevector in a.u.,A,eV,Ry     =   1.440859  2.722828 28.246703  2.076074
  Thomas-Fermi vector in A             =   2.559556
 
 Write flags
   LWAVE        =      T    write WAVECAR
   LDOWNSAMPLE  =      F    k-point downsampling of WAVECAR
   LCHARG       =      T    write CHGCAR
   LVTOT        =      F    write LOCPOT, total local potential
   LVHAR        =      F    write LOCPOT, Hartree potential only
   LELF         =      F    write electronic localiz. function (ELF)
   LORBIT       =     11    0 simple, 1 ext, 2 COOP (PROOUT), +10 PAW based schemes


 Dipole corrections
   LMONO  =      F    monopole corrections only (constant potential shift)
   LDIPOL =      F    correct potential (dipole corrections)
   IDIPOL =      0    1-x, 2-y, 3-z, 4-all directions 
   EPSILON=  1.0000000 bulk dielectric constant

 Exchange correlation treatment:
   GGA     =    --    GGA type
   LEXCH   =     8    internal setting for exchange type
   VOSKOWN=      1    Vosko Wilk Nusair interpolation
   LHFCALC =     F    Hartree Fock is set to
   LHFONE  =     F    Hartree Fock one center treatment
   AEXX    =    0.0000 exact exchange contribution

 Linear response parameters
   LEPSILON=     F    determine dielectric tensor
   LRPA    =     F    only Hartree local field effects (RPA)
   LNABLA  =     F    use nabla operator in PAW spheres
   LVEL    =     F    velocity operator in full k-point grid
   LINTERFAST=   F  fast interpolation
   KINTER  =     0    interpolate to denser k-point grid
   CSHIFT  =0.1000    complex shift for real part using Kramers Kronig
   OMEGAMAX=  -1.0    maximum frequency
   DEG_THRESHOLD= 0.2000000E-02 threshold for treating states as degnerate
   RTIME   =   -0.100 relaxation time in fs
  (WPLASMAI=    0.000 imaginary part of plasma frequency in eV, 0.658/RTIME)
   DFIELD  = 0.0000000 0.0000000 0.0000000 field for delta impulse in time
 
 Orbital magnetization related:
   ORBITALMAG=     F  switch on orbital magnetization
   LCHIMAG   =     F  perturbation theory with respect to B field
   DQ        =  0.001000  dq finite difference perturbation B field
   LLRAUG    =     F  two centre corrections for induced B field



--------------------------------------------------------------------------------------------------------


 conjugate gradient relaxation of ions
 charge density and potential will be updated during run
 spin polarized calculation
 Variant of blocked Davidson
 Davidson routine will perform the subspace rotation
 perform sub-space diagonalisation
    after iterative eigenvector-optimisation
 modified Broyden-mixing scheme, WC =      100.0
 initial mixing is a Kerker type mixing with AMIX =  0.4000 and BMIX =      1.0000
 Hartree-type preconditioning will be used
 using additional bands           12
 reciprocal scheme for non local part
 use partial core corrections
 calculate Harris-corrections to forces 
   (improved forces if not selfconsistent)
 use gradient corrections 
 use of overlap-Matrix (Vanderbilt PP)
 Methfessel and Paxton  Order N= 1 SIGMA  =   0.20


--------------------------------------------------------------------------------------------------------


  energy-cutoff  :      700.00
  volume of cell :       23.47
      direct lattice vectors                 reciprocal lattice vectors
     2.863035499  0.000000000  0.000000000     0.349279637 -0.000000000  0.000000000
     0.000000000  2.863035499  0.000000000     0.000000000  0.349279637  0.000000000
     0.000000000  0.000000000  2.863035499    -0.000000000 -0.000000000  0.349279637

  length of vectors
     2.863035499  2.863035499  2.863035499     0.349279637  0.349279637  0.349279637


 
 k-points in units of 2pi/SCALE and weight: Automatic                               
   0.00000000  0.00000000  0.00000000       0.000
   0.02328531 -0.00000000  0.00000000       0.002
   0.04657062 -0.00000000  0.00000000       0.002
   0.06985593 -0.00000000  0.00000000       0.002
   0.09314124 -0.00000000  0.00000000       0.002
   0.11642655 -0.00000000  0.00000000       0.002
   0.13971185 -0.00000000  0.00000000       0.002
   0.16299716 -0.00000000  0.00000000       0.002
   0.02328531  0.02328531  0.00000000       0.004
   0.04657062  0.02328531  0.00000000       0.007
   0.06985593  0.02328531  0.00000000       0.007
   0.09314124  0.02328531  0.00000000       0.007
   0.11642655  0.02328531  0.00000000       0.007
   0.13971185  0.02328531  0.00000000       0.007
   0.16299716  0.02328531  0.00000000       0.007
   0.04657062  0.04657062  0.00000000       0.004
   0.06985593  0.04657062  0.00000000       0.007
   0.09314124  0.04657062  0.00000000       0.007
   0.11642655  0.04657062  0.00000000       0.007
   0.13971185  0.04657062  0.00000000       0.007
   0.16299716  0.04657062  0.00000000       0.007
   0.06985593  0.06985593  0.00000000       0.004
   0.09314124  0.06985593  0.00000000       0.007
   0.11642655  0.06985593  0.00000000       0.007
   0.13971185  0.06985593  0.00000000       0.007
   0.16299716  0.06985593  0.00000000       0.007
   0.09314124  0.09314124  0.00000000       0.004
   0.11642655  0.09314124  0.00000000       0.007
   0.13971185  0.09314124  0.00000000       0.007
   0.16299716  0.09314124  0.00000000       0.007
   0.11642655  0.11642655  0.00000000       0.004
   0.13971185  0.11642655  0.00000000       0.007
   0.16299716  0.11642655  0.00000000       0.007
   0.13971185  0.13971185  0.00000000       0.004
   0.16299716  0.13971185  0.00000000       0.007
   0.16299716  0.16299716  0.00000000       0.004
   0.02328531  0.02328531  0.02328531       0.002
   0.04657062  0.02328531  0.02328531       0.007
   0.06985593  0.02328531  0.02328531       0.007
   0.09314124  0.02328531  0.02328531       0.007
   0.11642655  0.02328531  0.02328531       0.007
   0.13971185  0.02328531  0.02328531       0.007
   0.16299716  0.02328531  0.02328531       0.007
   0.04657062  0.04657062  0.02328531       0.007
   0.06985593  0.04657062  0.02328531       0.014
   0.09314124  0.04657062  0.02328531       0.014
   0.11642655  0.04657062  0.02328531       0.014
   0.13971185  0.04657062  0.02328531       0.014
   0.16299716  0.04657062  0.02328531       0.014
   0.06985593  0.06985593  0.02328531       0.007
   0.09314124  0.06985593  0.02328531       0.014
   0.11642655  0.06985593  0.02328531       0.014
   0.13971185  0.06985593  0.02328531       0.014
   0.16299716  0.06985593  0.02328531       0.014
   0.09314124  0.09314124  0.02328531       0.007
   0.11642655  0.09314124  0.02328531       0.014
   0.13971185  0.09314124  0.02328531       0.014
   0.16299716  0.09314124  0.02328531       0.014
   0.11642655  0.11642655  0.02328531       0.007
   0.13971185  0.11642655  0.02328531       0.014
   0.16299716  0.11642655  0.02328531       0.014
   0.13971185  0.13971185  0.02328531       0.007
   0.16299716  0.13971185  0.02328531       0.014
   0.16299716  0.16299716  0.02328531       0.007
   0.04657062  0.04657062  0.04657062       0.002
   0.06985593  0.04657062  0.04657062       0.007
   0.09314124  0.04657062  0.04657062       0.007
   0.11642655  0.04657062  0.04657062       0.007
   0.13971185  0.04657062  0.04657062       0.007
   0.16299716  0.04657062  0.04657062       0.007
   0.06985593  0.06985593  0.04657062       0.007
   0.09314124  0.06985593  0.04657062       0.014
   0.11642655  0.06985593  0.04657062       0.014
   0.13971185  0.06985593  0.04657062       0.014
   0.16299716  0.06985593  0.04657062       0.014
   0.09314124  0.09314124  0.04657062       0.007
   0.11642655  0.09314124  0.04657062       0.014
   0.13971185  0.09314124  0.04657062       0.014
   0.16299716  0.09314124  0.04657062       0.014
   0.11642655  0.11642655  0.04657062       0.007
   0.13971185  0.11642655  0.04657062       0.014
   0.16299716  0.11642655  0.04657062       0.014
   0.13971185  0.13971185  0.04657062       0.007
   0.16299716  0.13971185  0.04657062       0.014
   0.16299716  0.16299716  0.04657062       0.007
   0.06985593  0.06985593  0.06985593       0.002
   0.09314124  0.06985593  0.06985593       0.007
   0.11642655  0.06985593  0.06985593       0.007
   0.13971185  0.06985593  0.06985593       0.007
   0.16299716  0.06985593  0.06985593       0.007
   0.09314124  0.09314124  0.06985593       0.007
   0.11642655  0.09314124  0.06985593       0.014
   0.13971185  0.09314124  0.06985593       0.014
   0.16299716  0.09314124  0.06985593       0.014
   0.11642655  0.11642655  0.06985593       0.007
   0.13971185  0.11642655  0.06985593       0.014
   0.16299716  0.11642655  0.06985593       0.014
   0.13971185  0.13971185  0.06985593       0.007
   0.16299716  0.13971185  0.06985593       0.014
   0.16299716  0.16299716  0.06985593       0.007
   0.09314124  0.09314124  0.09314124       0.002
   0.11642655  0.09314124  0.09314124       0.007
   0.13971185  0.09314124  0.09314124       0.007
   0.16299716  0.09314124  0.09314124       0.007
   0.11642655  0.11642655  0.09314124       0.007
   0.13971185  0.11642655  0.09314124       0.014
   0.16299716  0.11642655  0.09314124       0.014
   0.13971185  0.13971185  0.09314124       0.007
   0.16299716  0.13971185  0.09314124       0.014
   0.16299716  0.16299716  0.09314124       0.007
   0.11642655  0.11642655  0.11642655       0.002
   0.13971185  0.11642655  0.11642655       0.007
   0.16299716  0.11642655  0.11642655       0.007
   0.13971185  0.13971185  0.11642655       0.007
   0.16299716  0.13971185  0.11642655       0.014
   0.16299716  0.16299716  0.11642655       0.007
   0.13971185  0.13971185  0.13971185       0.002
   0.16299716  0.13971185  0.13971185       0.007
   0.16299716  0.16299716  0.13971185       0.007
   0.16299716  0.16299716  0.16299716       0.002
 
 k-points in reciprocal lattice and weights: Automatic                               
   0.00000000  0.00000000  0.00000000       0.000
   0.06666667  0.00000000  0.00000000       0.002
   0.13333333  0.00000000  0.00000000       0.002
   0.20000000 -0.00000000  0.00000000       0.002
   0.26666667  0.00000000  0.00000000       0.002
   0.33333333  0.00000000  0.00000000       0.002
   0.40000000  0.00000000  0.00000000       0.002
   0.46666667 -0.00000000  0.00000000       0.002
   0.06666667  0.06666667  0.00000000       0.004
   0.13333333  0.06666667  0.00000000       0.007
   0.20000000  0.06666667  0.00000000       0.007
   0.26666667  0.06666667  0.00000000       0.007
   0.33333333  0.06666667  0.00000000       0.007
   0.40000000  0.06666667  0.00000000       0.007
   0.46666667  0.06666667  0.00000000       0.007
   0.13333333  0.13333333  0.00000000       0.004
   0.20000000  0.13333333  0.00000000       0.007
   0.26666667  0.13333333  0.00000000       0.007
   0.33333333  0.13333333  0.00000000       0.007
   0.40000000  0.13333333  0.00000000       0.007
   0.46666667  0.13333333  0.00000000       0.007
   0.20000000  0.20000000  0.00000000       0.004
   0.26666667  0.20000000  0.00000000       0.007
   0.33333333  0.20000000  0.00000000       0.007
   0.40000000  0.20000000  0.00000000       0.007
   0.46666667  0.20000000  0.00000000       0.007
   0.26666667  0.26666667  0.00000000       0.004
   0.33333333  0.26666667  0.00000000       0.007
   0.40000000  0.26666667  0.00000000       0.007
   0.46666667  0.26666667  0.00000000       0.007
   0.33333333  0.33333333  0.00000000       0.004
   0.40000000  0.33333333  0.00000000       0.007
   0.46666667  0.33333333  0.00000000       0.007
   0.40000000  0.40000000  0.00000000       0.004
   0.46666667  0.40000000  0.00000000       0.007
   0.46666667  0.46666667  0.00000000       0.004
   0.06666667  0.06666667  0.06666667       0.002
   0.13333333  0.06666667  0.06666667       0.007
   0.20000000  0.06666667  0.06666667       0.007
   0.26666667  0.06666667  0.06666667       0.007
   0.33333333  0.06666667  0.06666667       0.007
   0.40000000  0.06666667  0.06666667       0.007
   0.46666667  0.06666667  0.06666667       0.007
   0.13333333  0.13333333  0.06666667       0.007
   0.20000000  0.13333333  0.06666667       0.014
   0.26666667  0.13333333  0.06666667       0.014
   0.33333333  0.13333333  0.06666667       0.014
   0.40000000  0.13333333  0.06666667       0.014
   0.46666667  0.13333333  0.06666667       0.014
   0.20000000  0.20000000  0.06666667       0.007
   0.26666667  0.20000000  0.06666667       0.014
   0.33333333  0.20000000  0.06666667       0.014
   0.40000000  0.20000000  0.06666667       0.014
   0.46666667  0.20000000  0.06666667       0.014
   0.26666667  0.26666667  0.06666667       0.007
   0.33333333  0.26666667  0.06666667       0.014
   0.40000000  0.26666667  0.06666667       0.014
   0.46666667  0.26666667  0.06666667       0.014
   0.33333333  0.33333333  0.06666667       0.007
   0.40000000  0.33333333  0.06666667       0.014
   0.46666667  0.33333333  0.06666667       0.014
   0.40000000  0.40000000  0.06666667       0.007
   0.46666667  0.40000000  0.06666667       0.014
   0.46666667  0.46666667  0.06666667       0.007
   0.13333333  0.13333333  0.13333333       0.002
   0.20000000  0.13333333  0.13333333       0.007
   0.26666667  0.13333333  0.13333333       0.007
   0.33333333  0.13333333  0.13333333       0.007
   0.40000000  0.13333333  0.13333333       0.007
   0.46666667  0.13333333  0.13333333       0.007
   0.20000000  0.20000000  0.13333333       0.007
   0.26666667  0.20000000  0.13333333       0.014
   0.33333333  0.20000000  0.13333333       0.014
   0.40000000  0.20000000  0.13333333       0.014
   0.46666667  0.20000000  0.13333333       0.014
   0.26666667  0.26666667  0.13333333       0.007
   0.33333333  0.26666667  0.13333333       0.014
   0.40000000  0.26666667  0.13333333       0.014
   0.46666667  0.26666667  0.13333333       0.014
   0.33333333  0.33333333  0.13333333       0.007
   0.40000000  0.33333333  0.13333333       0.014
   0.46666667  0.33333333  0.13333333       0.014
   0.40000000  0.40000000  0.13333333       0.007
   0.46666667  0.40000000  0.13333333       0.014
   0.46666667  0.46666667  0.13333333       0.007
   0.20000000  0.20000000  0.20000000       0.002
   0.26666667  0.20000000  0.20000000       0.007
   0.33333333  0.20000000  0.20000000       0.007
   0.40000000  0.20000000  0.20000000       0.007
   0.46666667  0.20000000  0.20000000       0.007
   0.26666667  0.26666667  0.20000000       0.007
   0.33333333  0.26666667  0.20000000       0.014
   0.40000000  0.26666667  0.20000000       0.014
   0.46666667  0.26666667  0.20000000       0.014
   0.33333333  0.33333333  0.20000000       0.007
   0.40000000  0.33333333  0.20000000       0.014
   0.46666667  0.33333333  0.20000000       0.014
   0.40000000  0.40000000  0.20000000       0.007
   0.46666667  0.40000000  0.20000000       0.014
   0.46666667  0.46666667  0.20000000       0.007
   0.26666667  0.26666667  0.26666667       0.002
   0.33333333  0.26666667  0.26666667       0.007
   0.40000000  0.26666667  0.26666667       0.007
   0.46666667  0.26666667  0.26666667       0.007
   0.33333333  0.33333333  0.26666667       0.007
   0.40000000  0.33333333  0.26666667       0.014
   0.46666667  0.33333333  0.26666667       0.014
   0.40000000  0.40000000  0.26666667       0.007
   0.46666667  0.40000000  0.26666667       0.014
   0.46666667  0.46666667  0.26666667       0.007
   0.33333333  0.33333333  0.33333333       0.002
   0.40000000  0.33333333  0.33333333       0.007
   0.46666667  0.33333333  0.33333333       0.007
   0.40000000  0.40000000  0.33333333       0.007
   0.46666667  0.40000000  0.33333333       0.014
   0.46666667  0.46666667  0.33333333       0.007
   0.40000000  0.40000000  0.40000000       0.002
   0.46666667  0.40000000  0.40000000       0.007
   0.46666667  0.46666667  0.40000000       0.007
   0.46666667  0.46666667  0.46666667       0.002
 
 position of ions in fractional coordinates (direct lattice) 
   0.00000000  0.00000000  0.00000000
   0.50000000  0.50000000  0.50000000
 
 position of ions in cartesian coordinates  (Angst):
   0.00000000  0.00000000  0.00000000
   1.43151775  1.43151775  1.43151775
 


--------------------------------------------------------------------------------------------------------


 k-point   1 :   0.0000 0.0000 0.0000  plane waves:    1021
 k-point   2 :   0.0667 0.0000 0.0000  plane waves:     993
 k-point   3 :   0.1333 0.0000 0.0000  plane waves:     981
 k-point   4 :   0.2000-0.0000 0.0000  plane waves:     984
 k-point   5 :   0.2667 0.0000 0.0000  plane waves:     984
 k-point   6 :   0.3333 0.0000 0.0000  plane waves:     980
 k-point   7 :   0.4000 0.0000 0.0000  plane waves:     988
 k-point   8 :   0.4667-0.0000 0.0000  plane waves:     992
 k-point   9 :   0.0667 0.0667 0.0000  plane waves:     991
 k-point  10 :   0.1333 0.0667 0.0000  plane waves:     981
 k-point  11 :   0.2000 0.0667 0.0000  plane waves:     981
 k-point  12 :   0.2667 0.0667 0.0000  plane waves:     988
 k-point  13 :   0.3333 0.0667 0.0000  plane waves:     986
 k-point  14 :   0.4000 0.0667 0.0000  plane waves:     982
 k-point  15 :   0.4667 0.0667 0.0000  plane waves:     987
 k-point  16 :   0.1333 0.1333 0.0000  plane waves:     979
 k-point  17 :   0.2000 0.1333 0.0000  plane waves:     982
 k-point  18 :   0.2667 0.1333 0.0000  plane waves:     981
 k-point  19 :   0.3333 0.1333 0.0000  plane waves:     989
 k-point  20 :   0.4000 0.1333 0.0000  plane waves:     985
 k-point  21 :   0.4667 0.1333 0.0000  plane waves:     985
 k-point  22 :   0.2000 0.2000 0.0000  plane waves:     981
 k-point  23 :   0.2667 0.2000 0.0000  plane waves:     988
 k-point  24 :   0.3333 0.2000 0.0000  plane waves:     992
 k-point  25 :   0.4000 0.2000 0.0000  plane waves:     990
 k-point  26 :   0.4667 0.2000 0.0000  plane waves:     980
 k-point  27 :   0.2667 0.2667 0.0000  plane waves:     989
 k-point  28 :   0.3333 0.2667 0.0000  plane waves:     986
 k-point  29 :   0.4000 0.2667 0.0000  plane waves:     978
 k-point  30 :   0.4667 0.2667 0.0000  plane waves:     980
 k-point  31 :   0.3333 0.3333 0.0000  plane waves:     989
 k-point  32 :   0.4000 0.3333 0.0000  plane waves:     991
 k-point  33 :   0.4667 0.3333 0.0000  plane waves:     984
 k-point  34 :   0.4000 0.4000 0.0000  plane waves:     994
 k-point  35 :   0.4667 0.4000 0.0000  plane waves:     986
 k-point  36 :   0.4667 0.4667 0.0000  plane waves:     996
 k-point  37 :   0.0667 0.0667 0.0667  plane waves:     991
 k-point  38 :   0.1333 0.0667 0.0667  plane waves:     981
 k-point  39 :   0.2000 0.0667 0.0667  plane waves:     980
 k-point  40 :   0.2667 0.0667 0.0667  plane waves:     987
 k-point  41 :   0.3333 0.0667 0.0667  plane waves:     990
 k-point  42 :   0.4000 0.0667 0.0667  plane waves:     987
 k-point  43 :   0.4667 0.0667 0.0667  plane waves:     986
 k-point  44 :   0.1333 0.1333 0.0667  plane waves:     976
 k-point  45 :   0.2000 0.1333 0.0667  plane waves:     982
 k-point  46 :   0.2667 0.1333 0.0667  plane waves:     982
 k-point  47 :   0.3333 0.1333 0.0667  plane waves:     988
 k-point  48 :   0.4000 0.1333 0.0667  plane waves:     986
 k-point  49 :   0.4667 0.1333 0.0667  plane waves:     982
 k-point  50 :   0.2000 0.2000 0.0667  plane waves:     983
 k-point  51 :   0.2667 0.2000 0.0667  plane waves:     988
 k-point  52 :   0.3333 0.2000 0.0667  plane waves:     987
 k-point  53 :   0.4000 0.2000 0.0667  plane waves:     985
 k-point  54 :   0.4667 0.2000 0.0667  plane waves:     980
 k-point  55 :   0.2667 0.2667 0.0667  plane waves:     987
 k-point  56 :   0.3333 0.2667 0.0667  plane waves:     989
 k-point  57 :   0.4000 0.2667 0.0667  plane waves:     984
 k-point  58 :   0.4667 0.2667 0.0667  plane waves:     980
 k-point  59 :   0.3333 0.3333 0.0667  plane waves:     982
 k-point  60 :   0.4000 0.3333 0.0667  plane waves:     990
 k-point  61 :   0.4667 0.3333 0.0667  plane waves:     990
 k-point  62 :   0.4000 0.4000 0.0667  plane waves:     995
 k-point  63 :   0.4667 0.4000 0.0667  plane waves:     997
 k-point  64 :   0.4667 0.4667 0.0667  plane waves:     995
 k-point  65 :   0.1333 0.1333 0.1333  plane waves:     985
 k-point  66 :   0.2000 0.1333 0.1333  plane waves:     982
 k-point  67 :   0.2667 0.1333 0.1333  plane waves:     982
 k-point  68 :   0.3333 0.1333 0.1333  plane waves:     987
 k-point  69 :   0.4000 0.1333 0.1333  plane waves:     987
 k-point  70 :   0.4667 0.1333 0.1333  plane waves:     984
 k-point  71 :   0.2000 0.2000 0.1333  plane waves:     980
 k-point  72 :   0.2667 0.2000 0.1333  plane waves:     985
 k-point  73 :   0.3333 0.2000 0.1333  plane waves:     987
 k-point  74 :   0.4000 0.2000 0.1333  plane waves:     985
 k-point  75 :   0.4667 0.2000 0.1333  plane waves:     982
 k-point  76 :   0.2667 0.2667 0.1333  plane waves:     990
 k-point  77 :   0.3333 0.2667 0.1333  plane waves:     992
 k-point  78 :   0.4000 0.2667 0.1333  plane waves:     991
 k-point  79 :   0.4667 0.2667 0.1333  plane waves:     986
 k-point  80 :   0.3333 0.3333 0.1333  plane waves:     985
 k-point  81 :   0.4000 0.3333 0.1333  plane waves:     987
 k-point  82 :   0.4667 0.3333 0.1333  plane waves:     987
 k-point  83 :   0.4000 0.4000 0.1333  plane waves:     991
 k-point  84 :   0.4667 0.4000 0.1333  plane waves:     990
 k-point  85 :   0.4667 0.4667 0.1333  plane waves:     997
 k-point  86 :   0.2000 0.2000 0.2000  plane waves:     991
 k-point  87 :   0.2667 0.2000 0.2000  plane waves:     985
 k-point  88 :   0.3333 0.2000 0.2000  plane waves:     992
 k-point  89 :   0.4000 0.2000 0.2000  plane waves:     988
 k-point  90 :   0.4667 0.2000 0.2000  plane waves:     982
 k-point  91 :   0.2667 0.2667 0.2000  plane waves:     988
 k-point  92 :   0.3333 0.2667 0.2000  plane waves:     987
 k-point  93 :   0.4000 0.2667 0.2000  plane waves:     989
 k-point  94 :   0.4667 0.2667 0.2000  plane waves:     985
 k-point  95 :   0.3333 0.3333 0.2000  plane waves:     982
 k-point  96 :   0.4000 0.3333 0.2000  plane waves:     982
 k-point  97 :   0.4667 0.3333 0.2000  plane waves:     983
 k-point  98 :   0.4000 0.4000 0.2000  plane waves:     982
 k-point  99 :   0.4667 0.4000 0.2000  plane waves:     993
 k-point 100 :   0.4667 0.4667 0.2000  plane waves:    1001
 k-point 101 :   0.2667 0.2667 0.2667  plane waves:     985
 k-point 102 :   0.3333 0.2667 0.2667  plane waves:     988
 k-point 103 :   0.4000 0.2667 0.2667  plane waves:     984
 k-point 104 :   0.4667 0.2667 0.2667  plane waves:     980
 k-point 105 :   0.3333 0.3333 0.2667  plane waves:     988
 k-point 106 :   0.4000 0.3333 0.2667  plane waves:     987
 k-point 107 :   0.4667 0.3333 0.2667  plane waves:     987
 k-point 108 :   0.4000 0.4000 0.2667  plane waves:     991
 k-point 109 :   0.4667 0.4000 0.2667  plane waves:     992
 k-point 110 :   0.4667 0.4667 0.2667  plane waves:     995
 k-point 111 :   0.3333 0.3333 0.3333  plane waves:     997
 k-point 112 :   0.4000 0.3333 0.3333  plane waves:     994
 k-point 113 :   0.4667 0.3333 0.3333  plane waves:     990
 k-point 114 :   0.4000 0.4000 0.3333  plane waves:     989
 k-point 115 :   0.4667 0.4000 0.3333  plane waves:     989
 k-point 116 :   0.4667 0.4667 0.3333  plane waves:     997
 k-point 117 :   0.4000 0.4000 0.4000  plane waves:     991
 k-point 118 :   0.4667 0.4000 0.4000  plane waves:     993
 k-point 119 :   0.4667 0.4667 0.4000  plane waves:     994
 k-point 120 :   0.4667 0.4667 0.4667  plane waves:     980

 maximum and minimum number of plane-waves per node :      1021      976

 maximum number of plane-waves:      1021
 maximum index in each direction: 
   IXMAX=    6   IYMAX=    6   IZMAX=    6
   IXMIN=   -6   IYMIN=   -6   IZMIN=   -6


 serial   3D FFT for wavefunctions
 parallel 3D FFT for charge:
    minimum data exchange during FFTs selected (reduces bandwidth)


 total amount of memory used by VASP MPI-rank0    79782. kBytes
=======================================================================

   base      :      30000. kBytes
   nonl-proj :      17727. kBytes
   fftplans  :       6611. kBytes
   grid      :       5030. kBytes
   one-center:         62. kBytes
   wavefun   :      20352. kBytes
 
     INWAV:  cpu time    0.0000: real time    0.0007
 Broyden mixing: mesh for mixing (old mesh)
   NGX = 13   NGY = 13   NGZ = 13
  (NGX  = 56   NGY  = 56   NGZ  = 56)
  gives a total of   2197 points

 initial charge density was supplied:
 charge density of overlapping atoms calculated
 number of electron      16.0000000 magnetization      10.0000000
 keeping initial charge density in first step


--------------------------------------------------------------------------------------------------------


 Maximum index for augmentation-charges        64763 (set IRDMAX)


--------------------------------------------------------------------------------------------------------


 First call to EWALD:  gamma=   0.619
 Maximum number of real-space cells 3x 3x 3
 Maximum number of reciprocal cells 3x 3x 3

    FEWALD:  cpu time    0.0030: real time    0.0035


--------------------------------------- Iteration      1(   1)  ---------------------------------------


    POTLOK:  cpu time    0.1260: real time    0.1291
    SETDIJ:  cpu time    1.7307: real time    1.7315
     EDDAV:  cpu time    8.5277: real time    8.5352
       DOS:  cpu time    0.0090: real time    0.0101
    --------------------------------------------
      LOOP:  cpu time   10.3944: real time   10.4062

 eigenvalue-minimisations  : 10320
 total energy-change (2. order) : 0.9431015E+02  (-0.9552162E+03)
 number of electron      16.0000000 magnetization      10.0000000
 augmentation part       16.0000000 magnetization      10.0000000

 Free energy of the ion-electron system (eV)
  ---------------------------------------------------
  alpha Z        PSCENC =       117.79976220
  Ewald energy   TEWEN  =     -1171.43779597
  -Hartree energ DENC   =      -228.04061712
  -exchange      EXHF   =         0.00000000
  -V(xc)+E(xc)   XCENC  =        14.27161586
  PAW double counting   =      1103.49540010    -1119.11610375
  entropy T*S    EENTRO =         0.00259135
  eigenvalues    EBANDS =       188.70585525
  atomic energy  EATOM  =      1188.62944521
  Solvation  Ediel_sol  =         0.00000000
  ---------------------------------------------------
  free energy    TOTEN  =        94.31015313 eV

  energy without entropy =       94.30756178  energy(sigma->0) =       94.30928935


--------------------------------------------------------------------------------------------------------




--------------------------------------- Iteration      1(   2)  ---------------------------------------


     EDDAV:  cpu time    8.0978: real time    8.1215
       DOS:  cpu time    0.0110: real time    0.0105
    --------------------------------------------
      LOOP:  cpu time    8.1078: real time    8.1320

 eigenvalue-minimisations  :  9652
 total energy-change (2. order) :-0.1053000E+03  (-0.9426459E+02)
 number of electron      16.0000000 magnetization      10.0000000
 augmentation part       16.0000000 magnetization      10.0000000

 Free energy of the ion-electron system (eV)
  ---------------------------------------------------
  alpha Z        PSCENC =       117.79976220
  Ewald energy   TEWEN  =     -1171.43779597
  -Hartree energ DENC   =      -228.04061712
  -exchange      EXHF   =         0.00000000
  -V(xc)+E(xc)   XCENC  =        14.27161586
  PAW double counting   =      1103.49540010    -1119.11610375
  entropy T*S    EENTRO =        -0.00072837
  eigenvalues    EBANDS =        83.40915498
  atomic energy  EATOM  =      1188.62944521
  Solvation  Ediel_sol  =         0.00000000
  ---------------------------------------------------
  free energy    TOTEN  =       -10.98986686 eV

  energy without entropy =      -10.98913849  energy(sigma->0) =      -10.98962407


--------------------------------------------------------------------------------------------------------




--------------------------------------- Iteration      1(   3)  ---------------------------------------


     EDDAV:  cpu time    8.7527: real time    8.7780
       DOS:  cpu time    0.0110: real time    0.0107
    --------------------------------------------
      LOOP:  cpu time    8.7637: real time    8.7887

 eigenvalue-minimisations  : 10776
 total energy-change (2. order) :-0.5049487E+01  (-0.4835364E+01)
 number of electron      16.0000000 magnetization      10.0000000
 augmentation part       16.0000000 magnetization      10.0000000

 Free energy of the ion-electron system (eV)
  ---------------------------------------------------
  alpha Z        PSCENC =       117.79976220
  Ewald energy   TEWEN  =     -1171.43779597
  -Hartree energ DENC   =      -228.04061712
  -exchange      EXHF   =         0.00000000
  -V(xc)+E(xc)   XCENC  =        14.27161586
  PAW double counting   =      1103.49540010    -1119.11610375
  entropy T*S    EENTRO =         0.00134639
  eigenvalues    EBANDS =        78.35759369
  atomic energy  EATOM  =      1188.62944521
  Solvation  Ediel_sol  =         0.00000000
  ---------------------------------------------------
  free energy    TOTEN  =       -16.03935339 eV

  energy without entropy =      -16.04069978  energy(sigma->0) =      -16.03980218


--------------------------------------------------------------------------------------------------------




--------------------------------------- Iteration      1(   4)  ---------------------------------------


     EDDAV:  cpu time    8.6377: real time    8.6613
       DOS:  cpu time    0.0110: real time    0.0112
    --------------------------------------------
      LOOP:  cpu time    8.6487: real time    8.6725

 eigenvalue-minimisations  : 10556
 total energy-change (2. order) :-0.4644000E-01  (-0.4641500E-01)
 number of electron      16.0000000 magnetization      10.0000000
 augmentation part       16.0000000 magnetization      10.0000000

 Free energy of the ion-electron system (eV)
  ---------------------------------------------------
  alpha Z        PSCENC =       117.79976220
  Ewald energy   TEWEN  =     -1171.43779597
  -Hartree energ DENC   =      -228.04061712
  -exchange      EXHF   =         0.00000000
  -V(xc)+E(xc)   XCENC  =        14.27161586
  PAW double counting   =      1103.49540010    -1119.11610375
  entropy T*S    EENTRO =         0.00134811
  eigenvalues    EBANDS =        78.31115197
  atomic energy  EATOM  =      1188.62944521
  Solvation  Ediel_sol  =         0.00000000
  ---------------------------------------------------
  free energy    TOTEN  =       -16.08579339 eV

  energy without entropy =      -16.08714150  energy(sigma->0) =      -16.08624276


--------------------------------------------------------------------------------------------------------




--------------------------------------- Iteration      1(   5)  ---------------------------------------


     EDDAV:  cpu time    8.7227: real time    8.7481
       DOS:  cpu time    0.0110: real time    0.0111
    CHARGE:  cpu time    0.7949: real time    0.7961
    MIXING:  cpu time    0.0030: real time    0.0025
    --------------------------------------------
      LOOP:  cpu time    9.5326: real time    9.5578

 eigenvalue-minimisations  : 10748
 total energy-change (2. order) :-0.4882927E-03  (-0.4882852E-03)
 number of electron      16.0000000 magnetization       4.3730716
 augmentation part        7.3740647 magnetization       2.7046410

 Broyden mixing:
  rms(total) = 0.19636E+01    rms(broyden)= 0.19636E+01
  rms(prec ) = 0.35436E+01
  weight for this iteration     100.00

 Free energy of the ion-electron system (eV)
  ---------------------------------------------------
  alpha Z        PSCENC =       117.79976220
  Ewald energy   TEWEN  =     -1171.43779597
  -Hartree energ DENC   =      -228.04061712
  -exchange      EXHF   =         0.00000000
  -V(xc)+E(xc)   XCENC  =        14.27161586
  PAW double counting   =      1103.49540010    -1119.11610375
  entropy T*S    EENTRO =         0.00134828
  eigenvalues    EBANDS =        78.31066350
  atomic energy  EATOM  =      1188.62944521
  Solvation  Ediel_sol  =         0.00000000
  ---------------------------------------------------
  free energy    TOTEN  =       -16.08628168 eV

  energy without entropy =      -16.08762996  energy(sigma->0) =      -16.08673111


--------------------------------------------------------------------------------------------------------




--------------------------------------- Iteration      1(   6)  ---------------------------------------


    POTLOK:  cpu time    0.1270: real time    0.1420
    SETDIJ:  cpu time    1.7177: real time    1.7194
     EDDAV:  cpu time    8.6837: real time    8.6915
       DOS:  cpu time    0.0110: real time    0.0115
    CHARGE:  cpu time    0.7349: real time    0.7352
    MIXING:  cpu time    0.0030: real time    0.0031
    --------------------------------------------
      LOOP:  cpu time   11.2763: real time   11.3027

 eigenvalue-minimisations  : 10636
 total energy-change (2. order) :-0.4750301E+00  (-0.5201065E+00)
 number of electron      16.0000000 magnetization       4.6258611
 augmentation part        8.4932679 magnetization       3.7958530

 Broyden mixing:
  rms(total) = 0.61747E+00    rms(broyden)= 0.61747E+00
  rms(prec ) = 0.69830E+00
  weight for this iteration     100.00

 eigenvalues of (default mixing * dielectric matrix)
  average eigenvalue GAMMA=   0.8756
  0.8756

 Free energy of the ion-electron system (eV)
  ---------------------------------------------------
  alpha Z        PSCENC =       117.79976220
  Ewald energy   TEWEN  =     -1171.43779597
  -Hartree energ DENC   =      -196.89912053
  -exchange      EXHF   =         0.00000000
  -V(xc)+E(xc)   XCENC  =         8.22677831
  PAW double counting   =      1215.91851460    -1228.09356179
  entropy T*S    EENTRO =        -0.00025850
  eigenvalues    EBANDS =        49.29492475
  atomic energy  EATOM  =      1188.62944521
  Solvation  Ediel_sol  =         0.00000000
  ---------------------------------------------------
  free energy    TOTEN  =       -16.56131173 eV

  energy without entropy =      -16.56105323  energy(sigma->0) =      -16.56122556


--------------------------------------------------------------------------------------------------------




--------------------------------------- Iteration      1(   7)  ---------------------------------------


    POTLOK:  cpu time    0.1300: real time    0.1432
    SETDIJ:  cpu time    1.7237: real time    1.7240
     EDDAV:  cpu time    9.1526: real time    9.1608
       DOS:  cpu time    0.0100: real time    0.0118
    CHARGE:  cpu time    0.7379: real time    0.7391
    MIXING:  cpu time    0.0030: real time    0.0030
    --------------------------------------------
      LOOP:  cpu time   11.7582: real time   11.7818

 eigenvalue-minimisations  : 11440
 total energy-change (2. order) : 0.6354615E-01  (-0.3889059E-01)
 number of electron      16.0000000 magnetization       4.4926351
 augmentation part        8.2510976 magnetization       3.7102416

 Broyden mixing:
  rms(total) = 0.44315E+00    rms(broyden)= 0.44315E+00
  rms(prec ) = 0.52702E+00
  weight for this iteration     100.00

 eigenvalues of (default mixing * dielectric matrix)
  average eigenvalue GAMMA=   0.7723
  1.0302  0.5144

 Free energy of the ion-electron system (eV)
  ---------------------------------------------------
  alpha Z        PSCENC =       117.79976220
  Ewald energy   TEWEN  =     -1171.43779597
  -Hartree energ DENC   =      -199.54694627
  -exchange      EXHF   =         0.00000000
  -V(xc)+E(xc)   XCENC  =         8.86364606
  PAW double counting   =      1292.68667130    -1307.91511757
  entropy T*S    EENTRO =        -0.00220097
  eigenvalues    EBANDS =        54.42477042
  atomic energy  EATOM  =      1188.62944521
  Solvation  Ediel_sol  =         0.00000000
  ---------------------------------------------------
  free energy    TOTEN  =       -16.49776558 eV

  energy without entropy =      -16.49556461  energy(sigma->0) =      -16.49703192


--------------------------------------------------------------------------------------------------------




--------------------------------------- Iteration      1(   8)  ---------------------------------------


    POTLOK:  cpu time    0.1280: real time    0.1422
    SETDIJ:  cpu time    1.7217: real time    1.7232
     EDDAV:  cpu time    9.9995: real time   10.0103
       DOS:  cpu time    0.0100: real time    0.0111
    CHARGE:  cpu time    0.7399: real time    0.7396
    MIXING:  cpu time    0.0020: real time    0.0031
    --------------------------------------------
      LOOP:  cpu time   12.6011: real time   12.6294

 eigenvalue-minimisations  : 12728
 total energy-change (2. order) : 0.1753975E-01  (-0.1009796E-02)
 number of electron      16.0000000 magnetization       4.4151280
 augmentation part        8.2797317 magnetization       3.6336783

 Broyden mixing:
  rms(total) = 0.16019E+00    rms(broyden)= 0.16019E+00
  rms(prec ) = 0.23121E+00
  weight for this iteration     100.00

 eigenvalues of (default mixing * dielectric matrix)
  average eigenvalue GAMMA=   1.1044
  1.8639  0.8747  0.5747

 Free energy of the ion-electron system (eV)
  ---------------------------------------------------
  alpha Z        PSCENC =       117.79976220
  Ewald energy   TEWEN  =     -1171.43779597
  -Hartree energ DENC   =      -197.79013522
  -exchange      EXHF   =         0.00000000
  -V(xc)+E(xc)   XCENC  =         8.62755107
  PAW double counting   =      1330.86828718    -1346.91635693
  entropy T*S    EENTRO =        -0.00250604
  eigenvalues    EBANDS =        53.74152267
  atomic energy  EATOM  =      1188.62944521
  Solvation  Ediel_sol  =         0.00000000
  ---------------------------------------------------
  free energy    TOTEN  =       -16.48022583 eV

  energy without entropy =      -16.47771979  energy(sigma->0) =      -16.47939048


--------------------------------------------------------------------------------------------------------




--------------------------------------- Iteration      1(   9)  ---------------------------------------


    POTLOK:  cpu time    0.1270: real time    0.1440
    SETDIJ:  cpu time    1.7247: real time    1.7251
     EDDAV:  cpu time   10.9363: real time   10.9460
       DOS:  cpu time    0.0110: real time    0.0117
    CHARGE:  cpu time    0.7379: real time    0.7390
    MIXING:  cpu time    0.0030: real time    0.0031
    --------------------------------------------
      LOOP:  cpu time   13.5389: real time   13.5688

 eigenvalue-minimisations  : 14288
 total energy-change (2. order) : 0.1188966E-01  (-0.3111096E-03)
 number of electron      16.0000000 magnetization       4.4603446
 augmentation part        8.3210776 magnetization       3.6774713

 Broyden mixing:
  rms(total) = 0.42869E-01    rms(broyden)= 0.42869E-01
  rms(prec ) = 0.50571E-01
  weight for this iteration     100.00

 eigenvalues of (default mixing * dielectric matrix)
  average eigenvalue GAMMA=   1.1880
  2.3365  1.0624  0.6765  0.6765

 Free energy of the ion-electron system (eV)
  ---------------------------------------------------
  alpha Z        PSCENC =       117.79976220
  Ewald energy   TEWEN  =     -1171.43779597
  -Hartree energ DENC   =      -195.34275997
  -exchange      EXHF   =         0.00000000
  -V(xc)+E(xc)   XCENC  =         8.47559013
  PAW double counting   =      1391.17320725    -1408.58550074
  entropy T*S    EENTRO =        -0.00286334
  eigenvalues    EBANDS =        52.82257905
  atomic energy  EATOM  =      1188.62944521
  Solvation  Ediel_sol  =         0.00000000
  ---------------------------------------------------
  free energy    TOTEN  =       -16.46833617 eV

  energy without entropy =      -16.46547283  energy(sigma->0) =      -16.46738172


--------------------------------------------------------------------------------------------------------




--------------------------------------- Iteration      1(  10)  ---------------------------------------


    POTLOK:  cpu time    0.1270: real time    0.1427
    SETDIJ:  cpu time    1.7227: real time    1.7233
     EDDAV:  cpu time    9.2676: real time    9.2767
       DOS:  cpu time    0.0110: real time    0.0117
    CHARGE:  cpu time    0.7379: real time    0.7383
    MIXING:  cpu time    0.0030: real time    0.0028
    --------------------------------------------
      LOOP:  cpu time   11.8692: real time   11.8956

 eigenvalue-minimisations  : 11592
 total energy-change (2. order) : 0.4906231E-03  (-0.1824854E-03)
 number of electron      16.0000000 magnetization       4.4729996
 augmentation part        8.3073963 magnetization       3.6840917

 Broyden mixing:
  rms(total) = 0.64988E-02    rms(broyden)= 0.64988E-02
  rms(prec ) = 0.88329E-02
  weight for this iteration     100.00

 eigenvalues of (default mixing * dielectric matrix)
  average eigenvalue GAMMA=   1.1429
  2.4055  1.1309  0.6347  0.7717  0.7717

 Free energy of the ion-electron system (eV)
  ---------------------------------------------------
  alpha Z        PSCENC =       117.79976220
  Ewald energy   TEWEN  =     -1171.43779597
  -Hartree energ DENC   =      -195.21381513
  -exchange      EXHF   =         0.00000000
  -V(xc)+E(xc)   XCENC  =         8.51480568
  PAW double counting   =      1409.14123696    -1427.04899550
  entropy T*S    EENTRO =        -0.00277627
  eigenvalues    EBANDS =        53.15028727
  atomic energy  EATOM  =      1188.62944521
  Solvation  Ediel_sol  =         0.00000000
  ---------------------------------------------------
  free energy    TOTEN  =       -16.46784554 eV

  energy without entropy =      -16.46506928  energy(sigma->0) =      -16.46692012


--------------------------------------------------------------------------------------------------------




--------------------------------------- Iteration      1(  11)  ---------------------------------------


    POTLOK:  cpu time    0.1260: real time    0.1423
    SETDIJ:  cpu time    1.7267: real time    1.7269
     EDDAV:  cpu time    9.3956: real time    9.4042
       DOS:  cpu time    0.0110: real time    0.0118
    CHARGE:  cpu time    0.7369: real time    0.7376
    MIXING:  cpu time    0.0030: real time    0.0033
    --------------------------------------------
      LOOP:  cpu time   12.0002: real time   12.0260

 eigenvalue-minimisations  : 11776
 total energy-change (2. order) :-0.2805461E-04  (-0.6937355E-05)
 number of electron      16.0000000 magnetization       4.4706723
 augmentation part        8.3090530 magnetization       3.6818908

 Broyden mixing:
  rms(total) = 0.46253E-02    rms(broyden)= 0.46253E-02
  rms(prec ) = 0.50399E-02
  weight for this iteration     100.00

 eigenvalues of (default mixing * dielectric matrix)
  average eigenvalue GAMMA=   1.1196
  2.3966  1.2795  1.0137  0.6993  0.6993  0.6290

 Free energy of the ion-electron system (eV)
  ---------------------------------------------------
  alpha Z        PSCENC =       117.79976220
  Ewald energy   TEWEN  =     -1171.43779597
  -Hartree energ DENC   =      -195.17043914
  -exchange      EXHF   =         0.00000000
  -V(xc)+E(xc)   XCENC  =         8.52848467
  PAW double counting   =      1411.13523341    -1429.06122662
  entropy T*S    EENTRO =        -0.00277648
  eigenvalues    EBANDS =        53.11143912
  atomic energy  EATOM  =      1188.62944521
  Solvation  Ediel_sol  =         0.00000000
  ---------------------------------------------------
  free energy    TOTEN  =       -16.46787360 eV

  energy without entropy =      -16.46509712  energy(sigma->0) =      -16.46694810


--------------------------------------------------------------------------------------------------------




--------------------------------------- Iteration      1(  12)  ---------------------------------------


    POTLOK:  cpu time    0.1270: real time    0.1418
    SETDIJ:  cpu time    1.7247: real time    1.7252
     EDDAV:  cpu time    8.2527: real time    8.2611
       DOS:  cpu time    0.0120: real time    0.0115
    CHARGE:  cpu time    0.7359: real time    0.7373
    MIXING:  cpu time    0.0030: real time    0.0032
    --------------------------------------------
      LOOP:  cpu time   10.8553: real time   10.8801

 eigenvalue-minimisations  :  9828
 total energy-change (2. order) : 0.9877914E-05  (-0.2637851E-06)
 number of electron      16.0000000 magnetization       4.4695105
 augmentation part        8.3092983 magnetization       3.6807920

 Broyden mixing:
  rms(total) = 0.18174E-02    rms(broyden)= 0.18174E-02
  rms(prec ) = 0.22175E-02
  weight for this iteration     100.00

 eigenvalues of (default mixing * dielectric matrix)
  average eigenvalue GAMMA=   1.2421
  2.4433  2.3015  1.0945  0.8464  0.6689  0.6689  0.6712

 Free energy of the ion-electron system (eV)
  ---------------------------------------------------
  alpha Z        PSCENC =       117.79976220
  Ewald energy   TEWEN  =     -1171.43779597
  -Hartree energ DENC   =      -195.18077242
  -exchange      EXHF   =         0.00000000
  -V(xc)+E(xc)   XCENC  =         8.52655548
  PAW double counting   =      1411.35217350    -1429.25861679
  entropy T*S    EENTRO =        -0.00277153
  eigenvalues    EBANDS =        53.10415660
  atomic energy  EATOM  =      1188.62944521
  Solvation  Ediel_sol  =         0.00000000
  ---------------------------------------------------
  free energy    TOTEN  =       -16.46786372 eV

  energy without entropy =      -16.46509219  energy(sigma->0) =      -16.46693988


--------------------------------------------------------------------------------------------------------




--------------------------------------- Iteration      1(  13)  ---------------------------------------


    POTLOK:  cpu time    0.1270: real time    0.1427
    SETDIJ:  cpu time    1.7237: real time    1.7251
     EDDAV:  cpu time    7.1579: real time    7.1643
       DOS:  cpu time    0.0110: real time    0.0117
    CHARGE:  cpu time    0.7379: real time    0.7376
    MIXING:  cpu time    0.0030: real time    0.0034
    --------------------------------------------
      LOOP:  cpu time    9.7595: real time    9.7847

 eigenvalue-minimisations  :  7892
 total energy-change (2. order) :-0.1384379E-05  (-0.1141083E-06)
 number of electron      16.0000000 magnetization       4.4688032
 augmentation part        8.3095630 magnetization       3.6801139

 Broyden mixing:
  rms(total) = 0.10044E-02    rms(broyden)= 0.10044E-02
  rms(prec ) = 0.11851E-02
  weight for this iteration     100.00

 eigenvalues of (default mixing * dielectric matrix)
  average eigenvalue GAMMA=   1.2418
  2.6443  2.3657  1.1659  1.0676  0.7838  0.6657  0.6657  0.5762

 Free energy of the ion-electron system (eV)
  ---------------------------------------------------
  alpha Z        PSCENC =       117.79976220
  Ewald energy   TEWEN  =     -1171.43779597
  -Hartree energ DENC   =      -195.18619297
  -exchange      EXHF   =         0.00000000
  -V(xc)+E(xc)   XCENC  =         8.52687412
  PAW double counting   =      1411.99512126    -1429.89007516
  entropy T*S    EENTRO =        -0.00277478
  eigenvalues    EBANDS =        53.09777097
  atomic energy  EATOM  =      1188.62944521
  Solvation  Ediel_sol  =         0.00000000
  ---------------------------------------------------
  free energy    TOTEN  =       -16.46786510 eV

  energy without entropy =      -16.46509033  energy(sigma->0) =      -16.46694018


--------------------------------------------------------------------------------------------------------




--------------------------------------- Iteration      1(  14)  ---------------------------------------


    POTLOK:  cpu time    0.1260: real time    0.1419
    SETDIJ:  cpu time    1.7257: real time    1.7264
     EDDAV:  cpu time    5.7061: real time    5.7115
       DOS:  cpu time    0.0120: real time    0.0117
    --------------------------------------------
      LOOP:  cpu time    7.5698: real time    7.5915

 eigenvalue-minimisations  :  5296
 total energy-change (2. order) : 0.7117117E-06  (-0.2819318E-07)
 number of electron      16.0000000 magnetization       4.4688032
 augmentation part        8.3095630 magnetization       3.6801139

 Free energy of the ion-electron system (eV)
  ---------------------------------------------------
  alpha Z        PSCENC =       117.79976220
  Ewald energy   TEWEN  =     -1171.43779597
  -Hartree energ DENC   =      -195.19046529
  -exchange      EXHF   =         0.00000000
  -V(xc)+E(xc)   XCENC  =         8.52571899
  PAW double counting   =      1411.99315399    -1429.88714266
  entropy T*S    EENTRO =        -0.00277531
  eigenvalues    EBANDS =        53.10223446
  atomic energy  EATOM  =      1188.62944521
  Solvation  Ediel_sol  =         0.00000000
  ---------------------------------------------------
  free energy    TOTEN  =       -16.46786439 eV

  energy without entropy =      -16.46508908  energy(sigma->0) =      -16.46693929


--------------------------------------------------------------------------------------------------------




 average (electrostatic) potential at core
  the test charge radii are     1.0103
  (the norm of the test charge is              1.0000)
       1 -43.6104       2 -43.6104
 
 
 
 E-fermi :   5.4697     XC(G=0): -12.9331     alpha+bet :-13.2097

 Fermi energy:         5.4697112696

 spin component 1

 k-point     1 :       0.0000    0.0000    0.0000
  band No.  band energies     occupation 
      1      -2.7433      1.00000
      2       0.8345      1.00000
      3       0.8345      1.00000
      4       3.2498      1.00000
      5       3.2498      1.00000
      6       3.2498      1.00000
      7       4.3997      1.00000
      8       4.3997      1.00000
      9       5.5522      0.18171
     10       5.5522      0.18171
     11       5.5522      0.18171
     12      15.2086      0.00000
     13      15.2086      0.00000
     14      15.2086      0.00000
     15      20.8149      0.00000
     16      20.8149      0.00000
     17      25.5409      0.00000
     18      30.2060      0.00000
     19      30.2060      0.00000
     20      30.2060      0.00000

 k-point     2 :       0.0667    0.0000    0.0000
  band No.  band energies     occupation 
      1      -2.6532      1.00000
      2       0.8722      1.00000
      3       0.8734      1.00000
      4       3.2492      1.00000
      5       3.2492      1.00000
      6       3.2740      1.00000
      7       4.3609      1.00000
      8       4.4151      1.00000
      9       5.4784      0.46332
     10       5.4784      0.46331
     11       5.5261      0.27166
     12      14.5437      0.00000
     13      15.3774      0.00000
     14      15.3774      0.00000
     15      20.8422      0.00000
     16      21.3151      0.00000
     17      25.8419      0.00000
     18      29.5673      0.00000
     19      30.1136      0.00000
     20      30.1136      0.00000

 k-point     3 :       0.1333    0.0000    0.0000
  band No.  band energies     occupation 
      1      -2.3864      1.00000
      2       0.9827      1.00000
      3       0.9839      1.00000
      4       3.2499      1.00000
      5       3.2499      1.00000
      6       3.3455      1.00000
      7       4.2459      1.00000
      8       4.4600      1.00000
      9       5.2751      1.02211
     10       5.2751      1.02211
     11       5.4490      0.58699
     12      13.0892      0.00000
     13      15.8651      0.00000
     14      15.8651      0.00000
     15      20.9257      0.00000
     16      22.1677      0.00000
     17      26.8623      0.00000
     18      28.3028      0.00000
     19      29.7116      0.00000
     20      29.7116      0.00000

 k-point     4 :       0.2000   -0.0000    0.0000
  band No.  band energies     occupation 
      1      -1.9539      1.00000
      2       1.1403      1.00000
      3       1.1654      1.00000
      4       3.2587      1.00000
      5       3.2587      1.00000
      6       3.4616      1.00000
      7       4.0592      1.00000
      8       4.5324      1.00000
[...]

 k-point   114 :       0.4000    0.4000    0.3333
  band No.  band energies     occupation 
      1       3.4079      1.00000
      2       3.5253      1.00000
      3       3.9768      1.00000
      4       4.0852      1.00000
      5       4.1351      1.00000
      6       4.3881      1.00000
      7       7.5898     -0.00000
      8       7.6395     -0.00000
      9       7.6999     -0.00000
     10       7.7287     -0.00000
     11      10.8028     -0.00000
     12      12.8975      0.00000
     13      14.5309      0.00000
     14      16.6597      0.00000
     15      17.2997      0.00000
     16      19.0018      0.00000
     17      20.0832      0.00000
     18      22.7303      0.00000
     19      36.3332      0.00000
     20      37.8606      0.00000

 k-point   115 :       0.4667    0.4000    0.3333
  band No.  band energies     occupation 
      1       3.4689      1.00000
      2       3.4867      1.00000
      3       3.9624      1.00000
      4       4.0039      1.00000
      5       4.3118      1.00000
      6       4.4194      1.00000
      7       7.6164     -0.00000
      8       7.6351     -0.00000
      9       7.7521     -0.00000
     10       7.7622     -0.00000
     11      11.4879      0.00000
     12      12.2562      0.00000
     13      15.1796      0.00000
     14      16.1652      0.00000
     15      17.3152      0.00000
     16      18.2267      0.00000
     17      20.5037      0.00000
     18      21.5057      0.00000
     19      37.1364      0.00000
     20      37.7602      0.00000

 k-point   116 :       0.4667    0.4667    0.3333
  band No.  band energies     occupation 
      1       3.4853      1.00000
      2       3.4871      1.00000
      3       3.9174      1.00000
      4       3.9359      1.00000
      5       4.4557      1.00000
      6       4.4969      1.00000
      7       7.6568     -0.00000
      8       7.6638     -0.00000
      9       7.7787     -0.00000
     10       7.7821     -0.00000
     11      12.0893      0.00000
     12      12.4613      0.00000
     13      14.8072      0.00000
     14      15.2481      0.00000
     15      18.0337      0.00000
     16      18.6822      0.00000
     17      19.6421      0.00000
     18      20.3158      0.00000
     19      37.8894      0.00000
     20      38.1567      0.00000

 k-point   117 :       0.4000    0.4000    0.4000
  band No.  band energies     occupation 
      1       3.6123      1.00000
      2       3.7767      1.00000
      3       3.9464      1.00000
      4       3.9465      1.00000
      5       4.1839      1.00000
      6       4.1840      1.00000
      7       7.6964     -0.00000
      8       7.6966     -0.00000
      9       7.7240     -0.00000
     10       7.7242     -0.00000
     11      11.5180      0.00000
     12      13.9962      0.00000
     13      13.9962      0.00000
     14      16.2774      0.00000
     15      17.6708      0.00000
     16      17.6708      0.00000
     17      19.0042      0.00000
     18      21.3631      0.00000
     19      38.5054      0.00000
     20      38.5054      0.00000

 k-point   118 :       0.4667    0.4000    0.4000
  band No.  band energies     occupation 
      1       3.6559      1.00000
      2       3.7344      1.00000
      3       3.9647      1.00000
      4       4.0422      1.00000
      5       4.1238      1.00000
      6       4.2327      1.00000
      7       7.7043     -0.00000
      8       7.7151     -0.00000
      9       7.7604     -0.00000
     10       7.7695     -0.00000
     11      12.2874      0.00000
     12      13.1388      0.00000
     13      15.1618      0.00000
     14      16.3885      0.00000
     15      16.5908      0.00000
     16      17.2496      0.00000
     17      19.1993      0.00000
     18      20.1543      0.00000
     19      39.1898      0.00000
     20      39.7682      0.00000

 k-point   119 :       0.4667    0.4667    0.4000
  band No.  band energies     occupation 
      1       3.7369      1.00000
      2       3.8034      1.00000
      3       3.9045      1.00000
      4       3.9675      1.00000
      5       4.1938      1.00000
      6       4.2348      1.00000
      7       7.7401     -0.00000
      8       7.7440     -0.00000
      9       7.7850     -0.00000
     10       7.7882     -0.00000
     11      13.0677      0.00000
     12      13.5968      0.00000
     13      14.9595      0.00000
     14      15.6263      0.00000
     15      16.8602      0.00000
     16      17.3435      0.00000
     17      18.4091      0.00000
     18      19.0031      0.00000
     19      40.3495      0.00000
     20      40.6457      0.00000

 k-point   120 :       0.4667    0.4667    0.4667
  band No.  band energies     occupation 
      1       3.8557      1.00000
      2       3.9449      1.00000
      3       3.9450      1.00000
      4       4.0521      1.00000
      5       4.0522      1.00000
      6       4.0571      1.00000
      7       7.7894     -0.00000
      8       7.7896     -0.00000
      9       7.7907     -0.00000
     10       7.7908     -0.00000
     11      14.0178      0.00000
     12      14.7934      0.00000
     13      14.7934      0.00000
     14      16.0445      0.00000
     15      16.0445      0.00000
     16      16.2206      0.00000
     17      17.6944      0.00000
     18      17.9846      0.00000
     19      42.8114      0.00000
     20      42.8155      0.00000


--------------------------------------------------------------------------------------------------------


 soft charge-density along one line, spin component           1
         0         1         2         3         4         5         6         7         8         9
 total charge-density along one line
 
 soft charge-density along one line, spin component           2
         0         1         2         3         4         5         6         7         8         9
 total charge-density along one line
 
 pseudopotential strength for first ion, spin component:           1
 -5.586  -0.000  -0.000  -0.000  -0.000  -6.117  -0.000  -0.000
 -0.000  -5.586   0.000   0.000   0.000  -0.000  -6.117   0.000
 -0.000   0.000  -5.795   0.000   0.000  -0.000   0.000  -6.319
 -0.000   0.000   0.000  -5.586  -0.000  -0.000   0.000   0.000
 -0.000   0.000   0.000  -0.000  -5.795  -0.000   0.000   0.000
 -6.117  -0.000  -0.000  -0.000  -0.000  -6.606  -0.000  -0.000
 -0.000  -6.117   0.000   0.000   0.000  -0.000  -6.606   0.000
 -0.000   0.000  -6.319   0.000   0.000  -0.000   0.000  -6.801
 -0.000   0.000   0.000  -6.117  -0.000  -0.000   0.000   0.000
 -0.000   0.000   0.000  -0.000  -6.319  -0.000   0.000   0.000
 -0.000   0.000   0.000   0.000  -0.000  -0.000   0.000   0.000
 -0.000   0.000   0.000   0.000  -0.000  -0.000   0.000   0.000
  0.000   0.000  -0.000   0.000  -0.000   0.000   0.000  -0.000
  0.000   0.000   0.000  -0.000   0.000   0.000   0.000   0.000
  0.000   0.000  -0.000   0.000  -0.000   0.000   0.000  -0.000
  0.000   0.000  -0.000   0.000  -0.000   0.000   0.000  -0.000
  0.000   0.000   0.000  -0.000   0.000   0.000   0.000   0.000
  0.000   0.000  -0.000   0.000  -0.000   0.000   0.000  -0.000
 pseudopotential strength for first ion, spin component:           2
 -4.152   0.000   0.000   0.000   0.000  -4.727   0.000   0.000
  0.000  -4.152  -0.000  -0.000  -0.000   0.000  -4.727  -0.000
  0.000  -0.000  -3.902  -0.000  -0.000   0.000  -0.000  -4.486
  0.000  -0.000  -0.000  -4.152   0.000   0.000  -0.000  -0.000
  0.000  -0.000  -0.000   0.000  -3.902   0.000  -0.000  -0.000
 -4.727   0.000   0.000   0.000   0.000  -5.259   0.000   0.000
  0.000  -4.727  -0.000  -0.000  -0.000   0.000  -5.259  -0.000
  0.000  -0.000  -4.486  -0.000  -0.000   0.000  -0.000  -5.026
  0.000  -0.000  -0.000  -4.727   0.000  -0.000  -0.000  -0.000
  0.000  -0.000  -0.000   0.000  -4.485   0.000  -0.000  -0.000
  0.000  -0.000  -0.000  -0.000   0.000   0.000  -0.000  -0.000
  0.000  -0.000  -0.000  -0.000   0.000   0.000  -0.000  -0.000
  0.000   0.000  -0.000   0.000  -0.000   0.000   0.000  -0.000
  0.000   0.000   0.000   0.000   0.000   0.000   0.000   0.000
  0.000   0.000  -0.000   0.000  -0.000   0.000   0.000  -0.000
  0.000   0.000  -0.000   0.000  -0.000   0.000   0.000  -0.000
  0.000   0.000   0.000   0.000   0.000   0.000   0.000   0.000
  0.000   0.000  -0.000   0.000  -0.000   0.000   0.000  -0.000
 total augmentation occupancy for first ion, spin component:           1
  2.236   0.000  -0.000   0.000  -0.000  -1.245  -0.000   0.000  -0.000   0.000   0.000  -0.000   0.000   0.000   0.000   0.000
  0.000   2.236   0.000   0.000  -0.000  -0.000  -1.245   0.000  -0.000   0.000  -0.000  -0.000   0.000   0.000   0.000   0.000
 -0.000   0.000   3.644   0.000  -0.000   0.000   0.000  -2.376  -0.000  -0.000  -0.000   0.000  -0.000   0.000   0.000   0.000
  0.000   0.000   0.000   2.236   0.000  -0.000  -0.000  -0.000  -1.245  -0.000  -0.000  -0.000   0.000   0.000   0.000   0.000
 -0.000  -0.000   0.000   0.000   3.644   0.000   0.000   0.000  -0.000  -2.376   0.000   0.000   0.000   0.000   0.000   0.000
 -1.245  -0.000   0.000  -0.000   0.000   1.650   0.000  -0.000   0.000  -0.000  -0.000   0.000   0.000   0.000  -0.000   0.000
 -0.000  -1.245   0.000  -0.000   0.000   0.000   1.650   0.000   0.000  -0.000   0.000  -0.000   0.000   0.000   0.000   0.000
  0.000  -0.000  -2.376  -0.000  -0.000  -0.000   0.000   2.368   0.000  -0.000  -0.000  -0.000  -0.000   0.000   0.000   0.000
 -0.000  -0.000  -0.000  -1.245  -0.000   0.000   0.000   0.000   1.650   0.000   0.000   0.000   0.000   0.000   0.000   0.000
  0.000   0.000   0.000  -0.000  -2.376  -0.000  -0.000  -0.000   0.000   2.368   0.000  -0.000   0.000   0.000   0.000   0.000
  0.000  -0.000  -0.000   0.000   0.000   0.000   0.000  -0.000   0.000   0.000   2.421  -0.281   0.000   0.000   0.000   0.000
  0.000  -0.000   0.000  -0.000   0.000   0.000  -0.000  -0.000   0.000  -0.000  -0.281   0.038   0.000   0.000   0.000   0.000
  0.000   0.000  -0.000   0.000   0.000   0.000   0.000   0.000   0.000   0.000   0.000   0.000   0.294   0.000   0.000  -0.025
  0.000   0.000  -0.000   0.000   0.000   0.000   0.000  -0.000   0.000   0.000   0.000   0.000   0.000   0.294   0.000  -0.000
  0.000   0.000   0.000   0.000   0.000   0.000   0.000   0.000   0.000   0.000   0.000   0.000   0.000   0.000   0.294  -0.000
  0.000   0.000   0.000   0.000   0.000   0.000   0.000   0.000   0.000   0.000   0.000   0.000  -0.025  -0.000  -0.000   0.002
  0.000   0.000   0.000   0.000   0.000   0.000   0.000   0.000   0.000   0.000   0.000   0.000  -0.000  -0.025  -0.000   0.000
  0.000   0.000   0.000   0.000   0.000   0.000   0.000   0.000   0.000   0.000   0.000   0.000  -0.000  -0.000  -0.025   0.000
 total augmentation occupancy for first ion, spin component:           2
  1.851   0.000  -0.000   0.000  -0.000  -0.765  -0.000   0.000  -0.000   0.000  -0.000   0.000  -0.000   0.000   0.000   0.000
  0.000   1.851   0.000   0.000  -0.000  -0.000  -0.765  -0.000  -0.000   0.000   0.000  -0.000   0.000  -0.000   0.000  -0.000
 -0.000   0.000   3.070   0.000   0.000   0.000  -0.000  -1.357  -0.000  -0.000  -0.000  -0.000   0.000  -0.000   0.000  -0.000
  0.000   0.000   0.000   1.851   0.000  -0.000  -0.000  -0.000  -0.765  -0.000   0.000   0.000   0.000   0.000   0.000   0.000
 -0.000  -0.000   0.000   0.000   3.070   0.000   0.000   0.000  -0.000  -1.357   0.000   0.000   0.000   0.000   0.000  -0.000
 -0.765  -0.000   0.000  -0.000   0.000   0.076   0.000  -0.000   0.000  -0.000   0.000   0.000   0.000   0.000  -0.000   0.000
 -0.000  -0.765  -0.000  -0.000   0.000   0.000   0.076  -0.000   0.000  -0.000   0.000   0.000   0.000   0.000   0.000   0.000
  0.000  -0.000  -1.357  -0.000   0.000  -0.000  -0.000   0.359  -0.000   0.000   0.000   0.000  -0.000   0.000   0.000   0.000
 -0.000  -0.000  -0.000  -0.765  -0.000   0.000   0.000  -0.000   0.076   0.000   0.000   0.000   0.000   0.000   0.000   0.000
  0.000   0.000   0.000  -0.000  -1.357  -0.000  -0.000  -0.000   0.000   0.359   0.000   0.000   0.000   0.000   0.000   0.000
  0.000   0.000  -0.000  -0.000   0.000   0.000   0.000  -0.000   0.000   0.000  -0.329   0.099   0.000   0.000   0.000  -0.000
  0.000   0.000  -0.000   0.000   0.000  -0.000   0.000   0.000   0.000   0.000   0.099  -0.017   0.000   0.000   0.000   0.000
  0.000   0.000   0.000   0.000   0.000   0.000   0.000  -0.000   0.000   0.000   0.000   0.000  -0.037  -0.000  -0.000   0.006
  0.000   0.000  -0.000   0.000   0.000   0.000   0.000   0.000   0.000   0.000   0.000  -0.000  -0.000  -0.037  -0.000   0.000
  0.000   0.000   0.000   0.000   0.000   0.000   0.000   0.000   0.000   0.000   0.000  -0.000  -0.000  -0.000  -0.037   0.000
  0.000   0.000   0.000   0.000   0.000   0.000   0.000  -0.000   0.000   0.000  -0.000  -0.000   0.006   0.000   0.000  -0.001
  0.000  -0.000  -0.000   0.000  -0.000   0.000   0.000   0.000   0.000   0.000   0.000   0.000   0.000   0.006   0.000  -0.000
 -0.000   0.000   0.000   0.000   0.000  -0.000   0.000   0.000  -0.000   0.000   0.000  -0.000   0.000   0.000   0.006  -0.000


------------------------ aborting loop because EDIFF is reached ----------------------------------------





 total charge

# of ion       s       p       d       tot
------------------------------------------
    1        0.488   0.542   6.242   7.272
    2        0.488   0.542   6.242   7.272
--------------------------------------------------
tot          0.975   1.085  12.485  14.545



 magnetization (x)

# of ion       s       p       d       tot
------------------------------------------
    1       -0.014  -0.057   2.249   2.178
    2       -0.014  -0.057   2.249   2.178
--------------------------------------------------
tot         -0.027  -0.115   4.497   4.356
 
    CHARGE:  cpu time    0.7569: real time    0.7575
    FORLOC:  cpu time    0.0030: real time    0.0027
    FORNL :  cpu time    1.6647: real time    1.6666
    STRESS:  cpu time    5.7531: real time    5.7584
    FORCOR:  cpu time    0.1230: real time    0.1230
    FORHAR:  cpu time    0.0090: real time    0.0093
    MIXING:  cpu time    0.0030: real time    0.0026
    OFIELD:  cpu time    0.0000: real time    0.0002

  FORCE on cell =-STRESS in cart. coord.  units (eV):
  Direction    XX          YY          ZZ          XY          YZ          ZX
  --------------------------------------------------------------------------------------
  Alpha Z   121.87977   121.87977   121.87977
  Ewald    -394.93626  -394.93626  -394.93626    -0.00000    -0.00000    -0.00000
  Hartree    63.28806    63.28806    63.28806     0.00000    -0.00000    -0.00000
  E(xc)     -79.44915   -79.44915   -79.44915     0.00000     0.00000     0.00000
  Local     118.02128   118.02128   118.02128     0.00000    -0.00000    -0.00000
  n-local   -54.86201   -51.73905   -49.08088     2.48423    -0.87583     0.68828
  augment    77.38958    77.38958    77.38958    -0.00000    -0.00000    -0.00000
  Kinetic   148.16817   145.30901   143.61808     2.79439    -0.53543     0.11166
  Fock        0.00000     0.00000     0.00000     0.00000     0.00000     0.00000
  -------------------------------------------------------------------------------------
  Total      -0.00228    -0.00228    -0.00228     0.00000    -0.00000    -0.00000
  in kB      -0.16113    -0.16113    -0.16113     0.00000    -0.00000    -0.00000
  external pressure =       -0.16 kB  Pullay stress =        0.00 kB


 VOLUME and BASIS-vectors are now :
 -----------------------------------------------------------------------------
  energy-cutoff  :      700.00
  volume of cell :       22.68
      direct lattice vectors                 reciprocal lattice vectors
     2.830724909  0.000000000  0.000000000     0.353266401 -0.000000000  0.000000000
     0.000000000  2.830724909  0.000000000    -0.000000000  0.353266401  0.000000000
    -0.000000000 -0.000000000  2.830724909    -0.000000000 -0.000000000  0.353266401

  length of vectors
     2.830724909  2.830724909  2.830724909     0.353266401  0.353266401  0.353266401


 FORCES acting on ions
    electron-ion (+dipol)            ewald-force                    non-local-force                 convergence-correction
 -----------------------------------------------------------------------------------------------
   -.680E-14 -.114E-13 -.881E-14   -.150E-14 -.226E-14 -.992E-15   -.286E-25 -.525E-28 0.000E+00   -.487E-15 0.832E-15 0.131E-14
   0.150E-12 0.146E-11 0.162E-11   0.315E-14 0.244E-14 0.606E-15   0.257E-25 0.720E-28 -.258E-25   -.514E-13 0.136E-14 -.135E-13
 -----------------------------------------------------------------------------------------------
   0.143E-12 0.145E-11 0.161E-11   0.165E-14 0.175E-15 -.385E-15   -.287E-26 0.195E-28 -.258E-25   -.519E-13 0.219E-14 -.122E-13
 
 
 POSITION                                       TOTAL-FORCE (eV/Angst)
 -----------------------------------------------------------------------------------
      0.00000      0.00000      0.00000        -0.000000      0.000000      0.000000
      1.41536      1.41536      1.41536         0.000000     -0.000000     -0.000000
 -----------------------------------------------------------------------------------
    total drift:                                0.000000      0.000000      0.000000


--------------------------------------------------------------------------------------------------------



  FREE ENERGIE OF THE ION-ELECTRON SYSTEM (eV)
  ---------------------------------------------------
  free  energy   TOTEN  =       -16.48323556 eV

  energy  without entropy=      -16.48055986  energy(sigma->0) =      -16.48234366
 
 d Force = 0.0000000E+00[ 0.000E+00, 0.000E+00]  d Energy = 0.1288473E-01-0.129E-01
 d Force = 0.0000000E+00[ 0.000E+00, 0.000E+00]  d Ewald  =-0.1207153E+02 0.121E+02


--------------------------------------------------------------------------------------------------------


    POTLOK:  cpu time    1.8167: real time    1.8243


--------------------------------------------------------------------------------------------------------




--------------------------------------------------------------------------------------------------------


  
 reached required accuracy - stopping structural energy minimisation
 writing wavefunctions
     LOOP+:  cpu time  109.2474: real time  112.7156
    4ORBIT:  cpu time    0.0000: real time    0.0000



 total charge

# of ion       s       p       d       tot
------------------------------------------
    1        0.488   0.542   6.242   7.272
    2        0.488   0.542   6.242   7.272
--------------------------------------------------
tot          0.975   1.085  12.485  14.545



 magnetization (x)

# of ion       s       p       d       tot
------------------------------------------
    1       -0.014  -0.057   2.249   2.178
    2       -0.014  -0.057   2.249   2.178
--------------------------------------------------
tot         -0.027  -0.115   4.497   4.356
 

 total amount of memory used by VASP MPI-rank0    79782. kBytes
=======================================================================

   base      :      30000. kBytes
   nonl-proj :      17727. kBytes
   fftplans  :       6611. kBytes
   grid      :       5030. kBytes
   one-center:         62. kBytes
   wavefun   :      20352. kBytes
 
  
  
 General timing and accounting informations for this job:
 ========================================================
  
                  Total CPU time used (sec):      386.674
                            User time (sec):      373.321
                          System time (sec):       13.353
                         Elapsed time (sec):      403.300
  
                   Maximum memory used (kb):      165684.
                   Average memory used (kb):          N/A
  
                          Minor page faults:       413504
                          Major page faults:            1
                 Voluntary context switches:       404779
