<?xml version="1.0" encoding="ISO-8859-1"?>
<modeling>
 <generator>
  <i name="program" type="string">vasp </i>
  <i name="version" type="string">6.2.0  </i>
  <i name="subversion" type="string">18Jan21 (build Aug 12 2022 13:00:08) complex                          parallel </i>
  <i name="platform" type="string">LinuxIFC </i>
  <i name="date" type="string">2024 11 04 </i>
  <i name="time" type="string">07:23:38 </i>
 </generator>
 <incar>
  <i type="int" name="ISTART">     0</i>
  <i type="string" name="PREC">Accurate      (Accurate strictly avoids</i>
  <i type="logical" name="ADDGRID"> T  </i>
  <i type="int" name="ISPIN">     2</i>
  <i type="int" name="NELM">    90</i>
  <i type="int" name="NELMIN">     6</i>
  <i type="int" name="IBRION">     2</i>
  <i name="EDIFF">      0.00000100</i>
  <i name="EDIFFG">     -0.00200000</i>
  <i type="int" name="NSW">   100</i>
  <i type="int" name="ISIF">     3</i>
  <i type="int" name="ISYM">     2</i>
  <i name="ENCUT">    700.00000000</i>
  <v name="MAGMOM">      5.00000000      5.00000000</v>
  <i type="logical" name="LREAL"> F  </i>
  <i type="int" name="ISMEAR">     1</i>
  <i name="SIGMA">      0.20000000</i>
  <i type="int" name="LMAXMIX">     4</i>
  <i type="int" name="LORBIT">    11</i>
  <i type="logical" name="LASPH"> T  </i>
  <i type="logical" name="GGA_COMPAT"> F  </i>
  <i type="int" name="VOSKOWN">     1</i>
 </incar>
 <primitive_cell>
  <structure name="primitive_cell" >
   <crystal>
    <varray name="basis" >
     <v>       1.43151775       1.43151775      -1.43151775 </v>
     <v>      -1.43151775       1.43151775       1.43151775 </v>
     <v>       1.43151775      -1.43151775       1.43151775 </v>
    </varray>
    <i name="volume">     11.73411129 </i>
    <varray name="rec_basis" >
     <v>       0.34927964       0.34927964       0.00000000 </v>
     <v>       0.00000000       0.34927964       0.34927964 </v>
     <v>       0.34927964      -0.00000000       0.34927964 </v>
    </varray>
   </crystal>
   <varray name="positions" >
    <v>       0.00000000       0.00000000       0.00000000 </v>
   </varray>
  </structure>
  <varray name="primitive_index" >
   <v type="int" >        1 </v>
  </varray>
 </primitive_cell>
 <kpoints>
  <generation param="Monkhorst-Pack">
   <v type="int" name="divisions">      15       15       15 </v>
   <v name="usershift">      0.00000000       0.00000000       0.00000000 </v>
   <v name="genvec1">      0.06666667       0.00000000       0.00000000 </v>
   <v name="genvec2">      0.00000000       0.06666667       0.00000000 </v>
   <v name="genvec3">      0.00000000       0.00000000       0.06666667 </v>
   <v name="shift">      0.00000000       0.00000000       0.00000000 </v>
  </generation>
  <varray name="kpointlist" >
   <v>       0.00000000       0.00000000       0.00000000 </v>
   <v>       0.06666667       0.00000000       0.00000000 </v>
   <v>       0.13333333       0.00000000       0.00000000 </v>
   <v>       0.20000000      -0.00000000       0.00000000 </v>
   <v>       0.26666667       0.00000000       0.00000000 </v>
   <v>       0.33333333       0.00000000       0.00000000 </v>
   <v>       0.40000000       0.00000000       0.00000000 </v>
   <v>       0.46666667      -0.00000000       0.00000000 </v>
   <v>       0.06666667       0.06666667       0.00000000 </v>
   <v>       0.13333333       0.06666667       0.00000000 </v>
   <v>       0.20000000       0.06666667       0.00000000 </v>
   <v>       0.26666667       0.06666667       0.00000000 </v>
   <v>       0.33333333       0.06666667       0.00000000 </v>
   <v>       0.40000000       0.06666667       0.00000000 </v>
   <v>       0.46666667       0.06666667       0.00000000 </v>
   <v>       0.13333333       0.13333333       0.00000000 </v>
   <v>       0.20000000       0.13333333       0.00000000 </v>
   <v>       0.26666667       0.13333333       0.00000000 </v>
   <v>       0.33333333       0.13333333       0.00000000 </v>
   <v>       0.40000000       0.13333333       0.00000000 </v>
   <v>       0.46666667       0.13333333       0.00000000 </v>
   <v>       0.20000000       0.20000000       0.00000000 </v>
   <v>       0.26666667       0.20000000       0.00000000 </v>
   <v>       0.33333333       0.20000000       0.00000000 </v>
   <v>       0.40000000       0.20000000       0.00000000 </v>
   <v>       0.46666667       0.20000000       0.00000000 </v>
   <v>       0.26666667       0.26666667       0.00000000 </v>
   <v>       0.33333333       0.26666667       0.00000000 </v>
   <v>       0.40000000       0.26666667       0.00000000 </v>
   <v>       0.46666667       0.26666667       0.00000000 </v>
   <v>       0.33333333       0.33333333       0.00000000 </v>
   <v>       0.40000000       0.33333333       0.00000000 </v>
   <v>       0.46666667       0.33333333       0.00000000 </v>
   <v>       0.40000000       0.40000000       0.00000000 </v>
   <v>       0.46666667       0.40000000       0.00000000 </v>
   <v>       0.46666667       0.46666667       0.00000000 </v>
   <v>       0.06666667       0.06666667       0.06666667 </v>
   <v>       0.13333333       0.06666667       0.06666667 </v>
   <v>       0.20000000       0.06666667       0.06666667 </v>
   <v>       0.26666667       0.06666667       0.06666667 </v>
   <v>       0.33333333       0.06666667       0.06666667 </v>
   <v>       0.40000000       0.06666667       0.06666667 </v>
   <v>       0.46666667       0.06666667       0.06666667 </v>
   <v>       0.13333333       0.13333333       0.06666667 </v>
   <v>       0.20000000       0.13333333       0.06666667 </v>
   <v>       0.26666667       0.13333333       0.06666667 </v>
   <v>       0.33333333       0.13333333       0.06666667 </v>
   <v>       0.40000000       0.13333333       0.06666667 </v>
   <v>       0.46666667       0.13333333       0.06666667 </v>
   <v>       0.20000000       0.20000000       0.06666667 </v>
   <v>       0.26666667       0.20000000       0.06666667 </v>
   <v>       0.33333333       0.20000000       0.06666667 </v>
   <v>       0.40000000       0.20000000       0.06666667 </v>
   <v>       0.46666667       0.20000000       0.06666667 </v>
   <v>       0.26666667       0.26666667       0.06666667 </v>
   <v>       0.33333333       0.26666667       0.06666667 </v>
   <v>       0.40000000       0.26666667       0.06666667 </v>
   <v>       0.46666667       0.26666667       0.06666667 </v>
   <v>       0.33333333       0.33333333       0.06666667 </v>
   <v>       0.40000000       0.33333333       0.06666667 </v>
   <v>       0.46666667       0.33333333       0.06666667 </v>
   <v>       0.40000000       0.40000000       0.06666667 </v>
   <v>       0.46666667       0.40000000       0.06666667 </v>
   <v>       0.46666667       0.46666667       0.06666667 </v>
   <v>       0.13333333       0.13333333       0.13333333 </v>
   <v>       0.20000000       0.13333333       0.13333333 </v>
   <v>       0.26666667       0.13333333       0.13333333 </v>
   <v>       0.33333333       0.13333333       0.13333333 </v>
   <v>       0.40000000       0.13333333       0.13333333 </v>
   <v>       0.46666667       0.13333333       0.13333333 </v>
   <v>       0.20000000       0.20000000       0.13333333 </v>
   <v>       0.26666667       0.20000000       0.13333333 </v>
   <v>       0.33333333       0.20000000       0.13333333 </v>
   <v>       0.40000000       0.20000000       0.13333333 </v>
   <v>       0.46666667       0.20000000       0.13333333 </v>
   <v>       0.26666667       0.26666667       0.13333333 </v>
   <v>       0.33333333       0.26666667       0.13333333 </v>
   <v>       0.40000000       0.26666667       0.13333333 </v>
   <v>       0.46666667       0.26666667       0.13333333 </v>
   <v>       0.33333333       0.33333333       0.13333333 </v>
   <v>       0.40000000       0.33333333       0.13333333 </v>
   <v>       0.46666667       0.33333333       0.13333333 </v>
   <v>       0.40000000       0.40000000       0.13333333 </v>
   <v>       0.46666667       0.40000000       0.13333333 </v>
   <v>       0.46666667       0.46666667       0.13333333 </v>
   <v>       0.20000000       0.20000000       0.20000000 </v>
   <v>       0.26666667       0.20000000       0.20000000 </v>
   <v>       0.33333333       0.20000000       0.20000000 </v>
   <v>       0.40000000       0.20000000       0.20000000 </v>
   <v>       0.46666667       0.20000000       0.20000000 </v>
   <v>       0.26666667       0.26666667       0.20000000 </v>
   <v>       0.33333333       0.26666667       0.20000000 </v>
   <v>       0.40000000       0.26666667       0.20000000 </v>
   <v>       0.46666667       0.26666667       0.20000000 </v>
   <v>       0.33333333       0.33333333       0.20000000 </v>
   <v>       0.40000000       0.33333333       0.20000000 </v>
   <v>       0.46666667       0.33333333       0.20000000 </v>
   <v>       0.40000000       0.40000000       0.20000000 </v>
   <v>       0.46666667       0.40000000       0.20000000 </v>
   <v>       0.46666667       0.46666667       0.20000000 </v>
   <v>       0.26666667       0.26666667       0.26666667 </v>
   <v>       0.33333333       0.26666667       0.26666667 </v>
   <v>       0.40000000       0.26666667       0.26666667 </v>
   <v>       0.46666667       0.26666667       0.26666667 </v>
   <v>       0.33333333       0.33333333       0.26666667 </v>
   <v>       0.40000000       0.33333333       0.26666667 </v>
   <v>       0.46666667       0.33333333       0.26666667 </v>
   <v>       0.40000000       0.40000000       0.26666667 </v>
   <v>       0.46666667       0.40000000       0.26666667 </v>
   <v>       0.46666667       0.46666667       0.26666667 </v>
   <v>       0.33333333       0.33333333       0.33333333 </v>
   <v>       0.40000000       0.33333333       0.33333333 </v>
   <v>       0.46666667       0.33333333       0.33333333 </v>
   <v>       0.40000000       0.40000000       0.33333333 </v>
   <v>       0.46666667       0.40000000       0.33333333 </v>
   <v>       0.46666667       0.46666667       0.33333333 </v>
   <v>       0.40000000       0.40000000       0.40000000 </v>
   <v>       0.46666667       0.40000000       0.40000000 </v>
   <v>       0.46666667       0.46666667       0.40000000 </v>
   <v>       0.46666667       0.46666667       0.46666667 </v>
  </varray>
  <varray name="weights" >
   <v>       0.00029630 </v>
   <v>       0.00177778 </v>
   <v>       0.00177778 </v>
   <v>       0.00177778 </v>
   <v>       0.00177778 </v>
   <v>       0.00177778 </v>
   <v>       0.00177778 </v>
   <v>       0.00177778 </v>
   <v>       0.00355556 </v>
   <v>       0.00711111 </v>
   <v>       0.00711111 </v>
   <v>       0.00711111 </v>
   <v>       0.00711111 </v>
   <v>       0.00711111 </v>
   <v>       0.00711111 </v>
   <v>       0.00355556 </v>
   <v>       0.00711111 </v>
   <v>       0.00711111 </v>
   <v>       0.00711111 </v>
   <v>       0.00711111 </v>
   <v>       0.00711111 </v>
   <v>       0.00355556 </v>
   <v>       0.00711111 </v>
   <v>       0.00711111 </v>
   <v>       0.00711111 </v>
   <v>       0.00711111 </v>
   <v>       0.00355556 </v>
   <v>       0.00711111 </v>
   <v>       0.00711111 </v>
   <v>       0.00711111 </v>
   <v>       0.00355556 </v>
   <v>       0.00711111 </v>
   <v>       0.00711111 </v>
   <v>       0.00355556 </v>
   <v>       0.00711111 </v>
   <v>       0.00355556 </v>
   <v>       0.00237037 </v>
   <v>       0.00711111 </v>
   <v>       0.00711111 </v>
   <v>       0.00711111 </v>
   <v>       0.00711111 </v>
   <v>       0.00711111 </v>
   <v>       0.00711111 </v>
   <v>       0.00711111 </v>
   <v>       0.01422222 </v>
   <v>       0.01422222 </v>
   <v>       0.01422222 </v>
   <v>       0.01422222 </v>
   <v>       0.01422222 </v>
   <v>       0.00711111 </v>
   <v>       0.01422222 </v>
   <v>       0.01422222 </v>
   <v>       0.01422222 </v>
   <v>       0.01422222 </v>
   <v>       0.00711111 </v>
   <v>       0.01422222 </v>
   <v>       0.01422222 </v>
   <v>       0.01422222 </v>
   <v>       0.00711111 </v>
   <v>       0.01422222 </v>
   <v>       0.01422222 </v>
   <v>       0.00711111 </v>
   <v>       0.01422222 </v>
   <v>       0.00711111 </v>
   <v>       0.00237037 </v>
   <v>       0.00711111 </v>
   <v>       0.00711111 </v>
   <v>       0.00711111 </v>
   <v>       0.00711111 </v>
   <v>       0.00711111 </v>
   <v>       0.00711111 </v>
   <v>       0.01422222 </v>
   <v>       0.01422222 </v>
   <v>       0.01422222 </v>
   <v>       0.01422222 </v>
   <v>       0.00711111 </v>
   <v>       0.01422222 </v>
   <v>       0.01422222 </v>
   <v>       0.01422222 </v>
   <v>       0.00711111 </v>
   <v>       0.01422222 </v>
   <v>       0.01422222 </v>
   <v>       0.00711111 </v>
   <v>       0.01422222 </v>
   <v>       0.00711111 </v>
   <v>       0.00237037 </v>
   <v>       0.00711111 </v>
   <v>       0.00711111 </v>
   <v>       0.00711111 </v>
   <v>       0.00711111 </v>
   <v>       0.00711111 </v>
   <v>       0.01422222 </v>
   <v>       0.01422222 </v>
   <v>       0.01422222 </v>
   <v>       0.00711111 </v>
   <v>       0.01422222 </v>
   <v>       0.01422222 </v>
   <v>       0.00711111 </v>
   <v>       0.01422222 </v>
   <v>       0.00711111 </v>
   <v>       0.00237037 </v>
   <v>       0.00711111 </v>
   <v>       0.00711111 </v>
   <v>       0.00711111 </v>
   <v>       0.00711111 </v>
   <v>       0.01422222 </v>
   <v>       0.01422222 </v>
   <v>       0.00711111 </v>
   <v>       0.01422222 </v>
   <v>       0.00711111 </v>
   <v>       0.00237037 </v>
   <v>       0.00711111 </v>
   <v>       0.00711111 </v>
   <v>       0.00711111 </v>
   <v>       0.01422222 </v>
   <v>       0.00711111 </v>
   <v>       0.00237037 </v>
   <v>       0.00711111 </v>
   <v>       0.00711111 </v>
   <v>       0.00237037 </v>
  </varray>
 </kpoints>
 <parameters>
  <separator name="general" >
   <i type="string" name="SYSTEM">unknown system</i>
   <i type="logical" name="LCOMPAT"> F  </i>
  </separator>
  <separator name="electronic" >
   <i type="string" name="PREC">accura</i>
   <i name="ENMAX">    700.00000000</i>
   <i name="ENAUG">    511.36800000</i>
   <i name="EDIFF">      0.00000100</i>
   <i type="int" name="IALGO">    38</i>
   <i type="int" name="IWAVPR">    11</i>
   <i type="int" name="NBANDS">    20</i>
   <i type="int" name="NBANDSLOW">    -1</i>
   <i type="int" name="NBANDSHIGH">    -1</i>
   <i name="NELECT">     16.00000000</i>
   <i type="int" name="TURBO">     0</i>
   <i type="int" name="IRESTART">     0</i>
   <i type="int" name="NREBOOT">     0</i>
   <i type="int" name="NMIN">     0</i>
   <i name="EREF">      0.00000000</i>
   <separator name="electronic smearing" >
    <i type="int" name="ISMEAR">     1</i>
    <i name="SIGMA">      0.20000000</i>
    <i name="KSPACING">      0.50000000</i>
    <i type="logical" name="KGAMMA"> T  </i>
    <i type="logical" name="KBLOWUP"> T  </i>
   </separator>
   <separator name="electronic projectors" >
    <i type="logical" name="LREAL"> F  </i>
    <v name="ROPT">      0.00000000</v>
    <i type="int" name="LMAXPAW">  -100</i>
    <i type="int" name="LMAXMIX">     4</i>
    <i type="logical" name="NLSPLINE"> F  </i>
   </separator>
   <separator name="electronic startup" >
    <i type="int" name="ISTART">     0</i>
    <i type="int" name="ICHARG">     2</i>
    <i type="int" name="INIWAV">     1</i>
   </separator>
   <separator name="electronic spin" >
    <i type="int" name="ISPIN">     2</i>
    <i type="logical" name="LNONCOLLINEAR"> F  </i>
    <v name="MAGMOM">      5.00000000      5.00000000</v>
    <i name="NUPDOWN">     -1.00000000</i>
    <i type="logical" name="LSORBIT"> F  </i>
    <v name="SAXIS">      0.00000000      0.00000000      1.00000000</v>
    <i type="logical" name="LSPIRAL"> F  </i>
    <v name="QSPIRAL">      0.00000000      0.00000000      0.00000000</v>
    <i type="logical" name="LZEROZ"> F  </i>
   </separator>
   <separator name="electronic exchange-correlation" >
    <i type="logical" name="LASPH"> T  </i>
    <i type="logical" name="LMETAGGA"> F  </i>
   </separator>
   <separator name="electronic convergence" >
    <i type="int" name="NELM">    90</i>
    <i type="int" name="NELMDL">    -5</i>
    <i type="int" name="NELMIN">     6</i>
    <i name="ENINI">    700.00000000</i>
    <separator name="electronic convergence detail" >
     <i type="logical" name="LDIAG"> T  </i>
     <i type="logical" name="LSUBROT"> F  </i>
     <i name="WEIMIN">      0.00100000</i>
     <i name="EBREAK">      0.00000001</i>
     <i name="DEPER">      0.30000000</i>
     <i type="int" name="NRMM">     4</i>
     <i name="TIME">      0.40000000</i>
    </separator>
   </separator>
   <separator name="electronic mixer" >
    <i name="AMIX">      0.40000000</i>
    <i name="BMIX">      1.00000000</i>
    <i name="AMIN">      0.10000000</i>
    <i name="AMIX_MAG">      1.60000000</i>
    <i name="BMIX_MAG">      1.00000000</i>
    <separator name="electronic mixer details" >
     <i type="int" name="IMIX">     4</i>
     <i type="logical" name="MIXFIRST"> F  </i>
     <i type="int" name="MAXMIX">   -45</i>
     <i name="WC">    100.00000000</i>
     <i type="int" name="INIMIX">     1</i>
     <i type="int" name="MIXPRE">     1</i>
     <i type="int" name="MREMOVE">     5</i>
    </separator>
   </separator>
   <separator name="electronic dipolcorrection" >
    <i type="logical" name="LDIPOL"> F  </i>
    <i type="logical" name="LMONO"> F  </i>
    <i type="int" name="IDIPOL">     0</i>
    <i name="EPSILON">      1.00000000</i>
    <v name="DIPOL">   -100.00000000   -100.00000000   -100.00000000</v>
    <i name="EFIELD">      0.00000000</i>
   </separator>
  </separator>
  <separator name="grids" >
   <i type="int" name="NGX">    28</i>
   <i type="int" name="NGY">    28</i>
   <i type="int" name="NGZ">    28</i>
   <i type="int" name="NGXF">    56</i>
   <i type="int" name="NGYF">    56</i>
   <i type="int" name="NGZF">    56</i>
   <i type="logical" name="ADDGRID"> T  </i>
  </separator>
  <separator name="ionic" >
   <i type="int" name="NSW">   100</i>
   <i type="int" name="IBRION">     2</i>
   <i type="int" name="MDALGO">     0</i>
   <i type="int" name="ISIF">     3</i>
   <i name="PSTRESS">      0.00000000</i>
   <i name="EDIFFG">     -0.00200000</i>
   <i type="int" name="NFREE">     1</i>
   <i name="POTIM">      0.50000000</i>
   <i name="SMASS">     -3.00000000</i>
   <i name="SCALEE">      1.00000000</i>
  </separator>
  <separator name="ionic md" >
   <i name="TEBEG">      0.00010000</i>
   <i name="TEEND">      0.00010000</i>
   <i type="int" name="NBLOCK">     1</i>
   <i type="int" name="KBLOCK">   100</i>
   <i type="int" name="NPACO">   256</i>
   <i name="APACO">     16.00000000</i>
  </separator>
  <separator name="symmetry" >
   <i type="int" name="ISYM">     2</i>
   <i name="SYMPREC">      0.00001000</i>
  </separator>
  <separator name="dos" >
   <i type="int" name="LORBIT">    11</i>
   <v name="RWIGS">     -1.00000000</v>
   <i type="int" name="NEDOS">   301</i>
   <i name="EMIN">     10.00000000</i>
   <i name="EMAX">    -10.00000000</i>
   <i name="EFERMI">      0.00000000</i>
  </separator>
  <separator name="writing" >
   <i type="int" name="NWRITE">     2</i>
   <i type="logical" name="LWAVE"> T  </i>
   <i type="logical" name="LDOWNSAMPLE"> F  </i>
   <i type="logical" name="LCHARG"> T  </i>
   <i type="logical" name="LPARD"> F  </i>
   <i type="logical" name="LVTOT"> F  </i>
   <i type="logical" name="LVHAR"> F  </i>
   <i type="logical" name="LELF"> F  </i>
   <i type="logical" name="LOPTICS"> F  </i>
   <v name="STM">      0.00000000      0.00000000      0.00000000      0.00000000      0.00000000      0.00000000      0.00000000</v>
  </separator>
  <separator name="performance" >
   <i type="int" name="NPAR">     4</i>
   <i type="int" name="NSIM">     4</i>
   <i type="int" name="NBLK">    -1</i>
   <i type="logical" name="LPLANE"> T  </i>
   <i type="logical" name="LSCALAPACK"> T  </i>
   <i type="logical" name="LSCAAWARE"> F  </i>
   <i type="logical" name="LSCALU"> F  </i>
   <i type="logical" name="LASYNC"> F  </i>
   <i type="logical" name="LORBITALREAL"> F  </i>
  </separator>
  <separator name="miscellaneous" >
   <i type="int" name="IDIOT">     3</i>
   <i type="int" name="PHON_NSTRUCT">    -1</i>
   <i type="logical" name="LMUSIC"> F  </i>
   <v name="POMASS">     55.84700000</v>
   <v name="DARWINR">      0.00000000</v>
   <v name="DARWINV">      1.00000000</v>
   <i type="logical" name="LCORR"> T  </i>
  </separator>
  <i type="logical" name="GGA_COMPAT"> F  </i>
  <i type="logical" name="LBERRY"> F  </i>
  <i type="int" name="ICORELEVEL">     0</i>
  <i type="logical" name="LDAU"> F  </i>
  <i type="int" name="I_CONSTRAINED_M">     0</i>
  <separator name="electronic exchange-correlation" >
   <i type="string" name="GGA">--</i>
   <i type="int" name="VOSKOWN">     1</i>
   <i type="logical" name="LHFCALC"> F  </i>
   <i type="string" name="PRECFOCK"></i>
   <i type="logical" name="LSYMGRAD"> F  </i>
   <i type="logical" name="LHFONE"> F  </i>
   <i type="logical" name="LRHFCALC"> F  </i>
   <i type="logical" name="LTHOMAS"> F  </i>
   <i type="logical" name="LMODELHF"> F  </i>
   <i type="logical" name="LFOCKACE"> F  </i>
   <i name="ENCUT4O">     -1.00000000</i>
   <i type="int" name="EXXOEP">     0</i>
   <i type="int" name="FOURORBIT">     0</i>
   <i name="AEXX">      0.00000000</i>
   <i name="HFALPHA">      0.00000000</i>
   <i name="MCALPHA">      0.00000000</i>
   <i name="ALDAX">      1.00000000</i>
   <i name="AGGAX">      1.00000000</i>
   <i name="ALDAC">      1.00000000</i>
   <i name="AGGAC">      1.00000000</i>
   <i type="int" name="NKREDX">     1</i>
   <i type="int" name="NKREDY">     1</i>
   <i type="int" name="NKREDZ">     1</i>
   <i type="logical" name="SHIFTRED"> F  </i>
   <i type="logical" name="ODDONLY"> F  </i>
   <i type="logical" name="EVENONLY"> F  </i>
   <i type="int" name="LMAXFOCK">     0</i>
   <i type="int" name="NMAXFOCKAE">     0</i>
   <i type="logical" name="LFOCKAEDFT"> F  </i>
   <i name="HFSCREEN">      0.00000000</i>
   <i name="HFSCREENC">      0.00000000</i>
   <i type="int" name="NBANDSGWLOW">     0</i>
  </separator>
  <separator name="vdW DFT" >
   <i type="logical" name="LUSE_VDW"> F  </i>
   <i name="Zab_VDW">     -0.84910000</i>
   <i name="PARAM1">      0.12340000</i>
   <i name="PARAM2">      1.00000000</i>
   <i name="PARAM3">      0.00000000</i>
  </separator>
  <separator name="model GW" >
   <i type="int" name="MODEL_GW">     0</i>
   <i name="MODEL_EPS0">      7.04046678</i>
   <i name="MODEL_ALPHA">      1.00000000</i>
  </separator>
  <separator name="linear response parameters" >
   <i type="logical" name="LEPSILON"> F  </i>
   <i type="logical" name="LRPA"> F  </i>
   <i type="logical" name="LNABLA"> F  </i>
   <i type="logical" name="LVEL"> F  </i>
   <i type="int" name="KINTER">     0</i>
   <i name="CSHIFT">      0.10000000</i>
   <i name="OMEGAMAX">     -1.00000000</i>
   <i name="DEG_THRESHOLD">      0.00200000</i>
   <i name="RTIME">     -0.10000000</i>
   <i name="WPLASMAI">      0.00000000</i>
   <v name="DFIELD">      0.00000000      0.00000000      0.00000000</v>
   <v name="WPLASMA">      0.00000000      0.00000000      0.00000000      0.00000000      0.00000000      0.00000000      0.00000000      0.00000000      0.00000000</v>
  </separator>
  <separator name="orbital magnetization" >
   <i type="logical" name="NUCIND"> F  </i>
   <v name="MAGPOS">      0.00000000      0.00000000      0.00000000</v>
   <i type="logical" name="LNICSALL"> T  </i>
   <i type="logical" name="ORBITALMAG"> F  </i>
   <i type="logical" name="LMAGBLOCH"> F  </i>
   <i type="logical" name="LCHIMAG"> F  </i>
   <i type="logical" name="LGAUGE"> T  </i>
   <i type="int" name="MAGATOM">     0</i>
   <v name="MAGDIPOL">      0.00000000      0.00000000      0.00000000</v>
   <v name="AVECCONST">      0.00000000      0.00000000      0.00000000</v>
  </separator>
  <separator name="response functions" >
   <i type="logical" name="LFINITE_TEMPERATURE"> F  </i>
   <i type="logical" name="LADDER"> F  </i>
   <i type="logical" name="LRPAFORCE"> F  </i>
   <i type="logical" name="LFXC"> F  </i>
   <i type="logical" name="LHARTREE"> T  </i>
   <i type="int" name="IBSE">     0</i>
   <v type="int" name="KPOINT">    -1     0     0     0</v>
   <i type="logical" name="LTCTC"> F  </i>
   <i type="logical" name="LTCTE"> F  </i>
   <i type="logical" name="LTETE"> F  </i>
   <i type="logical" name="LTRIPLET"> F  </i>
   <i type="logical" name="LFXCEPS"> F  </i>
   <i type="logical" name="LFXHEG"> F  </i>
   <i type="int" name="NATURALO">     2</i>
   <i type="logical" name="LHOLEGF"> F  </i>
   <i type="logical" name="L2ORDER"> F  </i>
   <i type="logical" name="LDMP1"> F  </i>
   <i type="logical" name="LMP2LT"> F  </i>
   <i type="logical" name="LSMP2LT"> F  </i>
   <i type="logical" name="LGWLF"> F  </i>
   <i name="ENCUTGW">     -2.00000000</i>
   <i name="ENCUTGWSOFT">     -2.00000000</i>
   <i name="ENCUTLF">     -1.00000000</i>
   <i type="logical" name="LESF_SPLINES"> F  </i>
   <i type="int" name="LMAXMP2">    -1</i>
   <i name="SCISSOR">      0.00000000</i>
   <i type="int" name="NOMEGA">     0</i>
   <i type="int" name="NOMEGAR">     0</i>
   <i type="int" name="NBANDSGW">    -1</i>
   <i type="int" name="NBANDSO">    -1</i>
   <i type="int" name="NBANDSV">    -1</i>
   <i type="int" name="NELM">    90</i>
   <i type="int" name="NELMHF">     1</i>
   <i type="int" name="DIM">     3</i>
   <i type="int" name="IESPILON">     4</i>
   <i type="int" name="ANTIRES">     0</i>
   <i name="OMEGAMAX">    -30.00000000</i>
   <i name="OMEGAMIN">    -30.00000000</i>
   <i name="OMEGATL">   -200.00000000</i>
   <i type="int" name="OMEGAGRID">     0</i>
   <i name="CSHIFT">     -0.10000000</i>
   <i type="logical" name="LSELFENERGY"> F  </i>
   <i type="logical" name="LSPECTRAL"> F  </i>
   <i type="logical" name="LSPECTRALGW"> F  </i>
   <i type="logical" name="LSINGLES"> F  </i>
   <i type="logical" name="LFERMIGW"> F  </i>
   <i type="logical" name="ODDONLYGW"> F  </i>
   <i type="logical" name="EVENONLYGW"> F  </i>
   <i type="int" name="NKREDLFX">     1</i>
   <i type="int" name="NKREDLFY">     1</i>
   <i type="int" name="NKREDLFZ">     1</i>
   <i type="int" name="MAXMEM">  2800</i>
   <i type="int" name="TELESCOPE">     0</i>
   <i type="int" name="NTAUPAR">    -1</i>
   <i type="int" name="NOMEGAPAR">    -1</i>
   <i name="DAMP_NEWTON">      0.80000001</i>
   <i name="LAMBDA">      1.00000000</i>
  </separator>
  <separator name="External order field" >
   <i name="OFIELD_KAPPA">      0.00000000</i>
   <v name="OFIELD_K">      0.00000000      0.00000000      0.00000000</v>
   <i name="OFIELD_Q6_NEAR">      0.00000000</i>
   <i name="OFIELD_Q6_FAR">      0.00000000</i>
   <i name="OFIELD_A">      0.00000000</i>
  </separator>
 </parameters>
 <atominfo>
  <atoms>       2 </atoms>
  <types>       1 </types>
  <array name="atoms" >
   <dimension dim="1">ion</dimension>
   <field type="string">element</field>
   <field type="int">atomtype</field>
   <set>
    <rc><c>Fe</c><c>   1</c></rc>
    <rc><c>Fe</c><c>   1</c></rc>
   </set>
  </array>
  <array name="atomtypes" >
   <dimension dim="1">type</dimension>
   <field type="int">atomspertype</field>
   <field type="string">element</field>
   <field>mass</field>
   <field>valence</field>
   <field type="string">pseudopotential</field>
   <set>
    <rc><c>   2</c><c>Fe</c><c>     55.84700000</c><c>      8.00000000</c><c>  PAW_PBE Fe 06Sep2000                  </c></rc>
   </set>
  </array>
 </atominfo>
 <structure name="initialpos" >
  <crystal>
   <varray name="basis" >
    <v>       2.86303550       0.00000000       0.00000000 </v>
    <v>       0.00000000       2.86303550       0.00000000 </v>
    <v>       0.00000000       0.00000000       2.86303550 </v>
   </varray>
   <i name="volume">     23.46822259 </i>
   <varray name="rec_basis" >
    <v>       0.34927964      -0.00000000       0.00000000 </v>
    <v>       0.00000000       0.34927964       0.00000000 </v>
    <v>      -0.00000000      -0.00000000       0.34927964 </v>
   </varray>
  </crystal>
  <varray name="positions" >
   <v>       0.00000000       0.00000000       0.00000000 </v>
   <v>       0.50000000       0.50000000       0.50000000 </v>
  </varray>
 </structure>
 <calculation>
  <scstep>
   <time name="dav">    8.53    8.54</time>
   <time name="total">   10.39   10.41</time>
   <energy>
    <i name="alphaZ">    117.79976220 </i>
    <i name="ewald">  -1171.43779597 </i>
    <i name="hartreedc">   -228.04061712 </i>
    <i name="XCdc">     14.27161586 </i>
    <i name="pawpsdc">   1103.49540010 </i>
    <i name="pawaedc">  -1119.11610375 </i>
    <i name="eentropy">      0.00259135 </i>
    <i name="bandstr">    188.70585525 </i>
    <i name="atom">   1188.62944521 </i>
    <i name="e_fr_energy">     94.31015313 </i>
    <i name="e_wo_entrp">     94.30756178 </i>
    <i name="e_0_energy">     94.30928935 </i>
   </energy>
  </scstep>
  <scstep>
   <time name="dav">    8.10    8.12</time>
   <time name="total">    8.11    8.13</time>
   <energy>
    <i name="e_fr_energy">    -10.98986686 </i>
    <i name="e_wo_entrp">    -10.98913849 </i>
    <i name="e_0_energy">    -10.98962407 </i>
   </energy>
  </scstep>
  <scstep>
   <time name="dav">    8.75    8.78</time>
   <time name="total">    8.76    8.79</time>
   <energy>
    <i name="e_fr_energy">    -16.03935339 </i>
    <i name="e_wo_entrp">    -16.04069978 </i>
    <i name="e_0_energy">    -16.03980218 </i>
   </energy>
  </scstep>
  <scstep>
   <time name="dav">    8.64    8.66</time>
   <time name="total">    8.65    8.67</time>
   <energy>
    <i name="e_fr_energy">    -16.08579339 </i>
    <i name="e_wo_entrp">    -16.08714150 </i>
    <i name="e_0_energy">    -16.08624276 </i>
   </energy>
  </scstep>
  <scstep>
   <time name="dav">    8.72    8.75</time>
   <time name="total">    9.53    9.56</time>
   <energy>
    <i name="e_fr_energy">    -16.08628168 </i>
    <i name="e_wo_entrp">    -16.08762996 </i>
    <i name="e_0_energy">    -16.08673111 </i>
   </energy>
  </scstep>
  <scstep>
   <time name="dav">    8.68    8.69</time>
   <time name="total">   11.28   11.30</time>
   <energy>
    <i name="e_fr_energy">    -16.56131173 </i>
    <i name="e_wo_entrp">    -16.56105323 </i>
    <i name="e_0_energy">    -16.56122556 </i>
   </energy>
  </scstep>
  <scstep>
   <time name="dav">    9.15    9.16</time>
   <time name="total">   11.76   11.78</time>
   <energy>
    <i name="e_fr_energy">    -16.49776558 </i>
    <i name="e_wo_entrp">    -16.49556461 </i>
    <i name="e_0_energy">    -16.49703192 </i>
   </energy>
  </scstep>
  <scstep>
   <time name="dav">   10.00   10.01</time>
   <time name="total">   12.60   12.63</time>
   <energy>
    <i name="e_fr_energy">    -16.48022583 </i>
    <i name="e_wo_entrp">    -16.47771979 </i>
    <i name="e_0_energy">    -16.47939048 </i>
   </energy>
  </scstep>
  <scstep>
   <time name="dav">   10.94   10.95</time>
   <time name="total">   13.54   13.57</time>
   <energy>
    <i name="e_fr_energy">    -16.46833617 </i>
    <i name="e_wo_entrp">    -16.46547283 </i>
    <i name="e_0_energy">    -16.46738172 </i>
   </energy>
  </scstep>
  <scstep>
   <time name="dav">    9.27    9.28</time>
   <time name="total">   11.87   11.90</time>
   <energy>
    <i name="e_fr_energy">    -16.46784554 </i>
    <i name="e_wo_entrp">    -16.46506928 </i>
    <i name="e_0_energy">    -16.46692012 </i>
   </energy>
  </scstep>
  <scstep>
   <time name="dav">    9.40    9.40</time>
   <time name="total">   12.00   12.03</time>
   <energy>
    <i name="e_fr_energy">    -16.46787360 </i>
    <i name="e_wo_entrp">    -16.46509712 </i>
    <i name="e_0_energy">    -16.46694810 </i>
   </energy>
  </scstep>
  <scstep>
   <time name="dav">    8.25    8.26</time>
   <time name="total">   10.86   10.88</time>
   <energy>
    <i name="e_fr_energy">    -16.46786372 </i>
    <i name="e_wo_entrp">    -16.46509219 </i>
    <i name="e_0_energy">    -16.46693988 </i>
   </energy>
  </scstep>
  <scstep>
   <time name="dav">    7.16    7.16</time>
   <time name="total">    9.76    9.78</time>
   <energy>
    <i name="e_fr_energy">    -16.46786510 </i>
    <i name="e_wo_entrp">    -16.46509033 </i>
    <i name="e_0_energy">    -16.46694018 </i>
   </energy>
  </scstep>
  <scstep>
   <time name="dav">    5.71    5.71</time>
   <time name="total">    7.57    7.59</time>
   <energy>
    <i name="alphaZ">    117.79976220 </i>
    <i name="ewald">  -1171.43779597 </i>
    <i name="hartreedc">   -195.19046529 </i>
    <i name="XCdc">      8.52571899 </i>
    <i name="pawpsdc">   1411.99315399 </i>
    <i name="pawaedc">  -1429.88714266 </i>
    <i name="eentropy">     -0.00277531 </i>
    <i name="bandstr">     53.10223446 </i>
    <i name="atom">   1188.62944521 </i>
    <i name="e_fr_energy">    -16.46786439 </i>
    <i name="e_wo_entrp">    -16.46508908 </i>
    <i name="e_0_energy">    -16.46693929 </i>
   </energy>
  </scstep>
  <structure>
   <crystal>
    <varray name="basis" >
     <v>       2.86303550       0.00000000       0.00000000 </v>
     <v>       0.00000000       2.86303550       0.00000000 </v>
     <v>       0.00000000       0.00000000       2.86303550 </v>
    </varray>
    <i name="volume">     23.46822259 </i>
    <varray name="rec_basis" >
     <v>       0.34927964      -0.00000000       0.00000000 </v>
     <v>       0.00000000       0.34927964       0.00000000 </v>
     <v>      -0.00000000      -0.00000000       0.34927964 </v>
    </varray>
   </crystal>
   <varray name="positions" >
    <v>       0.00000000       0.00000000       0.00000000 </v>
    <v>       0.50000000       0.50000000       0.50000000 </v>
   </varray>
  </structure>
  <varray name="forces" >
   <v>       0.00000000       0.00000000       0.00000000 </v>
   <v>      -0.00000000      -0.00000000      -0.00000000 </v>
  </varray>
  <varray name="stress" >
   <v>     -60.16446627       0.00000000      -0.00000000 </v>
   <v>       0.00000000     -60.16446627      -0.00000000 </v>
   <v>      -0.00000000      -0.00000000     -60.16446627 </v>
  </varray>
  <energy>
   <i name="e_fr_energy">    -16.46786439 </i>
   <i name="e_wo_entrp">    -16.46508908 </i>
   <i name="e_0_energy">    -16.46693929 </i>
  </energy>
  <time name="totalsc">  160.18  163.14</time>
 </calculation>
 <calculation>
  <scstep>
   <time name="dav">    8.65    8.66</time>
   <time name="total">   11.27   11.28</time>
   <energy>
    <i name="alphaZ">    125.64319953 </i>
    <i name="ewald">  -1196.88040466 </i>
    <i name="hartreedc">   -199.43107804 </i>
    <i name="XCdc">      9.78283983 </i>
    <i name="pawpsdc">   1411.96513457 </i>
    <i name="pawaedc">  -1429.85737993 </i>
    <i name="eentropy">     -0.00188004 </i>
    <i name="bandstr">     73.01602309 </i>
    <i name="atom">   1188.62944521 </i>
    <i name="e_fr_energy">    -17.13410045 </i>
    <i name="e_wo_entrp">    -17.13222041 </i>
    <i name="e_0_energy">    -17.13347377 </i>
   </energy>
  </scstep>
  <scstep>
   <time name="dav">    8.58    8.62</time>
   <time name="total">   11.20   11.25</time>
   <energy>
    <i name="e_fr_energy">    -16.51580470 </i>
    <i name="e_wo_entrp">    -16.51188504 </i>
    <i name="e_0_energy">    -16.51449815 </i>
   </energy>
  </scstep>
  <scstep>
   <time name="dav">    9.08    9.09</time>
   <time name="total">   11.71   11.74</time>
   <energy>
    <i name="e_fr_energy">    -16.48198810 </i>
    <i name="e_wo_entrp">    -16.47897549 </i>
    <i name="e_0_energy">    -16.48098390 </i>
   </energy>
  </scstep>
  <scstep>
   <time name="dav">    9.55    9.56</time>
   <time name="total">   12.17   12.19</time>
   <energy>
    <i name="e_fr_energy">    -16.47547160 </i>
    <i name="e_wo_entrp">    -16.47264014 </i>
    <i name="e_0_energy">    -16.47452778 </i>
   </energy>
  </scstep>
  <scstep>
   <time name="dav">    9.40    9.41</time>
   <time name="total">   12.03   12.06</time>
   <energy>
    <i name="e_fr_energy">    -16.47026419 </i>
    <i name="e_wo_entrp">    -16.46760390 </i>
    <i name="e_0_energy">    -16.46937743 </i>
   </energy>
  </scstep>
  <scstep>
   <time name="dav">    8.86    8.87</time>
   <time name="total">   11.49   11.52</time>
   <energy>
    <i name="e_fr_energy">    -16.47034826 </i>
    <i name="e_wo_entrp">    -16.46766844 </i>
    <i name="e_0_energy">    -16.46945499 </i>
   </energy>
  </scstep>
  <scstep>
   <time name="dav">    8.48    8.49</time>
   <time name="total">   11.12   11.15</time>
   <energy>
    <i name="e_fr_energy">    -16.47035475 </i>
    <i name="e_wo_entrp">    -16.46766546 </i>
    <i name="e_0_energy">    -16.46945832 </i>
   </energy>
  </scstep>
  <scstep>
   <time name="dav">    7.21    7.26</time>
   <time name="total">    9.85    9.91</time>
   <energy>
    <i name="e_fr_energy">    -16.47035179 </i>
    <i name="e_wo_entrp">    -16.46766155 </i>
    <i name="e_0_energy">    -16.46945505 </i>
   </energy>
  </scstep>
  <scstep>
   <time name="dav">    5.59    5.61</time>
   <time name="total">    7.46    7.49</time>
   <energy>
    <i name="alphaZ">    125.64319953 </i>
    <i name="ewald">  -1196.88040466 </i>
    <i name="hartreedc">   -185.21127320 </i>
    <i name="XCdc">      8.68145502 </i>
    <i name="pawpsdc">   1470.35591372 </i>
    <i name="pawaedc">  -1488.66916642 </i>
    <i name="eentropy">     -0.00268431 </i>
    <i name="bandstr">     60.98316428 </i>
    <i name="atom">   1188.62944521 </i>
    <i name="e_fr_energy">    -16.47035083 </i>
    <i name="e_wo_entrp">    -16.46766652 </i>
    <i name="e_0_energy">    -16.46945606 </i>
   </energy>
  </scstep>
  <structure>
   <crystal>
    <varray name="basis" >
     <v>       2.80217470       0.00000000       0.00000000 </v>
     <v>       0.00000000       2.80217470       0.00000000 </v>
     <v>      -0.00000000      -0.00000000       2.80217470 </v>
    </varray>
    <i name="volume">     22.00318879 </i>
    <varray name="rec_basis" >
     <v>       0.35686569      -0.00000000       0.00000000 </v>
     <v>      -0.00000000       0.35686569       0.00000000 </v>
     <v>      -0.00000000      -0.00000000       0.35686569 </v>
    </varray>
   </crystal>
   <varray name="positions" >
    <v>       0.00000000       0.00000000       0.00000000 </v>
    <v>       0.50000000       0.50000000       0.50000000 </v>
   </varray>
  </structure>
  <varray name="forces" >
   <v>       0.00000000      -0.00000000       0.00000000 </v>
   <v>      -0.00000000       0.00000000      -0.00000000 </v>
  </varray>
  <varray name="stress" >
   <v>      62.88748860       0.00000000       0.00000000 </v>
   <v>       0.00000000      62.88748860       0.00000000 </v>
   <v>       0.00000000       0.00000000      62.88748860 </v>
  </varray>
  <energy>
   <i name="e_fr_energy">    -16.47035083 </i>
   <i name="e_wo_entrp">    -16.46766652 </i>
   <i name="e_0_energy">    -16.46945606 </i>
  </energy>
  <time name="totalsc">  110.44  111.14</time>
 </calculation>
 <calculation>
  <scstep>
   <time name="dav">    8.66    8.66</time>
   <time name="total">   11.29   11.30</time>
   <energy>
    <i name="alphaZ">    121.87976633 </i>
    <i name="ewald">  -1184.80887493 </i>
    <i name="hartreedc">   -183.34537789 </i>
    <i name="XCdc">      8.10280736 </i>
    <i name="pawpsdc">   1470.38081434 </i>
    <i name="pawaedc">  -1488.69224497 </i>
    <i name="eentropy">     -0.00150319 </i>
    <i name="bandstr">     51.21970041 </i>
    <i name="atom">   1188.62944521 </i>
    <i name="e_fr_energy">    -16.63546732 </i>
    <i name="e_wo_entrp">    -16.63396413 </i>
    <i name="e_0_energy">    -16.63496626 </i>
   </energy>
  </scstep>
  <scstep>
   <time name="dav">    8.72    8.73</time>
   <time name="total">   11.37   11.40</time>
   <energy>
    <i name="e_fr_energy">    -16.49999624 </i>
    <i name="e_wo_entrp">    -16.49774705 </i>
    <i name="e_0_energy">    -16.49924651 </i>
   </energy>
  </scstep>
  <scstep>
   <time name="dav">    9.12    9.13</time>
   <time name="total">   11.75   11.78</time>
   <energy>
    <i name="e_fr_energy">    -16.48611474 </i>
    <i name="e_wo_entrp">    -16.48340867 </i>
    <i name="e_0_energy">    -16.48521272 </i>
   </energy>
  </scstep>
  <scstep>
   <time name="dav">   10.05   10.06</time>
   <time name="total">   12.68   12.70</time>
   <energy>
    <i name="e_fr_energy">    -16.48448550 </i>
    <i name="e_wo_entrp">    -16.48172743 </i>
    <i name="e_0_energy">    -16.48356615 </i>
   </energy>
  </scstep>
  <scstep>
   <time name="dav">    8.95    8.96</time>
   <time name="total">   11.58   11.61</time>
   <energy>
    <i name="e_fr_energy">    -16.48320686 </i>
    <i name="e_wo_entrp">    -16.48052588 </i>
    <i name="e_0_energy">    -16.48231320 </i>
   </energy>
  </scstep>
  <scstep>
   <time name="dav">    8.49    8.50</time>
   <time name="total">   11.13   11.16</time>
   <energy>
    <i name="e_fr_energy">    -16.48322736 </i>
    <i name="e_wo_entrp">    -16.48055457 </i>
    <i name="e_0_energy">    -16.48233643 </i>
   </energy>
  </scstep>
  <scstep>
   <time name="dav">    8.20    8.21</time>
   <time name="total">   10.84   10.87</time>
   <energy>
    <i name="e_fr_energy">    -16.48323258 </i>
    <i name="e_wo_entrp">    -16.48055701 </i>
    <i name="e_0_energy">    -16.48234072 </i>
   </energy>
  </scstep>
  <scstep>
   <time name="dav">    5.92    5.93</time>
   <time name="total">    8.56    8.59</time>
   <energy>
    <i name="e_fr_energy">    -16.48323548 </i>
    <i name="e_wo_entrp">    -16.48055994 </i>
    <i name="e_0_energy">    -16.48234363 </i>
   </energy>
  </scstep>
  <scstep>
   <time name="dav">    5.51    5.52</time>
   <time name="total">    7.39    7.41</time>
   <energy>
    <i name="alphaZ">    121.87976633 </i>
    <i name="ewald">  -1184.80887493 </i>
    <i name="hartreedc">   -189.86772338 </i>
    <i name="XCdc">      8.60094876 </i>
    <i name="pawpsdc">   1441.48008419 </i>
    <i name="pawaedc">  -1459.58128051 </i>
    <i name="eentropy">     -0.00267570 </i>
    <i name="bandstr">     57.18707446 </i>
    <i name="atom">   1188.62944521 </i>
    <i name="e_fr_energy">    -16.48323556 </i>
    <i name="e_wo_entrp">    -16.48055986 </i>
    <i name="e_0_energy">    -16.48234366 </i>
   </energy>
  </scstep>
  <structure>
   <crystal>
    <varray name="basis" >
     <v>       2.83072491       0.00000000       0.00000000 </v>
     <v>       0.00000000       2.83072491       0.00000000 </v>
     <v>      -0.00000000      -0.00000000       2.83072491 </v>
    </varray>
    <i name="volume">     22.68260863 </i>
    <varray name="rec_basis" >
     <v>       0.35326640      -0.00000000       0.00000000 </v>
     <v>      -0.00000000       0.35326640       0.00000000 </v>
     <v>      -0.00000000      -0.00000000       0.35326640 </v>
    </varray>
   </crystal>
   <varray name="positions" >
    <v>       0.00000000       0.00000000       0.00000000 </v>
    <v>       0.50000000       0.50000000       0.50000000 </v>
   </varray>
  </structure>
  <varray name="forces" >
   <v>      -0.00000000       0.00000000       0.00000000 </v>
   <v>       0.00000000      -0.00000000      -0.00000000 </v>
  </varray>
  <varray name="stress" >
   <v>      -0.16112885       0.00000000      -0.00000000 </v>
   <v>       0.00000000      -0.16112885      -0.00000000 </v>
   <v>       0.00000000      -0.00000000      -0.16112885 </v>
  </varray>
  <energy>
   <i name="e_fr_energy">    -16.48323556 </i>
   <i name="e_wo_entrp">    -16.48055986 </i>
   <i name="e_0_energy">    -16.48234366 </i>
  </energy>
  <time name="totalsc">  109.25  112.72</time>
  <eigenvalues>
   <array>
    <dimension dim="1">band</dimension>
    <dimension dim="2">kpoint</dimension>
    <dimension dim="3">spin</dimension>
    <field>eigene</field>
    <field>occ</field>
    <set>
     <set comment="spin 1">
      <set comment="kpoint 1">
       <r>   -2.5983    1.0000 </r>
       <r>    0.9859    1.0000 </r>
       <r>    0.9859    1.0000 </r>
       <r>    3.5369    1.0000 </r>
       <r>    3.5369    1.0000 </r>
       <r>    3.5369    1.0000 </r>
       <r>    4.7494    1.0000 </r>
       <r>    4.7494    1.0000 </r>
       <r>    5.9615    0.0728 </r>
       <r>    5.9615    0.0728 </r>
       <r>    5.9615    0.0728 </r>
       <r>   15.7925    0.0000 </r>
       <r>   15.7925    0.0000 </r>
       <r>   15.7925    0.0000 </r>
       <r>   21.5078    0.0000 </r>
       <r>   21.5078    0.0000 </r>
       <r>   26.6443    0.0000 </r>
       <r>   30.8839    0.0000 </r>
       <r>   30.8839    0.0000 </r>
       <r>   30.8839    0.0000 </r>
      </set>
      <set comment="kpoint 2">
       <r>   -2.5058    1.0000 </r>
       <r>    1.0253    1.0000 </r>
       <r>    1.0270    1.0000 </r>
       <r>    3.5361    1.0000 </r>
       <r>    3.5361    1.0000 </r>
       <r>    3.5623    1.0000 </r>
       <r>    4.7081    1.0000 </r>
       <r>    4.7658    1.0000 </r>
       <r>    5.8831    0.3151 </r>
       <r>    5.8831    0.3151 </r>
       <r>    5.9339    0.1421 </r>
       <r>   15.1216    0.0000 </r>
       <r>   15.9679    0.0000 </r>
       <r>   15.9679    0.0000 </r>
       <r>   21.5344    0.0000 </r>
       <r>   22.0143    0.0000 </r>
       <r>   26.9444    0.0000 </r>
       <r>   30.2500    0.0000 </r>
       <r>   30.8028    0.0000 </r>
       <r>   30.8028    0.0000 </r>
      </set>
      <set comment="kpoint 3">
       <r>   -2.2319    1.0000 </r>
       <r>    1.1424    1.0000 </r>
       <r>    1.1431    1.0000 </r>
       <r>    3.5365    1.0000 </r>
       <r>    3.5365    1.0000 </r>
       <r>    3.6373    1.0000 </r>
       <r>    4.5859    1.0000 </r>
       <r>    4.8137    1.0000 </r>
       <r>    5.6677    1.0023 </r>
       <r>    5.6677    1.0023 </r>
       <r>    5.8524    0.4399 </r>
       <r>   13.6486    0.0000 </r>
       <r>   16.4738    0.0000 </r>
       <r>   16.4738    0.0000 </r>
       <r>   21.6159    0.0000 </r>
       <r>   22.8951    0.0000 </r>
       <r>   27.9531    0.0000 </r>
       <r>   28.9836    0.0000 </r>
       <r>   30.4427    0.0000 </r>
       <r>   30.4427    0.0000 </r>
      </set>
      <set comment="kpoint 4">
       <r>   -1.7884    1.0000 </r>
       <r>    1.3108    1.0000 </r>
       <r>    1.3327    1.0000 </r>
       <r>    3.5452    1.0000 </r>
       <r>    3.5452    1.0000 </r>
       <r>    3.7593    1.0000 </r>
       <r>    4.3873    1.0000 </r>
       <r>    4.8908    1.0000 </r>
       <r>    5.3615    1.0019 </r>
       <r>    5.3615    1.0019 </r>
       <r>    5.7211    0.9134 </r>
       <r>   11.9588    0.0000 </r>
       <r>   17.2609    0.0000 </r>
       <r>   17.2609    0.0000 </r>
       <r>   21.7569    0.0000 </r>
       <r>   23.5349    0.0000 </r>
       <r>   27.6580    0.0000 </r>
       <r>   29.6008    0.0000 </r>
       <r>   29.6008    0.0000 </r>
       <r>   29.7290    0.0000 </r>
      </set>
      <set comment="kpoint 5">
       <r>   -1.1977    1.0000 </r>
       <r>    1.4900    1.0000 </r>
       <r>    1.5894    1.0000 </r>
       <r>    3.5730    1.0000 </r>
       <r>    3.5730    1.0000 </r>
       <r>    3.9234    1.0000 </r>
       <r>    4.1206    1.0000 </r>
       <r>    4.9976    1.0000 </r>
       <r>    5.0157    1.0000 </r>
       <r>    5.0157    1.0000 </r>
       <r>    5.5462    1.0294 </r>
       <r>   10.2894   -0.0000 </r>
       <r>   18.2729    0.0000 </r>
       <r>   18.2729    0.0000 </r>
       <r>   21.9653    0.0000 </r>
       <r>   23.9556    0.0000 </r>
       <r>   26.4409    0.0000 </r>
       <r>   28.3261    0.0000 </r>
       <r>   28.3261    0.0000 </r>
       <r>   30.1314    0.0000 </r>
      </set>
      <set comment="kpoint 6">
       <r>   -0.4988    1.0000 </r>
       <r>    1.6204    1.0000 </r>
       <r>    1.9025    1.0000 </r>
       <r>    3.6319    1.0000 </r>
       <r>    3.6319    1.0000 </r>
       <r>    3.7973    1.0000 </r>
       <r>    4.1232    1.0000 </r>
       <r>    4.6721    1.0000 </r>
       <r>    4.6721    1.0000 </r>
       <r>    5.1462    1.0000 </r>
       <r>    5.3360    1.0011 </r>
       <r>    8.7541   -0.0000 </r>
       <r>   19.4606    0.0000 </r>
       <r>   19.4606    0.0000 </r>
       <r>   22.2519    0.0000 </r>
       <r>   24.3347    0.0000 </r>
       <r>   25.3769    0.0000 </r>
       <r>   26.8349    0.0000 </r>
       <r>   26.8349    0.0000 </r>
       <r>   28.6337    0.0000 </r>
      </set>
      <set comment="kpoint 7">
       <r>    0.2416    1.0000 </r>
       <r>    1.6201    1.0000 </r>
       <r>    2.2594    1.0000 </r>
       <r>    3.4320    1.0000 </r>
       <r>    3.7332    1.0000 </r>
       <r>    3.7332    1.0000 </r>
       <r>    4.3507    1.0000 </r>
       <r>    4.3594    1.0000 </r>
       <r>    4.3594    1.0000 </r>
       <r>    5.1003    1.0000 </r>
       <r>    5.3751    1.0025 </r>
       <r>    7.4414   -0.0000 </r>
       <r>   20.7849    0.0000 </r>
       <r>   20.7849    0.0000 </r>
       <r>   22.6300    0.0000 </r>
       <r>   24.4738    0.0000 </r>
       <r>   24.7980    0.0000 </r>
       <r>   25.2750    0.0000 </r>
       <r>   25.2750    0.0000 </r>
       <r>   27.3347    0.0000 </r>
      </set>
      <set comment="kpoint 8">
       <r>    0.9167    1.0000 </r>
       <r>    1.3989    1.0000 </r>
       <r>    2.6448    1.0000 </r>
       <r>    3.0418    1.0000 </r>
       <r>    3.8858    1.0000 </r>
       <r>    3.8858    1.0000 </r>
       <r>    4.0947    1.0000 </r>
       <r>    4.0947    1.0000 </r>
       <r>    4.5965    1.0000 </r>
       <r>    4.8501    1.0000 </r>
       <r>    5.7668    0.7817 </r>
       <r>    6.4342   -0.0001 </r>
       <r>   22.2142    0.0000 </r>
       <r>   22.2142    0.0000 </r>
       <r>   23.1153    0.0000 </r>
       <r>   23.7208    0.0000 </r>
       <r>   23.7208    0.0000 </r>
       <r>   23.7244    0.0000 </r>
       <r>   25.4250    0.0000 </r>
       <r>   26.2635    0.0000 </r>
      </set>
      <set comment="kpoint 9">
       <r>   -2.4140    1.0000 </r>
       <r>    1.0640    1.0000 </r>
       <r>    1.0684    1.0000 </r>
       <r>    3.4867    1.0000 </r>
       <r>    3.5329    1.0000 </r>
       <r>    3.6361    1.0000 </r>
       <r>    4.6999    1.0000 </r>
       <r>    4.7535    1.0000 </r>
       <r>    5.7436    0.8549 </r>
       <r>    5.8049    0.6389 </r>
       <r>    5.9730    0.0495 </r>
       <r>   15.1392    0.0000 </r>
       <r>   15.4355    0.0000 </r>
       <r>   16.1380    0.0000 </r>
       <r>   21.7954    0.0000 </r>
       <r>   22.3297    0.0000 </r>
       <r>   27.2194    0.0000 </r>
       <r>   29.6880    0.0000 </r>
       <r>   30.6074    0.0000 </r>
       <r>   30.7527    0.0000 </r>
      </set>
      <set comment="kpoint 10">
       <r>   -2.1424    1.0000 </r>
       <r>    1.1756    1.0000 </r>
       <r>    1.1876    1.0000 </r>
       <r>    3.4472    1.0000 </r>
       <r>    3.5260    1.0000 </r>
       <r>    3.7501    1.0000 </r>
       <r>    4.5994    1.0000 </r>
       <r>    4.7927    1.0000 </r>
       <r>    5.4903    1.0168 </r>
       <r>    5.5905    1.0354 </r>
       <r>    5.9438    0.1149 </r>
       <r>   13.7665    0.0000 </r>
       <r>   15.7963    0.0000 </r>
       <r>   16.6299    0.0000 </r>
       <r>   21.9642    0.0000 </r>
       <r>   23.2319    0.0000 </r>
       <r>   28.1602    0.0000 </r>
       <r>   28.4122    0.0000 </r>
       <r>   30.1519    0.0000 </r>
       <r>   30.4718    0.0000 </r>
      </set>
      <set comment="kpoint 11">
       <r>   -1.7030    1.0000 </r>
       <r>    1.3452    1.0000 </r>
       <r>    1.3717    1.0000 </r>
       <r>    3.4298    1.0000 </r>
       <r>    3.5216    1.0000 </r>
       <r>    3.8967    1.0000 </r>
       <r>    4.4220    1.0000 </r>
       <r>    4.8713    1.0000 </r>
       <r>    5.1716    1.0000 </r>
       <r>    5.2888    1.0004 </r>
       <r>    5.8434    0.4779 </r>
       <r>   12.0738    0.0000 </r>
       <r>   16.5176    0.0000 </r>
       <r>   17.3992    0.0000 </r>
       <r>   22.1428    0.0000 </r>
       <r>   23.9622    0.0000 </r>
       <r>   27.0181    0.0000 </r>
       <r>   29.2639    0.0000 </r>
       <r>   29.6873    0.0000 </r>
       <r>   29.8669    0.0000 </r>
      </set>
      <set comment="kpoint 12">
       <r>   -1.1193    1.0000 </r>
       <r>    1.5258    1.0000 </r>
       <r>    1.6190    1.0000 </r>
       <r>    3.4402    1.0000 </r>
       <r>    3.5217    1.0000 </r>
       <r>    4.0757    1.0000 </r>
       <r>    4.1946    1.0000 </r>
       <r>    4.8260    1.0000 </r>
       <r>    4.9543    1.0000 </r>
       <r>    4.9798    1.0000 </r>
       <r>    5.6871    0.9778 </r>
       <r>   10.3976   -0.0000 </r>
       <r>   17.4343    0.0000 </r>
       <r>   18.3933    0.0000 </r>
       <r>   22.3933    0.0000 </r>
       <r>   24.4691    0.0000 </r>
       <r>   25.6777    0.0000 </r>
       <r>   28.0548    0.0000 </r>
       <r>   28.4177    0.0000 </r>
       <r>   31.1944    0.0000 </r>
      </set>
      <set comment="kpoint 13">
       <r>   -0.4311    1.0000 </r>
       <r>    1.6537    1.0000 </r>
       <r>    1.9213    1.0000 </r>
       <r>    3.4868    1.0000 </r>
       <r>    3.4928    1.0000 </r>
       <r>    3.9744    1.0000 </r>
       <r>    4.2841    1.0000 </r>
       <r>    4.4878    1.0000 </r>
       <r>    4.6330    1.0000 </r>
       <r>    5.1303    1.0000 </r>
       <r>    5.4885    1.0165 </r>
       <r>    8.8508   -0.0000 </r>
       <r>   18.4861    0.0000 </r>
       <r>   19.5654    0.0000 </r>
       <r>   22.7377    0.0000 </r>
       <r>   24.4135    0.0000 </r>
       <r>   24.9378    0.0000 </r>
       <r>   26.7758    0.0000 </r>
       <r>   26.9178    0.0000 </r>
       <r>   29.7131    0.0000 </r>
      </set>
      <set comment="kpoint 14">
       <r>    0.2940    1.0000 </r>
       <r>    1.6478    1.0000 </r>
       <r>    2.2641    1.0000 </r>
       <r>    3.3152    1.0000 </r>
       <r>    3.5787    1.0000 </r>
       <r>    3.9024    1.0000 </r>
       <r>    4.1822    1.0000 </r>
       <r>    4.3581    1.0000 </r>
       <r>    4.5157    1.0000 </r>
       <r>    5.2602    1.0002 </r>
       <r>    5.3660    1.0021 </r>
       <r>    7.5176   -0.0000 </r>
       <r>   19.6234    0.0000 </r>
       <r>   20.8771    0.0000 </r>
       <r>   23.1998    0.0000 </r>
       <r>   23.1998    0.0000 </r>
       <r>   25.3527    0.0000 </r>
       <r>   25.5038    0.0000 </r>
       <r>   25.5968    0.0000 </r>
       <r>   28.3653    0.0000 </r>
      </set>
      <set comment="kpoint 15">
       <r>    0.9524    1.0000 </r>
       <r>    1.4249    1.0000 </r>
       <r>    2.6297    1.0000 </r>
       <r>    2.9946    1.0000 </r>
       <r>    3.7234    1.0000 </r>
       <r>    3.9248    1.0000 </r>
       <r>    3.9871    1.0000 </r>
       <r>    4.1440    1.0000 </r>
       <r>    4.7624    1.0000 </r>
       <r>    5.0143    1.0000 </r>
       <r>    5.7779    0.7429 </r>
       <r>    6.4786   -0.0000 </r>
       <r>   20.8056    0.0000 </r>
       <r>   22.0020    0.0000 </r>
       <r>   22.2974    0.0000 </r>
       <r>   23.7990    0.0000 </r>
       <r>   23.8100    0.0000 </r>
       <r>   24.6019    0.0000 </r>
       <r>   26.2460    0.0000 </r>
       <r>   27.1999    0.0000 </r>
      </set>
      <set comment="kpoint 16">
       <r>   -1.8779    1.0000 </r>
       <r>    1.2712    1.0000 </r>
       <r>    1.3157    1.0000 </r>
       <r>    3.3464    1.0000 </r>
       <r>    3.5000    1.0000 </r>
       <r>    3.9229    1.0000 </r>
       <r>    4.6001    1.0000 </r>
       <r>    4.7670    1.0000 </r>
       <r>    5.1837    1.0000 </r>
       <r>    5.3821    1.0029 </r>
       <r>    6.0058    0.0009 </r>
       <r>   13.7493    0.0000 </r>
       <r>   14.7232    0.0000 </r>
       <r>   17.0853    0.0000 </r>
       <r>   22.3063    0.0000 </r>
       <r>   24.2322    0.0000 </r>
       <r>   27.0971    0.0000 </r>
       <r>   28.8928    0.0000 </r>
       <r>   29.6339    0.0000 </r>
       <r>   30.4457    0.0000 </r>
      </set>
      <set comment="kpoint 17">
       <r>   -1.4522    1.0000 </r>
       <r>    1.4163    1.0000 </r>
       <r>    1.5102    1.0000 </r>
       <r>    3.2735    1.0000 </r>
       <r>    3.4690    1.0000 </r>
       <r>    4.1201    1.0000 </r>
       <r>    4.5017    1.0000 </r>
       <r>    4.8219    1.0000 </r>
       <r>    4.8347    1.0000 </r>
       <r>    5.0975    1.0000 </r>
       <r>    5.9861    0.0271 </r>
       <r>   12.3338    0.0000 </r>
       <r>   15.0756    0.0000 </r>
       <r>   17.8062    0.0000 </r>
       <r>   22.5268    0.0000 </r>
       <r>   25.2303    0.0000 </r>
       <r>   25.6085    0.0000 </r>
       <r>   28.8209    0.0000 </r>
       <r>   29.9242    0.0000 </r>
       <r>   30.3478    0.0000 </r>
      </set>
      <set comment="kpoint 18">
       <r>   -0.8913    1.0000 </r>
       <r>    1.5780    1.0000 </r>
       <r>    1.7519    1.0000 </r>
       <r>    3.2372    1.0000 </r>
       <r>    3.4344    1.0000 </r>
       <r>    4.3382    1.0000 </r>
       <r>    4.3507    1.0000 </r>
       <r>    4.4785    1.0000 </r>
       <r>    4.7991    1.0000 </r>
       <r>    4.9297    1.0000 </r>
       <r>    5.8927    0.2785 </r>
       <r>   10.6708   -0.0000 </r>
       <r>   15.8671    0.0000 </r>
       <r>   18.7506    0.0000 </r>
       <r>   22.7695    0.0000 </r>
       <r>   24.1403    0.0000 </r>
       <r>   25.9704    0.0000 </r>
       <r>   27.7610    0.0000 </r>
       <r>   28.6891    0.0000 </r>
       <r>   32.4548    0.0000 </r>
      </set>
      <set comment="kpoint 19">
       <r>   -0.2394    1.0000 </r>
       <r>    1.6922    1.0000 </r>
       <r>    2.0296    1.0000 </r>
       <r>    3.2456    1.0000 </r>
       <r>    3.3676    1.0000 </r>
       <r>    4.1428    1.0000 </r>
       <r>    4.2200    1.0000 </r>
       <r>    4.5421    1.0000 </r>
       <r>    4.5734    1.0000 </r>
       <r>    5.0832    1.0000 </r>
       <r>    5.7401    0.8650 </r>
       <r>    9.1025   -0.0000 </r>
       <r>   16.8075    0.0000 </r>
       <r>   19.8778    0.0000 </r>
       <r>   22.7374    0.0000 </r>
       <r>   23.0834    0.0000 </r>
       <r>   26.6194    0.0000 </r>
       <r>   26.6490    0.0000 </r>
       <r>   27.1611    0.0000 </r>
       <r>   31.6149    0.0000 </r>
      </set>
      <set comment="kpoint 20">
       <r>    0.4331    1.0000 </r>
       <r>    1.6747    1.0000 </r>
       <r>    2.3361    1.0000 </r>
       <r>    3.2130    1.0000 </r>
       <r>    3.3064    1.0000 </r>
       <r>    3.8479    1.0000 </r>
       <r>    4.1747    1.0000 </r>
       <r>    4.3635    1.0000 </r>
       <r>    4.8201    1.0000 </r>
       <r>    5.3383    1.0012 </r>
       <r>    5.5429    1.0287 </r>
       <r>    7.7204   -0.0000 </r>
       <r>   17.8462    0.0000 </r>
       <r>   21.1524    0.0000 </r>
       <r>   21.4076    0.0000 </r>
       <r>   23.4996    0.0000 </r>
       <r>   25.5814    0.0000 </r>
       <r>   25.6246    0.0000 </r>
       <r>   27.3281    0.0000 </r>
       <r>   30.3336    0.0000 </r>
      </set>
      <set comment="kpoint 21">
       <r>    1.0304    1.0000 </r>
       <r>    1.4596    1.0000 </r>
       <r>    2.6555    1.0000 </r>
       <r>    2.9612    1.0000 </r>
       <r>    3.4258    1.0000 </r>
       <r>    3.6067    1.0000 </r>
       <r>    4.2048    1.0000 </r>
       <r>    4.2631    1.0000 </r>
       <r>    5.0707    1.0000 </r>
       <r>    5.3154    1.0007 </r>
       <r>    5.8099    0.6184 </r>
       <r>    6.6018   -0.0000 </r>
       <r>   18.9627    0.0000 </r>
       <r>   20.1500    0.0000 </r>
       <r>   22.5452    0.0000 </r>
       <r>   24.0304    0.0000 </r>
       <r>   24.0476    0.0000 </r>
       <r>   24.7521    0.0000 </r>
       <r>   28.1714    0.0000 </r>
       <r>   29.1751    0.0000 </r>
      </set>
      <set comment="kpoint 22">
       <r>   -1.0530    1.0000 </r>
       <r>    1.5130    1.0000 </r>
       <r>    1.7267    1.0000 </r>
       <r>    3.1445    1.0000 </r>
       <r>    3.4194    1.0000 </r>
       <r>    4.3647    1.0000 </r>
       <r>    4.4674    1.0000 </r>
       <r>    4.5559    1.0000 </r>
       <r>    4.7920    1.0000 </r>
       <r>    4.8500    1.0000 </r>
       <r>    6.0542   -0.0316 </r>
       <r>   12.1781    0.0000 </r>
       <r>   14.0860    0.0000 </r>
       <r>   18.4605    0.0000 </r>
       <r>   22.7461    0.0000 </r>
       <r>   24.0368    0.0000 </r>
       <r>   26.6780    0.0000 </r>
       <r>   28.2013    0.0000 </r>
       <r>   30.1037    0.0000 </r>
       <r>   31.3659    0.0000 </r>
      </set>
      <set comment="kpoint 23">
       <r>   -0.5379    1.0000 </r>
       <r>    1.6089    1.0000 </r>
       <r>    1.9929    1.0000 </r>
       <r>    3.0566    1.0000 </r>
       <r>    3.3895    1.0000 </r>
       <r>    4.1073    1.0000 </r>
       <r>    4.5107    1.0000 </r>
       <r>    4.6165    1.0000 </r>
       <r>    4.6205    1.0000 </r>
       <r>    4.8618    1.0000 </r>
       <r>    6.0411   -0.0266 </r>
       <r>   10.9139   -0.0000 </r>
       <r>   14.3917    0.0000 </r>
       <r>   19.3328    0.0000 </r>
       <r>   22.4930    0.0000 </r>
       <r>   22.9608    0.0000 </r>
       <r>   27.3569    0.0000 </r>
       <r>   27.8215    0.0000 </r>
       <r>   29.1297    0.0000 </r>
       <r>   31.3956    0.0000 </r>
      </set>
      <set comment="kpoint 24">
       <r>    0.0399    1.0000 </r>
       <r>    1.6575    1.0000 </r>
       <r>    2.2817    1.0000 </r>
       <r>    3.0195    1.0000 </r>
       <r>    3.3609    1.0000 </r>
       <r>    3.7788    1.0000 </r>
       <r>    4.4489    1.0000 </r>
       <r>    4.4549    1.0000 </r>
       <r>    4.8811    1.0000 </r>
       <r>    5.0086    1.0000 </r>
       <r>    5.9546    0.0881 </r>
       <r>    9.3971   -0.0000 </r>
       <r>   15.1815    0.0000 </r>
       <r>   20.3913    0.0000 </r>
       <r>   21.0270    0.0000 </r>
       <r>   23.2337    0.0000 </r>
       <r>   26.4164    0.0000 </r>
       <r>   27.5446    0.0000 </r>
       <r>   28.7061    0.0000 </r>
       <r>   32.0571    0.0000 </r>
      </set>
      <set comment="kpoint 25">
       <r>    0.6054    1.0000 </r>
       <r>    1.6058    1.0000 </r>
       <r>    2.5732    1.0000 </r>
       <r>    3.0411    1.0000 </r>
       <r>    3.2755    1.0000 </r>
       <r>    3.4994    1.0000 </r>
       <r>    4.3918    1.0000 </r>
       <r>    4.4367    1.0000 </r>
       <r>    5.1396    1.0000 </r>
       <r>    5.2905    1.0004 </r>
       <r>    5.8076    0.6277 </r>
       <r>    7.9805   -0.0000 </r>
       <r>   16.1392    0.0000 </r>
       <r>   19.6550    0.0000 </r>
       <r>   21.6064    0.0000 </r>
       <r>   23.6017    0.0000 </r>
       <r>   25.5152    0.0000 </r>
       <r>   25.9451    0.0000 </r>
       <r>   29.5287    0.0000 </r>
       <r>   32.3300    0.0000 </r>
      </set>
      <set comment="kpoint 26">
       <r>    1.0804    1.0000 </r>
       <r>    1.4174    1.0000 </r>
       <r>    2.8524    1.0000 </r>
       <r>    3.0979    1.0000 </r>
       <r>    3.1272    1.0000 </r>
       <r>    3.2803    1.0000 </r>
       <r>    4.4041    1.0000 </r>
       <r>    4.4331    1.0000 </r>
       <r>    5.3873    1.0032 </r>
       <r>    5.6141    1.0335 </r>
       <r>    5.8580    0.4167 </r>
       <r>    6.7728   -0.0000 </r>
       <r>   17.2099    0.0000 </r>
       <r>   18.3823    0.0000 </r>
       <r>   22.9519    0.0000 </r>
       <r>   24.0942    0.0000 </r>
       <r>   24.4052    0.0000 </r>
       <r>   24.7313    0.0000 </r>
       <r>   30.4008    0.0000 </r>
       <r>   31.3506    0.0000 </r>
      </set>
      <set comment="kpoint 27">
       <r>   -0.1034    1.0000 </r>
       <r>    1.6109    1.0000 </r>
       <r>    2.2985    1.0000 </r>
       <r>    2.9190    1.0000 </r>
       <r>    3.4259    1.0000 </r>
       <r>    3.7529    1.0000 </r>
       <r>    4.4744    1.0000 </r>
       <r>    4.6129    1.0000 </r>
       <r>    4.8287    1.0000 </r>
       <r>    4.9048    1.0000 </r>
       <r>    6.1102   -0.0331 </r>
       <r>   10.6085   -0.0000 </r>
       <r>   13.6520    0.0000 </r>
       <r>   20.1217    0.0000 </r>
       <r>   20.8989    0.0000 </r>
       <r>   23.1378    0.0000 </r>
       <r>   26.7677    0.0000 </r>
       <r>   29.5083    0.0000 </r>
       <r>   29.5902    0.0000 </r>
       <r>   29.8078    0.0000 </r>
      </set>
      <set comment="kpoint 28">
       <r>    0.3469    1.0000 </r>
       <r>    1.5651    1.0000 </r>
       <r>    2.6308    1.0000 </r>
       <r>    2.8362    1.0000 </r>
       <r>    3.4387    1.0000 </r>
       <r>    3.5300    1.0000 </r>
       <r>    4.4175    1.0000 </r>
       <r>    4.6301    1.0000 </r>
       <r>    4.9196    1.0000 </r>
       <r>    5.1813    1.0000 </r>
       <r>    6.0991   -0.0346 </r>
       <r>    9.5128   -0.0000 </r>
       <r>   13.9238    0.0000 </r>
       <r>   19.4028    0.0000 </r>
       <r>   21.0954    0.0000 </r>
       <r>   23.3643    0.0000 </r>
       <r>   26.0505    0.0000 </r>
       <r>   27.9924    0.0000 </r>
       <r>   30.4791    0.0000 </r>
       <r>   30.8076    0.0000 </r>
      </set>
      <set comment="kpoint 29">
       <r>    0.7459    1.0000 </r>
       <r>    1.4597    1.0000 </r>
       <r>    2.8166    1.0000 </r>
       <r>    2.9552    1.0000 </r>
       <r>    3.1803    1.0000 </r>
       <r>    3.5791    1.0000 </r>
       <r>    4.4505    1.0000 </r>
       <r>    4.6496    1.0000 </r>
       <r>    5.2206    1.0001 </r>
       <r>    5.4410    1.0084 </r>
       <r>    6.0151   -0.0086 </r>
       <r>    8.1854   -0.0000 </r>
       <r>   14.6777    0.0000 </r>
       <r>   18.0227    0.0000 </r>
       <r>   22.2309    0.0000 </r>
       <r>   23.6764    0.0000 </r>
       <r>   25.3152    0.0000 </r>
       <r>   26.4034    0.0000 </r>
       <r>   31.3430    0.0000 </r>
       <r>   31.7989    0.0000 </r>
      </set>
      <set comment="kpoint 30">
       <r>    1.0595    1.0000 </r>
       <r>    1.2928    1.0000 </r>
       <r>    2.8662    1.0000 </r>
       <r>    2.9878    1.0000 </r>
       <r>    3.2443    1.0000 </r>
       <r>    3.4693    1.0000 </r>
       <r>    4.5373    1.0000 </r>
       <r>    4.6210    1.0000 </r>
       <r>    5.6740    0.9953 </r>
       <r>    5.8693    0.3701 </r>
       <r>    5.9088    0.2208 </r>
       <r>    6.9382   -0.0000 </r>
       <r>   15.6477    0.0000 </r>
       <r>   16.7684    0.0000 </r>
       <r>   23.5066    0.0000 </r>
       <r>   24.1006    0.0000 </r>
       <r>   24.6501    0.0000 </r>
       <r>   24.9030    0.0000 </r>
       <r>   32.3205    0.0000 </r>
       <r>   32.6050    0.0000 </r>
      </set>
      <set comment="kpoint 31">
       <r>    0.6187    1.0000 </r>
       <r>    1.4375    1.0000 </r>
       <r>    2.7095    1.0000 </r>
       <r>    3.0231    1.0000 </r>
       <r>    3.1449    1.0000 </r>
       <r>    3.8780    1.0000 </r>
       <r>    4.4476    1.0000 </r>
       <r>    4.7410    1.0000 </r>
       <r>    4.8720    1.0000 </r>
       <r>    5.4605    1.0113 </r>
       <r>    6.1640   -0.0217 </r>
       <r>    9.1083   -0.0000 </r>
       <r>   13.3990    0.0000 </r>
       <r>   17.9029    0.0000 </r>
       <r>   21.9753    0.0000 </r>
       <r>   23.5335    0.0000 </r>
       <r>   25.5701    0.0000 </r>
       <r>   27.9764    0.0000 </r>
       <r>   29.5855    0.0000 </r>
       <r>   32.6767    0.0000 </r>
      </set>
      <set comment="kpoint 32">
       <r>    0.8293    1.0000 </r>
       <r>    1.2931    1.0000 </r>
       <r>    2.6492    1.0000 </r>
       <r>    2.9121    1.0000 </r>
       <r>    3.4114    1.0000 </r>
       <r>    4.1288    1.0000 </r>
       <r>    4.5354    1.0000 </r>
       <r>    4.7941    1.0000 </r>
       <r>    5.1280    1.0000 </r>
       <r>    5.7076    0.9424 </r>
       <r>    6.1499   -0.0250 </r>
       <r>    8.1599   -0.0000 </r>
       <r>   13.6547    0.0000 </r>
       <r>   16.5498    0.0000 </r>
       <r>   23.0133    0.0000 </r>
       <r>   23.7736    0.0000 </r>
       <r>   25.0398    0.0000 </r>
       <r>   26.8303    0.0000 </r>
       <r>   30.0430    0.0000 </r>
       <r>   33.1591    0.0000 </r>
      </set>
      <set comment="kpoint 33">
       <r>    0.9957    1.0000 </r>
       <r>    1.1454    1.0000 </r>
       <r>    2.6615    1.0000 </r>
       <r>    2.7494    1.0000 </r>
       <r>    3.7555    1.0000 </r>
       <r>    4.0209    1.0000 </r>
       <r>    4.6504    1.0000 </r>
       <r>    4.7507    1.0000 </r>
       <r>    5.9120    0.2102 </r>
       <r>    5.9432    0.1164 </r>
       <r>    6.0629   -0.0336 </r>
       <r>    7.0201   -0.0000 </r>
       <r>   14.3753    0.0000 </r>
       <r>   15.3640    0.0000 </r>
       <r>   24.1055    0.0000 </r>
       <r>   24.1895    0.0000 </r>
       <r>   24.5343    0.0000 </r>
       <r>   25.4786    0.0000 </r>
       <r>   30.9289    0.0000 </r>
       <r>   31.9803    0.0000 </r>
      </set>
      <set comment="kpoint 34">
       <r>    0.8806    1.0000 </r>
       <r>    1.1408    1.0000 </r>
       <r>    2.5497    1.0000 </r>
       <r>    2.7085    1.0000 </r>
       <r>    3.8768    1.0000 </r>
       <r>    4.6356    1.0000 </r>
       <r>    4.6549    1.0000 </r>
       <r>    4.9117    1.0000 </r>
       <r>    5.1670    1.0000 </r>
       <r>    5.9271    0.1618 </r>
       <r>    6.2063   -0.0129 </r>
       <r>    7.7267   -0.0000 </r>
       <r>   13.2709    0.0000 </r>
       <r>   15.2729    0.0000 </r>
       <r>   23.9195    0.0000 </r>
       <r>   23.9343    0.0000 </r>
       <r>   24.7206    0.0000 </r>
       <r>   26.8003    0.0000 </r>
       <r>   29.4403    0.0000 </r>
       <r>   31.8702    0.0000 </r>
      </set>
      <set comment="kpoint 35">
       <r>    0.9364    1.0000 </r>
       <r>    1.0204    1.0000 </r>
       <r>    2.5249    1.0000 </r>
       <r>    2.5780    1.0000 </r>
       <r>    4.2907    1.0000 </r>
       <r>    4.5930    1.0000 </r>
       <r>    4.7377    1.0000 </r>
       <r>    4.8325    1.0000 </r>
       <r>    5.9767    0.0427 </r>
       <r>    6.0891   -0.0353 </r>
       <r>    6.1845   -0.0172 </r>
       <r>    6.9237   -0.0000 </r>
       <r>   13.5244    0.0000 </r>
       <r>   14.2388    0.0000 </r>
       <r>   24.1295    0.0000 </r>
       <r>   24.4036    0.0000 </r>
       <r>   24.9605    0.0000 </r>
       <r>   26.0101    0.0000 </r>
       <r>   29.8384    0.0000 </r>
       <r>   30.7401    0.0000 </r>
      </set>
      <set comment="kpoint 36">
       <r>    0.9130    1.0000 </r>
       <r>    0.9401    1.0000 </r>
       <r>    2.4636    1.0000 </r>
       <r>    2.4814    1.0000 </r>
       <r>    4.7378    1.0000 </r>
       <r>    4.7952    1.0000 </r>
       <r>    4.8059    1.0000 </r>
       <r>    4.9357    1.0000 </r>
       <r>    6.1783   -0.0185 </r>
       <r>    6.1968   -0.0147 </r>
       <r>    6.2295   -0.0092 </r>
       <r>    6.5987   -0.0000 </r>
       <r>   13.2202    0.0000 </r>
       <r>   13.4866    0.0000 </r>
       <r>   24.1866    0.0000 </r>
       <r>   24.2811    0.0000 </r>
       <r>   25.7170    0.0000 </r>
       <r>   26.1747    0.0000 </r>
       <r>   29.3692    0.0000 </r>
       <r>   29.7767    0.0000 </r>
      </set>
      <set comment="kpoint 37">
       <r>   -2.3229    1.0000 </r>
       <r>    1.1059    1.0000 </r>
       <r>    1.1059    1.0000 </r>
       <r>    3.4819    1.0000 </r>
       <r>    3.4819    1.0000 </r>
       <r>    3.7107    1.0000 </r>
       <r>    4.7183    1.0000 </r>
       <r>    4.7183    1.0000 </r>
       <r>    5.5584    1.0318 </r>
       <r>    5.8948    0.2709 </r>
       <r>    5.8948    0.2709 </r>
       <r>   15.3027    0.0000 </r>
       <r>   15.3027    0.0000 </r>
       <r>   15.7386    0.0000 </r>
       <r>   22.3695    0.0000 </r>
       <r>   22.3695    0.0000 </r>
       <r>   27.4745    0.0000 </r>
       <r>   29.5898    0.0000 </r>
       <r>   29.5898    0.0000 </r>
       <r>   31.1331    0.0000 </r>
      </set>
      <set comment="kpoint 38">
       <r>   -2.0533    1.0000 </r>
       <r>    1.2170    1.0000 </r>
       <r>    1.2237    1.0000 </r>
       <r>    3.4221    1.0000 </r>
       <r>    3.4694    1.0000 </r>
       <r>    3.8445    1.0000 </r>
       <r>    4.6150    1.0000 </r>
       <r>    4.7712    1.0000 </r>
       <r>    5.2689    1.0002 </r>
       <r>    5.6803    0.9873 </r>
       <r>    5.9161    0.1964 </r>
       <r>   13.8888    0.0000 </r>
       <r>   15.7708    0.0000 </r>
       <r>   16.1071    0.0000 </r>
       <r>   22.4920    0.0000 </r>
       <r>   23.4158    0.0000 </r>
       <r>   28.1767    0.0000 </r>
       <r>   28.3568    0.0000 </r>
       <r>   29.1659    0.0000 </r>
       <r>   31.0786    0.0000 </r>
      </set>
      <set comment="kpoint 39">
       <r>   -1.6179    1.0000 </r>
       <r>    1.3931    1.0000 </r>
       <r>    1.3973    1.0000 </r>
       <r>    3.3879    1.0000 </r>
       <r>    3.4521    1.0000 </r>
       <r>    4.0102    1.0000 </r>
       <r>    4.4521    1.0000 </r>
       <r>    4.8534    1.0000 </r>
       <r>    4.9329    1.0000 </r>
       <r>    5.3774    1.0027 </r>
       <r>    5.8554    0.4277 </r>
       <r>   12.1908    0.0000 </r>
       <r>   16.4885    0.0000 </r>
       <r>   16.8006    0.0000 </r>
       <r>   22.7062    0.0000 </r>
       <r>   24.2331    0.0000 </r>
       <r>   26.7380    0.0000 </r>
       <r>   28.2223    0.0000 </r>
       <r>   29.9969    0.0000 </r>
       <r>   30.5299    0.0000 </r>
      </set>
      <set comment="kpoint 40">
       <r>   -1.0406    1.0000 </r>
       <r>    1.5716    1.0000 </r>
       <r>    1.6391    1.0000 </r>
       <r>    3.3900    1.0000 </r>
       <r>    3.4281    1.0000 </r>
       <r>    4.2052    1.0000 </r>
       <r>    4.2495    1.0000 </r>
       <r>    4.5898    1.0000 </r>
       <r>    4.9637    1.0000 </r>
       <r>    5.0384    1.0000 </r>
       <r>    5.7281    0.8966 </r>
       <r>   10.5090   -0.0000 </r>
       <r>   17.3908    0.0000 </r>
       <r>   17.6987    0.0000 </r>
       <r>   23.0282    0.0000 </r>
       <r>   24.7938    0.0000 </r>
       <r>   25.3764    0.0000 </r>
       <r>   26.8855    0.0000 </r>
       <r>   29.5143    0.0000 </r>
       <r>   31.5120    0.0000 </r>
      </set>
      <set comment="kpoint 41">
       <r>   -0.3625    1.0000 </r>
       <r>    1.6957    1.0000 </r>
       <r>    1.9316    1.0000 </r>
       <r>    3.3713    1.0000 </r>
       <r>    3.4372    1.0000 </r>
       <r>    4.0558    1.0000 </r>
       <r>    4.2765    1.0000 </r>
       <r>    4.4245    1.0000 </r>
       <r>    4.7062    1.0000 </r>
       <r>    5.1168    1.0000 </r>
       <r>    5.5510    1.0304 </r>
       <r>    8.9536   -0.0000 </r>
       <r>   18.4165    0.0000 </r>
       <r>   18.7503    0.0000 </r>
       <r>   23.4806    0.0000 </r>
       <r>   24.1090    0.0000 </r>
       <r>   25.2952    0.0000 </r>
       <r>   25.4101    0.0000 </r>
       <r>   28.2750    0.0000 </r>
       <r>   30.0779    0.0000 </r>
      </set>
      <set comment="kpoint 42">
       <r>    0.3485    1.0000 </r>
       <r>    1.6831    1.0000 </r>
       <r>    2.2603    1.0000 </r>
       <r>    3.2146    1.0000 </r>
       <r>    3.5324    1.0000 </r>
       <r>    3.9632    1.0000 </r>
       <r>    4.0205    1.0000 </r>
       <r>    4.4112    1.0000 </r>
       <r>    4.6558    1.0000 </r>
       <r>    5.3408    1.0012 </r>
       <r>    5.3642    1.0020 </r>
       <r>    7.6051   -0.0000 </r>
       <r>   19.5125    0.0000 </r>
       <r>   19.9185    0.0000 </r>
       <r>   22.9177    0.0000 </r>
       <r>   23.9369    0.0000 </r>
       <r>   24.0906    0.0000 </r>
       <r>   25.8820    0.0000 </r>
       <r>   27.0199    0.0000 </r>
       <r>   28.7496    0.0000 </r>
      </set>
      <set comment="kpoint 43">
       <r>    0.9915    1.0000 </r>
       <r>    1.4563    1.0000 </r>
       <r>    2.6056    1.0000 </r>
       <r>    2.9395    1.0000 </r>
       <r>    3.6660    1.0000 </r>
       <r>    3.8249    1.0000 </r>
       <r>    4.0152    1.0000 </r>
       <r>    4.1746    1.0000 </r>
       <r>    4.8856    1.0000 </r>
       <r>    5.1144    1.0000 </r>
       <r>    5.8045    0.6402 </r>
       <r>    6.5400   -0.0000 </r>
       <r>   20.6373    0.0000 </r>
       <r>   21.1793    0.0000 </r>
       <r>   21.7700    0.0000 </r>
       <r>   22.5209    0.0000 </r>
       <r>   24.8836    0.0000 </r>
       <r>   25.8679    0.0000 </r>
       <r>   26.6354    0.0000 </r>
       <r>   27.5917    0.0000 </r>
      </set>
      <set comment="kpoint 44">
       <r>   -1.7904    1.0000 </r>
       <r>    1.3159    1.0000 </r>
       <r>    1.3474    1.0000 </r>
       <r>    3.3339    1.0000 </r>
       <r>    3.4252    1.0000 </r>
       <r>    4.0213    1.0000 </r>
       <r>    4.6214    1.0000 </r>
       <r>    4.7451    1.0000 </r>
       <r>    4.9407    1.0000 </r>
       <r>    5.5551    1.0312 </r>
       <r>    5.9272    0.1617 </r>
       <r>   13.9027    0.0000 </r>
       <r>   14.7711    0.0000 </r>
       <r>   16.4037    0.0000 </r>
       <r>   23.0348    0.0000 </r>
       <r>   24.2867    0.0000 </r>
       <r>   27.0684    0.0000 </r>
       <r>   28.4587    0.0000 </r>
       <r>   29.0528    0.0000 </r>
       <r>   31.2798    0.0000 </r>
      </set>
      <set comment="kpoint 45">
       <r>   -1.3678    1.0000 </r>
       <r>    1.4647    1.0000 </r>
       <r>    1.5355    1.0000 </r>
       <r>    3.2555    1.0000 </r>
       <r>    3.3860    1.0000 </r>
       <r>    4.2293    1.0000 </r>
       <r>    4.5242    1.0000 </r>
       <r>    4.5860    1.0000 </r>
       <r>    4.8079    1.0000 </r>
       <r>    5.2794    1.0003 </r>
       <r>    5.9197    0.1849 </r>
       <r>   12.4625    0.0000 </r>
       <r>   15.1422    0.0000 </r>
       <r>   17.0496    0.0000 </r>
       <r>   23.3310    0.0000 </r>
       <r>   25.3151    0.0000 </r>
       <r>   25.5936    0.0000 </r>
       <r>   27.6395    0.0000 </r>
       <r>   30.4490    0.0000 </r>
       <r>   30.9028    0.0000 </r>
      </set>
      <set comment="kpoint 46">
       <r>   -0.8120    1.0000 </r>
       <r>    1.6340    1.0000 </r>
       <r>    1.7634    1.0000 </r>
       <r>    3.2133    1.0000 </r>
       <r>    3.3432    1.0000 </r>
       <r>    4.2457    1.0000 </r>
       <r>    4.3772    1.0000 </r>
       <r>    4.4633    1.0000 </r>
       <r>    4.9183    1.0000 </r>
       <r>    4.9665    1.0000 </r>
       <r>    5.8448    0.4722 </r>
       <r>   10.7924   -0.0000 </r>
       <r>   15.9311    0.0000 </r>
       <r>   17.8924    0.0000 </r>
       <r>   23.6743    0.0000 </r>
       <r>   24.1338    0.0000 </r>
       <r>   26.0745    0.0000 </r>
       <r>   26.4246    0.0000 </r>
       <r>   29.9278    0.0000 </r>
       <r>   31.4610    0.0000 </r>
      </set>
      <set comment="kpoint 47">
       <r>   -0.1681    1.0000 </r>
       <r>    1.7522    1.0000 </r>
       <r>    2.0229    1.0000 </r>
       <r>    3.1913    1.0000 </r>
       <r>    3.3059    1.0000 </r>
       <r>    3.9561    1.0000 </r>
       <r>    4.2457    1.0000 </r>
       <r>    4.6737    1.0000 </r>
       <r>    4.7025    1.0000 </r>
       <r>    5.0800    1.0000 </r>
       <r>    5.7086    0.9404 </r>
       <r>    9.2213   -0.0000 </r>
       <r>   16.8640    0.0000 </r>
       <r>   18.8823    0.0000 </r>
       <r>   22.7428    0.0000 </r>
       <r>   24.1284    0.0000 </r>
       <r>   25.0555    0.0000 </r>
       <r>   26.7170    0.0000 </r>
       <r>   28.7442    0.0000 </r>
[...]
       </set>
       <set comment="band 16">
        <r>  0.0000  0.0824  0.0000  0.0824  0.0000  0.1081  0.0000  0.1081  0.0014 </r>
        <r>  0.0000  0.0824  0.0000  0.0824  0.0000  0.1081  0.0000  0.1081  0.0014 </r>
       </set>
       <set comment="band 17">
        <r>  0.2234  0.0009  0.1383  0.0009  0.0238  0.0008  0.0076  0.0008  0.0000 </r>
        <r>  0.2234  0.0009  0.1383  0.0009  0.0238  0.0008  0.0076  0.0008  0.0000 </r>
       </set>
       <set comment="band 18">
        <r>  0.1366  0.0310  0.1005  0.0310  0.0239  0.0305  0.0039  0.0305  0.0000 </r>
        <r>  0.1366  0.0310  0.1005  0.0310  0.0239  0.0305  0.0039  0.0305  0.0000 </r>
       </set>
       <set comment="band 19">
        <r>  0.0005  0.0000  0.0046  0.0000  0.0030  0.0713  0.0243  0.0713  0.0000 </r>
        <r>  0.0005  0.0000  0.0046  0.0000  0.0030  0.0713  0.0243  0.0713  0.0000 </r>
       </set>
       <set comment="band 20">
        <r>  0.0000  0.0000  0.0000  0.0000  0.0000  0.0777  0.0000  0.0777  0.0009 </r>
        <r>  0.0000  0.0000  0.0000  0.0000  0.0000  0.0777  0.0000  0.0777  0.0009 </r>
       </set>
      </set>
      <set comment="kpoint 117">
       <set comment="band 1">
        <r>  0.0196  0.0074  0.0074  0.0074  0.1393  0.1392  0.0000  0.1392  0.0000 </r>
        <r>  0.0196  0.0074  0.0074  0.0074  0.1393  0.1392  0.0000  0.1392  0.0000 </r>
       </set>
       <set comment="band 2">
        <r>  0.0479  0.0417  0.0417  0.0417  0.0815  0.0814  0.0000  0.0814  0.0000 </r>
        <r>  0.0479  0.0417  0.0417  0.0417  0.0815  0.0814  0.0000  0.0814  0.0000 </r>
       </set>
       <set comment="band 3">
        <r>  0.0000  0.0070  0.0303  0.0082  0.2635  0.0712  0.0160  0.0608  0.0000 </r>
        <r>  0.0000  0.0070  0.0303  0.0082  0.2635  0.0712  0.0160  0.0608  0.0000 </r>
       </set>
       <set comment="band 4">
        <r>  0.0000  0.0234  0.0000  0.0222  0.0001  0.1925  0.0000  0.2029  0.0160 </r>
        <r>  0.0000  0.0234  0.0000  0.0222  0.0001  0.1925  0.0000  0.2029  0.0160 </r>
       </set>
       <set comment="band 5">
        <r>  0.0000  0.0159  0.0656  0.0169  0.1999  0.0515  0.0392  0.0486  0.0000 </r>
        <r>  0.0000  0.0159  0.0656  0.0169  0.1999  0.0515  0.0392  0.0486  0.0000 </r>
       </set>
       <set comment="band 6">
        <r>  0.0000  0.0497  0.0000  0.0487  0.0000  0.1485  0.0000  0.1514  0.0392 </r>
        <r>  0.0000  0.0497  0.0000  0.0487  0.0000  0.1485  0.0000  0.1514  0.0392 </r>
       </set>
       <set comment="band 7">
        <r>  0.0000  0.0001  0.0003  0.0001  0.0369  0.0069  0.4336  0.0119  0.0027 </r>
        <r>  0.0000  0.0001  0.0003  0.0001  0.0369  0.0069  0.4336  0.0119  0.0027 </r>
       </set>
       <set comment="band 8">
        <r>  0.0000  0.0002  0.0000  0.0003  0.0002  0.0302  0.0027  0.0252  0.4336 </r>
        <r>  0.0000  0.0002  0.0000  0.0003  0.0002  0.0302  0.0027  0.0252  0.4336 </r>
       </set>
       <set comment="band 9">
        <r>  0.0000  0.0000  0.0000  0.0000  0.0141  0.0026  0.4682  0.0046  0.0033 </r>
        <r>  0.0000  0.0000  0.0000  0.0000  0.0141  0.0026  0.4682  0.0046  0.0033 </r>
       </set>
       <set comment="band 10">
        <r>  0.0000  0.0000  0.0000  0.0000  0.0001  0.0116  0.0033  0.0096  0.4682 </r>
        <r>  0.0000  0.0000  0.0000  0.0000  0.0001  0.0116  0.0033  0.0096  0.4682 </r>
       </set>
       <set comment="band 11">
        <r>  0.0387  0.0360  0.0360  0.0360  0.0996  0.0996  0.0000  0.0996  0.0000 </r>
        <r>  0.0387  0.0360  0.0360  0.0360  0.0996  0.0996  0.0000  0.0996  0.0000 </r>
       </set>
       <set comment="band 12">
        <r>  0.0000  0.0295  0.1226  0.0318  0.1407  0.0365  0.0256  0.0339  0.0000 </r>
        <r>  0.0000  0.0295  0.1226  0.0318  0.1407  0.0365  0.0256  0.0339  0.0000 </r>
       </set>
       <set comment="band 13">
        <r>  0.0000  0.0930  0.0000  0.0908  0.0000  0.1043  0.0000  0.1068  0.0256 </r>
        <r>  0.0000  0.0930  0.0000  0.0908  0.0000  0.1043  0.0000  0.1068  0.0256 </r>
       </set>
       <set comment="band 14">
        <r>  0.2771  0.0033  0.0033  0.0033  0.0430  0.0430  0.0000  0.0430  0.0000 </r>
        <r>  0.2771  0.0033  0.0033  0.0033  0.0430  0.0430  0.0000  0.0430  0.0000 </r>
       </set>
       <set comment="band 15">
        <r>  0.0000  0.0254  0.1146  0.0320  0.1411  0.0395  0.0140  0.0313  0.0000 </r>
        <r>  0.0000  0.0254  0.1146  0.0320  0.1411  0.0395  0.0140  0.0313  0.0000 </r>
       </set>
       <set comment="band 16">
        <r>  0.0000  0.0893  0.0001  0.0826  0.0002  0.1018  0.0000  0.1099  0.0140 </r>
        <r>  0.0000  0.0893  0.0001  0.0826  0.0002  0.1018  0.0000  0.1099  0.0140 </r>
       </set>
       <set comment="band 17">
        <r>  0.3108  0.0300  0.0300  0.0300  0.0000  0.0000  0.0000  0.0000  0.0000 </r>
        <r>  0.3108  0.0300  0.0300  0.0300  0.0000  0.0000  0.0000  0.0000  0.0000 </r>
       </set>
       <set comment="band 18">
        <r>  0.0943  0.0585  0.0585  0.0585  0.0381  0.0381  0.0000  0.0381  0.0000 </r>
        <r>  0.0943  0.0585  0.0585  0.0585  0.0381  0.0381  0.0000  0.0381  0.0000 </r>
       </set>
       <set comment="band 19">
        <r>  0.0000  0.0105  0.0002  0.0080  0.0005  0.0225  0.0013  0.0295  0.0947 </r>
        <r>  0.0000  0.0105  0.0002  0.0080  0.0005  0.0225  0.0013  0.0295  0.0947 </r>
       </set>
       <set comment="band 20">
        <r>  0.0000  0.0019  0.0123  0.0045  0.0345  0.0125  0.0947  0.0055  0.0013 </r>
        <r>  0.0000  0.0019  0.0123  0.0045  0.0345  0.0125  0.0947  0.0055  0.0013 </r>
       </set>
      </set>
      <set comment="kpoint 118">
       <set comment="band 1">
        <r>  0.0166  0.0174  0.0174  0.0018  0.1572  0.0840  0.0009  0.1571  0.0027 </r>
        <r>  0.0166  0.0174  0.0174  0.0018  0.1572  0.0840  0.0009  0.1571  0.0027 </r>
       </set>
       <set comment="band 2">
        <r>  0.0189  0.0300  0.0301  0.0000  0.1587  0.0431  0.0019  0.1586  0.0056 </r>
        <r>  0.0189  0.0300  0.0301  0.0000  0.1587  0.0431  0.0019  0.1586  0.0056 </r>
       </set>
       <set comment="band 3">
        <r>  0.0000  0.0307  0.0306  0.0000  0.1839  0.0000  0.0162  0.1841  0.0054 </r>
        <r>  0.0000  0.0307  0.0306  0.0000  0.1839  0.0000  0.0162  0.1841  0.0054 </r>
       </set>
       <set comment="band 4">
        <r>  0.0000  0.0395  0.0395  0.0000  0.1682  0.0000  0.0218  0.1683  0.0072 </r>
        <r>  0.0000  0.0395  0.0395  0.0000  0.1682  0.0000  0.0218  0.1683  0.0072 </r>
       </set>
       <set comment="band 5">
        <r>  0.0099  0.0097  0.0097  0.0803  0.0045  0.3190  0.0000  0.0045  0.0000 </r>
        <r>  0.0099  0.0097  0.0097  0.0803  0.0045  0.3190  0.0000  0.0045  0.0000 </r>
       </set>
       <set comment="band 6">
        <r>  0.0021  0.0138  0.0138  0.0787  0.0199  0.2764  0.0030  0.0199  0.0091 </r>
        <r>  0.0021  0.0138  0.0138  0.0787  0.0199  0.2764  0.0030  0.0199  0.0091 </r>
       </set>
       <set comment="band 7">
        <r>  0.0000  0.0001  0.0001  0.0000  0.0202  0.0000  0.3395  0.0201  0.1126 </r>
        <r>  0.0000  0.0001  0.0001  0.0000  0.0202  0.0000  0.3395  0.0201  0.1126 </r>
       </set>
       <set comment="band 8">
        <r>  0.0000  0.0000  0.0000  0.0000  0.0147  0.0000  0.3480  0.0146  0.1154 </r>
        <r>  0.0000  0.0000  0.0000  0.0000  0.0147  0.0000  0.3480  0.0146  0.1154 </r>
       </set>
       <set comment="band 9">
        <r>  0.0001  0.0000  0.0000  0.0001  0.0073  0.0087  0.1170  0.0073  0.3528 </r>
        <r>  0.0001  0.0000  0.0000  0.0001  0.0073  0.0087  0.1170  0.0073  0.3528 </r>
       </set>
       <set comment="band 10">
        <r>  0.0001  0.0000  0.0000  0.0000  0.0052  0.0003  0.1202  0.0052  0.3625 </r>
        <r>  0.0001  0.0000  0.0000  0.0000  0.0052  0.0003  0.1202  0.0052  0.3625 </r>
       </set>
       <set comment="band 11">
        <r>  0.0346  0.0348  0.0348  0.0607  0.0805  0.1078  0.0006  0.0805  0.0017 </r>
        <r>  0.0346  0.0348  0.0348  0.0607  0.0805  0.1078  0.0006  0.0805  0.0017 </r>
       </set>
       <set comment="band 12">
        <r>  0.0182  0.0337  0.0337  0.0929  0.0605  0.1163  0.0026  0.0605  0.0079 </r>
        <r>  0.0182  0.0337  0.0337  0.0929  0.0605  0.1163  0.0026  0.0605  0.0079 </r>
       </set>
       <set comment="band 13">
        <r>  0.0000  0.0916  0.0916  0.0000  0.1055  0.0000  0.0152  0.1055  0.0051 </r>
        <r>  0.0000  0.0916  0.0916  0.0000  0.1055  0.0000  0.0152  0.1055  0.0051 </r>
       </set>
       <set comment="band 14">
        <r>  0.0000  0.0896  0.0896  0.0000  0.1059  0.0000  0.0124  0.1059  0.0041 </r>
        <r>  0.0000  0.0896  0.0896  0.0000  0.1059  0.0000  0.0124  0.1059  0.0041 </r>
       </set>
       <set comment="band 15">
        <r>  0.2323  0.0008  0.0008  0.0438  0.0307  0.0712  0.0000  0.0307  0.0000 </r>
        <r>  0.2323  0.0008  0.0008  0.0438  0.0307  0.0712  0.0000  0.0307  0.0000 </r>
       </set>
       <set comment="band 16">
        <r>  0.1373  0.0025  0.0025  0.1018  0.0306  0.0946  0.0005  0.0306  0.0016 </r>
        <r>  0.1373  0.0025  0.0025  0.1018  0.0306  0.0946  0.0005  0.0306  0.0016 </r>
       </set>
       <set comment="band 17">
        <r>  0.1980  0.0586  0.0586  0.0105  0.0160  0.0345  0.0006  0.0160  0.0017 </r>
        <r>  0.1980  0.0586  0.0586  0.0105  0.0160  0.0345  0.0006  0.0160  0.0017 </r>
       </set>
       <set comment="band 18">
        <r>  0.1273  0.0606  0.0606  0.0375  0.0299  0.0420  0.0002  0.0299  0.0005 </r>
        <r>  0.1273  0.0606  0.0606  0.0375  0.0299  0.0420  0.0002  0.0299  0.0005 </r>
       </set>
       <set comment="band 19">
        <r>  0.0000  0.0059  0.0059  0.0000  0.0309  0.0000  0.0463  0.0309  0.0154 </r>
        <r>  0.0000  0.0059  0.0059  0.0000  0.0309  0.0000  0.0463  0.0309  0.0154 </r>
       </set>
       <set comment="band 20">
        <r>  0.0000  0.0021  0.0021  0.0000  0.0244  0.0000  0.0172  0.0244  0.0057 </r>
        <r>  0.0000  0.0021  0.0021  0.0000  0.0244  0.0000  0.0172  0.0244  0.0057 </r>
       </set>
      </set>
      <set comment="kpoint 119">
       <set comment="band 1">
        <r>  0.0112  0.0057  0.0384  0.0057  0.2379  0.0732  0.0070  0.0732  0.0000 </r>
        <r>  0.0112  0.0057  0.0384  0.0057  0.2379  0.0732  0.0070  0.0732  0.0000 </r>
       </set>
       <set comment="band 2">
        <r>  0.0118  0.0004  0.0681  0.0004  0.3488  0.0000  0.0153  0.0000  0.0000 </r>
        <r>  0.0118  0.0004  0.0681  0.0004  0.3488  0.0000  0.0153  0.0000  0.0000 </r>
       </set>
       <set comment="band 3">
        <r>  0.0000  0.0244  0.0000  0.0244  0.0000  0.2032  0.0000  0.2031  0.0019 </r>
        <r>  0.0000  0.0244  0.0000  0.0244  0.0000  0.2032  0.0000  0.2031  0.0019 </r>
       </set>
       <set comment="band 4">
        <r>  0.0008  0.0189  0.0301  0.0189  0.1114  0.1290  0.0115  0.1290  0.0000 </r>
        <r>  0.0008  0.0189  0.0301  0.0189  0.1114  0.1290  0.0115  0.1290  0.0000 </r>
       </set>
       <set comment="band 5">
        <r>  0.0036  0.0533  0.0003  0.0533  0.0011  0.1623  0.0008  0.1623  0.0000 </r>
        <r>  0.0036  0.0533  0.0003  0.0533  0.0011  0.1623  0.0008  0.1623  0.0000 </r>
       </set>
       <set comment="band 6">
        <r>  0.0000  0.0537  0.0000  0.0537  0.0000  0.1627  0.0000  0.1627  0.0047 </r>
        <r>  0.0000  0.0537  0.0000  0.0537  0.0000  0.1627  0.0000  0.1627  0.0047 </r>
       </set>
       <set comment="band 7">
        <r>  0.0001  0.0000  0.0001  0.0000  0.0239  0.0010  0.4671  0.0010  0.0000 </r>
        <r>  0.0001  0.0000  0.0001  0.0000  0.0239  0.0010  0.4671  0.0010  0.0000 </r>
       </set>
       <set comment="band 8">
        <r>  0.0001  0.0000  0.0001  0.0000  0.0214  0.0004  0.4709  0.0004  0.0000 </r>
        <r>  0.0001  0.0000  0.0001  0.0000  0.0214  0.0004  0.4709  0.0004  0.0000 </r>
       </set>
       <set comment="band 9">
        <r>  0.0000  0.0000  0.0000  0.0000  0.0000  0.0034  0.0000  0.0034  0.4869 </r>
        <r>  0.0000  0.0000  0.0000  0.0000  0.0000  0.0034  0.0000  0.0034  0.4869 </r>
       </set>
       <set comment="band 10">
        <r>  0.0000  0.0000  0.0000  0.0000  0.0000  0.0013  0.0000  0.0013  0.4913 </r>
        <r>  0.0000  0.0000  0.0000  0.0000  0.0000  0.0013  0.0000  0.0013  0.4913 </r>
       </set>
       <set comment="band 11">
        <r>  0.0236  0.0660  0.0209  0.0660  0.0454  0.1020  0.0006  0.1020  0.0000 </r>
        <r>  0.0236  0.0660  0.0209  0.0660  0.0454  0.1020  0.0006  0.1020  0.0000 </r>
       </set>
       <set comment="band 12">
        <r>  0.0000  0.0901  0.0000  0.0901  0.0000  0.1178  0.0000  0.1178  0.0032 </r>
        <r>  0.0000  0.0901  0.0000  0.0901  0.0000  0.1178  0.0000  0.1178  0.0032 </r>
       </set>
       <set comment="band 13">
        <r>  0.0655  0.0068  0.1182  0.0068  0.2017  0.0047  0.0120  0.0047  0.0000 </r>
        <r>  0.0655  0.0068  0.1182  0.0068  0.2017  0.0047  0.0120  0.0047  0.0000 </r>
       </set>
       <set comment="band 14">
        <r>  0.0621  0.0226  0.0930  0.0226  0.1659  0.0193  0.0099  0.0193  0.0000 </r>
        <r>  0.0621  0.0226  0.0930  0.0226  0.1659  0.0193  0.0099  0.0193  0.0000 </r>
       </set>
       <set comment="band 15">
        <r>  0.1369  0.0495  0.0056  0.0495  0.0010  0.0806  0.0007  0.0806  0.0000 </r>
        <r>  0.1369  0.0495  0.0056  0.0495  0.0010  0.0806  0.0007  0.0806  0.0000 </r>
       </set>
       <set comment="band 16">
        <r>  0.0000  0.0868  0.0000  0.0868  0.0000  0.1109  0.0000  0.1109  0.0016 </r>
        <r>  0.0000  0.0868  0.0000  0.0868  0.0000  0.1109  0.0000  0.1109  0.0016 </r>
       </set>
       <set comment="band 17">
        <r>  0.3003  0.0018  0.0757  0.0018  0.0180  0.0003  0.0018  0.0003  0.0000 </r>
        <r>  0.3003  0.0018  0.0757  0.0018  0.0180  0.0003  0.0018  0.0003  0.0000 </r>
       </set>
       <set comment="band 18">
        <r>  0.1864  0.0311  0.0662  0.0311  0.0245  0.0269  0.0009  0.0269  0.0000 </r>
        <r>  0.1864  0.0311  0.0662  0.0311  0.0245  0.0269  0.0009  0.0269  0.0000 </r>
       </set>
       <set comment="band 19">
        <r>  0.0001  0.0005  0.0043  0.0005  0.0088  0.0380  0.0244  0.0380  0.0000 </r>
        <r>  0.0001  0.0005  0.0043  0.0005  0.0088  0.0380  0.0244  0.0380  0.0000 </r>
       </set>
       <set comment="band 20">
        <r>  0.0000  0.0003  0.0000  0.0003  0.0000  0.0403  0.0000  0.0403  0.0013 </r>
        <r>  0.0000  0.0003  0.0000  0.0003  0.0000  0.0403  0.0000  0.0403  0.0013 </r>
       </set>
      </set>
      <set comment="kpoint 120">
       <set comment="band 1">
        <r>  0.0033  0.0188  0.0188  0.0188  0.1312  0.1311  0.0000  0.1311  0.0000 </r>
        <r>  0.0033  0.0188  0.0188  0.0188  0.1312  0.1311  0.0000  0.1311  0.0000 </r>
       </set>
       <set comment="band 2">
        <r>  0.0000  0.0099  0.0440  0.0121  0.2549  0.0700  0.0025  0.0576  0.0000 </r>
        <r>  0.0000  0.0099  0.0440  0.0121  0.2549  0.0700  0.0025  0.0576  0.0000 </r>
       </set>
       <set comment="band 3">
        <r>  0.0000  0.0340  0.0000  0.0319  0.0002  0.1850  0.0000  0.1973  0.0025 </r>
        <r>  0.0000  0.0340  0.0000  0.0319  0.0002  0.1850  0.0000  0.1973  0.0025 </r>
       </set>
       <set comment="band 4">
        <r>  0.0000  0.0129  0.0569  0.0156  0.2368  0.0650  0.0034  0.0538  0.0000 </r>
        <r>  0.0000  0.0129  0.0569  0.0156  0.2368  0.0650  0.0034  0.0538  0.0000 </r>
       </set>
       <set comment="band 5">
        <r>  0.0000  0.0440  0.0000  0.0414  0.0002  0.1722  0.0000  0.1833  0.0034 </r>
        <r>  0.0000  0.0440  0.0000  0.0414  0.0002  0.1722  0.0000  0.1833  0.0034 </r>
       </set>
       <set comment="band 6">
        <r>  0.0045  0.0318  0.0318  0.0318  0.1133  0.1135  0.0000  0.1135  0.0000 </r>
        <r>  0.0045  0.0318  0.0318  0.0318  0.1133  0.1135  0.0000  0.1135  0.0000 </r>
       </set>
       <set comment="band 7">
        <r>  0.0000  0.0000  0.0000  0.0000  0.0032  0.0006  0.4855  0.0011  0.0036 </r>
        <r>  0.0000  0.0000  0.0000  0.0000  0.0032  0.0006  0.4855  0.0011  0.0036 </r>
       </set>
       <set comment="band 8">
        <r>  0.0000  0.0000  0.0000  0.0000  0.0000  0.0026  0.0036  0.0022  0.4855 </r>
        <r>  0.0000  0.0000  0.0000  0.0000  0.0000  0.0026  0.0036  0.0022  0.4855 </r>
       </set>
       <set comment="band 9">
        <r>  0.0000  0.0000  0.0000  0.0000  0.0023  0.0004  0.4868  0.0008  0.0036 </r>
        <r>  0.0000  0.0000  0.0000  0.0000  0.0023  0.0004  0.4868  0.0008  0.0036 </r>
       </set>
       <set comment="band 10">
        <r>  0.0000  0.0000  0.0000  0.0000  0.0000  0.0019  0.0036  0.0016  0.4868 </r>
        <r>  0.0000  0.0000  0.0000  0.0000  0.0000  0.0019  0.0036  0.0016  0.4868 </r>
       </set>
       <set comment="band 11">
        <r>  0.0206  0.0542  0.0542  0.0542  0.0788  0.0788  0.0000  0.0788  0.0000 </r>
        <r>  0.0206  0.0542  0.0542  0.0542  0.0788  0.0788  0.0000  0.0788  0.0000 </r>
       </set>
       <set comment="band 12">
        <r>  0.0000  0.0256  0.1210  0.0353  0.1523  0.0444  0.0024  0.0323  0.0000 </r>
        <r>  0.0000  0.0256  0.1210  0.0353  0.1523  0.0444  0.0024  0.0323  0.0000 </r>
       </set>
       <set comment="band 13">
        <r>  0.0000  0.0956  0.0003  0.0860  0.0003  0.1083  0.0000  0.1204  0.0024 </r>
        <r>  0.0000  0.0956  0.0003  0.0860  0.0003  0.1083  0.0000  0.1204  0.0024 </r>
       </set>
       <set comment="band 14">
        <r>  0.0000  0.0246  0.1194  0.0355  0.1496  0.0445  0.0019  0.0309  0.0000 </r>
        <r>  0.0000  0.0246  0.1194  0.0355  0.1496  0.0445  0.0019  0.0309  0.0000 </r>
       </set>
       <set comment="band 15">
        <r>  0.0000  0.0951  0.0003  0.0842  0.0004  0.1055  0.0000  0.1191  0.0019 </r>
        <r>  0.0000  0.0951  0.0003  0.0842  0.0004  0.1055  0.0000  0.1191  0.0019 </r>
       </set>
       <set comment="band 16">
        <r>  0.1143  0.0367  0.0367  0.0367  0.0617  0.0617  0.0000  0.0617  0.0000 </r>
        <r>  0.1143  0.0367  0.0367  0.0367  0.0617  0.0617  0.0000  0.0617  0.0000 </r>
       </set>
       <set comment="band 17">
        <r>  0.3797  0.0073  0.0073  0.0073  0.0009  0.0009  0.0000  0.0009  0.0000 </r>
        <r>  0.3797  0.0073  0.0073  0.0073  0.0009  0.0009  0.0000  0.0009  0.0000 </r>
       </set>
       <set comment="band 18">
        <r>  0.2870  0.0233  0.0233  0.0233  0.0145  0.0145  0.0000  0.0145  0.0000 </r>
        <r>  0.2870  0.0233  0.0233  0.0233  0.0145  0.0145  0.0000  0.0145  0.0000 </r>
       </set>
       <set comment="band 19">
        <r>  0.0000  0.0042  0.0025  0.0003  0.0167  0.0021  0.0095  0.0278  0.0082 </r>
        <r>  0.0000  0.0042  0.0025  0.0003  0.0167  0.0021  0.0095  0.0278  0.0082 </r>
       </set>
       <set comment="band 20">
        <r>  0.0000  0.0004  0.0019  0.0038  0.0126  0.0253  0.0071  0.0029  0.0083 </r>
        <r>  0.0000  0.0004  0.0019  0.0038  0.0125  0.0252  0.0071  0.0028  0.0083 </r>
       </set>
      </set>
     </set>
    </set>
   </array>
  </projected>
 </calculation>
 <structure name="finalpos" >
  <crystal>
   <varray name="basis" >
    <v>       2.83072491       0.00000000       0.00000000 </v>
    <v>       0.00000000       2.83072491       0.00000000 </v>
    <v>      -0.00000000      -0.00000000       2.83072491 </v>
   </varray>
   <i name="volume">     22.68260863 </i>
   <varray name="rec_basis" >
    <v>       0.35326640      -0.00000000       0.00000000 </v>
    <v>      -0.00000000       0.35326640       0.00000000 </v>
    <v>      -0.00000000      -0.00000000       0.35326640 </v>
   </varray>
  </crystal>
  <varray name="positions" >
   <v>       0.00000000       0.00000000       0.00000000 </v>
   <v>       0.50000000       0.50000000       0.50000000 </v>
  </varray>
 </structure>
</modeling>
