   1   1   0   0
  0.1386300E+02  0.2621157E-09  0.2621157E-09  0.2621157E-09  0.5000000E-15
  1.000000000000000E-004
  CAR 
 unknown system                          
     35.86875797     -5.95305670  301      9.85509801      1.00000000
     -5.953  0.0000E+00  0.0000E+00
     -5.814  0.0000E+00  0.0000E+00
     -5.674  0.0000E+00  0.0000E+00
     -5.535  0.0000E+00  0.0000E+00
     -5.395  0.0000E+00  0.0000E+00
     -5.256  0.0000E+00  0.0000E+00
     -5.117  0.0000E+00  0.0000E+00
     -4.977  0.0000E+00  0.0000E+00
     -4.838  0.0000E+00  0.0000E+00
     -4.698  0.0000E+00  0.0000E+00
     -4.559  0.0000E+00  0.0000E+00
     -4.420  0.0000E+00  0.0000E+00
     -4.280  0.9268E-13  0.1292E-13
     -4.141  0.1017E-04  0.1418E-05
     -4.001  0.1544E-02  0.2166E-03
     -3.862  0.1275E-03  0.2344E-03
     -3.723  0.2473E-07  0.2344E-03
     -3.583  0.8561E-03  0.3537E-03
     -3.444  0.1385E-02  0.5468E-03
     -3.304  0.3026E-06  0.5469E-03
     -3.165  0.1515E-03  0.5680E-03
     -3.026  0.6397E-02  0.1460E-02
     -2.886  0.1766E-03  0.1484E-02
     -2.747  0.1364E-10  0.1484E-02
     -2.607  0.0000E+00  0.1484E-02
     -2.468  0.0000E+00  0.1484E-02
     -2.328  0.4483E-09  0.1484E-02
     -2.189  0.7148E-03  0.1584E-02
     -2.050  0.7649E-02  0.2650E-02
     -1.910  0.4263E-04  0.2656E-02
     -1.771  0.9599E-05  0.2658E-02
     -1.631  0.5582E-02  0.3436E-02
     -1.492  0.1133E-02  0.3594E-02
     -1.353  0.2076E-07  0.3594E-02
     -1.213  0.1817E-02  0.3847E-02
     -1.074  0.4905E-02  0.4531E-02
     -0.934  0.2913E-05  0.4531E-02
     -0.795  0.1176E-14  0.4531E-02
     -0.656  0.0000E+00  0.4531E-02
     -0.516  0.1669E-15  0.4531E-02
     -0.377  0.1570E-05  0.4531E-02
     -0.237  0.8120E-02  0.5663E-02
     -0.098  0.5328E-02  0.6406E-02
      0.041  0.1755E-06  0.6406E-02
      0.181  0.7751E-03  0.6514E-02
      0.320  0.5929E-02  0.7341E-02
      0.460  0.2041E-04  0.7344E-02
      0.599  0.5343E-04  0.7351E-02
      0.738  0.1207E-01  0.9034E-02
      0.878  0.1328E-02  0.9219E-02
      1.017  0.1130E-08  0.9219E-02
      1.157  0.0000E+00  0.9219E-02
      1.296  0.0000E+00  0.9219E-02
      1.435  0.3194E-09  0.9219E-02
      1.575  0.6346E-03  0.9307E-02
      1.714  0.7720E-02  0.1038E-01
      1.854  0.5164E-04  0.1039E-01
      1.993  0.1907E-04  0.1039E-01
      2.132  0.7698E-02  0.1147E-01
      2.272  0.1249E-02  0.1164E-01
      2.411  0.3805E-06  0.1164E-01
      2.551  0.8645E-02  0.1285E-01
      2.690  0.1153E-01  0.1445E-01
      2.830  0.1700E-05  0.1445E-01
      2.969  0.0000E+00  0.1445E-01
      3.108  0.2787E-10  0.1445E-01
      3.248  0.1494E-03  0.1447E-01
      3.387  0.3198E-02  0.1492E-01
      3.527  0.6079E-02  0.1577E-01
      3.666  0.1772E-02  0.1601E-01
      3.805  0.7593E-02  0.1707E-01
      3.945  0.1383E-02  0.1727E-01
      4.084  0.5779E-03  0.1735E-01
      4.224  0.6113E-02  0.1820E-01
      4.363  0.1162E-02  0.1836E-01
      4.502  0.5587E-02  0.1914E-01
      4.642  0.9688E-05  0.1914E-01
      4.781  0.1485E-13  0.1914E-01
      4.921  0.4464E-13  0.1914E-01
      5.060  0.1942E-04  0.1914E-01
      5.199  0.8573E-02  0.2034E-01
      5.339  0.4424E-02  0.2096E-01
      5.478  0.9087E-02  0.2222E-01
      5.618  0.7035E-02  0.2320E-01
      5.757  0.3388E-05  0.2320E-01
      5.896  0.1966E-03  0.2323E-01
      6.036  0.4230E-02  0.2382E-01
      6.175  0.3805E-03  0.2387E-01
      6.315  0.1904E-01  0.2653E-01
      6.454  0.8149E-03  0.2664E-01
      6.593  0.1577E-09  0.2664E-01
      6.733  0.1120E-17  0.2664E-01
      6.872  0.8619E-07  0.2664E-01
      7.012  0.2719E-02  0.2702E-01
      7.151  0.5660E-02  0.2781E-01
      7.291  0.3902E-02  0.2835E-01
      7.430  0.5091E-02  0.2906E-01
      7.569  0.7290E-03  0.2916E-01
      7.709  0.1024E-01  0.3059E-01
      7.848  0.2425E-03  0.3063E-01
      7.988  0.3879E-02  0.3117E-01
      8.127  0.1605E-01  0.3340E-01
      8.266  0.2475E-03  0.3344E-01
      8.406  0.1094E-10  0.3344E-01
      8.545  0.0000E+00  0.3344E-01
      8.685  0.1541E-07  0.3344E-01
      8.824  0.1217E-02  0.3361E-01
      8.963  0.8713E-02  0.3482E-01
      9.103  0.1533E-02  0.3504E-01
      9.242  0.9339E-02  0.3634E-01
      9.382  0.1818E-02  0.3659E-01
      9.521  0.6464E-02  0.3749E-01
      9.660  0.4750E-02  0.3815E-01
      9.800  0.4415E-02  0.3877E-01
      9.939  0.1872E-01  0.4138E-01
     10.079  0.1955E-03  0.4141E-01
     10.218  0.4425E-11  0.4141E-01
     10.357  0.3946E-10  0.4141E-01
     10.497  0.3997E-03  0.4146E-01
     10.636  0.1468E-01  0.4351E-01
     10.776  0.5097E-02  0.4422E-01
     10.915  0.3309E-02  0.4468E-01
     11.054  0.3838E-02  0.4521E-01
     11.194  0.6251E-02  0.4609E-01
     11.333  0.6892E-04  0.4610E-01
     11.473  0.3240E-02  0.4655E-01
     11.612  0.1304E-01  0.4837E-01
     11.752  0.1777E-02  0.4861E-01
     11.891  0.4178E-03  0.4867E-01
     12.030  0.3192E-08  0.4867E-01
     12.170  0.7208E-05  0.4867E-01
     12.309  0.5432E-02  0.4943E-01
     12.449  0.3515E-02  0.4992E-01
     12.588  0.5525E-02  0.5069E-01
     12.727  0.6542E-02  0.5160E-01
     12.867  0.8377E-03  0.5172E-01
     13.006  0.6376E-02  0.5261E-01
     13.146  0.1382E-01  0.5454E-01
     13.285  0.2218E-02  0.5484E-01
     13.424  0.9296E-02  0.5614E-01
     13.564  0.5733E-02  0.5694E-01
     13.703  0.1092E-03  0.5695E-01
     13.843  0.2968E-02  0.5737E-01
     13.982  0.3844E-03  0.5742E-01
     14.121  0.1598E-04  0.5742E-01
     14.261  0.9048E-02  0.5869E-01
     14.400  0.4399E-02  0.5930E-01
     14.540  0.4246E-02  0.5989E-01
     14.679  0.3884E-02  0.6043E-01
     14.818  0.9438E-02  0.6175E-01
     14.958  0.1274E-01  0.6352E-01
     15.097  0.8901E-02  0.6476E-01
     15.237  0.6815E-05  0.6477E-01
     15.376  0.3922E-05  0.6477E-01
     15.515  0.7671E-02  0.6584E-01
     15.655  0.1643E-01  0.6813E-01
     15.794  0.7275E-02  0.6914E-01
     15.934  0.1953E-05  0.6914E-01
     16.073  0.2549E-08  0.6914E-01
     16.213  0.1073E-02  0.6929E-01
     16.352  0.1368E-01  0.7120E-01
     16.491  0.5418E-02  0.7195E-01
     16.631  0.5970E-05  0.7195E-01
     16.770  0.1476E-02  0.7216E-01
     16.910  0.2009E-03  0.7219E-01
     17.049  0.1320E-05  0.7219E-01
     17.188  0.4741E-02  0.7285E-01
     17.328  0.7365E-02  0.7388E-01
     17.467  0.2296E-01  0.7708E-01
     17.607  0.8046E-03  0.7719E-01
     17.746  0.2503E-02  0.7754E-01
     17.885  0.1093E-01  0.7906E-01
     18.025  0.3899E-04  0.7907E-01
     18.164  0.8835E-02  0.8030E-01
     18.304  0.7453E-02  0.8134E-01
     18.443  0.3235E-02  0.8179E-01
     18.582  0.9336E-03  0.8192E-01
     18.722  0.5854E-02  0.8273E-01
     18.861  0.5677E-02  0.8353E-01
     19.001  0.1499E-02  0.8373E-01
     19.140  0.6230E-02  0.8460E-01
     19.279  0.1926E-02  0.8487E-01
     19.419  0.6949E-02  0.8584E-01
     19.558  0.1390E-01  0.8778E-01
     19.698  0.5549E-02  0.8855E-01
     19.837  0.3298E-02  0.8901E-01
     19.976  0.1209E-01  0.9070E-01
     20.116  0.5476E-04  0.9070E-01
     20.255  0.1096E-04  0.9070E-01
     20.395  0.1026E-01  0.9214E-01
     20.534  0.4274E-02  0.9273E-01
     20.673  0.5827E-03  0.9281E-01
     20.813  0.1548E-03  0.9283E-01
     20.952  0.8524E-02  0.9402E-01
     21.092  0.1042E-01  0.9548E-01
     21.231  0.1418E-02  0.9567E-01
     21.371  0.6658E-02  0.9660E-01
     21.510  0.8395E-02  0.9777E-01
     21.649  0.6269E-02  0.9865E-01
     21.789  0.2473E-02  0.9899E-01
     21.928  0.8836E-02  0.1002E+00
     22.068  0.1563E-02  0.1004E+00
     22.207  0.1266E-01  0.1022E+00
     22.346  0.8971E-02  0.1035E+00
     22.486  0.1106E-01  0.1050E+00
     22.625  0.2568E-03  0.1050E+00
     22.765  0.6545E-02  0.1059E+00
     22.904  0.1761E-02  0.1062E+00
     23.043  0.1257E-01  0.1079E+00
     23.183  0.2408E-02  0.1083E+00
     23.322  0.5105E-02  0.1090E+00
     23.462  0.4908E-02  0.1097E+00
     23.601  0.4332E-02  0.1103E+00
     23.740  0.1684E-01  0.1126E+00
     23.880  0.9494E-02  0.1139E+00
     24.019  0.9757E-02  0.1153E+00
     24.159  0.1223E-01  0.1170E+00
     24.298  0.1003E-02  0.1172E+00
     24.437  0.8832E-02  0.1184E+00
     24.577  0.4297E-02  0.1190E+00
     24.716  0.1487E-02  0.1192E+00
     24.856  0.1901E-03  0.1192E+00
     24.995  0.1478E-03  0.1192E+00
     25.134  0.1213E-01  0.1209E+00
     25.274  0.4919E-02  0.1216E+00
     25.413  0.2977E-02  0.1220E+00
     25.553  0.5033E-03  0.1221E+00
     25.692  0.4122E-02  0.1227E+00
     25.832  0.7896E-02  0.1238E+00
     25.971  0.2971E-02  0.1242E+00
     26.110  0.1775E-01  0.1267E+00
     26.250  0.5653E-02  0.1275E+00
     26.389  0.1154E-01  0.1291E+00
     26.529  0.1723E-04  0.1291E+00
     26.668  0.5678E-02  0.1299E+00
     26.807  0.1067E-02  0.1300E+00
     26.947  0.7005E-02  0.1310E+00
     27.086  0.7404E-02  0.1320E+00
     27.226  0.5722E-02  0.1328E+00
     27.365  0.8212E-03  0.1329E+00
     27.504  0.1690E-01  0.1353E+00
     27.644  0.3516E-02  0.1358E+00
     27.783  0.7125E-02  0.1368E+00
     27.923  0.1123E-01  0.1383E+00
     28.062  0.4960E-02  0.1390E+00
     28.201  0.4773E-02  0.1397E+00
     28.341  0.1040E-02  0.1398E+00
     28.480  0.7049E-02  0.1408E+00
     28.620  0.3133E-02  0.1413E+00
     28.759  0.1123E-01  0.1428E+00
     28.898  0.1987E-01  0.1456E+00
     29.038  0.1954E-02  0.1459E+00
     29.177  0.1239E-03  0.1459E+00
     29.317  0.1300E-01  0.1477E+00
     29.456  0.7123E-02  0.1487E+00
     29.595  0.1602E-02  0.1489E+00
     29.735  0.1159E-04  0.1489E+00
     29.874  0.4703E-02  0.1496E+00
     30.014  0.6530E-02  0.1505E+00
     30.153  0.9777E-02  0.1518E+00
     30.293  0.3647E-02  0.1523E+00
     30.432  0.1910E-02  0.1526E+00
     30.571  0.2515E-01  0.1561E+00
     30.711  0.3203E-02  0.1566E+00
     30.850  0.2360E-07  0.1566E+00
     30.990  0.1663E-02  0.1568E+00
     31.129  0.9992E-02  0.1582E+00
     31.268  0.1795E-02  0.1584E+00
     31.408  0.9381E-07  0.1584E+00
     31.547  0.1158E-03  0.1585E+00
     31.687  0.3190E-02  0.1589E+00
     31.826  0.5662E-04  0.1589E+00
     31.965  0.2193E-11  0.1589E+00
     32.105  0.0000E+00  0.1589E+00
     32.244  0.0000E+00  0.1589E+00
     32.384  0.8711E-18  0.1589E+00
     32.523  0.4396E-07  0.1589E+00
     32.662  0.9703E-03  0.1590E+00
     32.802  0.1271E-02  0.1592E+00
     32.941  0.1801E-06  0.1592E+00
     33.081  0.3011E-08  0.1592E+00
     33.220  0.4114E-03  0.1593E+00
     33.359  0.1269E-02  0.1595E+00
     33.499  0.2070E-05  0.1595E+00
     33.638  0.1289E-02  0.1596E+00
     33.778  0.3910E-03  0.1597E+00
     33.917  0.1699E-03  0.1597E+00
     34.056  0.2058E-02  0.1600E+00
     34.196  0.1356E-04  0.1600E+00
     34.335  0.1236E-12  0.1600E+00
     34.475  0.0000E+00  0.1600E+00
     34.614  0.0000E+00  0.1600E+00
     34.754  0.0000E+00  0.1600E+00
     34.893  0.0000E+00  0.1600E+00
     35.032  0.0000E+00  0.1600E+00
     35.172  0.0000E+00  0.1600E+00
     35.311  0.0000E+00  0.1600E+00
     35.451  0.0000E+00  0.1600E+00
     35.590  0.0000E+00  0.1600E+00
     35.729  0.0000E+00  0.1600E+00
     35.869  0.0000E+00  0.1600E+00
