    1    1  100    1
  0.1386300E+02  0.2621157E-09  0.2621157E-09  0.2621157E-09  0.5000000E-15
  1.000000000000000E-004
  CAR 
 unknown system                          
      4     26      8
 
  0.6250000E-01  0.6250000E-01  0.6250000E-01  0.1562500E-01
    1       -3.572530   1.000000
    2       17.165035   0.000000
    3       18.151789   0.000000
    4       18.151789   0.000000
    5       23.440008   0.000000
    6       23.440008   0.000000
    7       25.595659   0.000000
    8       25.595659   0.000000
 
  0.1875000E+00  0.6250000E-01  0.6250000E-01  0.4687500E-01
    1       -2.140634   1.000000
    2       12.463955   0.000000
    3       15.490931   0.000000
    4       16.247961   0.000000
    5       22.688862   0.000000
    6       23.297670   0.000000
    7       26.899209   0.000000
    8       26.985659   0.000000
 
  0.3125000E+00  0.6250000E-01  0.6250000E-01  0.4687500E-01
    1        0.223203   1.000000
    2        7.614485   1.000000
    3       14.221391   0.000000
    4       14.987601   0.000000
    5       21.836288   0.000000
    6       22.270629   0.000000
    7       28.768906   0.000000
    8       29.370514   0.000000
 
  0.4375000E+00  0.6250000E-01  0.6250000E-01  0.2343750E-01
    1        3.307895   1.000000
    2        3.681640   1.000000
    3       13.800039   0.000000
    4       14.556687   0.000000
    5       21.501010   0.000000
    6       21.896165   0.000000
    7       30.443507   0.000000
    8       31.076059   0.000000
 
 -0.6250000E-01  0.6250000E-01  0.6250000E-01  0.1171875E-01
    1       -4.052065   1.000000
    2       19.532202   0.000000
    3       19.532203   0.000000
    4       20.520143   0.000000
    5       22.809794   0.000000
    6       23.854023   0.000000
    7       23.854023   0.000000
    8       23.975563   0.000000
 
  0.1875000E+00  0.1875000E+00  0.6250000E-01  0.4687500E-01
    1       -0.246811   1.000000
    2       10.561420   0.000000
    3       10.915805   0.000000
    4       14.262582   0.000000
    5       24.113500   0.000000
    6       25.097039   0.000000
    7       27.787567   0.000000
    8       28.760124   0.000000
 
  0.3125000E+00  0.1875000E+00  0.6250000E-01  0.9375000E-01
    1        2.557573   1.000000
    2        6.256272   1.000000
    3        9.860123   0.443489
    4       13.406822   0.000000
    5       24.014648   0.000000
    6       26.042894   0.000000
    7       28.790240   0.000000
    8       30.529888   0.000000
 
 -0.1875000E+00  0.1875000E+00  0.6250000E-01  0.4687500E-01
    1       -3.094080   1.000000
    2       14.959846   0.000000
    3       17.192191   0.000000
    4       19.445080   0.000000
    5       21.288732   0.000000
    6       22.128414   0.000000
    7       24.448922   0.000000
    8       27.424675   0.000000
 
  0.3125000E+00  0.3125000E+00  0.6250000E-01  0.1562500E-01
    1        5.480487   1.000000
    2        5.956833   1.000000
    3        5.956833   1.000000
    4       12.978691   0.000000
    5       25.746182   0.000000
    6       27.428182   0.000000
    7       27.428182   0.000000
    8       32.668395   0.000000
 
 -0.3125000E+00  0.3125000E+00  0.6250000E-01  0.4687500E-01
    1       -1.191604   1.000000
    2        9.844943   0.613027
    3       15.548592   0.000000
    4       18.120454   0.000000
    5       19.678680   0.000000
    6       21.428009   0.000000
    7       25.268800   0.000000
    8       30.148081   0.000000
 
 -0.1875000E+00  0.3125000E+00  0.6250000E-01  0.4687500E-01
    1       -1.665411   1.000000
    2       12.686557   0.000000
    3       13.009673   0.000000
    4       18.622439   0.000000
    5       20.969377   0.000000
    6       21.056409   0.000000
    7       26.631902   0.000000
    8       27.644724   0.000000
 
 -0.4375000E+00  0.4375000E+00  0.6250000E-01  0.4687500E-01
    1        1.624982   1.000000
    2        5.344576   1.000000
    3       14.719263   0.000000
    4       17.341202   0.000000
    5       18.825572   0.000000
    6       20.883443   0.000000
    7       27.423158   0.000000
    8       30.107581   0.000000
 
 -0.3125000E+00  0.4375000E+00  0.6250000E-01  0.9375000E-01
    1        0.692875   1.000000
    2        8.053122   1.000000
    3       11.549481   0.000000
    4       17.777523   0.000000
    5       19.882915   0.000000
    6       22.378164   0.000000
    7       26.270585   0.000000
    8       29.260635   0.000000
 
 -0.4375000E+00 -0.4375000E+00  0.6250000E-01  0.4687500E-01
    1        3.776313   1.000000
    2        4.132481   1.000000
    3       11.108721   0.000000
    4       17.421676   0.000000
    5       19.467741   0.000000
    6       23.683505   0.000000
    7       25.993453   0.000000
    8       27.828887   0.000000
 
 -0.3125000E+00 -0.4375000E+00  0.6250000E-01  0.4687500E-01
    1        3.480887   1.000000
    2        7.021117   1.000000
    3        7.294187   1.000000
    4       17.388882   0.000000
    5       21.628499   0.000000
    6       22.114176   0.000000
    7       25.067687   0.000000
    8       31.014108   0.000000
 
  0.1875000E+00  0.1875000E+00  0.1875000E+00  0.1562500E-01
    1        2.095407   1.000000
    2        9.104040   1.000000
    3        9.596662   1.000000
    4        9.596662   1.000000
    5       27.937722   0.000000
    6       27.937722   0.000000
    7       29.867435   0.000000
    8       29.867435   0.000000
 
  0.3125000E+00  0.1875000E+00  0.1875000E+00  0.2343750E-01
    1        5.159176   1.000000
    2        5.507421   1.000000
    3        8.841419   1.000000
    4        9.151552   1.000000
    5       28.600032   0.000000
    6       28.905271   0.000000
    7       31.125870   0.000000
    8       31.611486   0.000000
 
 -0.1875000E+00  0.1875000E+00  0.1875000E+00  0.1171875E-01
    1       -2.140386   1.000000
    2       14.815993   0.000000
    3       14.815993   0.000000
    4       16.728496   0.000000
    5       18.381210   0.000000
    6       24.673487   0.000000
    7       26.253611   0.000000
    8       26.253611   0.000000
 
 -0.3125000E+00  0.3125000E+00  0.1875000E+00  0.4687500E-01
    1       -0.246620   1.000000
    2       10.656657   0.000000
    3       13.129867   0.000000
    4       15.672231   0.000000
    5       18.279146   0.000000
    6       23.789481   0.000000
    7       25.792585   0.000000
    8       28.421275   0.000000
 
 -0.4375000E+00  0.4375000E+00  0.1875000E+00  0.4687500E-01
    1        2.556102   1.000000
    2        6.243881   1.000000
    3       12.278255   0.000000
    4       14.856307   0.000000
    5       20.361721   0.000000
    6       22.995464   0.000000
    7       23.685931   0.000000
    8       27.122882   0.000000
 
 -0.3125000E+00  0.4375000E+00  0.1875000E+00  0.4687500E-01
    1        2.093772   1.000000
    2        9.216942   1.000000
    3        9.448000   1.000000
    4       16.365009   0.000000
    5       17.380116   0.000000
    6       22.978891   0.000000
    7       24.356818   0.000000
    8       29.891348   0.000000
 
 -0.4375000E+00 -0.4375000E+00  0.1875000E+00  0.4687500E-01
    1        5.164056   1.000000
    2        5.475907   1.000000
    3        8.893011   1.000000
    4       16.316718   0.000000
    5       19.300153   0.000000
    6       20.375806   0.000000
    7       23.605843   0.000000
    8       30.545272   0.000000
 
 -0.3125000E+00  0.3125000E+00  0.3125000E+00  0.1171875E-01
    1        1.628479   1.000000
    2       11.425657   0.000000
    3       11.425657   0.000000
    4       13.508443   0.000000
    5       14.523593   0.000000
    6       23.103706   0.000000
    7       28.334451   0.000000
    8       29.507931   0.000000
 
 -0.4375000E+00  0.4375000E+00  0.3125000E+00  0.4687500E-01
    1        4.397033   1.000000
    2        7.986381   1.000000
    3       10.565839   0.000000
    4       13.032616   0.000000
    5       15.645231   0.000000
    6       19.053796   0.000000
    7       28.081581   0.000000
    8       30.478896   0.000000
 
 -0.4375000E+00 -0.4375000E+00  0.3125000E+00  0.1562500E-01
    1        7.303894   1.000000
    2        7.649980   1.000000
    3        7.649980   1.000000
    4       14.489588   0.000000
    5       15.532444   0.000000
    6       15.532444   0.000000
    7       28.650752   0.000000
    8       33.967766   0.000000
 
 -0.4375000E+00  0.4375000E+00  0.4375000E+00  0.1171875E-01
    1        7.074796   1.000000
    2        9.703884   0.999991
    3        9.703884   0.999991
    4       11.727499   0.000000
    5       12.578784   0.000000
    6       14.817547   0.000000
    7       33.244485   0.000000
    8       33.612435   0.000000
