       N       E                     dE             d eps       ncg     rms          rms(c)
DAV:   1    -0.265050774670E+01   -0.26505E+01   -0.15031E+03   440   0.279E+02
DAV:   2    -0.485556870753E+01   -0.22051E+01   -0.21126E+01   632   0.264E+01
DAV:   3    -0.486736315597E+01   -0.11794E-01   -0.11793E-01   448   0.209E+00
DAV:   4    -0.486737236649E+01   -0.92105E-05   -0.92108E-05   672   0.653E-02
DAV:   5    -0.486737236876E+01   -0.22734E-08   -0.17549E-08   448   0.565E-04    0.287E+00
DAV:   6    -0.485569868547E+01    0.11674E-01   -0.36081E-03   472   0.268E-01    0.159E+00
DAV:   7    -0.484898759971E+01    0.67111E-02   -0.72609E-03   440   0.380E-01    0.139E-01
DAV:   8    -0.484896488033E+01    0.22719E-04   -0.33488E-05   552   0.435E-02    0.112E-02
DAV:   9    -0.484896539694E+01   -0.51661E-06   -0.39336E-07   488   0.358E-03
   1 F= -.48489654E+01 E0= -.48469980E+01  d E =-.484897E+01
       N       E                     dE             d eps       ncg     rms          rms(c)
DAV:   1    -0.486581002262E+01   -0.16845E-01   -0.45858E-01   424   0.272E+00    0.638E-01
DAV:   2    -0.486094034687E+01    0.48697E-02   -0.23844E-03   440   0.359E-01    0.369E-01
DAV:   3    -0.485805497326E+01    0.28854E-02   -0.31132E-03   424   0.238E-01    0.111E-01
DAV:   4    -0.485805248496E+01    0.24883E-05   -0.58370E-06   520   0.211E-02    0.938E-02
DAV:   5    -0.485804171149E+01    0.10773E-04   -0.11014E-06   496   0.706E-03    0.178E-02
DAV:   6    -0.485804211097E+01   -0.39948E-06   -0.23163E-08   232   0.123E-03
   2 F= -.48580421E+01 E0= -.48561259E+01  d E =-.907671E-02
       N       E                     dE             d eps       ncg     rms          rms(c)
DAV:   1    -0.486074728849E+01   -0.27056E-02   -0.44310E-02   416   0.858E-01    0.195E-01
DAV:   2    -0.486027949835E+01    0.46779E-03   -0.22381E-04   448   0.111E-01    0.112E-01
DAV:   3    -0.486000557230E+01    0.27393E-03   -0.29699E-04   416   0.738E-02    0.370E-02
DAV:   4    -0.486000564657E+01   -0.74265E-07   -0.55792E-07   512   0.655E-03    0.322E-02
DAV:   5    -0.486000641311E+01   -0.76654E-06   -0.11415E-07   256   0.236E-03    0.720E-03
DAV:   6    -0.486000620709E+01    0.20602E-06   -0.44442E-09   208   0.554E-04
   3 F= -.48600062E+01 E0= -.48580627E+01  d E =-.110408E-01
