<?xml version="1.0" encoding="ISO-8859-1"?>
<modeling>
 <generator>
  <i name="program" type="string">vasp </i>
  <i name="version" type="string">6.2.0  </i>
  <i name="subversion" type="string">18Jan21 (build Aug 12 2022 13:00:08) complex                          parallel </i>
  <i name="platform" type="string">LinuxIFC </i>
  <i name="date" type="string">2024 11 03 </i>
  <i name="time" type="string">21:51:18 </i>
 </generator>
 <incar>
  <i type="int" name="ISTART">     0</i>
  <i type="string" name="PREC">Accurate      (Accurate strictly avoids</i>
  <i type="logical" name="ADDGRID"> T  </i>
  <i type="int" name="ISPIN">     1</i>
  <i type="int" name="NELM">    90</i>
  <i type="int" name="NELMIN">     6</i>
  <i type="int" name="IBRION">     2</i>
  <i name="EDIFF">      0.00000100</i>
  <i name="EDIFFG">     -0.00200000</i>
  <i type="int" name="NSW">   100</i>
  <i type="int" name="ISIF">     3</i>
  <i type="int" name="ISYM">     2</i>
  <i name="ENCUT">    350.00000000</i>
  <i type="logical" name="LREAL"> F  </i>
  <i type="int" name="ISMEAR">     0</i>
  <i name="SIGMA">      0.05000000</i>
  <i type="logical" name="LWAVE"> F  </i>
  <i type="logical" name="LCHARG"> F  </i>
  <i type="logical" name="LASPH"> T  </i>
 </incar>
 <primitive_cell>
  <structure name="primitive_cell" >
   <crystal>
    <varray name="basis" >
     <v>       1.51332563       1.51332563       1.51332563 </v>
     <v>       1.51332563      -1.51332563      -1.51332563 </v>
     <v>      -1.51332563       1.51332563      -1.51332563 </v>
    </varray>
    <i name="volume">     13.86299778 </i>
    <varray name="rec_basis" >
     <v>       0.33039816       0.33039816       0.00000000 </v>
     <v>       0.33039816       0.00000000      -0.33039816 </v>
     <v>       0.00000000       0.33039816      -0.33039816 </v>
    </varray>
   </crystal>
   <varray name="positions" >
    <v>       0.00000000       0.00000000       0.00000000 </v>
   </varray>
  </structure>
  <varray name="primitive_index" >
   <v type="int" >        1 </v>
  </varray>
 </primitive_cell>
 <kpoints>
  <generation param="Monkhorst-Pack">
   <v type="int" name="divisions">       8        8        8 </v>
   <v name="usershift">      0.00000000       0.00000000       0.00000000 </v>
   <v name="genvec1">      0.12500000       0.00000000       0.00000000 </v>
   <v name="genvec2">      0.00000000       0.12500000       0.00000000 </v>
   <v name="genvec3">      0.00000000       0.00000000       0.12500000 </v>
   <v name="shift">      0.50000000       0.50000000       0.50000000 </v>
  </generation>
  <varray name="kpointlist" >
   <v>       0.06250000       0.06250000       0.06250000 </v>
   <v>       0.18750000       0.06250000       0.06250000 </v>
   <v>       0.31250000       0.06250000       0.06250000 </v>
   <v>       0.43750000       0.06250000       0.06250000 </v>
   <v>      -0.06250000       0.06250000       0.06250000 </v>
   <v>       0.18750000       0.18750000       0.06250000 </v>
   <v>       0.31250000       0.18750000       0.06250000 </v>
   <v>      -0.18750000       0.18750000       0.06250000 </v>
   <v>       0.31250000       0.31250000       0.06250000 </v>
   <v>      -0.31250000       0.31250000       0.06250000 </v>
   <v>      -0.18750000       0.31250000       0.06250000 </v>
   <v>      -0.43750000       0.43750000       0.06250000 </v>
   <v>      -0.31250000       0.43750000       0.06250000 </v>
   <v>      -0.43750000      -0.43750000       0.06250000 </v>
   <v>      -0.31250000      -0.43750000       0.06250000 </v>
   <v>       0.18750000       0.18750000       0.18750000 </v>
   <v>       0.31250000       0.18750000       0.18750000 </v>
   <v>      -0.18750000       0.18750000       0.18750000 </v>
   <v>      -0.31250000       0.31250000       0.18750000 </v>
   <v>      -0.43750000       0.43750000       0.18750000 </v>
   <v>      -0.31250000       0.43750000       0.18750000 </v>
   <v>      -0.43750000      -0.43750000       0.18750000 </v>
   <v>      -0.31250000       0.31250000       0.31250000 </v>
   <v>      -0.43750000       0.43750000       0.31250000 </v>
   <v>      -0.43750000      -0.43750000       0.31250000 </v>
   <v>      -0.43750000       0.43750000       0.43750000 </v>
  </varray>
  <varray name="weights" >
   <v>       0.01562500 </v>
   <v>       0.04687500 </v>
   <v>       0.04687500 </v>
   <v>       0.02343750 </v>
   <v>       0.01171875 </v>
   <v>       0.04687500 </v>
   <v>       0.09375000 </v>
   <v>       0.04687500 </v>
   <v>       0.01562500 </v>
   <v>       0.04687500 </v>
   <v>       0.04687500 </v>
   <v>       0.04687500 </v>
   <v>       0.09375000 </v>
   <v>       0.04687500 </v>
   <v>       0.04687500 </v>
   <v>       0.01562500 </v>
   <v>       0.02343750 </v>
   <v>       0.01171875 </v>
   <v>       0.04687500 </v>
   <v>       0.04687500 </v>
   <v>       0.04687500 </v>
   <v>       0.04687500 </v>
   <v>       0.01171875 </v>
   <v>       0.04687500 </v>
   <v>       0.01562500 </v>
   <v>       0.01171875 </v>
  </varray>
 </kpoints>
 <parameters>
  <separator name="general" >
   <i type="string" name="SYSTEM">unknown system</i>
   <i type="logical" name="LCOMPAT"> F  </i>
  </separator>
  <separator name="electronic" >
   <i type="string" name="PREC">accura</i>
   <i name="ENMAX">    350.00000000</i>
   <i name="ENAUG">    322.06900000</i>
   <i name="EDIFF">      0.00000100</i>
   <i type="int" name="IALGO">    38</i>
   <i type="int" name="IWAVPR">    11</i>
   <i type="int" name="NBANDS">     8</i>
   <i type="int" name="NBANDSLOW">    -1</i>
   <i type="int" name="NBANDSHIGH">    -1</i>
   <i name="NELECT">      4.00000000</i>
   <i type="int" name="TURBO">     0</i>
   <i type="int" name="IRESTART">     0</i>
   <i type="int" name="NREBOOT">     0</i>
   <i type="int" name="NMIN">     0</i>
   <i name="EREF">      0.00000000</i>
   <separator name="electronic smearing" >
    <i type="int" name="ISMEAR">     0</i>
    <i name="SIGMA">      0.05000000</i>
    <i name="KSPACING">      0.50000000</i>
    <i type="logical" name="KGAMMA"> T  </i>
    <i type="logical" name="KBLOWUP"> T  </i>
   </separator>
   <separator name="electronic projectors" >
    <i type="logical" name="LREAL"> F  </i>
    <v name="ROPT">      0.00000000</v>
    <i type="int" name="LMAXPAW">  -100</i>
    <i type="int" name="LMAXMIX">     2</i>
    <i type="logical" name="NLSPLINE"> F  </i>
   </separator>
   <separator name="electronic startup" >
    <i type="int" name="ISTART">     0</i>
    <i type="int" name="ICHARG">     2</i>
    <i type="int" name="INIWAV">     1</i>
   </separator>
   <separator name="electronic spin" >
    <i type="int" name="ISPIN">     1</i>
    <i type="logical" name="LNONCOLLINEAR"> F  </i>
    <v name="MAGMOM">      1.00000000</v>
    <i name="NUPDOWN">     -1.00000000</i>
    <i type="logical" name="LSORBIT"> F  </i>
    <v name="SAXIS">      0.00000000      0.00000000      1.00000000</v>
    <i type="logical" name="LSPIRAL"> F  </i>
    <v name="QSPIRAL">      0.00000000      0.00000000      0.00000000</v>
    <i type="logical" name="LZEROZ"> F  </i>
   </separator>
   <separator name="electronic exchange-correlation" >
    <i type="logical" name="LASPH"> T  </i>
    <i type="logical" name="LMETAGGA"> F  </i>
   </separator>
   <separator name="electronic convergence" >
    <i type="int" name="NELM">    90</i>
    <i type="int" name="NELMDL">    -5</i>
    <i type="int" name="NELMIN">     6</i>
    <i name="ENINI">    350.00000000</i>
    <separator name="electronic convergence detail" >
     <i type="logical" name="LDIAG"> T  </i>
     <i type="logical" name="LSUBROT"> F  </i>
     <i name="WEIMIN">      0.00100000</i>
     <i name="EBREAK">      0.00000003</i>
     <i name="DEPER">      0.30000000</i>
     <i type="int" name="NRMM">     4</i>
     <i name="TIME">      0.40000000</i>
    </separator>
   </separator>
   <separator name="electronic mixer" >
    <i name="AMIX">      0.40000000</i>
    <i name="BMIX">      1.00000000</i>
    <i name="AMIN">      0.10000000</i>
    <i name="AMIX_MAG">      1.60000000</i>
    <i name="BMIX_MAG">      1.00000000</i>
    <separator name="electronic mixer details" >
     <i type="int" name="IMIX">     4</i>
     <i type="logical" name="MIXFIRST"> F  </i>
     <i type="int" name="MAXMIX">   -45</i>
     <i name="WC">    100.00000000</i>
     <i type="int" name="INIMIX">     1</i>
     <i type="int" name="MIXPRE">     1</i>
     <i type="int" name="MREMOVE">     5</i>
    </separator>
   </separator>
   <separator name="electronic dipolcorrection" >
    <i type="logical" name="LDIPOL"> F  </i>
    <i type="logical" name="LMONO"> F  </i>
    <i type="int" name="IDIPOL">     0</i>
    <i name="EPSILON">      1.00000000</i>
    <v name="DIPOL">   -100.00000000   -100.00000000   -100.00000000</v>
    <i name="EFIELD">      0.00000000</i>
   </separator>
  </separator>
  <separator name="grids" >
   <i type="int" name="NGX">    16</i>
   <i type="int" name="NGY">    16</i>
   <i type="int" name="NGZ">    16</i>
   <i type="int" name="NGXF">    32</i>
   <i type="int" name="NGYF">    32</i>
   <i type="int" name="NGZF">    32</i>
   <i type="logical" name="ADDGRID"> T  </i>
  </separator>
  <separator name="ionic" >
   <i type="int" name="NSW">   100</i>
   <i type="int" name="IBRION">     2</i>
   <i type="int" name="MDALGO">     0</i>
   <i type="int" name="ISIF">     3</i>
   <i name="PSTRESS">      0.00000000</i>
   <i name="EDIFFG">     -0.00200000</i>
   <i type="int" name="NFREE">     1</i>
   <i name="POTIM">      0.50000000</i>
   <i name="SMASS">     -3.00000000</i>
   <i name="SCALEE">      1.00000000</i>
  </separator>
  <separator name="ionic md" >
   <i name="TEBEG">      0.00010000</i>
   <i name="TEEND">      0.00010000</i>
   <i type="int" name="NBLOCK">     1</i>
   <i type="int" name="KBLOCK">   100</i>
   <i type="int" name="NPACO">   256</i>
   <i name="APACO">     16.00000000</i>
  </separator>
  <separator name="symmetry" >
   <i type="int" name="ISYM">     2</i>
   <i name="SYMPREC">      0.00001000</i>
  </separator>
  <separator name="dos" >
   <i type="int" name="LORBIT">     0</i>
   <v name="RWIGS">     -1.00000000</v>
   <i type="int" name="NEDOS">   301</i>
   <i name="EMIN">     10.00000000</i>
   <i name="EMAX">    -10.00000000</i>
   <i name="EFERMI">      0.00000000</i>
  </separator>
  <separator name="writing" >
   <i type="int" name="NWRITE">     2</i>
   <i type="logical" name="LWAVE"> F  </i>
   <i type="logical" name="LDOWNSAMPLE"> F  </i>
   <i type="logical" name="LCHARG"> F  </i>
   <i type="logical" name="LPARD"> F  </i>
   <i type="logical" name="LVTOT"> F  </i>
   <i type="logical" name="LVHAR"> F  </i>
   <i type="logical" name="LELF"> F  </i>
   <i type="logical" name="LOPTICS"> F  </i>
   <v name="STM">      0.00000000      0.00000000      0.00000000      0.00000000      0.00000000      0.00000000      0.00000000</v>
  </separator>
  <separator name="performance" >
   <i type="int" name="NPAR">     4</i>
   <i type="int" name="NSIM">     4</i>
   <i type="int" name="NBLK">    -1</i>
   <i type="logical" name="LPLANE"> T  </i>
   <i type="logical" name="LSCALAPACK"> T  </i>
   <i type="logical" name="LSCAAWARE"> F  </i>
   <i type="logical" name="LSCALU"> F  </i>
   <i type="logical" name="LASYNC"> F  </i>
   <i type="logical" name="LORBITALREAL"> F  </i>
  </separator>
  <separator name="miscellaneous" >
   <i type="int" name="IDIOT">     3</i>
   <i type="int" name="PHON_NSTRUCT">    -1</i>
   <i type="logical" name="LMUSIC"> F  </i>
   <v name="POMASS">     28.08500000</v>
   <v name="DARWINR">      0.00000000</v>
   <v name="DARWINV">      1.00000000</v>
   <i type="logical" name="LCORR"> T  </i>
  </separator>
  <i type="logical" name="GGA_COMPAT"> T  </i>
  <i type="logical" name="LBERRY"> F  </i>
  <i type="int" name="ICORELEVEL">     0</i>
  <i type="logical" name="LDAU"> F  </i>
  <i type="int" name="I_CONSTRAINED_M">     0</i>
  <separator name="electronic exchange-correlation" >
   <i type="string" name="GGA">--</i>
   <i type="int" name="VOSKOWN">     0</i>
   <i type="logical" name="LHFCALC"> F  </i>
   <i type="string" name="PRECFOCK"></i>
   <i type="logical" name="LSYMGRAD"> F  </i>
   <i type="logical" name="LHFONE"> F  </i>
   <i type="logical" name="LRHFCALC"> F  </i>
   <i type="logical" name="LTHOMAS"> F  </i>
   <i type="logical" name="LMODELHF"> F  </i>
   <i type="logical" name="LFOCKACE"> F  </i>
   <i name="ENCUT4O">     -1.00000000</i>
   <i type="int" name="EXXOEP">     0</i>
   <i type="int" name="FOURORBIT">     0</i>
   <i name="AEXX">      0.00000000</i>
   <i name="HFALPHA">      0.00000000</i>
   <i name="MCALPHA">      0.00000000</i>
   <i name="ALDAX">      1.00000000</i>
   <i name="AGGAX">      1.00000000</i>
   <i name="ALDAC">      1.00000000</i>
   <i name="AGGAC">      1.00000000</i>
   <i type="int" name="NKREDX">     1</i>
   <i type="int" name="NKREDY">     1</i>
   <i type="int" name="NKREDZ">     1</i>
   <i type="logical" name="SHIFTRED"> F  </i>
   <i type="logical" name="ODDONLY"> F  </i>
   <i type="logical" name="EVENONLY"> F  </i>
   <i type="int" name="LMAXFOCK">     0</i>
   <i type="int" name="NMAXFOCKAE">     0</i>
   <i type="logical" name="LFOCKAEDFT"> F  </i>
   <i name="HFSCREEN">      0.00000000</i>
   <i name="HFSCREENC">      0.00000000</i>
   <i type="int" name="NBANDSGWLOW">     0</i>
  </separator>
  <separator name="vdW DFT" >
   <i type="logical" name="LUSE_VDW"> F  </i>
   <i name="Zab_VDW">     -0.84910000</i>
   <i name="PARAM1">      0.12340000</i>
   <i name="PARAM2">      1.00000000</i>
   <i name="PARAM3">      0.00000000</i>
  </separator>
  <separator name="model GW" >
   <i type="int" name="MODEL_GW">     0</i>
   <i name="MODEL_EPS0">      8.31779867</i>
   <i name="MODEL_ALPHA">      1.00000000</i>
  </separator>
  <separator name="linear response parameters" >
   <i type="logical" name="LEPSILON"> F  </i>
   <i type="logical" name="LRPA"> F  </i>
   <i type="logical" name="LNABLA"> F  </i>
   <i type="logical" name="LVEL"> F  </i>
   <i type="int" name="KINTER">     0</i>
   <i name="CSHIFT">      0.10000000</i>
   <i name="OMEGAMAX">     -1.00000000</i>
   <i name="DEG_THRESHOLD">      0.00200000</i>
   <i name="RTIME">     -0.10000000</i>
   <i name="WPLASMAI">      0.00000000</i>
   <v name="DFIELD">      0.00000000      0.00000000      0.00000000</v>
   <v name="WPLASMA">      0.00000000      0.00000000      0.00000000      0.00000000      0.00000000      0.00000000      0.00000000      0.00000000      0.00000000</v>
  </separator>
  <separator name="orbital magnetization" >
   <i type="logical" name="NUCIND"> F  </i>
   <v name="MAGPOS">      0.00000000      0.00000000      0.00000000</v>
   <i type="logical" name="LNICSALL"> T  </i>
   <i type="logical" name="ORBITALMAG"> F  </i>
   <i type="logical" name="LMAGBLOCH"> F  </i>
   <i type="logical" name="LCHIMAG"> F  </i>
   <i type="logical" name="LGAUGE"> T  </i>
   <i type="int" name="MAGATOM">     0</i>
   <v name="MAGDIPOL">      0.00000000      0.00000000      0.00000000</v>
   <v name="AVECCONST">      0.00000000      0.00000000      0.00000000</v>
  </separator>
  <separator name="response functions" >
   <i type="logical" name="LFINITE_TEMPERATURE"> F  </i>
   <i type="logical" name="LADDER"> F  </i>
   <i type="logical" name="LRPAFORCE"> F  </i>
   <i type="logical" name="LFXC"> F  </i>
   <i type="logical" name="LHARTREE"> T  </i>
   <i type="int" name="IBSE">     0</i>
   <v type="int" name="KPOINT">    -1     0     0     0</v>
   <i type="logical" name="LTCTC"> F  </i>
   <i type="logical" name="LTCTE"> F  </i>
   <i type="logical" name="LTETE"> F  </i>
   <i type="logical" name="LTRIPLET"> F  </i>
   <i type="logical" name="LFXCEPS"> F  </i>
   <i type="logical" name="LFXHEG"> F  </i>
   <i type="int" name="NATURALO">     2</i>
   <i type="logical" name="LHOLEGF"> F  </i>
   <i type="logical" name="L2ORDER"> F  </i>
   <i type="logical" name="LDMP1"> F  </i>
   <i type="logical" name="LMP2LT"> F  </i>
   <i type="logical" name="LSMP2LT"> F  </i>
   <i type="logical" name="LGWLF"> F  </i>
   <i name="ENCUTGW">     -2.00000000</i>
   <i name="ENCUTGWSOFT">     -2.00000000</i>
   <i name="ENCUTLF">     -1.00000000</i>
   <i type="logical" name="LESF_SPLINES"> F  </i>
   <i type="int" name="LMAXMP2">    -1</i>
   <i name="SCISSOR">      0.00000000</i>
   <i type="int" name="NOMEGA">     0</i>
   <i type="int" name="NOMEGAR">     0</i>
   <i type="int" name="NBANDSGW">    -1</i>
   <i type="int" name="NBANDSO">    -1</i>
   <i type="int" name="NBANDSV">    -1</i>
   <i type="int" name="NELM">    90</i>
   <i type="int" name="NELMHF">     1</i>
   <i type="int" name="DIM">     3</i>
   <i type="int" name="IESPILON">     4</i>
   <i type="int" name="ANTIRES">     0</i>
   <i name="OMEGAMAX">    -30.00000000</i>
   <i name="OMEGAMIN">    -30.00000000</i>
   <i name="OMEGATL">   -200.00000000</i>
   <i type="int" name="OMEGAGRID">     0</i>
   <i name="CSHIFT">     -0.10000000</i>
   <i type="logical" name="LSELFENERGY"> F  </i>
   <i type="logical" name="LSPECTRAL"> F  </i>
   <i type="logical" name="LSPECTRALGW"> F  </i>
   <i type="logical" name="LSINGLES"> F  </i>
   <i type="logical" name="LFERMIGW"> F  </i>
   <i type="logical" name="ODDONLYGW"> F  </i>
   <i type="logical" name="EVENONLYGW"> F  </i>
   <i type="int" name="NKREDLFX">     1</i>
   <i type="int" name="NKREDLFY">     1</i>
   <i type="int" name="NKREDLFZ">     1</i>
   <i type="int" name="MAXMEM">  2800</i>
   <i type="int" name="TELESCOPE">     0</i>
   <i type="int" name="NTAUPAR">    -1</i>
   <i type="int" name="NOMEGAPAR">    -1</i>
   <i name="DAMP_NEWTON">      0.80000001</i>
   <i name="LAMBDA">      1.00000000</i>
  </separator>
  <separator name="External order field" >
   <i name="OFIELD_KAPPA">      0.00000000</i>
   <v name="OFIELD_K">      0.00000000      0.00000000      0.00000000</v>
   <i name="OFIELD_Q6_NEAR">      0.00000000</i>
   <i name="OFIELD_Q6_FAR">      0.00000000</i>
   <i name="OFIELD_A">      0.00000000</i>
  </separator>
 </parameters>
 <atominfo>
  <atoms>       1 </atoms>
  <types>       1 </types>
  <array name="atoms" >
   <dimension dim="1">ion</dimension>
   <field type="string">element</field>
   <field type="int">atomtype</field>
   <set>
    <rc><c>Si</c><c>   1</c></rc>
   </set>
  </array>
  <array name="atomtypes" >
   <dimension dim="1">type</dimension>
   <field type="int">atomspertype</field>
   <field type="string">element</field>
   <field>mass</field>
   <field>valence</field>
   <field type="string">pseudopotential</field>
   <set>
    <rc><c>   1</c><c>Si</c><c>     28.08500000</c><c>      4.00000000</c><c>  PAW_PBE Si 05Jan2001                  </c></rc>
   </set>
  </array>
 </atominfo>
 <structure name="initialpos" >
  <crystal>
   <varray name="basis" >
    <v>       1.51332563       1.51332563       1.51332563 </v>
    <v>       1.51332563      -1.51332563      -1.51332563 </v>
    <v>      -1.51332563       1.51332563      -1.51332563 </v>
   </varray>
   <i name="volume">     13.86299778 </i>
   <varray name="rec_basis" >
    <v>       0.33039816       0.33039816       0.00000000 </v>
    <v>       0.33039816       0.00000000      -0.33039816 </v>
    <v>       0.00000000       0.33039816      -0.33039816 </v>
   </varray>
  </crystal>
  <varray name="positions" >
   <v>       0.00000000       0.00000000       0.00000000 </v>
  </varray>
 </structure>
 <calculation>
  <scstep>
   <time name="dav">    0.07    0.08</time>
   <time name="total">    0.25    0.25</time>
   <energy>
    <i name="alphaZ">      2.42827211 </i>
    <i name="ewald">   -138.51397499 </i>
    <i name="hartreedc">     -0.48179554 </i>
    <i name="XCdc">     -8.69332224 </i>
    <i name="pawpsdc">     88.12379961 </i>
    <i name="pawaedc">    -70.53051779 </i>
    <i name="eentropy">     -0.00124418 </i>
    <i name="bandstr">     21.95264820 </i>
    <i name="atom">    103.06562707 </i>
    <i name="e_fr_energy">     -2.65050775 </i>
    <i name="e_wo_entrp">     -2.64926356 </i>
    <i name="e_0_energy">     -2.64988566 </i>
   </energy>
  </scstep>
  <scstep>
   <time name="dav">    0.11    0.12</time>
   <time name="total">    0.11    0.12</time>
   <energy>
    <i name="e_fr_energy">     -4.85556871 </i>
    <i name="e_wo_entrp">     -4.85164404 </i>
    <i name="e_0_energy">     -4.85360637 </i>
   </energy>
  </scstep>
  <scstep>
   <time name="dav">    0.08    0.09</time>
   <time name="total">    0.08    0.09</time>
   <energy>
    <i name="e_fr_energy">     -4.86736316 </i>
    <i name="e_wo_entrp">     -4.86342232 </i>
    <i name="e_0_energy">     -4.86539274 </i>
   </energy>
  </scstep>
  <scstep>
   <time name="dav">    0.12    0.13</time>
   <time name="total">    0.12    0.13</time>
   <energy>
    <i name="e_fr_energy">     -4.86737237 </i>
    <i name="e_wo_entrp">     -4.86343151 </i>
    <i name="e_0_energy">     -4.86540194 </i>
   </energy>
  </scstep>
  <scstep>
   <time name="dav">    0.07    0.08</time>
   <time name="total">    0.09    0.09</time>
   <energy>
    <i name="e_fr_energy">     -4.86737237 </i>
    <i name="e_wo_entrp">     -4.86343151 </i>
    <i name="e_0_energy">     -4.86540194 </i>
   </energy>
  </scstep>
  <scstep>
   <time name="dav">    0.08    0.08</time>
   <time name="total">    0.26    0.27</time>
   <energy>
    <i name="e_fr_energy">     -4.85569869 </i>
    <i name="e_wo_entrp">     -4.85175989 </i>
    <i name="e_0_energy">     -4.85372929 </i>
   </energy>
  </scstep>
  <scstep>
   <time name="dav">    0.07    0.07</time>
   <time name="total">    0.26    0.26</time>
   <energy>
    <i name="e_fr_energy">     -4.84898760 </i>
    <i name="e_wo_entrp">     -4.84505246 </i>
    <i name="e_0_energy">     -4.84702003 </i>
   </energy>
  </scstep>
  <scstep>
   <time name="dav">    0.09    0.09</time>
   <time name="total">    0.28    0.28</time>
   <energy>
    <i name="e_fr_energy">     -4.84896488 </i>
    <i name="e_wo_entrp">     -4.84502998 </i>
    <i name="e_0_energy">     -4.84699743 </i>
   </energy>
  </scstep>
  <scstep>
   <time name="dav">    0.08    0.08</time>
   <time name="total">    0.26    0.27</time>
   <energy>
    <i name="alphaZ">      2.42827211 </i>
    <i name="ewald">   -138.51397499 </i>
    <i name="hartreedc">     -0.35362801 </i>
    <i name="XCdc">     -8.62319881 </i>
    <i name="pawpsdc">    334.36445298 </i>
    <i name="pawaedc">   -316.79769016 </i>
    <i name="eentropy">     -0.00393487 </i>
    <i name="bandstr">     19.58510928 </i>
    <i name="atom">    103.06562707 </i>
    <i name="e_fr_energy">     -4.84896540 </i>
    <i name="e_wo_entrp">     -4.84503053 </i>
    <i name="e_0_energy">     -4.84699796 </i>
   </energy>
  </scstep>
  <structure>
   <crystal>
    <varray name="basis" >
     <v>       1.51332563       1.51332563       1.51332563 </v>
     <v>       1.51332563      -1.51332563      -1.51332563 </v>
     <v>      -1.51332563       1.51332563      -1.51332563 </v>
    </varray>
    <i name="volume">     13.86299778 </i>
    <varray name="rec_basis" >
     <v>       0.33039816       0.33039816       0.00000000 </v>
     <v>       0.33039816       0.00000000      -0.33039816 </v>
     <v>       0.00000000       0.33039816      -0.33039816 </v>
    </varray>
   </crystal>
   <varray name="positions" >
    <v>       0.00000000       0.00000000       0.00000000 </v>
   </varray>
  </structure>
  <varray name="forces" >
   <v>       0.00000000       0.00000000      -0.00000000 </v>
  </varray>
  <varray name="stress" >
   <v>      54.92250213       0.00000000       0.00000000 </v>
   <v>       0.00000000      54.92250213      -0.00000000 </v>
   <v>      -0.00000000       0.00000000      54.92250213 </v>
  </varray>
  <energy>
   <i name="e_fr_energy">     -4.84896540 </i>
   <i name="e_wo_entrp">     -4.84503053 </i>
   <i name="e_0_energy">     -4.84699796 </i>
  </energy>
  <time name="totalsc">    2.25    2.39</time>
 </calculation>
 <calculation>
  <scstep>
   <time name="dav">    0.07    0.07</time>
   <time name="total">    0.25    0.26</time>
   <energy>
    <i name="alphaZ">      2.26863544 </i>
    <i name="ewald">   -135.40957654 </i>
    <i name="hartreedc">     -0.34568768 </i>
    <i name="XCdc">     -8.80129815 </i>
    <i name="pawpsdc">    334.45622977 </i>
    <i name="pawaedc">   -316.88913354 </i>
    <i name="eentropy">     -0.00380165 </i>
    <i name="bandstr">     16.79319526 </i>
    <i name="atom">    103.06562707 </i>
    <i name="e_fr_energy">     -4.86581002 </i>
    <i name="e_wo_entrp">     -4.86200837 </i>
    <i name="e_0_energy">     -4.86390920 </i>
   </energy>
  </scstep>
  <scstep>
   <time name="dav">    0.07    0.07</time>
   <time name="total">    0.25    0.27</time>
   <energy>
    <i name="e_fr_energy">     -4.86094035 </i>
    <i name="e_wo_entrp">     -4.85712561 </i>
    <i name="e_0_energy">     -4.85903298 </i>
   </energy>
  </scstep>
  <scstep>
   <time name="dav">    0.07    0.07</time>
   <time name="total">    0.25    0.26</time>
   <energy>
    <i name="e_fr_energy">     -4.85805497 </i>
    <i name="e_wo_entrp">     -4.85422261 </i>
    <i name="e_0_energy">     -4.85613879 </i>
   </energy>
  </scstep>
  <scstep>
   <time name="dav">    0.09    0.09</time>
   <time name="total">    0.27    0.28</time>
   <energy>
    <i name="e_fr_energy">     -4.85805248 </i>
    <i name="e_wo_entrp">     -4.85422020 </i>
    <i name="e_0_energy">     -4.85613634 </i>
   </energy>
  </scstep>
  <scstep>
   <time name="dav">    0.08    0.08</time>
   <time name="total">    0.26    0.27</time>
   <energy>
    <i name="e_fr_energy">     -4.85804171 </i>
    <i name="e_wo_entrp">     -4.85420935 </i>
    <i name="e_0_energy">     -4.85612553 </i>
   </energy>
  </scstep>
  <scstep>
   <time name="dav">    0.04    0.05</time>
   <time name="total">    0.22    0.23</time>
   <energy>
    <i name="alphaZ">      2.26863544 </i>
    <i name="ewald">   -135.40957654 </i>
    <i name="hartreedc">     -0.44799406 </i>
    <i name="XCdc">     -8.82284289 </i>
    <i name="pawpsdc">    287.91476241 </i>
    <i name="pawaedc">   -270.33139697 </i>
    <i name="eentropy">     -0.00383236 </i>
    <i name="bandstr">     16.90857578 </i>
    <i name="atom">    103.06562707 </i>
    <i name="e_fr_energy">     -4.85804211 </i>
    <i name="e_wo_entrp">     -4.85420975 </i>
    <i name="e_0_energy">     -4.85612593 </i>
   </energy>
  </scstep>
  <structure>
   <crystal>
    <varray name="basis" >
     <v>       1.54802012       1.54802012       1.54802012 </v>
     <v>       1.54802012      -1.54802012      -1.54802012 </v>
     <v>      -1.54802012       1.54802012      -1.54802012 </v>
    </varray>
    <i name="volume">     14.83849284 </i>
    <varray name="rec_basis" >
     <v>       0.32299322       0.32299322       0.00000000 </v>
     <v>       0.32299322       0.00000000      -0.32299322 </v>
     <v>       0.00000000       0.32299322      -0.32299322 </v>
    </varray>
   </crystal>
   <varray name="positions" >
    <v>       0.00000000       0.00000000       0.00000000 </v>
   </varray>
  </structure>
  <varray name="forces" >
   <v>       0.00000000      -0.00000000       0.00000000 </v>
  </varray>
  <varray name="stress" >
   <v>     -20.39457159       0.00000000       0.00000000 </v>
   <v>       0.00000000     -20.39457159       0.00000000 </v>
   <v>      -0.00000000       0.00000000     -20.39457159 </v>
  </varray>
  <energy>
   <i name="e_fr_energy">     -4.85804211 </i>
   <i name="e_wo_entrp">     -4.85420975 </i>
   <i name="e_0_energy">     -4.85612593 </i>
  </energy>
  <time name="totalsc">    2.07    2.19</time>
 </calculation>
 <calculation>
  <scstep>
   <time name="dav">    0.07    0.07</time>
   <time name="total">    0.25    0.26</time>
   <energy>
    <i name="alphaZ">      2.31594299 </i>
    <i name="ewald">   -136.34433463 </i>
    <i name="hartreedc">     -0.45107407 </i>
    <i name="XCdc">     -8.77014801 </i>
    <i name="pawpsdc">    287.66544778 </i>
    <i name="pawaedc">   -270.08208573 </i>
    <i name="eentropy">     -0.00389223 </i>
    <i name="bandstr">     17.74376953 </i>
    <i name="atom">    103.06562707 </i>
    <i name="e_fr_energy">     -4.86074729 </i>
    <i name="e_wo_entrp">     -4.85685506 </i>
    <i name="e_0_energy">     -4.85880118 </i>
   </energy>
  </scstep>
  <scstep>
   <time name="dav">    0.07    0.07</time>
   <time name="total">    0.26    0.27</time>
   <energy>
    <i name="e_fr_energy">     -4.86027950 </i>
    <i name="e_wo_entrp">     -4.85638936 </i>
    <i name="e_0_energy">     -4.85833443 </i>
   </energy>
  </scstep>
  <scstep>
   <time name="dav">    0.07    0.07</time>
   <time name="total">    0.25    0.26</time>
   <energy>
    <i name="e_fr_energy">     -4.86000557 </i>
    <i name="e_wo_entrp">     -4.85611854 </i>
    <i name="e_0_energy">     -4.85806206 </i>
   </energy>
  </scstep>
  <scstep>
   <time name="dav">    0.09    0.09</time>
   <time name="total">    0.27    0.28</time>
   <energy>
    <i name="e_fr_energy">     -4.86000565 </i>
    <i name="e_wo_entrp">     -4.85611861 </i>
    <i name="e_0_energy">     -4.85806213 </i>
   </energy>
  </scstep>
  <scstep>
   <time name="dav">    0.05    0.05</time>
   <time name="total">    0.23    0.24</time>
   <energy>
    <i name="e_fr_energy">     -4.86000641 </i>
    <i name="e_wo_entrp">     -4.85611940 </i>
    <i name="e_0_energy">     -4.85806290 </i>
   </energy>
  </scstep>
  <scstep>
   <time name="dav">    0.04    0.04</time>
   <time name="total">    0.21    0.23</time>
   <energy>
    <i name="alphaZ">      2.31594299 </i>
    <i name="ewald">   -136.34433463 </i>
    <i name="hartreedc">     -0.41638919 </i>
    <i name="XCdc">     -8.76316811 </i>
    <i name="pawpsdc">    300.48194625 </i>
    <i name="pawaedc">   -282.90321253 </i>
    <i name="eentropy">     -0.00388702 </i>
    <i name="bandstr">     17.70746895 </i>
    <i name="atom">    103.06562707 </i>
    <i name="e_fr_energy">     -4.86000621 </i>
    <i name="e_wo_entrp">     -4.85611919 </i>
    <i name="e_0_energy">     -4.85806270 </i>
   </energy>
  </scstep>
  <structure>
   <crystal>
    <varray name="basis" >
     <v>       1.53740710       1.53740710       1.53740710 </v>
     <v>       1.53740710      -1.53740710      -1.53740710 </v>
     <v>      -1.53740710       1.53740710      -1.53740710 </v>
    </varray>
    <i name="volume">     14.53538839 </i>
    <varray name="rec_basis" >
     <v>       0.32522290       0.32522290       0.00000000 </v>
     <v>       0.32522290       0.00000000      -0.32522290 </v>
     <v>       0.00000000       0.32522290      -0.32522290 </v>
    </varray>
   </crystal>
   <varray name="positions" >
    <v>       0.00000000       0.00000000       0.00000000 </v>
   </varray>
  </structure>
  <varray name="forces" >
   <v>       0.00000000       0.00000000      -0.00000000 </v>
  </varray>
  <varray name="stress" >
   <v>       0.09076299      -0.00000000      -0.00000000 </v>
   <v>       0.00000000       0.09076299       0.00000000 </v>
   <v>      -0.00000000      -0.00000000       0.09076299 </v>
  </varray>
  <energy>
   <i name="e_fr_energy">     -4.86000621 </i>
   <i name="e_wo_entrp">     -4.85611919 </i>
   <i name="e_0_energy">     -4.85806270 </i>
  </energy>
  <time name="totalsc">    2.02    2.13</time>
  <eigenvalues>
   <array>
    <dimension dim="1">band</dimension>
    <dimension dim="2">kpoint</dimension>
    <dimension dim="3">spin</dimension>
    <field>eigene</field>
    <field>occ</field>
    <set>
     <set comment="spin 1">
      <set comment="kpoint 1">
       <r>   -3.5725    1.0000 </r>
       <r>   17.1650    0.0000 </r>
       <r>   18.1518    0.0000 </r>
       <r>   18.1518    0.0000 </r>
       <r>   23.4400    0.0000 </r>
       <r>   23.4400    0.0000 </r>
       <r>   25.5957    0.0000 </r>
       <r>   25.5957    0.0000 </r>
      </set>
      <set comment="kpoint 2">
       <r>   -2.1406    1.0000 </r>
       <r>   12.4640    0.0000 </r>
       <r>   15.4909    0.0000 </r>
       <r>   16.2480    0.0000 </r>
       <r>   22.6889    0.0000 </r>
       <r>   23.2977    0.0000 </r>
       <r>   26.8992    0.0000 </r>
       <r>   26.9857    0.0000 </r>
      </set>
      <set comment="kpoint 3">
       <r>    0.2232    1.0000 </r>
       <r>    7.6145    1.0000 </r>
       <r>   14.2214    0.0000 </r>
       <r>   14.9876    0.0000 </r>
       <r>   21.8363    0.0000 </r>
       <r>   22.2706    0.0000 </r>
       <r>   28.7689    0.0000 </r>
       <r>   29.3705    0.0000 </r>
      </set>
      <set comment="kpoint 4">
       <r>    3.3079    1.0000 </r>
       <r>    3.6816    1.0000 </r>
       <r>   13.8000    0.0000 </r>
       <r>   14.5567    0.0000 </r>
       <r>   21.5010    0.0000 </r>
       <r>   21.8962    0.0000 </r>
       <r>   30.4435    0.0000 </r>
       <r>   31.0761    0.0000 </r>
      </set>
      <set comment="kpoint 5">
       <r>   -4.0521    1.0000 </r>
       <r>   19.5322    0.0000 </r>
       <r>   19.5322    0.0000 </r>
       <r>   20.5201    0.0000 </r>
       <r>   22.8098    0.0000 </r>
       <r>   23.8540    0.0000 </r>
       <r>   23.8540    0.0000 </r>
       <r>   23.9756    0.0000 </r>
      </set>
      <set comment="kpoint 6">
       <r>   -0.2468    1.0000 </r>
       <r>   10.5614    0.0000 </r>
       <r>   10.9158    0.0000 </r>
       <r>   14.2626    0.0000 </r>
       <r>   24.1135    0.0000 </r>
       <r>   25.0970    0.0000 </r>
       <r>   27.7876    0.0000 </r>
       <r>   28.7601    0.0000 </r>
      </set>
      <set comment="kpoint 7">
       <r>    2.5576    1.0000 </r>
       <r>    6.2563    1.0000 </r>
       <r>    9.8601    0.4435 </r>
       <r>   13.4068    0.0000 </r>
       <r>   24.0146    0.0000 </r>
       <r>   26.0429    0.0000 </r>
       <r>   28.7902    0.0000 </r>
       <r>   30.5299    0.0000 </r>
      </set>
      <set comment="kpoint 8">
       <r>   -3.0941    1.0000 </r>
       <r>   14.9598    0.0000 </r>
       <r>   17.1922    0.0000 </r>
       <r>   19.4451    0.0000 </r>
       <r>   21.2887    0.0000 </r>
       <r>   22.1284    0.0000 </r>
       <r>   24.4489    0.0000 </r>
       <r>   27.4247    0.0000 </r>
      </set>
      <set comment="kpoint 9">
       <r>    5.4805    1.0000 </r>
       <r>    5.9568    1.0000 </r>
       <r>    5.9568    1.0000 </r>
       <r>   12.9787    0.0000 </r>
       <r>   25.7462    0.0000 </r>
       <r>   27.4282    0.0000 </r>
       <r>   27.4282    0.0000 </r>
       <r>   32.6684    0.0000 </r>
      </set>
      <set comment="kpoint 10">
       <r>   -1.1916    1.0000 </r>
       <r>    9.8449    0.6130 </r>
       <r>   15.5486    0.0000 </r>
       <r>   18.1205    0.0000 </r>
       <r>   19.6787    0.0000 </r>
       <r>   21.4280    0.0000 </r>
       <r>   25.2688    0.0000 </r>
       <r>   30.1481    0.0000 </r>
      </set>
      <set comment="kpoint 11">
       <r>   -1.6654    1.0000 </r>
       <r>   12.6866    0.0000 </r>
       <r>   13.0097    0.0000 </r>
       <r>   18.6224    0.0000 </r>
       <r>   20.9694    0.0000 </r>
       <r>   21.0564    0.0000 </r>
       <r>   26.6319    0.0000 </r>
       <r>   27.6447    0.0000 </r>
      </set>
      <set comment="kpoint 12">
       <r>    1.6250    1.0000 </r>
       <r>    5.3446    1.0000 </r>
       <r>   14.7193    0.0000 </r>
       <r>   17.3412    0.0000 </r>
       <r>   18.8256    0.0000 </r>
       <r>   20.8834    0.0000 </r>
       <r>   27.4232    0.0000 </r>
       <r>   30.1076    0.0000 </r>
      </set>
      <set comment="kpoint 13">
       <r>    0.6929    1.0000 </r>
       <r>    8.0531    1.0000 </r>
       <r>   11.5495    0.0000 </r>
       <r>   17.7775    0.0000 </r>
       <r>   19.8829    0.0000 </r>
       <r>   22.3782    0.0000 </r>
       <r>   26.2706    0.0000 </r>
       <r>   29.2606    0.0000 </r>
      </set>
      <set comment="kpoint 14">
       <r>    3.7763    1.0000 </r>
       <r>    4.1325    1.0000 </r>
       <r>   11.1087    0.0000 </r>
       <r>   17.4217    0.0000 </r>
       <r>   19.4677    0.0000 </r>
       <r>   23.6835    0.0000 </r>
       <r>   25.9935    0.0000 </r>
       <r>   27.8289    0.0000 </r>
      </set>
      <set comment="kpoint 15">
       <r>    3.4809    1.0000 </r>
       <r>    7.0211    1.0000 </r>
       <r>    7.2942    1.0000 </r>
       <r>   17.3889    0.0000 </r>
       <r>   21.6285    0.0000 </r>
       <r>   22.1142    0.0000 </r>
       <r>   25.0677    0.0000 </r>
       <r>   31.0141    0.0000 </r>
      </set>
      <set comment="kpoint 16">
       <r>    2.0954    1.0000 </r>
       <r>    9.1040    1.0000 </r>
       <r>    9.5967    1.0000 </r>
       <r>    9.5967    1.0000 </r>
       <r>   27.9377    0.0000 </r>
       <r>   27.9377    0.0000 </r>
       <r>   29.8674    0.0000 </r>
       <r>   29.8674    0.0000 </r>
      </set>
      <set comment="kpoint 17">
       <r>    5.1592    1.0000 </r>
       <r>    5.5074    1.0000 </r>
       <r>    8.8414    1.0000 </r>
       <r>    9.1516    1.0000 </r>
       <r>   28.6000    0.0000 </r>
       <r>   28.9053    0.0000 </r>
       <r>   31.1259    0.0000 </r>
       <r>   31.6115    0.0000 </r>
      </set>
      <set comment="kpoint 18">
       <r>   -2.1404    1.0000 </r>
       <r>   14.8160    0.0000 </r>
       <r>   14.8160    0.0000 </r>
       <r>   16.7285    0.0000 </r>
       <r>   18.3812    0.0000 </r>
       <r>   24.6735    0.0000 </r>
       <r>   26.2536    0.0000 </r>
       <r>   26.2536    0.0000 </r>
      </set>
      <set comment="kpoint 19">
       <r>   -0.2466    1.0000 </r>
       <r>   10.6567    0.0000 </r>
       <r>   13.1299    0.0000 </r>
       <r>   15.6722    0.0000 </r>
       <r>   18.2791    0.0000 </r>
       <r>   23.7895    0.0000 </r>
       <r>   25.7926    0.0000 </r>
       <r>   28.4213    0.0000 </r>
      </set>
      <set comment="kpoint 20">
       <r>    2.5561    1.0000 </r>
       <r>    6.2439    1.0000 </r>
       <r>   12.2783    0.0000 </r>
       <r>   14.8563    0.0000 </r>
       <r>   20.3617    0.0000 </r>
       <r>   22.9955    0.0000 </r>
       <r>   23.6859    0.0000 </r>
       <r>   27.1229    0.0000 </r>
      </set>
      <set comment="kpoint 21">
       <r>    2.0938    1.0000 </r>
       <r>    9.2169    1.0000 </r>
       <r>    9.4480    1.0000 </r>
       <r>   16.3650    0.0000 </r>
       <r>   17.3801    0.0000 </r>
       <r>   22.9789    0.0000 </r>
       <r>   24.3568    0.0000 </r>
       <r>   29.8913    0.0000 </r>
      </set>
      <set comment="kpoint 22">
       <r>    5.1641    1.0000 </r>
       <r>    5.4759    1.0000 </r>
       <r>    8.8930    1.0000 </r>
       <r>   16.3167    0.0000 </r>
       <r>   19.3002    0.0000 </r>
       <r>   20.3758    0.0000 </r>
       <r>   23.6058    0.0000 </r>
       <r>   30.5453    0.0000 </r>
      </set>
      <set comment="kpoint 23">
       <r>    1.6285    1.0000 </r>
       <r>   11.4257    0.0000 </r>
       <r>   11.4257    0.0000 </r>
       <r>   13.5084    0.0000 </r>
       <r>   14.5236    0.0000 </r>
       <r>   23.1037    0.0000 </r>
       <r>   28.3345    0.0000 </r>
       <r>   29.5079    0.0000 </r>
      </set>
      <set comment="kpoint 24">
       <r>    4.3970    1.0000 </r>
       <r>    7.9864    1.0000 </r>
       <r>   10.5658    0.0000 </r>
       <r>   13.0326    0.0000 </r>
       <r>   15.6452    0.0000 </r>
       <r>   19.0538    0.0000 </r>
       <r>   28.0816    0.0000 </r>
       <r>   30.4789    0.0000 </r>
      </set>
      <set comment="kpoint 25">
       <r>    7.3039    1.0000 </r>
       <r>    7.6500    1.0000 </r>
       <r>    7.6500    1.0000 </r>
       <r>   14.4896    0.0000 </r>
       <r>   15.5324    0.0000 </r>
       <r>   15.5324    0.0000 </r>
       <r>   28.6508    0.0000 </r>
       <r>   33.9678    0.0000 </r>
      </set>
      <set comment="kpoint 26">
       <r>    7.0748    1.0000 </r>
       <r>    9.7039    1.0000 </r>
       <r>    9.7039    1.0000 </r>
       <r>   11.7275    0.0000 </r>
       <r>   12.5788    0.0000 </r>
       <r>   14.8175    0.0000 </r>
       <r>   33.2445    0.0000 </r>
       <r>   33.6124    0.0000 </r>
      </set>
     </set>
    </set>
   </array>
  </eigenvalues>
  <separator name="orbital magnetization" >
   <v name="MAGDIPOLOUT">      0.00000000      0.00000000      0.00000000</v>
  </separator>
  <dos>
   <i name="efermi">      9.85509801 </i>
   <total>
    <array>
     <dimension dim="1">gridpoints</dimension>
     <dimension dim="2">spin</dimension>
     <field>energy</field>
     <field>total</field>
     <field>integrated</field>
     <set>
      <set comment="spin 1">
       <r>    -5.9531     0.0000     0.0000 </r>
       <r>    -5.8137     0.0000     0.0000 </r>
       <r>    -5.6742     0.0000     0.0000 </r>
       <r>    -5.5348     0.0000     0.0000 </r>
       <r>    -5.3954     0.0000     0.0000 </r>
       <r>    -5.2560     0.0000     0.0000 </r>
       <r>    -5.1166     0.0000     0.0000 </r>
       <r>    -4.9772     0.0000     0.0000 </r>
       <r>    -4.8378     0.0000     0.0000 </r>
       <r>    -4.6984     0.0000     0.0000 </r>
       <r>    -4.5590     0.0000     0.0000 </r>
       <r>    -4.4196     0.0000     0.0000 </r>
       <r>    -4.2802     0.0000     0.0000 </r>
       <r>    -4.1408     0.0010     0.0001 </r>
       <r>    -4.0014     0.1544     0.0217 </r>
       <r>    -3.8620     0.0127     0.0234 </r>
       <r>    -3.7226     0.0000     0.0234 </r>
       <r>    -3.5832     0.0856     0.0354 </r>
       <r>    -3.4437     0.1385     0.0547 </r>
       <r>    -3.3043     0.0000     0.0547 </r>
       <r>    -3.1649     0.0152     0.0568 </r>
       <r>    -3.0255     0.6397     0.1460 </r>
       <r>    -2.8861     0.0177     0.1484 </r>
       <r>    -2.7467     0.0000     0.1484 </r>
       <r>    -2.6073     0.0000     0.1484 </r>
       <r>    -2.4679     0.0000     0.1484 </r>
       <r>    -2.3285     0.0000     0.1484 </r>
       <r>    -2.1891     0.0715     0.1584 </r>
       <r>    -2.0497     0.7649     0.2650 </r>
       <r>    -1.9103     0.0043     0.2656 </r>
       <r>    -1.7709     0.0010     0.2658 </r>
       <r>    -1.6315     0.5582     0.3436 </r>
       <r>    -1.4921     0.1133     0.3594 </r>
       <r>    -1.3527     0.0000     0.3594 </r>
       <r>    -1.2133     0.1817     0.3847 </r>
       <r>    -1.0738     0.4905     0.4531 </r>
       <r>    -0.9344     0.0003     0.4531 </r>
       <r>    -0.7950     0.0000     0.4531 </r>
       <r>    -0.6556     0.0000     0.4531 </r>
       <r>    -0.5162     0.0000     0.4531 </r>
       <r>    -0.3768     0.0002     0.4531 </r>
       <r>    -0.2374     0.8120     0.5663 </r>
       <r>    -0.0980     0.5328     0.6406 </r>
       <r>     0.0414     0.0000     0.6406 </r>
       <r>     0.1808     0.0775     0.6514 </r>
       <r>     0.3202     0.5929     0.7341 </r>
       <r>     0.4596     0.0020     0.7344 </r>
       <r>     0.5990     0.0053     0.7351 </r>
       <r>     0.7384     1.2068     0.9034 </r>
       <r>     0.8778     0.1328     0.9219 </r>
       <r>     1.0172     0.0000     0.9219 </r>
       <r>     1.1567     0.0000     0.9219 </r>
       <r>     1.2961     0.0000     0.9219 </r>
       <r>     1.4355     0.0000     0.9219 </r>
       <r>     1.5749     0.0635     0.9307 </r>
       <r>     1.7143     0.7720     1.0383 </r>
       <r>     1.8537     0.0052     1.0391 </r>
       <r>     1.9931     0.0019     1.0393 </r>
       <r>     2.1325     0.7698     1.1466 </r>
       <r>     2.2719     0.1249     1.1641 </r>
       <r>     2.4113     0.0000     1.1641 </r>
       <r>     2.5507     0.8645     1.2846 </r>
       <r>     2.6901     1.1528     1.4453 </r>
       <r>     2.8295     0.0002     1.4453 </r>
       <r>     2.9689     0.0000     1.4453 </r>
       <r>     3.1083     0.0000     1.4453 </r>
       <r>     3.2477     0.0149     1.4474 </r>
       <r>     3.3871     0.3198     1.4920 </r>
       <r>     3.5266     0.6079     1.5767 </r>
       <r>     3.6660     0.1772     1.6014 </r>
       <r>     3.8054     0.7593     1.7073 </r>
       <r>     3.9448     0.1383     1.7266 </r>
       <r>     4.0842     0.0578     1.7346 </r>
       <r>     4.2236     0.6113     1.8198 </r>
       <r>     4.3630     0.1162     1.8360 </r>
       <r>     4.5024     0.5587     1.9139 </r>
       <r>     4.6418     0.0010     1.9141 </r>
       <r>     4.7812     0.0000     1.9141 </r>
       <r>     4.9206     0.0000     1.9141 </r>
       <r>     5.0600     0.0019     1.9143 </r>
       <r>     5.1994     0.8573     2.0339 </r>
       <r>     5.3388     0.4424     2.0955 </r>
       <r>     5.4782     0.9087     2.2222 </r>
       <r>     5.6176     0.7035     2.3203 </r>
       <r>     5.7571     0.0003     2.3203 </r>
       <r>     5.8965     0.0197     2.3231 </r>
       <r>     6.0359     0.4230     2.3820 </r>
       <r>     6.1753     0.0380     2.3873 </r>
       <r>     6.3147     1.9036     2.6527 </r>
       <r>     6.4541     0.0815     2.6641 </r>
       <r>     6.5935     0.0000     2.6641 </r>
       <r>     6.7329     0.0000     2.6641 </r>
       <r>     6.8723     0.0000     2.6641 </r>
       <r>     7.0117     0.2719     2.7020 </r>
       <r>     7.1511     0.5660     2.7809 </r>
       <r>     7.2905     0.3902     2.8353 </r>
       <r>     7.4299     0.5091     2.9062 </r>
       <r>     7.5693     0.0729     2.9164 </r>
       <r>     7.7087     1.0238     3.0591 </r>
       <r>     7.8481     0.0243     3.0625 </r>
       <r>     7.9875     0.3879     3.1166 </r>
       <r>     8.1270     1.6048     3.3403 </r>
       <r>     8.2664     0.0248     3.3437 </r>
       <r>     8.4058     0.0000     3.3438 </r>
       <r>     8.5452     0.0000     3.3438 </r>
       <r>     8.6846     0.0000     3.3438 </r>
       <r>     8.8240     0.1217     3.3607 </r>
       <r>     8.9634     0.8713     3.4822 </r>
       <r>     9.1028     0.1533     3.5036 </r>
       <r>     9.2422     0.9339     3.6337 </r>
       <r>     9.3816     0.1818     3.6591 </r>
       <r>     9.5210     0.6464     3.7492 </r>
       <r>     9.6604     0.4750     3.8154 </r>
       <r>     9.7998     0.4415     3.8769 </r>
       <r>     9.9392     1.8719     4.1379 </r>
       <r>    10.0786     0.0196     4.1406 </r>
       <r>    10.2180     0.0000     4.1406 </r>
       <r>    10.3575     0.0000     4.1406 </r>
       <r>    10.4969     0.0400     4.1462 </r>
       <r>    10.6363     1.4676     4.3508 </r>
       <r>    10.7757     0.5097     4.4218 </r>
       <r>    10.9151     0.3309     4.4680 </r>
       <r>    11.0545     0.3838     4.5215 </r>
       <r>    11.1939     0.6251     4.6086 </r>
       <r>    11.3333     0.0069     4.6096 </r>
       <r>    11.4727     0.3240     4.6548 </r>
       <r>    11.6121     1.3044     4.8366 </r>
       <r>    11.7515     0.1777     4.8614 </r>
       <r>    11.8909     0.0418     4.8672 </r>
       <r>    12.0303     0.0000     4.8672 </r>
       <r>    12.1697     0.0007     4.8673 </r>
       <r>    12.3091     0.5432     4.9430 </r>
       <r>    12.4485     0.3515     4.9920 </r>
       <r>    12.5879     0.5525     5.0690 </r>
       <r>    12.7274     0.6542     5.1602 </r>
       <r>    12.8668     0.0838     5.1719 </r>
       <r>    13.0062     0.6376     5.2608 </r>
       <r>    13.1456     1.3825     5.4535 </r>
       <r>    13.2850     0.2218     5.4844 </r>
       <r>    13.4244     0.9296     5.6140 </r>
       <r>    13.5638     0.5733     5.6939 </r>
       <r>    13.7032     0.0109     5.6955 </r>
       <r>    13.8426     0.2968     5.7368 </r>
       <r>    13.9820     0.0384     5.7422 </r>
       <r>    14.1214     0.0016     5.7424 </r>
       <r>    14.2608     0.9048     5.8685 </r>
       <r>    14.4002     0.4399     5.9299 </r>
       <r>    14.5396     0.4246     5.9891 </r>
       <r>    14.6790     0.3884     6.0432 </r>
       <r>    14.8184     0.9438     6.1748 </r>
       <r>    14.9579     1.2740     6.3524 </r>
       <r>    15.0973     0.8901     6.4765 </r>
       <r>    15.2367     0.0007     6.4766 </r>
       <r>    15.3761     0.0004     6.4766 </r>
       <r>    15.5155     0.7671     6.5836 </r>
       <r>    15.6549     1.6431     6.8126 </r>
       <r>    15.7943     0.7275     6.9140 </r>
       <r>    15.9337     0.0002     6.9141 </r>
       <r>    16.0731     0.0000     6.9141 </r>
       <r>    16.2125     0.1073     6.9290 </r>
       <r>    16.3519     1.3682     7.1198 </r>
       <r>    16.4913     0.5418     7.1953 </r>
       <r>    16.6307     0.0006     7.1954 </r>
       <r>    16.7701     0.1476     7.2159 </r>
       <r>    16.9095     0.0201     7.2187 </r>
       <r>    17.0489     0.0001     7.2188 </r>
       <r>    17.1883     0.4741     7.2849 </r>
       <r>    17.3278     0.7365     7.3875 </r>
       <r>    17.4672     2.2955     7.7075 </r>
       <r>    17.6066     0.0805     7.7188 </r>
       <r>    17.7460     0.2503     7.7536 </r>
       <r>    17.8854     1.0932     7.9060 </r>
       <r>    18.0248     0.0039     7.9066 </r>
       <r>    18.1642     0.8835     8.0297 </r>
       <r>    18.3036     0.7453     8.1336 </r>
       <r>    18.4430     0.3235     8.1787 </r>
       <r>    18.5824     0.0934     8.1918 </r>
       <r>    18.7218     0.5854     8.2734 </r>
       <r>    18.8612     0.5677     8.3525 </r>
       <r>    19.0006     0.1499     8.3734 </r>
       <r>    19.1400     0.6230     8.4602 </r>
       <r>    19.2794     0.1926     8.4871 </r>
       <r>    19.4188     0.6949     8.5840 </r>
       <r>    19.5583     1.3899     8.7777 </r>
       <r>    19.6977     0.5549     8.8551 </r>
       <r>    19.8371     0.3298     8.9011 </r>
       <r>    19.9765     1.2086     9.0695 </r>
       <r>    20.1159     0.0055     9.0703 </r>
       <r>    20.2553     0.0011     9.0705 </r>
       <r>    20.3947     1.0264     9.2135 </r>
       <r>    20.5341     0.4274     9.2731 </r>
       <r>    20.6735     0.0583     9.2812 </r>
       <r>    20.8129     0.0155     9.2834 </r>
       <r>    20.9523     0.8524     9.4022 </r>
       <r>    21.0917     1.0425     9.5476 </r>
       <r>    21.2311     0.1418     9.5673 </r>
       <r>    21.3705     0.6658     9.6602 </r>
       <r>    21.5099     0.8395     9.7772 </r>
       <r>    21.6493     0.6269     9.8646 </r>
       <r>    21.7887     0.2473     9.8991 </r>
       <r>    21.9282     0.8836    10.0222 </r>
       <r>    22.0676     0.1563    10.0440 </r>
       <r>    22.2070     1.2657    10.2205 </r>
       <r>    22.3464     0.8971    10.3455 </r>
       <r>    22.4858     1.1064    10.4998 </r>
       <r>    22.6252     0.0257    10.5034 </r>
       <r>    22.7646     0.6545    10.5946 </r>
       <r>    22.9040     0.1761    10.6192 </r>
       <r>    23.0434     1.2565    10.7943 </r>
       <r>    23.1828     0.2408    10.8279 </r>
       <r>    23.3222     0.5105    10.8990 </r>
       <r>    23.4616     0.4908    10.9675 </r>
       <r>    23.6010     0.4332    11.0279 </r>
       <r>    23.7404     1.6838    11.2626 </r>
       <r>    23.8798     0.9494    11.3949 </r>
       <r>    24.0192     0.9757    11.5310 </r>
       <r>    24.1586     1.2232    11.7015 </r>
       <r>    24.2981     0.1003    11.7155 </r>
       <r>    24.4375     0.8832    11.8386 </r>
       <r>    24.5769     0.4297    11.8985 </r>
       <r>    24.7163     0.1487    11.9192 </r>
       <r>    24.8557     0.0190    11.9219 </r>
       <r>    24.9951     0.0148    11.9239 </r>
       <r>    25.1345     1.2132    12.0931 </r>
       <r>    25.2739     0.4919    12.1616 </r>
       <r>    25.4133     0.2977    12.2031 </r>
       <r>    25.5527     0.0503    12.2101 </r>
       <r>    25.6921     0.4122    12.2676 </r>
       <r>    25.8315     0.7896    12.3777 </r>
       <r>    25.9709     0.2971    12.4191 </r>
       <r>    26.1103     1.7749    12.6665 </r>
       <r>    26.2497     0.5653    12.7453 </r>
       <r>    26.3891     1.1537    12.9062 </r>
       <r>    26.5286     0.0017    12.9064 </r>
       <r>    26.6680     0.5678    12.9856 </r>
       <r>    26.8074     0.1067    13.0004 </r>
       <r>    26.9468     0.7005    13.0981 </r>
       <r>    27.0862     0.7404    13.2013 </r>
       <r>    27.2256     0.5722    13.2811 </r>
       <r>    27.3650     0.0821    13.2925 </r>
       <r>    27.5044     1.6901    13.5281 </r>
       <r>    27.6438     0.3516    13.5772 </r>
       <r>    27.7832     0.7125    13.6765 </r>
       <r>    27.9226     1.1230    13.8330 </r>
       <r>    28.0620     0.4960    13.9022 </r>
       <r>    28.2014     0.4773    13.9687 </r>
       <r>    28.3408     0.1040    13.9832 </r>
       <r>    28.4802     0.7049    14.0815 </r>
       <r>    28.6196     0.3133    14.1252 </r>
       <r>    28.7590     1.1233    14.2818 </r>
       <r>    28.8985     1.9866    14.5587 </r>
       <r>    29.0379     0.1954    14.5859 </r>
       <r>    29.1773     0.0124    14.5877 </r>
       <r>    29.3167     1.2996    14.7688 </r>
       <r>    29.4561     0.7123    14.8681 </r>
       <r>    29.5955     0.1602    14.8905 </r>
       <r>    29.7349     0.0012    14.8906 </r>
       <r>    29.8743     0.4703    14.9562 </r>
       <r>    30.0137     0.6530    15.0472 </r>
       <r>    30.1531     0.9777    15.1835 </r>
       <r>    30.2925     0.3647    15.2344 </r>
       <r>    30.4319     0.1910    15.2610 </r>
       <r>    30.5713     2.5149    15.6116 </r>
       <r>    30.7107     0.3203    15.6562 </r>
       <r>    30.8501     0.0000    15.6563 </r>
       <r>    30.9895     0.1663    15.6794 </r>
       <r>    31.1290     0.9992    15.8187 </r>
       <r>    31.2684     0.1795    15.8437 </r>
       <r>    31.4078     0.0000    15.8438 </r>
       <r>    31.5472     0.0116    15.8454 </r>
       <r>    31.6866     0.3190    15.8898 </r>
       <r>    31.8260     0.0057    15.8906 </r>
       <r>    31.9654     0.0000    15.8906 </r>
       <r>    32.1048     0.0000    15.8906 </r>
       <r>    32.2442     0.0000    15.8906 </r>
       <r>    32.3836     0.0000    15.8906 </r>
       <r>    32.5230     0.0000    15.8906 </r>
       <r>    32.6624     0.0970    15.9042 </r>
       <r>    32.8018     0.1271    15.9219 </r>
       <r>    32.9412     0.0000    15.9219 </r>
       <r>    33.0806     0.0000    15.9219 </r>
       <r>    33.2200     0.0411    15.9276 </r>
       <r>    33.3594     0.1269    15.9453 </r>
       <r>    33.4989     0.0002    15.9453 </r>
       <r>    33.6383     0.1289    15.9633 </r>
       <r>    33.7777     0.0391    15.9687 </r>
       <r>    33.9171     0.0170    15.9711 </r>
       <r>    34.0565     0.2058    15.9998 </r>
       <r>    34.1959     0.0014    16.0000 </r>
       <r>    34.3353     0.0000    16.0000 </r>
       <r>    34.4747     0.0000    16.0000 </r>
       <r>    34.6141     0.0000    16.0000 </r>
       <r>    34.7535     0.0000    16.0000 </r>
       <r>    34.8929     0.0000    16.0000 </r>
       <r>    35.0323     0.0000    16.0000 </r>
       <r>    35.1717     0.0000    16.0000 </r>
       <r>    35.3111     0.0000    16.0000 </r>
       <r>    35.4505     0.0000    16.0000 </r>
       <r>    35.5899     0.0000    16.0000 </r>
       <r>    35.7294     0.0000    16.0000 </r>
       <r>    35.8688     0.0000    16.0000 </r>
      </set>
     </set>
    </array>
   </total>
  </dos>
 </calculation>
 <structure name="finalpos" >
  <crystal>
   <varray name="basis" >
    <v>       1.53740710       1.53740710       1.53740710 </v>
    <v>       1.53740710      -1.53740710      -1.53740710 </v>
    <v>      -1.53740710       1.53740710      -1.53740710 </v>
   </varray>
   <i name="volume">     14.53538839 </i>
   <varray name="rec_basis" >
    <v>       0.32522290       0.32522290       0.00000000 </v>
    <v>       0.32522290       0.00000000      -0.32522290 </v>
    <v>       0.00000000       0.32522290      -0.32522290 </v>
   </varray>
  </crystal>
  <varray name="positions" >
   <v>       0.00000000       0.00000000       0.00000000 </v>
  </varray>
 </structure>
</modeling>
