   1   1   0   0
  0.1408159E+02  0.2710538E-09  0.2710538E-09  0.2710538E-09  0.5000000E-15
  1.000000000000000E-004
  CAR 
 unknown system                          
     38.26493391     -6.30124132  301     10.17293421      1.00000000
     -6.301  0.0000E+00  0.0000E+00
     -6.153  0.0000E+00  0.0000E+00
     -6.004  0.0000E+00  0.0000E+00
     -5.856  0.0000E+00  0.0000E+00
     -5.707  0.0000E+00  0.0000E+00
     -5.558  0.0000E+00  0.0000E+00
     -5.410  0.0000E+00  0.0000E+00
     -5.261  0.0000E+00  0.0000E+00
     -5.113  0.0000E+00  0.0000E+00
     -4.964  0.0000E+00  0.0000E+00
     -4.816  0.0000E+00  0.0000E+00
     -4.667  0.0000E+00  0.0000E+00
     -4.519  0.1231E-15  0.1829E-16
     -4.370  0.1496E-06  0.2222E-07
     -4.221  0.4249E-04  0.6334E-05
     -4.073  0.5016E-03  0.8085E-04
     -3.924  0.3239E-03  0.1290E-03
     -3.776  0.1031E-02  0.2821E-03
     -3.627  0.4825E-03  0.3537E-03
     -3.479  0.4890E-03  0.4264E-03
     -3.330  0.1633E-02  0.6690E-03
     -3.182  0.9466E-03  0.8097E-03
     -3.033  0.1275E-02  0.9990E-03
     -2.885  0.3229E-03  0.1047E-02
     -2.736  0.2198E-02  0.1373E-02
     -2.587  0.1248E-02  0.1559E-02
     -2.439  0.1186E-02  0.1735E-02
     -2.290  0.1525E-02  0.1961E-02
     -2.142  0.4047E-03  0.2022E-02
     -1.993  0.2688E-02  0.2421E-02
     -1.845  0.1557E-02  0.2652E-02
     -1.696  0.3039E-02  0.3104E-02
     -1.548  0.3566E-03  0.3157E-02
     -1.399  0.8962E-03  0.3290E-02
     -1.250  0.2198E-02  0.3616E-02
     -1.102  0.1647E-02  0.3861E-02
     -0.953  0.2897E-02  0.4291E-02
     -0.805  0.9027E-03  0.4425E-02
     -0.656  0.4245E-02  0.5056E-02
     -0.508  0.1134E-02  0.5224E-02
     -0.359  0.1827E-02  0.5496E-02
     -0.211  0.6635E-03  0.5594E-02
     -0.062  0.1732E-02  0.5852E-02
      0.087  0.3190E-02  0.6326E-02
      0.235  0.2892E-02  0.6755E-02
      0.384  0.3965E-02  0.7344E-02
      0.532  0.1501E-03  0.7367E-02
      0.681  0.3440E-02  0.7878E-02
      0.829  0.1982E-02  0.8172E-02
      0.978  0.2464E-02  0.8538E-02
      1.126  0.7583E-03  0.8651E-02
      1.275  0.1443E-02  0.8865E-02
      1.424  0.5697E-02  0.9711E-02
      1.572  0.1947E-02  0.1000E-01
      1.721  0.4481E-02  0.1067E-01
      1.869  0.1243E-02  0.1085E-01
      2.018  0.2690E-02  0.1125E-01
      2.166  0.1844E-02  0.1152E-01
      2.315  0.4558E-02  0.1220E-01
      2.463  0.1093E-02  0.1236E-01
      2.612  0.2015E-02  0.1266E-01
      2.761  0.3652E-02  0.1321E-01
      2.909  0.2728E-02  0.1361E-01
      3.058  0.4928E-02  0.1434E-01
      3.206  0.1092E-02  0.1451E-01
      3.355  0.6013E-02  0.1540E-01
      3.503  0.2270E-02  0.1574E-01
      3.652  0.1870E-02  0.1601E-01
      3.800  0.7963E-03  0.1613E-01
      3.949  0.2945E-02  0.1657E-01
      4.098  0.2463E-02  0.1694E-01
      4.246  0.4671E-02  0.1763E-01
      4.395  0.5741E-02  0.1848E-01
      4.543  0.1110E-02  0.1865E-01
      4.692  0.3140E-02  0.1911E-01
      4.840  0.4191E-02  0.1974E-01
      4.989  0.4531E-02  0.2041E-01
      5.137  0.1837E-02  0.2068E-01
      5.286  0.3676E-02  0.2123E-01
      5.435  0.4880E-02  0.2195E-01
      5.583  0.2808E-02  0.2237E-01
      5.732  0.1394E-02  0.2258E-01
      5.880  0.1443E-02  0.2279E-01
      6.029  0.4643E-02  0.2348E-01
      6.177  0.4627E-02  0.2417E-01
      6.326  0.5412E-02  0.2497E-01
      6.474  0.2642E-02  0.2536E-01
      6.623  0.1982E-02  0.2566E-01
      6.772  0.4936E-02  0.2639E-01
      6.920  0.4972E-02  0.2713E-01
      7.069  0.3132E-02  0.2760E-01
      7.217  0.2256E-02  0.2793E-01
      7.366  0.7243E-02  0.2901E-01
      7.514  0.1356E-02  0.2921E-01
      7.663  0.1438E-02  0.2942E-01
      7.811  0.1484E-02  0.2964E-01
      7.960  0.4204E-02  0.3027E-01
      8.108  0.5086E-02  0.3102E-01
      8.257  0.8822E-02  0.3233E-01
      8.406  0.4930E-02  0.3307E-01
      8.554  0.1799E-02  0.3333E-01
      8.703  0.2355E-02  0.3368E-01
      8.851  0.5898E-02  0.3456E-01
      9.000  0.2300E-02  0.3490E-01
      9.148  0.2116E-02  0.3522E-01
      9.297  0.5339E-02  0.3601E-01
      9.445  0.4847E-02  0.3673E-01
      9.594  0.5040E-02  0.3748E-01
      9.743  0.9789E-03  0.3762E-01
      9.891  0.5967E-02  0.3851E-01
     10.040  0.3902E-02  0.3909E-01
     10.188  0.6837E-02  0.4010E-01
     10.337  0.4417E-02  0.4076E-01
     10.485  0.2805E-02  0.4118E-01
     10.634  0.9943E-03  0.4132E-01
     10.782  0.7275E-02  0.4241E-01
     10.931  0.6343E-02  0.4335E-01
     11.080  0.3170E-02  0.4382E-01
     11.228  0.5235E-02  0.4460E-01
     11.377  0.5623E-02  0.4543E-01
     11.525  0.2942E-02  0.4587E-01
     11.674  0.1519E-02  0.4609E-01
     11.822  0.5557E-02  0.4692E-01
     11.971  0.2795E-02  0.4734E-01
     12.119  0.8284E-02  0.4857E-01
     12.268  0.5638E-02  0.4940E-01
     12.417  0.5807E-02  0.5027E-01
     12.565  0.4875E-02  0.5099E-01
     12.714  0.2981E-02  0.5143E-01
     12.862  0.4829E-02  0.5215E-01
     13.011  0.4490E-02  0.5282E-01
     13.159  0.7708E-02  0.5396E-01
     13.308  0.6218E-02  0.5489E-01
     13.456  0.3621E-02  0.5542E-01
     13.605  0.4628E-02  0.5611E-01
     13.754  0.5230E-02  0.5689E-01
     13.902  0.6282E-02  0.5782E-01
     14.051  0.6279E-02  0.5875E-01
     14.199  0.3714E-02  0.5931E-01
     14.348  0.5952E-02  0.6019E-01
     14.496  0.4601E-02  0.6087E-01
     14.645  0.8158E-02  0.6209E-01
     14.793  0.4304E-02  0.6273E-01
     14.942  0.3845E-02  0.6330E-01
     15.091  0.5840E-02  0.6416E-01
     15.239  0.1124E-02  0.6433E-01
     15.388  0.3329E-02  0.6483E-01
     15.536  0.6650E-02  0.6581E-01
     15.685  0.5122E-02  0.6657E-01
     15.833  0.8412E-02  0.6782E-01
     15.982  0.3839E-02  0.6839E-01
     16.130  0.5216E-02  0.6917E-01
     16.279  0.2400E-02  0.6953E-01
     16.428  0.5387E-02  0.7033E-01
     16.576  0.3474E-02  0.7084E-01
     16.725  0.3770E-02  0.7140E-01
     16.873  0.4967E-02  0.7214E-01
     17.022  0.6679E-02  0.7313E-01
     17.170  0.5108E-02  0.7389E-01
     17.319  0.3229E-02  0.7437E-01
     17.467  0.4016E-02  0.7497E-01
     17.616  0.7084E-02  0.7602E-01
     17.764  0.4496E-02  0.7669E-01
     17.913  0.3278E-02  0.7717E-01
     18.062  0.4569E-02  0.7785E-01
     18.210  0.9686E-02  0.7929E-01
     18.359  0.7185E-02  0.8036E-01
     18.507  0.3645E-02  0.8090E-01
     18.656  0.3273E-02  0.8139E-01
     18.804  0.6700E-02  0.8238E-01
     18.953  0.4222E-02  0.8301E-01
     19.101  0.4159E-02  0.8363E-01
     19.250  0.7262E-02  0.8471E-01
     19.399  0.8251E-02  0.8593E-01
     19.547  0.1581E-02  0.8617E-01
     19.696  0.3355E-02  0.8667E-01
     19.844  0.3040E-02  0.8712E-01
     19.993  0.7335E-02  0.8821E-01
     20.141  0.7421E-02  0.8931E-01
     20.290  0.7770E-02  0.9046E-01
     20.438  0.6339E-02  0.9140E-01
     20.587  0.5375E-02  0.9220E-01
     20.736  0.5007E-02  0.9295E-01
     20.884  0.2697E-02  0.9335E-01
     21.033  0.1072E-01  0.9494E-01
     21.181  0.6695E-02  0.9593E-01
     21.330  0.5607E-02  0.9677E-01
     21.478  0.6575E-02  0.9774E-01
     21.627  0.2840E-02  0.9817E-01
     21.775  0.8879E-02  0.9949E-01
     21.924  0.6246E-02  0.1004E+00
     22.073  0.2806E-02  0.1008E+00
     22.221  0.3411E-02  0.1013E+00
     22.370  0.5376E-02  0.1021E+00
     22.518  0.6545E-02  0.1031E+00
     22.667  0.5896E-02  0.1040E+00
     22.815  0.3912E-02  0.1046E+00
     22.964  0.4649E-02  0.1053E+00
     23.112  0.8849E-02  0.1066E+00
     23.261  0.7412E-02  0.1077E+00
     23.410  0.1064E-01  0.1093E+00
     23.558  0.7288E-02  0.1103E+00
     23.707  0.8838E-02  0.1116E+00
     23.855  0.2344E-02  0.1120E+00
     24.004  0.4766E-02  0.1127E+00
     24.152  0.6059E-02  0.1136E+00
     24.301  0.3282E-02  0.1141E+00
     24.449  0.9493E-02  0.1155E+00
     24.598  0.5925E-02  0.1164E+00
     24.747  0.4378E-02  0.1170E+00
     24.895  0.4973E-02  0.1178E+00
     25.044  0.3162E-02  0.1182E+00
     25.192  0.1149E-01  0.1199E+00
     25.341  0.1253E-01  0.1218E+00
     25.489  0.4965E-02  0.1225E+00
     25.638  0.4302E-02  0.1232E+00
     25.786  0.7244E-02  0.1243E+00
     25.935  0.7859E-02  0.1254E+00
     26.084  0.5106E-02  0.1262E+00
     26.232  0.6262E-02  0.1271E+00
     26.381  0.6872E-02  0.1281E+00
     26.529  0.8367E-02  0.1294E+00
     26.678  0.5556E-02  0.1302E+00
     26.826  0.9998E-03  0.1304E+00
     26.975  0.5590E-02  0.1312E+00
     27.123  0.5040E-02  0.1319E+00
     27.272  0.8999E-02  0.1333E+00
     27.420  0.7678E-02  0.1344E+00
     27.569  0.8266E-02  0.1356E+00
     27.718  0.6939E-02  0.1367E+00
     27.866  0.1969E-02  0.1370E+00
     28.015  0.5717E-02  0.1378E+00
     28.163  0.1004E-01  0.1393E+00
     28.312  0.5088E-02  0.1401E+00
     28.460  0.3336E-02  0.1406E+00
     28.609  0.8431E-03  0.1407E+00
     28.757  0.3183E-02  0.1412E+00
     28.906  0.9050E-02  0.1425E+00
     29.055  0.4456E-02  0.1432E+00
     29.203  0.4689E-02  0.1439E+00
     29.352  0.3683E-02  0.1444E+00
     29.500  0.4206E-02  0.1450E+00
     29.649  0.1073E-01  0.1466E+00
     29.797  0.7014E-02  0.1477E+00
     29.946  0.6248E-02  0.1486E+00
     30.094  0.4010E-02  0.1492E+00
     30.243  0.4327E-02  0.1498E+00
     30.392  0.1724E-02  0.1501E+00
     30.540  0.4136E-02  0.1507E+00
     30.689  0.5666E-02  0.1515E+00
     30.837  0.3814E-02  0.1521E+00
     30.986  0.2494E-02  0.1525E+00
     31.134  0.3736E-02  0.1530E+00
     31.283  0.5764E-02  0.1539E+00
     31.431  0.3579E-02  0.1544E+00
     31.580  0.1622E-02  0.1547E+00
     31.729  0.1777E-04  0.1547E+00
     31.877  0.4094E-02  0.1553E+00
     32.026  0.3039E-02  0.1557E+00
     32.174  0.9565E-03  0.1559E+00
     32.323  0.1400E-02  0.1561E+00
     32.471  0.1438E-02  0.1563E+00
     32.620  0.1755E-02  0.1566E+00
     32.768  0.3701E-02  0.1571E+00
     32.917  0.2306E-02  0.1574E+00
     33.066  0.6088E-03  0.1575E+00
     33.214  0.1256E-02  0.1577E+00
     33.363  0.2780E-02  0.1581E+00
     33.511  0.1171E-02  0.1583E+00
     33.660  0.1806E-02  0.1586E+00
     33.808  0.1606E-02  0.1588E+00
     33.957  0.5475E-03  0.1589E+00
     34.105  0.1934E-04  0.1589E+00
     34.254  0.1839E-02  0.1592E+00
     34.403  0.4858E-03  0.1592E+00
     34.551  0.4986E-04  0.1593E+00
     34.700  0.7646E-03  0.1594E+00
     34.848  0.4321E-03  0.1594E+00
     34.997  0.1112E-02  0.1596E+00
     35.145  0.1042E-02  0.1598E+00
     35.294  0.4218E-03  0.1598E+00
     35.442  0.5357E-03  0.1599E+00
     35.591  0.2432E-07  0.1599E+00
     35.740  0.8464E-12  0.1599E+00
     35.888  0.2121E-04  0.1599E+00
     36.037  0.4545E-03  0.1600E+00
     36.185  0.1812E-04  0.1600E+00
     36.334  0.2233E-03  0.1600E+00
     36.482  0.8974E-06  0.1600E+00
     36.631  0.7389E-15  0.1600E+00
     36.779  0.0000E+00  0.1600E+00
     36.928  0.0000E+00  0.1600E+00
     37.077  0.0000E+00  0.1600E+00
     37.225  0.0000E+00  0.1600E+00
     37.374  0.0000E+00  0.1600E+00
     37.522  0.0000E+00  0.1600E+00
     37.671  0.0000E+00  0.1600E+00
     37.819  0.0000E+00  0.1600E+00
     37.968  0.0000E+00  0.1600E+00
     38.116  0.0000E+00  0.1600E+00
     38.265  0.0000E+00  0.1600E+00
