    1    1  100    1
  0.1408159E+02  0.2710538E-09  0.2710538E-09  0.2710538E-09  0.5000000E-15
  1.000000000000000E-004
  CAR 
 unknown system                          
      4    120      8
 
  0.0000000E+00  0.0000000E+00  0.0000000E+00  0.2962963E-03
    1       -4.275506   1.000000
    2       21.361220   0.000000
    3       21.361228   0.000000
    4       21.361236   0.000000
    5       22.133784   0.000000
    6       22.133792   0.000000
    7       22.133801   0.000000
    8       27.475325   0.000000
 
  0.6666667E-01 -0.6938894E-17  0.0000000E+00  0.2370370E-02
    1       -4.145865   1.000000
    2       19.206300   0.000000
    3       20.687830   0.000000
    4       20.687842   0.000000
    5       22.966126   0.000000
    6       22.966141   0.000000
    7       23.186239   0.000000
    8       28.358324   0.000000
 
  0.1333333E+00  0.0000000E+00  0.0000000E+00  0.2370370E-02
    1       -3.757445   1.000000
    2       16.376724   0.000000
    3       19.925319   0.000000
    4       19.925330   0.000000
    5       23.472896   0.000000
    6       24.059250   0.000000
    7       24.059264   0.000000
    8       27.327743   0.000000
 
  0.2000000E+00  0.0000000E+00  0.0000000E+00  0.2370370E-02
    1       -3.111836   1.000000
    2       13.546827   0.000000
    3       19.348226   0.000000
    4       19.348236   0.000000
    5       23.403018   0.000000
    6       24.281517   0.000000
    7       24.281527   0.000000
    8       27.306197   0.000000
 
  0.2666667E+00  0.0000000E+00  0.0000000E+00  0.2370370E-02
    1       -2.211742   1.000000
    2       10.843878   0.000000
    3       18.969285   0.000000
    4       18.969294   0.000000
    5       23.306141   0.000000
    6       23.389625   0.000000
    7       23.389634   0.000000
    8       28.702382   0.000000
 
  0.3333333E+00  0.0000000E+00  0.0000000E+00  0.2370370E-02
    1       -1.061272   1.000000
    2        8.319237   1.000000
    3       18.777118   0.000000
    4       18.777125   0.000000
    5       22.383099   0.000000
    6       22.383109   0.000000
    7       23.293271   0.000000
    8       27.538127   0.000000
 
  0.4000000E+00 -0.2775558E-16  0.0000000E+00  0.2370370E-02
    1        0.332502   1.000000
    2        6.001259   1.000000
    3       18.736218   0.000000
    4       18.736223   0.000000
    5       21.577922   0.000000
    6       21.577934   0.000000
    7       23.379420   0.000000
    8       26.617556   0.000000
 
  0.4666667E+00  0.0000000E+00  0.0000000E+00  0.2370370E-02
    1        1.939979   1.000000
    2        3.929620   1.000000
    3       18.767728   0.000000
    4       18.767732   0.000000
    5       21.114711   0.000000
    6       21.114724   0.000000
    7       23.490999   0.000000
    8       26.076055   0.000000
 
  0.6666667E-01  0.6666667E-01  0.0000000E+00  0.1777778E-02
    1       -4.102663   1.000000
    2       19.683835   0.000000
    3       19.683836   0.000000
    4       20.958334   0.000000
    5       21.215787   0.000000
    6       24.027607   0.000000
    7       24.027608   0.000000
    8       27.238889   0.000000
 
  0.1333333E+00  0.6666667E-01  0.0000000E+00  0.7111111E-02
    1       -3.800535   1.000000
    2       17.384219   0.000000
    3       18.842541   0.000000
    4       20.397047   0.000000
    5       21.762067   0.000000
    6       24.745726   0.000000
    7       25.176621   0.000000
    8       25.769938   0.000000
 
  0.2000000E+00  0.6666667E-01  0.0000000E+00  0.7111111E-02
    1       -3.240714   1.000000
    2       14.569444   0.000000
    3       18.206392   0.000000
    4       19.765103   0.000000
    5       22.450749   0.000000
    6       24.543688   0.000000
    7       25.298638   0.000000
    8       25.788768   0.000000
 
  0.2666667E+00  0.6666667E-01  0.0000000E+00  0.7111111E-02
    1       -2.425501   1.000000
    2       11.826968   0.000000
    3       17.784920   0.000000
    4       19.254255   0.000000
    5       21.885689   0.000000
    6       24.381690   0.000000
    7       25.134722   0.000000
    8       26.331439   0.000000
 
  0.3333333E+00  0.6666667E-01  0.0000000E+00  0.7111111E-02
    1       -1.358467   1.000000
    2        9.243977   1.000000
    3       17.579197   0.000000
    4       18.819767   0.000000
    5       21.013988   0.000000
    6       24.098808   0.000000
    7       24.357711   0.000000
    8       27.926393   0.000000
 
  0.4000000E+00  0.6666667E-01  0.0000000E+00  0.7111111E-02
    1       -0.045276   1.000000
    2        6.857148   1.000000
    3       17.585529   0.000000
    4       18.347332   0.000000
    5       20.494420   0.000000
    6       23.141094   0.000000
    7       24.376110   0.000000
    8       27.835894   0.000000
 
  0.4666667E+00  0.6666667E-01  0.0000000E+00  0.7111111E-02
    1        1.499389   1.000000
    2        4.695214   1.000000
    3       17.794189   0.000000
    4       17.808475   0.000000
    5       20.455231   0.000000
    6       22.374806   0.000000
    7       24.399816   0.000000
    8       27.297031   0.000000
 
 -0.4666667E+00  0.6666667E-01  0.0000000E+00  0.7111111E-02
    1        2.569863   1.000000
    2        3.470016   1.000000
    3       17.319586   0.000000
    4       18.184215   0.000000
    5       20.805031   0.000000
    6       21.852071   0.000000
    7       24.337442   0.000000
    8       27.208692   0.000000
 
 -0.4000000E+00  0.6666667E-01  0.0000000E+00  0.7111111E-02
    1        0.961083   1.000000
    2        5.387936   1.000000
    3       16.977876   0.000000
    4       18.711282   0.000000
    5       21.450630   0.000000
    6       21.625409   0.000000
    7       24.188170   0.000000
    8       27.603909   0.000000
 
 -0.3333333E+00  0.6666667E-01  0.0000000E+00  0.7111111E-02
    1       -0.509854   1.000000
    2        7.629043   1.000000
    3       16.827537   0.000000
    4       19.293280   0.000000
    5       21.769905   0.000000
    6       22.338051   0.000000
    7       24.055193   0.000000
    8       28.334775   0.000000
 
 -0.2666667E+00  0.6666667E-01  0.0000000E+00  0.7111111E-02
    1       -1.741860   1.000000
    2       10.083799   0.994151
    3       16.886992   0.000000
    4       19.846439   0.000000
    5       22.333918   0.000000
    6       23.415832   0.000000
    7       24.003907   0.000000
    8       27.986828   0.000000
 
 -0.2000000E+00  0.6666667E-01  0.0000000E+00  0.7111111E-02
    1       -2.725449   1.000000
    2       12.724190   0.000000
    3       17.163507   0.000000
    4       20.385777   0.000000
    5       23.139996   0.000000
    6       24.015685   0.000000
    7       24.563106   0.000000
    8       26.311328   0.000000
 
 -0.1333333E+00  0.6666667E-01  0.0000000E+00  0.7111111E-02
    1       -3.455859   1.000000
    2       15.502857   0.000000
    3       17.659080   0.000000
    4       20.979344   0.000000
    5       23.247847   0.000000
    6       23.969531   0.000000
    7       25.183625   0.000000
    8       25.876746   0.000000
 
 -0.6666667E-01  0.6666667E-01  0.0000000E+00  0.3555556E-02
    1       -3.929987   1.000000
    2       18.205937   0.000000
    3       18.465198   0.000000
    4       21.441268   0.000000
    5       22.468072   0.000000
    6       23.607013   0.000000
    7       24.489329   0.000000
    8       26.995280   0.000000
 
  0.1333333E+00  0.1333333E+00  0.0000000E+00  0.1777778E-02
    1       -3.584942   1.000000
    2       17.928654   0.000000
    3       17.928655   0.000000
    4       19.566177   0.000000
    5       19.886919   0.000000
    6       23.964487   0.000000
    7       26.401417   0.000000
    8       26.401418   0.000000
 
  0.2000000E+00  0.1333333E+00  0.0000000E+00  0.7111111E-02
    1       -3.111556   1.000000
    2       15.734572   0.000000
    3       17.221494   0.000000
    4       19.031740   0.000000
    5       20.139195   0.000000
    6       22.655252   0.000000
    7       27.118072   0.000000
    8       27.359273   0.000000
 
  0.2666667E+00  0.1333333E+00  0.0000000E+00  0.7111111E-02
    1       -2.382298   1.000000
    2       13.015032   0.000000
    3       16.731880   0.000000
    4       18.318722   0.000000
    5       20.027699   0.000000
    6       23.010565   0.000000
    7       27.092087   0.000000
    8       27.294766   0.000000
 
  0.3333333E+00  0.1333333E+00  0.0000000E+00  0.7111111E-02
    1       -1.400262   1.000000
    2       10.394279   0.000000
    3       16.463043   0.000000
    4       17.496957   0.000000
    5       19.427584   0.000000
    6       24.489687   0.000000
    7       26.133470   0.000000
    8       27.455386   0.000000
 
  0.4000000E+00  0.1333333E+00  0.0000000E+00  0.7111111E-02
    1       -0.170194   1.000000
    2        7.949395   1.000000
    3       16.415020   0.000000
    4       16.587788   0.000000
    5       19.182074   0.000000
    6       25.148000   0.000000
    7       25.751300   0.000000
    8       28.149184   0.000000
 
  0.4666667E+00  0.1333333E+00  0.0000000E+00  0.7111111E-02
    1        1.298564   1.000000
    2        5.714074   1.000000
    3       15.745307   0.000000
    4       16.585602   0.000000
    5       19.287814   0.000000
    6       24.304198   0.000000
    7       26.130188   0.000000
    8       29.653492   0.000000
 
 -0.4666667E+00  0.1333333E+00  0.0000000E+00  0.7111111E-02
    1        2.908531   1.000000
    2        3.795920   1.000000
    3       15.066119   0.000000
    4       16.969809   0.000000
    5       19.681009   0.000000
    6       23.658240   0.000000
    7       26.040080   0.000000
    8       29.786097   0.000000
 
 -0.4000000E+00  0.1333333E+00  0.0000000E+00  0.7111111E-02
    1        1.836251   1.000000
    2        5.021548   1.000000
    3       14.590186   0.000000
    4       17.557997   0.000000
    5       20.329296   0.000000
    6       23.237737   0.000000
    7       25.808121   0.000000
    8       30.089712   0.000000
 
 -0.3333333E+00  0.1333333E+00  0.0000000E+00  0.7111111E-02
    1        0.293477   1.000000
    2        7.176991   1.000000
    3       14.334810   0.000000
    4       18.331322   0.000000
    5       21.211044   0.000000
    6       23.063179   0.000000
    7       25.577309   0.000000
    8       29.621495   0.000000
 
 -0.2666667E+00  0.1333333E+00  0.0000000E+00  0.7111111E-02
    1       -1.017724   1.000000
    2        9.550851   1.000000
    3       14.309364   0.000000
    4       19.251851   0.000000
    5       22.300030   0.000000
    6       23.154642   0.000000
    7       25.388984   0.000000
    8       27.464712   0.000000
 
 -0.2000000E+00  0.1333333E+00  0.0000000E+00  0.7111111E-02
    1       -2.083065   1.000000
    2       12.101371   0.000000
    3       14.526827   0.000000
    4       20.238992   0.000000
    5       23.499441   0.000000
    6       23.542251   0.000000
    7       25.176034   0.000000
    8       25.590897   0.000000
 
 -0.1333333E+00  0.1333333E+00  0.0000000E+00  0.3555556E-02
    1       -2.896956   1.000000
    2       14.561688   0.000000
    3       15.207893   0.000000
    4       21.079242   0.000000
    5       23.466600   0.000000
    6       24.734575   0.000000
    7       24.757339   0.000000
    8       24.867970   0.000000
 
  0.2000000E+00  0.2000000E+00  0.0000000E+00  0.1777778E-02
    1       -2.724911   1.000000
    2       16.441067   0.000000
    3       16.441068   0.000000
    4       17.988087   0.000000
    5       18.135694   0.000000
    6       20.962806   0.000000
    7       28.819061   0.000000
    8       28.819061   0.000000
 
  0.2666667E+00  0.2000000E+00  0.0000000E+00  0.7111111E-02
    1       -2.082330   1.000000
    2       14.345112   0.000000
    3       15.878394   0.000000
    4       16.986127   0.000000
    5       18.249985   0.000000
    6       20.531283   0.000000
    7       29.141361   0.000000
    8       29.557676   0.000000
 
  0.3333333E+00  0.2000000E+00  0.0000000E+00  0.7111111E-02
    1       -1.186530   1.000000
    2       11.748467   0.000000
    3       15.537863   0.000000
    4       15.760091   0.000000
    5       18.153838   0.000000
    6       21.796738   0.000000
    7       28.340789   0.000000
    8       29.719413   0.000000
 
  0.4000000E+00  0.2000000E+00  0.0000000E+00  0.7111111E-02
    1       -0.041586   1.000000
    2        9.266649   1.000000
    3       14.591341   0.000000
    4       15.420617   0.000000
    5       18.038876   0.000000
    6       23.694051   0.000000
    7       27.378279   0.000000
    8       29.642706   0.000000
 
  0.4666667E+00  0.2000000E+00  0.0000000E+00  0.7111111E-02
    1        1.345555   1.000000
    2        6.971726   1.000000
    3       13.584086   0.000000
    4       15.526174   0.000000
    5       18.150698   0.000000
    6       25.703163   0.000000
    7       26.501758   0.000000
    8       29.519945   0.000000
 
 -0.4666667E+00  0.2000000E+00  0.0000000E+00  0.7111111E-02
    1        2.947974   1.000000
    2        4.910929   1.000000
    3       12.781972   0.000000
    4       15.852528   0.000000
    5       18.509741   0.000000
    6       25.792737   0.000000
    7       27.231683   0.000000
    8       29.825231   0.000000
 
 -0.4000000E+00  0.2000000E+00  0.0000000E+00  0.7111111E-02
    1        2.948470   1.000000
    2        4.907905   1.000000
    3       12.204599   0.000000
    4       16.395587   0.000000
    5       19.112161   0.000000
    6       25.286248   0.000000
    7       27.543949   0.000000
    8       31.011645   0.000000
 
 -0.3333333E+00  0.2000000E+00  0.0000000E+00  0.7111111E-02
    1        1.345112   1.000000
    2        6.961472   1.000000
    3       11.864299   0.000000
    4       17.147276   0.000000
    5       19.948172   0.000000
    6       25.000740   0.000000
    7       27.304005   0.000000
    8       29.440898   0.000000
 
 -0.2666667E+00  0.2000000E+00  0.0000000E+00  0.7111111E-02
    1       -0.042374   1.000000
    2        9.228556   1.000000
    3       11.782718   0.000000
    4       18.090345   0.000000
    5       21.000261   0.000000
    6       24.948541   0.000000
    7       26.895104   0.000000
    8       27.178286   0.000000
 
 -0.2000000E+00  0.2000000E+00  0.0000000E+00  0.3555556E-02
    1       -1.187374   1.000000
    2       11.384057   0.000000
    3       12.243701   0.000000
    4       19.180053   0.000000
    5       22.231832   0.000000
    6       25.114308   0.000000
    7       25.160033   0.000000
    8       26.223263   0.000000
 
  0.2666667E+00  0.2666667E+00  0.0000000E+00  0.1777778E-02
    1       -1.526864   1.000000
    2       15.241613   0.000000
    3       15.241614   0.000000
    4       15.406887   0.000000
    5       16.668282   0.000000
    6       19.115262   0.000000
    7       31.132720   0.000000
    8       31.132722   0.000000
 
  0.3333333E+00  0.2666667E+00  0.0000000E+00  0.7111111E-02
    1       -0.718186   1.000000
    2       13.206600   0.000000
    3       14.029052   0.000000
    4       14.827142   0.000000
    5       16.985328   0.000000
    6       19.304171   0.000000
    7       30.624562   0.000000
    8       31.809034   0.000000
 
  0.4000000E+00  0.2666667E+00  0.0000000E+00  0.7111111E-02
    1        0.339996   1.000000
    2       10.774196   0.000000
    3       12.683376   0.000000
    4       14.636895   0.000000
    5       17.081863   0.000000
    6       20.914539   0.000000
    7       29.746024   0.000000
    8       31.826250   0.000000
 
  0.4666667E+00  0.2666667E+00  0.0000000E+00  0.7111111E-02
    1        1.641876   1.000000
    2        8.449039   1.000000
    3       11.547848   0.000000
    4       14.671070   0.000000
    5       17.188343   0.000000
    6       23.042243   0.000000
    7       28.874853   0.000000
    8       31.463891   0.000000
 
 -0.4666667E+00  0.2666667E+00  0.0000000E+00  0.7111111E-02
    1        3.173575   1.000000
    2        6.318112   1.000000
    3       10.640107   0.000000
    4       14.928810   0.000000
    5       17.497677   0.000000
    6       25.351502   0.000000
    7       28.128347   0.000000
    8       30.917577   0.000000
 
 -0.4000000E+00  0.2666667E+00  0.0000000E+00  0.7111111E-02
    1        4.253773   1.000000
    2        5.079899   1.000000
    3        9.973023   1.000000
    4       15.407938   0.000000
    5       18.039842   0.000000
    6       27.557112   0.000000
    7       27.601711   0.000000
    8       30.325456   0.000000
 
 -0.3333333E+00  0.2666667E+00  0.0000000E+00  0.7111111E-02
    1        2.639340   1.000000
    2        6.962648   1.000000
    3        9.571970   1.000000
    4       16.103937   0.000000
    5       18.815222   0.000000
    6       27.178576   0.000000
    7       28.919603   0.000000
    8       29.509790   0.000000
 
 -0.2666667E+00  0.2666667E+00  0.0000000E+00  0.3555556E-02
    1        1.179558   1.000000
    2        8.805291   1.000000
    3        9.747808   1.000000
    4       17.006852   0.000000
    5       19.811848   0.000000
    6       26.818411   0.000000
    7       27.376721   0.000000
    8       28.213991   0.000000
 
  0.3333333E+00  0.3333333E+00  0.0000000E+00  0.1777778E-02
    1        0.002682   1.000000
    2       12.306747   0.000000
    3       14.338232   0.000000
    4       14.338233   0.000000
    5       15.659237   0.000000
    6       18.044240   0.000000
    7       32.549570   0.000000
    8       33.231430   0.000000
 
  0.4000000E+00  0.3333333E+00  0.0000000E+00  0.7111111E-02
    1        0.972696   1.000000
    2       10.848779   0.000000
    3       12.521545   0.000000
    4       14.073718   0.000000
    5       16.142122   0.000000
    6       18.503559   0.000000
    7       32.109197   0.000000
    8       33.760010   0.000000
 
  0.4666667E+00  0.3333333E+00  0.0000000E+00  0.7111111E-02
    1        2.186118   1.000000
    2        9.542377   1.000000
    3       10.287654   0.000588
    4       14.034334   0.000000
    5       16.405386   0.000000
    6       20.323131   0.000000
    7       31.319436   0.000000
    8       33.542389   0.000000
 
 -0.4666667E+00  0.3333333E+00  0.0000000E+00  0.7111111E-02
    1        3.631269   1.000000
    2        7.881965   1.000000
    3        8.774100   1.000000
    4       14.219843   0.000000
    5       16.689077   0.000000
    6       22.633623   0.000000
    7       30.567446   0.000000
    8       32.874001   0.000000
 
 -0.4000000E+00  0.3333333E+00  0.0000000E+00  0.7111111E-02
    1        5.230697   1.000000
    2        6.007778   1.000000
    3        7.988535   1.000000
    4       14.629046   0.000000
    5       17.172018   0.000000
    6       25.136247   0.000000
    7       29.920265   0.000000
    8       31.914294   0.000000
 
 -0.3333333E+00  0.3333333E+00  0.0000000E+00  0.3555556E-02
    1        4.163737   1.000000
    2        6.860972   1.000000
    3        7.830416   1.000000
    4       15.259142   0.000000
    5       17.881961   0.000000
    6       27.644088   0.000000
    7       29.153433   0.000000
    8       30.173759   0.000000
 
  0.4000000E+00  0.4000000E+00  0.0000000E+00  0.1777778E-02
    1        1.852820   1.000000
    2        9.318283   1.000000
    3       13.734619   0.000000
    4       13.734620   0.000000
    5       14.980162   0.000000
    6       17.380693   0.000000
    7       33.789736   0.000000
    8       35.028141   0.000000
 
  0.4666667E+00  0.4000000E+00  0.0000000E+00  0.7111111E-02
    1        2.973010   1.000000
    2        7.994036   1.000000
    3       12.031479   0.000000
    4       13.620868   0.000000
    5       15.640036   0.000000
    6       18.030880   0.000000
    7       33.554870   0.000000
    8       35.299154   0.000000
 
 -0.4666667E+00  0.4000000E+00  0.0000000E+00  0.7111111E-02
    1        4.310094   1.000000
    2        6.917562   1.000000
    3        9.881690   1.000000
    4       13.732608   0.000000
    5       16.069828   0.000000
    6       20.025180   0.000000
    7       32.871385   0.000000
    8       34.688677   0.000000
 
 -0.4000000E+00  0.4000000E+00  0.0000000E+00  0.3555556E-02
    1        5.562196   1.000000
    2        6.353643   1.000000
    3        7.916089   1.000000
    4       14.069245   0.000000
    5       16.523018   0.000000
    6       22.495066   0.000000
    7       31.896276   0.000000
    8       33.287143   0.000000
 
  0.4666667E+00  0.4666667E+00  0.0000000E+00  0.1777778E-02
    1        3.982523   1.000000
    2        6.603786   1.000000
    3       13.432518   0.000000
    4       13.432519   0.000000
    5       14.639084   0.000000
    6       17.053909   0.000000
    7       34.680292   0.000000
    8       36.239199   0.000000
 
 -0.4666667E+00  0.4666667E+00  0.0000000E+00  0.3555556E-02
    1        4.912397   1.000000
    2        5.762506   1.000000
    3       11.870933   0.000000
    4       13.469817   0.000000
    5       15.472740   0.000000
    6       17.873570   0.000000
    7       34.358015   0.000000
    8       35.948274   0.000000
 
  0.2000000E+00  0.1333333E+00  0.6666667E-01  0.7111111E-02
    1       -3.412752   1.000000
    2       16.405376   0.000000
    3       16.825854   0.000000
    4       20.729266   0.000000
    5       21.337519   0.000000
    6       24.299611   0.000000
    7       25.660589   0.000000
    8       26.023908   0.000000
 
  0.2666667E+00  0.1333333E+00  0.6666667E-01  0.1422222E-01
    1       -2.768170   1.000000
    2       13.815406   0.000000
    3       16.091546   0.000000
    4       20.079551   0.000000
    5       21.769537   0.000000
    6       23.848008   0.000000
    7       25.873697   0.000000
    8       26.108492   0.000000
 
  0.3333333E+00  0.1333333E+00  0.6666667E-01  0.1422222E-01
    1       -1.869489   1.000000
    2       11.145829   0.000000
    3       15.734141   0.000000
    4       19.207921   0.000000
    5       21.331471   0.000000
    6       24.419235   0.000000
    7       25.340816   0.000000
    8       26.494814   0.000000
 
  0.4000000E+00  0.1333333E+00  0.6666667E-01  0.1422222E-01
    1       -0.720803   1.000000
    2        8.635572   1.000000
    3       15.603752   0.000000
    4       18.270537   0.000000
    5       21.005078   0.000000
    6       23.646526   0.000000
    7       25.607499   0.000000
    8       27.877930   0.000000
 
  0.4666667E+00  0.1333333E+00  0.6666667E-01  0.1422222E-01
    1        0.670898   1.000000
    2        6.325429   1.000000
    3       15.687524   0.000000
    4       17.406498   0.000000
    5       20.966738   0.000000
    6       22.771139   0.000000
    7       25.757251   0.000000
    8       29.299662   0.000000
 
 -0.4666667E+00  0.1333333E+00  0.6666667E-01  0.1422222E-01
    1        2.277037   1.000000
    2        4.257468   1.000000
    3       15.931298   0.000000
    4       16.756010   0.000000
    5       21.109142   0.000000
    6       22.163404   0.000000
    7       25.847771   0.000000
    8       29.041558   0.000000
 
  0.2666667E+00  0.2000000E+00  0.6666667E-01  0.7111111E-02
    1       -2.553512   1.000000
    2       14.853334   0.000000
    3       15.356556   0.000000
    4       18.733564   0.000000
    5       19.864821   0.000000
    6       21.741927   0.000000
    7       27.599442   0.000000
    8       28.251100   0.000000
 
  0.3333333E+00  0.2000000E+00  0.6666667E-01  0.1422222E-01
    1       -1.740885   1.000000
    2       12.401776   0.000000
    3       14.731568   0.000000
    4       17.562338   0.000000
    5       20.081461   0.000000
    6       22.431791   0.000000
    7       26.873807   0.000000
    8       28.709260   0.000000
 
  0.4000000E+00  0.2000000E+00  0.6666667E-01  0.1422222E-01
    1       -0.677234   1.000000
    2        9.864997   1.000000
    3       14.506275   0.000000
    4       16.373930   0.000000
    5       19.938452   0.000000
    6       24.067205   0.000000
    7       25.960713   0.000000
    8       28.848286   0.000000
 
  0.4666667E+00  0.2000000E+00  0.6666667E-01  0.1422222E-01
    1        0.631813   1.000000
    2        7.499031   1.000000
    3       14.463419   0.000000
    4       15.384820   0.000000
    5       19.961667   0.000000
    6       24.616019   0.000000
    7       26.327411   0.000000
    8       29.056667   0.000000
 
 -0.4666667E+00  0.2000000E+00  0.6666667E-01  0.1422222E-01
    1        2.172247   1.000000
    2        5.348170   1.000000
    3       14.214035   0.000000
    4       15.029363   0.000000
    5       20.209416   0.000000
    6       23.940377   0.000000
    7       27.480852   0.000000
    8       29.848623   0.000000
 
 -0.4000000E+00  0.2000000E+00  0.6666667E-01  0.1422222E-01
    1        3.246380   1.000000
    2        4.120296   1.000000
    3       13.662776   0.000000
    4       15.420565   0.000000
    5       20.675286   0.000000
    6       23.380820   0.000000
    7       27.681741   0.000000
    8       30.988522   0.000000
 
 -0.3333333E+00  0.2000000E+00  0.6666667E-01  0.1422222E-01
    1        1.635104   1.000000
    2        6.036115   1.000000
    3       13.264295   0.000000
    4       16.107953   0.000000
    5       21.326193   0.000000
    6       23.057431   0.000000
    7       27.426622   0.000000
    8       29.802676   0.000000
 
 -0.2666667E+00  0.2000000E+00  0.6666667E-01  0.1422222E-01
    1        0.168422   1.000000
    2        8.259302   1.000000
    3       13.088278   0.000000
    4       17.016561   0.000000
    5       22.042618   0.000000
    6       23.076465   0.000000
    7       26.630573   0.000000
    8       28.286681   0.000000
 
 -0.2000000E+00  0.2000000E+00  0.6666667E-01  0.1422222E-01
    1       -1.059710   1.000000
    2       10.670602   0.000000
    3       13.159921   0.000000
    4       18.108333   0.000000
    5       22.542125   0.000000
    6       23.547251   0.000000
    7       25.163096   0.000000
    8       27.644149   0.000000
 
 -0.1333333E+00  0.2000000E+00  0.6666667E-01  0.7111111E-02
    1       -2.040134   1.000000
    2       12.980674   0.000000
    3       13.733458   0.000000
    4       19.295876   0.000000
    5       22.579133   0.000000
    6       23.329190   0.000000
    7       25.119364   0.000000
    8       27.056419   0.000000
 
  0.3333333E+00  0.2666667E+00  0.6666667E-01  0.7111111E-02
    1       -1.356591   1.000000
    2       13.595133   0.000000
    3       14.107738   0.000000
    4       15.785548   0.000000
    5       18.617577   0.000000
    6       20.235312   0.000000
    7       28.974771   0.000000
    8       30.784848   0.000000
 
  0.4000000E+00  0.2666667E+00  0.6666667E-01  0.1422222E-01
    1       -0.379371   1.000000
    2       11.283729   0.000000
    3       13.564505   0.000000
    4       14.504601   0.000000
    5       18.937576   0.000000
    6       21.418951   0.000000
    7       28.114833   0.000000
    8       31.227197   0.000000
 
  0.4666667E+00  0.2666667E+00  0.6666667E-01  0.1422222E-01
    1        0.844515   1.000000
    2        8.893310   1.000000
    3       13.010510   0.000000
    4       13.814847   0.000000
    5       18.995954   0.000000
    6       23.388806   0.000000
    7       27.207741   0.000000
    8       31.152287   0.000000
 
 -0.4666667E+00  0.2666667E+00  0.6666667E-01  0.1422222E-01
    1        2.305844   1.000000
    2        6.683014   1.000000
    3       12.136314   0.000000
    4       13.900389   0.000000
    5       19.214430   0.000000
    6       25.347421   0.000000
    7       26.641947   0.000000
    8       30.807681   0.000000
 
 -0.4000000E+00  0.2666667E+00  0.6666667E-01  0.1422222E-01
    1        3.917494   1.000000
    2        4.767029   1.000000
    3       11.412709   0.000000
    4       14.298765   0.000000
    5       19.648228   0.000000
    6       25.476704   0.000000
    7       28.028751   0.000000
    8       30.199186   0.000000
 
 -0.3333333E+00  0.2666667E+00  0.6666667E-01  0.1422222E-01
    1        2.841525   1.000000
    2        5.987396   1.000000
    3       10.916095   0.000000
    4       14.939602   0.000000
    5       20.299886   0.000000
    6       25.081185   0.000000
    7       28.773834   0.000000
    8       29.655326   0.000000
 
 -0.2666667E+00  0.2666667E+00  0.6666667E-01  0.1422222E-01
    1        1.305196   1.000000
    2        8.096770   1.000000
    3       10.678712   0.000000
    4       15.805638   0.000000
    5       21.153704   0.000000
    6       24.835029   0.000000
    7       26.904376   0.000000
    8       29.607696   0.000000
 
 -0.2000000E+00  0.2666667E+00  0.6666667E-01  0.7111111E-02
    1        0.000351   1.000000
    2       10.097271   0.983826
    3       11.000630   0.000000
    4       16.878172   0.000000
    5       22.158311   0.000000
    6       24.469327   0.000000
    7       25.210187   0.000000
    8       28.860949   0.000000
 
  0.4000000E+00  0.3333333E+00  0.6666667E-01  0.7111111E-02
    1        0.171477   1.000000
    2       12.361300   0.000000
    3       12.644818   0.000000
    4       13.449147   0.000000
    5       17.661960   0.000000
    6       19.275195   0.000000
    7       30.408541   0.000000
    8       33.072202   0.000000
 
  0.4666667E+00  0.3333333E+00  0.6666667E-01  0.1422222E-01
    1        1.308055   1.000000
    2       10.426336   0.000000
    3       11.250727   0.000000
    4       12.998103   0.000000
    5       18.139861   0.000000
    6       20.694684   0.000000
    7       29.595973   0.000000
    8       33.304707   0.000000
 
 -0.4666667E+00  0.3333333E+00  0.6666667E-01  0.1422222E-01
    1        2.683907   1.000000
    2        8.225086   1.000000
    3       10.168915   0.545255
    4       13.069740   0.000000
    5       18.369767   0.000000
    6       22.872525   0.000000
    7       28.784614   0.000000
    8       32.721469   0.000000
 