<?xml version="1.0" encoding="ISO-8859-1"?>
<modeling>
 <generator>
  <i name="program" type="string">vasp </i>
  <i name="version" type="string">6.2.0  </i>
  <i name="subversion" type="string">18Jan21 (build Aug 12 2022 13:00:08) complex                          parallel </i>
  <i name="platform" type="string">LinuxIFC </i>
  <i name="date" type="string">2024 11 03 </i>
  <i name="time" type="string">22:12:36 </i>
 </generator>
 <incar>
  <i type="int" name="ISTART">     0</i>
  <i type="string" name="PREC">Accurate      (Accurate strictly avoids</i>
  <i type="logical" name="ADDGRID"> T  </i>
  <i type="int" name="ISPIN">     1</i>
  <i type="int" name="NELM">    90</i>
  <i type="int" name="NELMIN">     6</i>
  <i type="int" name="IBRION">     2</i>
  <i name="EDIFF">      0.00000100</i>
  <i name="EDIFFG">     -0.00200000</i>
  <i type="int" name="NSW">   100</i>
  <i type="int" name="ISIF">     3</i>
  <i type="int" name="ISYM">     2</i>
  <i name="ENCUT">    550.00000000</i>
  <i type="logical" name="LREAL"> F  </i>
  <i type="int" name="ISMEAR">     0</i>
  <i name="SIGMA">      0.05000000</i>
  <i type="logical" name="LWAVE"> F  </i>
  <i type="logical" name="LCHARG"> F  </i>
  <i type="logical" name="LASPH"> T  </i>
 </incar>
 <primitive_cell>
  <structure name="primitive_cell" >
   <crystal>
    <varray name="basis" >
     <v>       2.34739500       0.00000000       1.35526800 </v>
     <v>       0.78246500       2.21314500       1.35526800 </v>
     <v>       0.00000000       0.00000000       2.71053800 </v>
    </varray>
    <i name="volume">     14.08158510 </i>
    <varray name="rec_basis" >
     <v>       0.42600415      -0.15061523       0.00000000 </v>
     <v>       0.00000000       0.45184568       0.00000000 </v>
     <v>      -0.21300192      -0.15061511       0.36893045 </v>
    </varray>
   </crystal>
   <varray name="positions" >
    <v>       0.00000000       0.00000000       0.00000000 </v>
   </varray>
  </structure>
  <varray name="primitive_index" >
   <v type="int" >        1 </v>
  </varray>
 </primitive_cell>
 <kpoints>
  <generation param="Monkhorst-Pack">
   <v type="int" name="divisions">      15       15       15 </v>
   <v name="usershift">      0.00000000       0.00000000       0.00000000 </v>
   <v name="genvec1">      0.06666667      -0.00000000       0.00000000 </v>
   <v name="genvec2">      0.00000000       0.06666667       0.00000000 </v>
   <v name="genvec3">      0.00000000       0.00000000       0.06666667 </v>
   <v name="shift">      0.00000000       0.00000000       0.00000000 </v>
  </generation>
  <varray name="kpointlist" >
   <v>       0.00000000       0.00000000       0.00000000 </v>
   <v>       0.06666667      -0.00000000       0.00000000 </v>
   <v>       0.13333333       0.00000000       0.00000000 </v>
   <v>       0.20000000       0.00000000       0.00000000 </v>
   <v>       0.26666667       0.00000000       0.00000000 </v>
   <v>       0.33333333       0.00000000       0.00000000 </v>
   <v>       0.40000000      -0.00000000       0.00000000 </v>
   <v>       0.46666667       0.00000000       0.00000000 </v>
   <v>       0.06666667       0.06666667       0.00000000 </v>
   <v>       0.13333333       0.06666667       0.00000000 </v>
   <v>       0.20000000       0.06666667       0.00000000 </v>
   <v>       0.26666667       0.06666667       0.00000000 </v>
   <v>       0.33333333       0.06666667       0.00000000 </v>
   <v>       0.40000000       0.06666667       0.00000000 </v>
   <v>       0.46666667       0.06666667       0.00000000 </v>
   <v>      -0.46666667       0.06666667       0.00000000 </v>
   <v>      -0.40000000       0.06666667       0.00000000 </v>
   <v>      -0.33333333       0.06666667       0.00000000 </v>
   <v>      -0.26666667       0.06666667       0.00000000 </v>
   <v>      -0.20000000       0.06666667       0.00000000 </v>
   <v>      -0.13333333       0.06666667       0.00000000 </v>
   <v>      -0.06666667       0.06666667       0.00000000 </v>
   <v>       0.13333333       0.13333333       0.00000000 </v>
   <v>       0.20000000       0.13333333       0.00000000 </v>
   <v>       0.26666667       0.13333333       0.00000000 </v>
   <v>       0.33333333       0.13333333       0.00000000 </v>
   <v>       0.40000000       0.13333333       0.00000000 </v>
   <v>       0.46666667       0.13333333       0.00000000 </v>
   <v>      -0.46666667       0.13333333       0.00000000 </v>
   <v>      -0.40000000       0.13333333       0.00000000 </v>
   <v>      -0.33333333       0.13333333       0.00000000 </v>
   <v>      -0.26666667       0.13333333       0.00000000 </v>
   <v>      -0.20000000       0.13333333       0.00000000 </v>
   <v>      -0.13333333       0.13333333       0.00000000 </v>
   <v>       0.20000000       0.20000000       0.00000000 </v>
   <v>       0.26666667       0.20000000       0.00000000 </v>
   <v>       0.33333333       0.20000000       0.00000000 </v>
   <v>       0.40000000       0.20000000       0.00000000 </v>
   <v>       0.46666667       0.20000000       0.00000000 </v>
   <v>      -0.46666667       0.20000000       0.00000000 </v>
   <v>      -0.40000000       0.20000000       0.00000000 </v>
   <v>      -0.33333333       0.20000000       0.00000000 </v>
   <v>      -0.26666667       0.20000000       0.00000000 </v>
   <v>      -0.20000000       0.20000000       0.00000000 </v>
   <v>       0.26666667       0.26666667       0.00000000 </v>
   <v>       0.33333333       0.26666667       0.00000000 </v>
   <v>       0.40000000       0.26666667       0.00000000 </v>
   <v>       0.46666667       0.26666667       0.00000000 </v>
   <v>      -0.46666667       0.26666667       0.00000000 </v>
   <v>      -0.40000000       0.26666667       0.00000000 </v>
   <v>      -0.33333333       0.26666667       0.00000000 </v>
   <v>      -0.26666667       0.26666667       0.00000000 </v>
   <v>       0.33333333       0.33333333       0.00000000 </v>
   <v>       0.40000000       0.33333333       0.00000000 </v>
   <v>       0.46666667       0.33333333       0.00000000 </v>
   <v>      -0.46666667       0.33333333       0.00000000 </v>
   <v>      -0.40000000       0.33333333       0.00000000 </v>
   <v>      -0.33333333       0.33333333       0.00000000 </v>
   <v>       0.40000000       0.40000000       0.00000000 </v>
   <v>       0.46666667       0.40000000       0.00000000 </v>
   <v>      -0.46666667       0.40000000       0.00000000 </v>
   <v>      -0.40000000       0.40000000       0.00000000 </v>
   <v>       0.46666667       0.46666667       0.00000000 </v>
   <v>      -0.46666667       0.46666667       0.00000000 </v>
   <v>       0.20000000       0.13333333       0.06666667 </v>
   <v>       0.26666667       0.13333333       0.06666667 </v>
   <v>       0.33333333       0.13333333       0.06666667 </v>
   <v>       0.40000000       0.13333333       0.06666667 </v>
   <v>       0.46666667       0.13333333       0.06666667 </v>
   <v>      -0.46666667       0.13333333       0.06666667 </v>
   <v>       0.26666667       0.20000000       0.06666667 </v>
   <v>       0.33333333       0.20000000       0.06666667 </v>
   <v>       0.40000000       0.20000000       0.06666667 </v>
   <v>       0.46666667       0.20000000       0.06666667 </v>
   <v>      -0.46666667       0.20000000       0.06666667 </v>
   <v>      -0.40000000       0.20000000       0.06666667 </v>
   <v>      -0.33333333       0.20000000       0.06666667 </v>
   <v>      -0.26666667       0.20000000       0.06666667 </v>
   <v>      -0.20000000       0.20000000       0.06666667 </v>
   <v>      -0.13333333       0.20000000       0.06666667 </v>
   <v>       0.33333333       0.26666667       0.06666667 </v>
   <v>       0.40000000       0.26666667       0.06666667 </v>
   <v>       0.46666667       0.26666667       0.06666667 </v>
   <v>      -0.46666667       0.26666667       0.06666667 </v>
   <v>      -0.40000000       0.26666667       0.06666667 </v>
   <v>      -0.33333333       0.26666667       0.06666667 </v>
   <v>      -0.26666667       0.26666667       0.06666667 </v>
   <v>      -0.20000000       0.26666667       0.06666667 </v>
   <v>       0.40000000       0.33333333       0.06666667 </v>
   <v>       0.46666667       0.33333333       0.06666667 </v>
   <v>      -0.46666667       0.33333333       0.06666667 </v>
   <v>      -0.40000000       0.33333333       0.06666667 </v>
   <v>      -0.33333333       0.33333333       0.06666667 </v>
   <v>      -0.26666667       0.33333333       0.06666667 </v>
   <v>       0.46666667       0.40000000       0.06666667 </v>
   <v>      -0.46666667       0.40000000       0.06666667 </v>
   <v>      -0.40000000       0.40000000       0.06666667 </v>
   <v>      -0.33333333       0.40000000       0.06666667 </v>
   <v>      -0.46666667       0.46666667       0.06666667 </v>
   <v>      -0.40000000       0.46666667       0.06666667 </v>
   <v>       0.40000000       0.26666667       0.13333333 </v>
   <v>       0.46666667       0.26666667       0.13333333 </v>
   <v>      -0.46666667       0.26666667       0.13333333 </v>
   <v>      -0.40000000       0.26666667       0.13333333 </v>
   <v>       0.46666667       0.33333333       0.13333333 </v>
   <v>      -0.46666667       0.33333333       0.13333333 </v>
   <v>      -0.40000000       0.33333333       0.13333333 </v>
   <v>      -0.33333333       0.33333333       0.13333333 </v>
   <v>      -0.26666667       0.33333333       0.13333333 </v>
   <v>      -0.20000000       0.33333333       0.13333333 </v>
   <v>      -0.46666667       0.40000000       0.13333333 </v>
   <v>      -0.40000000       0.40000000       0.13333333 </v>
   <v>      -0.33333333       0.40000000       0.13333333 </v>
   <v>      -0.26666667       0.40000000       0.13333333 </v>
   <v>      -0.40000000       0.46666667       0.13333333 </v>
   <v>      -0.33333333       0.46666667       0.13333333 </v>
   <v>      -0.40000000       0.40000000       0.20000000 </v>
   <v>      -0.33333333       0.40000000       0.20000000 </v>
   <v>      -0.33333333       0.46666667       0.20000000 </v>
   <v>      -0.26666667       0.46666667       0.20000000 </v>
  </varray>
  <varray name="weights" >
   <v>       0.00029630 </v>
   <v>       0.00237037 </v>
   <v>       0.00237037 </v>
   <v>       0.00237037 </v>
   <v>       0.00237037 </v>
   <v>       0.00237037 </v>
   <v>       0.00237037 </v>
   <v>       0.00237037 </v>
   <v>       0.00177778 </v>
   <v>       0.00711111 </v>
   <v>       0.00711111 </v>
   <v>       0.00711111 </v>
   <v>       0.00711111 </v>
   <v>       0.00711111 </v>
   <v>       0.00711111 </v>
   <v>       0.00711111 </v>
   <v>       0.00711111 </v>
   <v>       0.00711111 </v>
   <v>       0.00711111 </v>
   <v>       0.00711111 </v>
   <v>       0.00711111 </v>
   <v>       0.00355556 </v>
   <v>       0.00177778 </v>
   <v>       0.00711111 </v>
   <v>       0.00711111 </v>
   <v>       0.00711111 </v>
   <v>       0.00711111 </v>
   <v>       0.00711111 </v>
   <v>       0.00711111 </v>
   <v>       0.00711111 </v>
   <v>       0.00711111 </v>
   <v>       0.00711111 </v>
   <v>       0.00711111 </v>
   <v>       0.00355556 </v>
   <v>       0.00177778 </v>
   <v>       0.00711111 </v>
   <v>       0.00711111 </v>
   <v>       0.00711111 </v>
   <v>       0.00711111 </v>
   <v>       0.00711111 </v>
   <v>       0.00711111 </v>
   <v>       0.00711111 </v>
   <v>       0.00711111 </v>
   <v>       0.00355556 </v>
   <v>       0.00177778 </v>
   <v>       0.00711111 </v>
   <v>       0.00711111 </v>
   <v>       0.00711111 </v>
   <v>       0.00711111 </v>
   <v>       0.00711111 </v>
   <v>       0.00711111 </v>
   <v>       0.00355556 </v>
   <v>       0.00177778 </v>
   <v>       0.00711111 </v>
   <v>       0.00711111 </v>
   <v>       0.00711111 </v>
   <v>       0.00711111 </v>
   <v>       0.00355556 </v>
   <v>       0.00177778 </v>
   <v>       0.00711111 </v>
   <v>       0.00711111 </v>
   <v>       0.00355556 </v>
   <v>       0.00177778 </v>
   <v>       0.00355556 </v>
   <v>       0.00711111 </v>
   <v>       0.01422222 </v>
   <v>       0.01422222 </v>
   <v>       0.01422222 </v>
   <v>       0.01422222 </v>
   <v>       0.01422222 </v>
   <v>       0.00711111 </v>
   <v>       0.01422222 </v>
   <v>       0.01422222 </v>
   <v>       0.01422222 </v>
   <v>       0.01422222 </v>
   <v>       0.01422222 </v>
   <v>       0.01422222 </v>
   <v>       0.01422222 </v>
   <v>       0.01422222 </v>
   <v>       0.00711111 </v>
   <v>       0.00711111 </v>
   <v>       0.01422222 </v>
   <v>       0.01422222 </v>
   <v>       0.01422222 </v>
   <v>       0.01422222 </v>
   <v>       0.01422222 </v>
   <v>       0.01422222 </v>
   <v>       0.00711111 </v>
   <v>       0.00711111 </v>
   <v>       0.01422222 </v>
   <v>       0.01422222 </v>
   <v>       0.01422222 </v>
   <v>       0.01422222 </v>
   <v>       0.00711111 </v>
   <v>       0.00711111 </v>
   <v>       0.01422222 </v>
   <v>       0.01422222 </v>
   <v>       0.00711111 </v>
   <v>       0.00711111 </v>
   <v>       0.00711111 </v>
   <v>       0.00711111 </v>
   <v>       0.01422222 </v>
   <v>       0.01422222 </v>
   <v>       0.01422222 </v>
   <v>       0.00711111 </v>
   <v>       0.01422222 </v>
   <v>       0.01422222 </v>
   <v>       0.01422222 </v>
   <v>       0.01422222 </v>
   <v>       0.00711111 </v>
   <v>       0.00711111 </v>
   <v>       0.01422222 </v>
   <v>       0.01422222 </v>
   <v>       0.00711111 </v>
   <v>       0.00711111 </v>
   <v>       0.00711111 </v>
   <v>       0.00711111 </v>
   <v>       0.01422222 </v>
   <v>       0.00711111 </v>
   <v>       0.00711111 </v>
  </varray>
 </kpoints>
 <parameters>
  <separator name="general" >
   <i type="string" name="SYSTEM">unknown system</i>
   <i type="logical" name="LCOMPAT"> F  </i>
  </separator>
  <separator name="electronic" >
   <i type="string" name="PREC">accura</i>
   <i name="ENMAX">    550.00000000</i>
   <i name="ENAUG">    322.06900000</i>
   <i name="EDIFF">      0.00000100</i>
   <i type="int" name="IALGO">    38</i>
   <i type="int" name="IWAVPR">    11</i>
   <i type="int" name="NBANDS">     8</i>
   <i type="int" name="NBANDSLOW">    -1</i>
   <i type="int" name="NBANDSHIGH">    -1</i>
   <i name="NELECT">      4.00000000</i>
   <i type="int" name="TURBO">     0</i>
   <i type="int" name="IRESTART">     0</i>
   <i type="int" name="NREBOOT">     0</i>
   <i type="int" name="NMIN">     0</i>
   <i name="EREF">      0.00000000</i>
   <separator name="electronic smearing" >
    <i type="int" name="ISMEAR">     0</i>
    <i name="SIGMA">      0.05000000</i>
    <i name="KSPACING">      0.50000000</i>
    <i type="logical" name="KGAMMA"> T  </i>
    <i type="logical" name="KBLOWUP"> T  </i>
   </separator>
   <separator name="electronic projectors" >
    <i type="logical" name="LREAL"> F  </i>
    <v name="ROPT">      0.00000000</v>
    <i type="int" name="LMAXPAW">  -100</i>
    <i type="int" name="LMAXMIX">     2</i>
    <i type="logical" name="NLSPLINE"> F  </i>
   </separator>
   <separator name="electronic startup" >
    <i type="int" name="ISTART">     0</i>
    <i type="int" name="ICHARG">     2</i>
    <i type="int" name="INIWAV">     1</i>
   </separator>
   <separator name="electronic spin" >
    <i type="int" name="ISPIN">     1</i>
    <i type="logical" name="LNONCOLLINEAR"> F  </i>
    <v name="MAGMOM">      1.00000000</v>
    <i name="NUPDOWN">     -1.00000000</i>
    <i type="logical" name="LSORBIT"> F  </i>
    <v name="SAXIS">      0.00000000      0.00000000      1.00000000</v>
    <i type="logical" name="LSPIRAL"> F  </i>
    <v name="QSPIRAL">      0.00000000      0.00000000      0.00000000</v>
    <i type="logical" name="LZEROZ"> F  </i>
   </separator>
   <separator name="electronic exchange-correlation" >
    <i type="logical" name="LASPH"> T  </i>
    <i type="logical" name="LMETAGGA"> F  </i>
   </separator>
   <separator name="electronic convergence" >
    <i type="int" name="NELM">    90</i>
    <i type="int" name="NELMDL">    -5</i>
    <i type="int" name="NELMIN">     6</i>
    <i name="ENINI">    550.00000000</i>
    <separator name="electronic convergence detail" >
     <i type="logical" name="LDIAG"> T  </i>
     <i type="logical" name="LSUBROT"> F  </i>
     <i name="WEIMIN">      0.00100000</i>
     <i name="EBREAK">      0.00000003</i>
     <i name="DEPER">      0.30000000</i>
     <i type="int" name="NRMM">     4</i>
     <i name="TIME">      0.40000000</i>
    </separator>
   </separator>
   <separator name="electronic mixer" >
    <i name="AMIX">      0.40000000</i>
    <i name="BMIX">      1.00000000</i>
    <i name="AMIN">      0.10000000</i>
    <i name="AMIX_MAG">      1.60000000</i>
    <i name="BMIX_MAG">      1.00000000</i>
    <separator name="electronic mixer details" >
     <i type="int" name="IMIX">     4</i>
     <i type="logical" name="MIXFIRST"> F  </i>
     <i type="int" name="MAXMIX">   -45</i>
     <i name="WC">    100.00000000</i>
     <i type="int" name="INIMIX">     1</i>
     <i type="int" name="MIXPRE">     1</i>
     <i type="int" name="MREMOVE">     5</i>
    </separator>
   </separator>
   <separator name="electronic dipolcorrection" >
    <i type="logical" name="LDIPOL"> F  </i>
    <i type="logical" name="LMONO"> F  </i>
    <i type="int" name="IDIPOL">     0</i>
    <i name="EPSILON">      1.00000000</i>
    <v name="DIPOL">   -100.00000000   -100.00000000   -100.00000000</v>
    <i name="EFIELD">      0.00000000</i>
   </separator>
  </separator>
  <separator name="grids" >
   <i type="int" name="NGX">    24</i>
   <i type="int" name="NGY">    24</i>
   <i type="int" name="NGZ">    24</i>
   <i type="int" name="NGXF">    48</i>
   <i type="int" name="NGYF">    48</i>
   <i type="int" name="NGZF">    48</i>
   <i type="logical" name="ADDGRID"> T  </i>
  </separator>
  <separator name="ionic" >
   <i type="int" name="NSW">   100</i>
   <i type="int" name="IBRION">     2</i>
   <i type="int" name="MDALGO">     0</i>
   <i type="int" name="ISIF">     3</i>
   <i name="PSTRESS">      0.00000000</i>
   <i name="EDIFFG">     -0.00200000</i>
   <i type="int" name="NFREE">     1</i>
   <i name="POTIM">      0.50000000</i>
   <i name="SMASS">     -3.00000000</i>
   <i name="SCALEE">      1.00000000</i>
  </separator>
  <separator name="ionic md" >
   <i name="TEBEG">      0.00010000</i>
   <i name="TEEND">      0.00010000</i>
   <i type="int" name="NBLOCK">     1</i>
   <i type="int" name="KBLOCK">   100</i>
   <i type="int" name="NPACO">   256</i>
   <i name="APACO">     16.00000000</i>
  </separator>
  <separator name="symmetry" >
   <i type="int" name="ISYM">     2</i>
   <i name="SYMPREC">      0.00001000</i>
  </separator>
  <separator name="dos" >
   <i type="int" name="LORBIT">     0</i>
   <v name="RWIGS">     -1.00000000</v>
   <i type="int" name="NEDOS">   301</i>
   <i name="EMIN">     10.00000000</i>
   <i name="EMAX">    -10.00000000</i>
   <i name="EFERMI">      0.00000000</i>
  </separator>
  <separator name="writing" >
   <i type="int" name="NWRITE">     2</i>
   <i type="logical" name="LWAVE"> F  </i>
   <i type="logical" name="LDOWNSAMPLE"> F  </i>
   <i type="logical" name="LCHARG"> F  </i>
   <i type="logical" name="LPARD"> F  </i>
   <i type="logical" name="LVTOT"> F  </i>
   <i type="logical" name="LVHAR"> F  </i>
   <i type="logical" name="LELF"> F  </i>
   <i type="logical" name="LOPTICS"> F  </i>
   <v name="STM">      0.00000000      0.00000000      0.00000000      0.00000000      0.00000000      0.00000000      0.00000000</v>
  </separator>
  <separator name="performance" >
   <i type="int" name="NPAR">     4</i>
   <i type="int" name="NSIM">     4</i>
   <i type="int" name="NBLK">    -1</i>
   <i type="logical" name="LPLANE"> T  </i>
   <i type="logical" name="LSCALAPACK"> T  </i>
   <i type="logical" name="LSCAAWARE"> F  </i>
   <i type="logical" name="LSCALU"> F  </i>
   <i type="logical" name="LASYNC"> F  </i>
   <i type="logical" name="LORBITALREAL"> F  </i>
  </separator>
  <separator name="miscellaneous" >
   <i type="int" name="IDIOT">     3</i>
   <i type="int" name="PHON_NSTRUCT">    -1</i>
   <i type="logical" name="LMUSIC"> F  </i>
   <v name="POMASS">     28.08500000</v>
   <v name="DARWINR">      0.00000000</v>
   <v name="DARWINV">      1.00000000</v>
   <i type="logical" name="LCORR"> T  </i>
  </separator>
  <i type="logical" name="GGA_COMPAT"> T  </i>
  <i type="logical" name="LBERRY"> F  </i>
  <i type="int" name="ICORELEVEL">     0</i>
  <i type="logical" name="LDAU"> F  </i>
  <i type="int" name="I_CONSTRAINED_M">     0</i>
  <separator name="electronic exchange-correlation" >
   <i type="string" name="GGA">--</i>
   <i type="int" name="VOSKOWN">     0</i>
   <i type="logical" name="LHFCALC"> F  </i>
   <i type="string" name="PRECFOCK"></i>
   <i type="logical" name="LSYMGRAD"> F  </i>
   <i type="logical" name="LHFONE"> F  </i>
   <i type="logical" name="LRHFCALC"> F  </i>
   <i type="logical" name="LTHOMAS"> F  </i>
   <i type="logical" name="LMODELHF"> F  </i>
   <i type="logical" name="LFOCKACE"> F  </i>
   <i name="ENCUT4O">     -1.00000000</i>
   <i type="int" name="EXXOEP">     0</i>
   <i type="int" name="FOURORBIT">     0</i>
   <i name="AEXX">      0.00000000</i>
   <i name="HFALPHA">      0.00000000</i>
   <i name="MCALPHA">      0.00000000</i>
   <i name="ALDAX">      1.00000000</i>
   <i name="AGGAX">      1.00000000</i>
   <i name="ALDAC">      1.00000000</i>
   <i name="AGGAC">      1.00000000</i>
   <i type="int" name="NKREDX">     1</i>
   <i type="int" name="NKREDY">     1</i>
   <i type="int" name="NKREDZ">     1</i>
   <i type="logical" name="SHIFTRED"> F  </i>
   <i type="logical" name="ODDONLY"> F  </i>
   <i type="logical" name="EVENONLY"> F  </i>
   <i type="int" name="LMAXFOCK">     0</i>
   <i type="int" name="NMAXFOCKAE">     0</i>
   <i type="logical" name="LFOCKAEDFT"> F  </i>
   <i name="HFSCREEN">      0.00000000</i>
   <i name="HFSCREENC">      0.00000000</i>
   <i type="int" name="NBANDSGWLOW">     0</i>
  </separator>
  <separator name="vdW DFT" >
   <i type="logical" name="LUSE_VDW"> F  </i>
   <i name="Zab_VDW">     -0.84910000</i>
   <i name="PARAM1">      0.12340000</i>
   <i name="PARAM2">      1.00000000</i>
   <i name="PARAM3">      0.00000000</i>
  </separator>
  <separator name="model GW" >
   <i type="int" name="MODEL_GW">     0</i>
   <i name="MODEL_EPS0">      8.44895106</i>
   <i name="MODEL_ALPHA">      1.00000000</i>
  </separator>
  <separator name="linear response parameters" >
   <i type="logical" name="LEPSILON"> F  </i>
   <i type="logical" name="LRPA"> F  </i>
   <i type="logical" name="LNABLA"> F  </i>
   <i type="logical" name="LVEL"> F  </i>
   <i type="int" name="KINTER">     0</i>
   <i name="CSHIFT">      0.10000000</i>
   <i name="OMEGAMAX">     -1.00000000</i>
   <i name="DEG_THRESHOLD">      0.00200000</i>
   <i name="RTIME">     -0.10000000</i>
   <i name="WPLASMAI">      0.00000000</i>
   <v name="DFIELD">      0.00000000      0.00000000      0.00000000</v>
   <v name="WPLASMA">      0.00000000      0.00000000      0.00000000      0.00000000      0.00000000      0.00000000      0.00000000      0.00000000      0.00000000</v>
  </separator>
  <separator name="orbital magnetization" >
   <i type="logical" name="NUCIND"> F  </i>
   <v name="MAGPOS">      0.00000000      0.00000000      0.00000000</v>
   <i type="logical" name="LNICSALL"> T  </i>
   <i type="logical" name="ORBITALMAG"> F  </i>
   <i type="logical" name="LMAGBLOCH"> F  </i>
   <i type="logical" name="LCHIMAG"> F  </i>
   <i type="logical" name="LGAUGE"> T  </i>
   <i type="int" name="MAGATOM">     0</i>
   <v name="MAGDIPOL">      0.00000000      0.00000000      0.00000000</v>
   <v name="AVECCONST">      0.00000000      0.00000000      0.00000000</v>
  </separator>
  <separator name="response functions" >
   <i type="logical" name="LFINITE_TEMPERATURE"> F  </i>
   <i type="logical" name="LADDER"> F  </i>
   <i type="logical" name="LRPAFORCE"> F  </i>
   <i type="logical" name="LFXC"> F  </i>
   <i type="logical" name="LHARTREE"> T  </i>
   <i type="int" name="IBSE">     0</i>
   <v type="int" name="KPOINT">    -1     0     0     0</v>
   <i type="logical" name="LTCTC"> F  </i>
   <i type="logical" name="LTCTE"> F  </i>
   <i type="logical" name="LTETE"> F  </i>
   <i type="logical" name="LTRIPLET"> F  </i>
   <i type="logical" name="LFXCEPS"> F  </i>
   <i type="logical" name="LFXHEG"> F  </i>
   <i type="int" name="NATURALO">     2</i>
   <i type="logical" name="LHOLEGF"> F  </i>
   <i type="logical" name="L2ORDER"> F  </i>
   <i type="logical" name="LDMP1"> F  </i>
   <i type="logical" name="LMP2LT"> F  </i>
   <i type="logical" name="LSMP2LT"> F  </i>
   <i type="logical" name="LGWLF"> F  </i>
   <i name="ENCUTGW">     -2.00000000</i>
   <i name="ENCUTGWSOFT">     -2.00000000</i>
   <i name="ENCUTLF">     -1.00000000</i>
   <i type="logical" name="LESF_SPLINES"> F  </i>
   <i type="int" name="LMAXMP2">    -1</i>
   <i name="SCISSOR">      0.00000000</i>
   <i type="int" name="NOMEGA">     0</i>
   <i type="int" name="NOMEGAR">     0</i>
   <i type="int" name="NBANDSGW">    -1</i>
   <i type="int" name="NBANDSO">    -1</i>
   <i type="int" name="NBANDSV">    -1</i>
   <i type="int" name="NELM">    90</i>
   <i type="int" name="NELMHF">     1</i>
   <i type="int" name="DIM">     3</i>
   <i type="int" name="IESPILON">     4</i>
   <i type="int" name="ANTIRES">     0</i>
   <i name="OMEGAMAX">    -30.00000000</i>
   <i name="OMEGAMIN">    -30.00000000</i>
   <i name="OMEGATL">   -200.00000000</i>
   <i type="int" name="OMEGAGRID">     0</i>
   <i name="CSHIFT">     -0.10000000</i>
   <i type="logical" name="LSELFENERGY"> F  </i>
   <i type="logical" name="LSPECTRAL"> F  </i>
   <i type="logical" name="LSPECTRALGW"> F  </i>
   <i type="logical" name="LSINGLES"> F  </i>
   <i type="logical" name="LFERMIGW"> F  </i>
   <i type="logical" name="ODDONLYGW"> F  </i>
   <i type="logical" name="EVENONLYGW"> F  </i>
   <i type="int" name="NKREDLFX">     1</i>
   <i type="int" name="NKREDLFY">     1</i>
   <i type="int" name="NKREDLFZ">     1</i>
   <i type="int" name="MAXMEM">  2800</i>
   <i type="int" name="TELESCOPE">     0</i>
   <i type="int" name="NTAUPAR">    -1</i>
   <i type="int" name="NOMEGAPAR">    -1</i>
   <i name="DAMP_NEWTON">      0.80000001</i>
   <i name="LAMBDA">      1.00000000</i>
  </separator>
  <separator name="External order field" >
   <i name="OFIELD_KAPPA">      0.00000000</i>
   <v name="OFIELD_K">      0.00000000      0.00000000      0.00000000</v>
   <i name="OFIELD_Q6_NEAR">      0.00000000</i>
   <i name="OFIELD_Q6_FAR">      0.00000000</i>
   <i name="OFIELD_A">      0.00000000</i>
  </separator>
 </parameters>
 <atominfo>
  <atoms>       1 </atoms>
  <types>       1 </types>
  <array name="atoms" >
   <dimension dim="1">ion</dimension>
   <field type="string">element</field>
   <field type="int">atomtype</field>
   <set>
    <rc><c>Si</c><c>   1</c></rc>
   </set>
  </array>
  <array name="atomtypes" >
   <dimension dim="1">type</dimension>
   <field type="int">atomspertype</field>
   <field type="string">element</field>
   <field>mass</field>
   <field>valence</field>
   <field type="string">pseudopotential</field>
   <set>
    <rc><c>   1</c><c>Si</c><c>     28.08500000</c><c>      4.00000000</c><c>  PAW_PBE Si 05Jan2001                  </c></rc>
   </set>
  </array>
 </atominfo>
 <structure name="initialpos" >
  <crystal>
   <varray name="basis" >
    <v>       2.34739500       0.00000000       1.35526800 </v>
    <v>       0.78246500       2.21314500       1.35526800 </v>
    <v>       0.00000000       0.00000000       2.71053800 </v>
   </varray>
   <i name="volume">     14.08158510 </i>
   <varray name="rec_basis" >
    <v>       0.42600415      -0.15061523       0.00000000 </v>
    <v>       0.00000000       0.45184568       0.00000000 </v>
    <v>      -0.21300192      -0.15061511       0.36893045 </v>
   </varray>
  </crystal>
  <varray name="positions" >
   <v>       0.00000000       0.00000000       0.00000000 </v>
  </varray>
 </structure>
 <calculation>
  <scstep>
   <time name="dav">    1.01    1.01</time>
   <time name="total">    1.25    1.26</time>
   <energy>
    <i name="alphaZ">      2.39057823 </i>
    <i name="ewald">   -137.78496289 </i>
    <i name="hartreedc">     -0.54229904 </i>
    <i name="XCdc">     -8.73348016 </i>
    <i name="pawpsdc">     88.12379961 </i>
    <i name="pawaedc">    -70.53051779 </i>
    <i name="eentropy">     -0.00064045 </i>
    <i name="bandstr">     21.79453464 </i>
    <i name="atom">    103.06646916 </i>
    <i name="e_fr_energy">     -2.21651869 </i>
    <i name="e_wo_entrp">     -2.21587824 </i>
    <i name="e_0_energy">     -2.21619846 </i>
   </energy>
  </scstep>
  <scstep>
   <time name="dav">    1.30    1.32</time>
   <time name="total">    1.30    1.32</time>
   <energy>
    <i name="e_fr_energy">     -4.88837922 </i>
    <i name="e_wo_entrp">     -4.88764769 </i>
    <i name="e_0_energy">     -4.88801346 </i>
   </energy>
  </scstep>
  <scstep>
   <time name="dav">    1.06    1.08</time>
   <time name="total">    1.06    1.08</time>
   <energy>
    <i name="e_fr_energy">     -4.90310072 </i>
    <i name="e_wo_entrp">     -4.90235979 </i>
    <i name="e_0_energy">     -4.90273026 </i>
   </energy>
  </scstep>
  <scstep>
   <time name="dav">    1.41    1.43</time>
   <time name="total">    1.41    1.43</time>
   <energy>
    <i name="e_fr_energy">     -4.90311395 </i>
    <i name="e_wo_entrp">     -4.90237305 </i>
    <i name="e_0_energy">     -4.90274350 </i>
   </energy>
  </scstep>
  <scstep>
   <time name="dav">    1.06    1.07</time>
   <time name="total">    1.15    1.16</time>
   <energy>
    <i name="e_fr_energy">     -4.90311395 </i>
    <i name="e_wo_entrp">     -4.90237306 </i>
    <i name="e_0_energy">     -4.90274350 </i>
   </energy>
  </scstep>
  <scstep>
   <time name="dav">    1.05    1.05</time>
   <time name="total">    1.34    1.36</time>
   <energy>
    <i name="e_fr_energy">     -4.88951788 </i>
    <i name="e_wo_entrp">     -4.88875530 </i>
    <i name="e_0_energy">     -4.88913659 </i>
   </energy>
  </scstep>
  <scstep>
   <time name="dav">    1.09    1.09</time>
   <time name="total">    1.38    1.40</time>
   <energy>
    <i name="e_fr_energy">     -4.88171489 </i>
    <i name="e_wo_entrp">     -4.88092573 </i>
    <i name="e_0_energy">     -4.88132031 </i>
   </energy>
  </scstep>
  <scstep>
   <time name="dav">    1.31    1.31</time>
   <time name="total">    1.60    1.62</time>
   <energy>
    <i name="e_fr_energy">     -4.88167582 </i>
    <i name="e_wo_entrp">     -4.88088682 </i>
    <i name="e_0_energy">     -4.88128132 </i>
   </energy>
  </scstep>
  <scstep>
   <time name="dav">    1.16    1.17</time>
   <time name="total">    1.37    1.39</time>
   <energy>
    <i name="alphaZ">      2.39057823 </i>
    <i name="ewald">   -137.78496289 </i>
    <i name="hartreedc">     -0.40758948 </i>
    <i name="XCdc">     -8.67288593 </i>
    <i name="pawpsdc">    315.83380979 </i>
    <i name="pawaedc">   -298.25210381 </i>
    <i name="eentropy">     -0.00078907 </i>
    <i name="bandstr">     18.94579793 </i>
    <i name="atom">    103.06646916 </i>
    <i name="e_fr_energy">     -4.88167608 </i>
    <i name="e_wo_entrp">     -4.88088701 </i>
    <i name="e_0_energy">     -4.88128155 </i>
   </energy>
  </scstep>
  <structure>
   <crystal>
    <varray name="basis" >
     <v>       2.34739500       0.00000000       1.35526800 </v>
     <v>       0.78246500       2.21314500       1.35526800 </v>
     <v>       0.00000000       0.00000000       2.71053800 </v>
    </varray>
    <i name="volume">     14.08158510 </i>
    <varray name="rec_basis" >
     <v>       0.42600415      -0.15061523       0.00000000 </v>
     <v>       0.00000000       0.45184568       0.00000000 </v>
     <v>      -0.21300192      -0.15061511       0.36893045 </v>
    </varray>
   </crystal>
   <varray name="positions" >
    <v>       0.00000000       0.00000000       0.00000000 </v>
   </varray>
  </structure>
  <varray name="forces" >
   <v>      -0.00000000       0.00000000      -0.00000000 </v>
  </varray>
  <varray name="stress" >
   <v>      21.74735995      -0.00000000      -0.00000926 </v>
   <v>       0.00000000      21.74735543      -0.00000655 </v>
   <v>      -0.00000926      -0.00000655      21.74735561 </v>
  </varray>
  <energy>
   <i name="e_fr_energy">     -4.88167608 </i>
   <i name="e_wo_entrp">     -4.88088701 </i>
   <i name="e_0_energy">     -4.88128155 </i>
  </energy>
  <time name="totalsc">   13.47   13.76</time>
 </calculation>
 <calculation>
  <scstep>
   <time name="dav">    0.96    0.96</time>
   <time name="total">    1.25    1.26</time>
   <energy>
    <i name="alphaZ">      2.32564867 </i>
    <i name="ewald">   -136.52605436 </i>
    <i name="hartreedc">     -0.40380546 </i>
    <i name="XCdc">     -8.74472707 </i>
    <i name="pawpsdc">    315.83416894 </i>
    <i name="pawaedc">   -298.25218218 </i>
    <i name="eentropy">     -0.00080272 </i>
    <i name="bandstr">     17.81581070 </i>
    <i name="atom">    103.06646916 </i>
    <i name="e_fr_energy">     -4.88547434 </i>
    <i name="e_wo_entrp">     -4.88467162 </i>
    <i name="e_0_energy">     -4.88507298 </i>
   </energy>
  </scstep>
  <scstep>
   <time name="dav">    1.22    1.22</time>
   <time name="total">    1.51    1.53</time>
   <energy>
    <i name="e_fr_energy">     -4.88457060 </i>
    <i name="e_wo_entrp">     -4.88375866 </i>
    <i name="e_0_energy">     -4.88416463 </i>
   </energy>
  </scstep>
  <scstep>
   <time name="dav">    0.98    0.98</time>
   <time name="total">    1.27    1.29</time>
   <energy>
    <i name="e_fr_energy">     -4.88404053 </i>
    <i name="e_wo_entrp">     -4.88321632 </i>
    <i name="e_0_energy">     -4.88362842 </i>
   </energy>
  </scstep>
  <scstep>
   <time name="dav">    1.30    1.30</time>
   <time name="total">    1.59    1.61</time>
   <energy>
    <i name="e_fr_energy">     -4.88403975 </i>
    <i name="e_wo_entrp">     -4.88321562 </i>
    <i name="e_0_energy">     -4.88362768 </i>
   </energy>
  </scstep>
  <scstep>
   <time name="dav">    0.78    0.78</time>
   <time name="total">    1.07    1.09</time>
   <energy>
    <i name="e_fr_energy">     -4.88403631 </i>
    <i name="e_wo_entrp">     -4.88321229 </i>
    <i name="e_0_energy">     -4.88362430 </i>
   </energy>
  </scstep>
  <scstep>
   <time name="dav">    0.65    0.65</time>
   <time name="total">    0.86    0.88</time>
   <energy>
    <i name="alphaZ">      2.32564867 </i>
    <i name="ewald">   -136.52605436 </i>
    <i name="hartreedc">     -0.44804235 </i>
    <i name="XCdc">     -8.75408459 </i>
    <i name="pawpsdc">    297.17713383 </i>
    <i name="pawaedc">   -279.59042277 </i>
    <i name="eentropy">     -0.00082405 </i>
    <i name="bandstr">     17.86613991 </i>
    <i name="atom">    103.06646916 </i>
    <i name="e_fr_energy">     -4.88403656 </i>
    <i name="e_wo_entrp">     -4.88321251 </i>
    <i name="e_0_energy">     -4.88362453 </i>
   </energy>
  </scstep>
  <structure>
   <crystal>
    <varray name="basis" >
     <v>       2.36904036      -0.00000000       1.36776493 </v>
     <v>       0.78968012       2.23355243       1.36776493 </v>
     <v>      -0.00000001      -0.00000001       2.73553190 </v>
    </varray>
    <i name="volume">     14.47472753 </i>
    <varray name="rec_basis" >
     <v>       0.42211185      -0.14923909       0.00000000 </v>
     <v>       0.00000000       0.44771727       0.00000000 </v>
     <v>      -0.21105577      -0.14923898       0.36555962 </v>
    </varray>
   </crystal>
   <varray name="positions" >
    <v>      -0.00000000       0.00000000      -0.00000000 </v>
   </varray>
  </structure>
  <varray name="forces" >
   <v>      -0.00000000       0.00000000       0.00000000 </v>
  </varray>
  <varray name="stress" >
   <v>      -1.92355025       0.00000000       0.00000083 </v>
   <v>       0.00000000      -1.92354984       0.00000059 </v>
   <v>       0.00000083       0.00000059      -1.92354986 </v>
  </varray>
  <energy>
   <i name="e_fr_energy">     -4.88403656 </i>
   <i name="e_wo_entrp">     -4.88321251 </i>
   <i name="e_0_energy">     -4.88362453 </i>
  </energy>
  <time name="totalsc">    9.14    9.36</time>
 </calculation>
 <calculation>
  <scstep>
   <time name="dav">    0.97    0.97</time>
   <time name="total">    1.26    1.27</time>
   <energy>
    <i name="alphaZ">      2.33119589 </i>
    <i name="ewald">   -136.63451707 </i>
    <i name="hartreedc">     -0.44839358 </i>
    <i name="XCdc">     -8.74794242 </i>
    <i name="pawpsdc">    297.05026687 </i>
    <i name="pawaedc">   -279.46356003 </i>
    <i name="eentropy">     -0.00082914 </i>
    <i name="bandstr">     17.96324233 </i>
    <i name="atom">    103.06646916 </i>
    <i name="e_fr_energy">     -4.88406799 </i>
    <i name="e_wo_entrp">     -4.88323885 </i>
    <i name="e_0_energy">     -4.88365342 </i>
   </energy>
  </scstep>
  <scstep>
   <time name="dav">    1.21    1.21</time>
   <time name="total">    1.50    1.52</time>
   <energy>
    <i name="e_fr_energy">     -4.88406117 </i>
    <i name="e_wo_entrp">     -4.88323268 </i>
    <i name="e_0_energy">     -4.88364693 </i>
   </energy>
  </scstep>
  <scstep>
   <time name="dav">    0.98    0.98</time>
   <time name="total">    1.27    1.29</time>
   <energy>
    <i name="e_fr_energy">     -4.88405739 </i>
    <i name="e_wo_entrp">     -4.88322981 </i>
    <i name="e_0_energy">     -4.88364360 </i>
   </energy>
  </scstep>
  <scstep>
   <time name="dav">    0.62    0.62</time>
   <time name="total">    0.91    0.93</time>
   <energy>
    <i name="e_fr_energy">     -4.88405742 </i>
    <i name="e_wo_entrp">     -4.88322983 </i>
    <i name="e_0_energy">     -4.88364363 </i>
   </energy>
  </scstep>
  <scstep>
   <time name="dav">    0.60    0.61</time>
   <time name="total">    0.90    0.91</time>
   <energy>
    <i name="e_fr_energy">     -4.88405759 </i>
    <i name="e_wo_entrp">     -4.88323000 </i>
    <i name="e_0_energy">     -4.88364379 </i>
   </energy>
  </scstep>
  <scstep>
   <time name="dav">    0.61    0.61</time>
   <time name="total">    0.82    0.84</time>
   <energy>
    <i name="alphaZ">      2.33119589 </i>
    <i name="ewald">   -136.63451707 </i>
    <i name="hartreedc">     -0.44434219 </i>
    <i name="XCdc">     -8.74712716 </i>
    <i name="pawpsdc">    298.51431691 </i>
    <i name="pawaedc">   -280.92800847 </i>
    <i name="eentropy">     -0.00082759 </i>
    <i name="bandstr">     17.95878296 </i>
    <i name="atom">    103.06646916 </i>
    <i name="e_fr_energy">     -4.88405757 </i>
    <i name="e_wo_entrp">     -4.88322998 </i>
    <i name="e_0_energy">     -4.88364377 </i>
   </energy>
  </scstep>
  <structure>
   <crystal>
    <varray name="basis" >
     <v>       2.36715977      -0.00000000       1.36667918 </v>
     <v>       0.78905326       2.23177940       1.36667918 </v>
     <v>      -0.00000001      -0.00000001       2.73336039 </v>
    </varray>
    <i name="volume">     14.44028406 </i>
    <varray name="rec_basis" >
     <v>       0.42244719      -0.14935765       0.00000000 </v>
     <v>       0.00000000       0.44807296       0.00000000 </v>
     <v>      -0.21122344      -0.14935754       0.36585004 </v>
    </varray>
   </crystal>
   <varray name="positions" >
    <v>      -0.00000000       0.00000000      -0.00000000 </v>
   </varray>
  </structure>
  <varray name="forces" >
   <v>       0.00000000       0.00000000       0.00000000 </v>
  </varray>
  <varray name="stress" >
   <v>       0.01885855       0.00000000      -0.00000001 </v>
   <v>       0.00000000       0.01885855      -0.00000001 </v>
   <v>      -0.00000001      -0.00000001       0.01885855 </v>
  </varray>
  <energy>
   <i name="e_fr_energy">     -4.88405757 </i>
   <i name="e_wo_entrp">     -4.88322998 </i>
   <i name="e_0_energy">     -4.88364377 </i>
  </energy>
  <time name="totalsc">    8.17    8.38</time>
  <eigenvalues>
   <array>
    <dimension dim="1">band</dimension>
    <dimension dim="2">kpoint</dimension>
    <dimension dim="3">spin</dimension>
    <field>eigene</field>
    <field>occ</field>
    <set>
     <set comment="spin 1">
      <set comment="kpoint 1">
       <r>   -4.2755    1.0000 </r>
       <r>   21.3612    0.0000 </r>
       <r>   21.3612    0.0000 </r>
       <r>   21.3612    0.0000 </r>
       <r>   22.1338    0.0000 </r>
       <r>   22.1338    0.0000 </r>
       <r>   22.1338    0.0000 </r>
       <r>   27.4753    0.0000 </r>
      </set>
      <set comment="kpoint 2">
       <r>   -4.1459    1.0000 </r>
       <r>   19.2063    0.0000 </r>
       <r>   20.6878    0.0000 </r>
       <r>   20.6878    0.0000 </r>
       <r>   22.9661    0.0000 </r>
       <r>   22.9661    0.0000 </r>
       <r>   23.1862    0.0000 </r>
       <r>   28.3583    0.0000 </r>
      </set>
      <set comment="kpoint 3">
       <r>   -3.7574    1.0000 </r>
       <r>   16.3767    0.0000 </r>
       <r>   19.9253    0.0000 </r>
       <r>   19.9253    0.0000 </r>
       <r>   23.4729    0.0000 </r>
       <r>   24.0593    0.0000 </r>
       <r>   24.0593    0.0000 </r>
       <r>   27.3277    0.0000 </r>
      </set>
      <set comment="kpoint 4">
       <r>   -3.1118    1.0000 </r>
       <r>   13.5468    0.0000 </r>
       <r>   19.3482    0.0000 </r>
       <r>   19.3482    0.0000 </r>
       <r>   23.4030    0.0000 </r>
       <r>   24.2815    0.0000 </r>
       <r>   24.2815    0.0000 </r>
       <r>   27.3062    0.0000 </r>
      </set>
      <set comment="kpoint 5">
       <r>   -2.2117    1.0000 </r>
       <r>   10.8439    0.0000 </r>
       <r>   18.9693    0.0000 </r>
       <r>   18.9693    0.0000 </r>
       <r>   23.3061    0.0000 </r>
       <r>   23.3896    0.0000 </r>
       <r>   23.3896    0.0000 </r>
       <r>   28.7024    0.0000 </r>
      </set>
      <set comment="kpoint 6">
       <r>   -1.0613    1.0000 </r>
       <r>    8.3192    1.0000 </r>
       <r>   18.7771    0.0000 </r>
       <r>   18.7771    0.0000 </r>
       <r>   22.3831    0.0000 </r>
       <r>   22.3831    0.0000 </r>
       <r>   23.2933    0.0000 </r>
       <r>   27.5381    0.0000 </r>
      </set>
      <set comment="kpoint 7">
       <r>    0.3325    1.0000 </r>
       <r>    6.0013    1.0000 </r>
       <r>   18.7362    0.0000 </r>
       <r>   18.7362    0.0000 </r>
       <r>   21.5779    0.0000 </r>
       <r>   21.5779    0.0000 </r>
       <r>   23.3794    0.0000 </r>
       <r>   26.6176    0.0000 </r>
      </set>
      <set comment="kpoint 8">
       <r>    1.9400    1.0000 </r>
       <r>    3.9296    1.0000 </r>
       <r>   18.7677    0.0000 </r>
       <r>   18.7677    0.0000 </r>
       <r>   21.1147    0.0000 </r>
       <r>   21.1147    0.0000 </r>
       <r>   23.4910    0.0000 </r>
       <r>   26.0761    0.0000 </r>
      </set>
      <set comment="kpoint 9">
       <r>   -4.1027    1.0000 </r>
       <r>   19.6838    0.0000 </r>
       <r>   19.6838    0.0000 </r>
       <r>   20.9583    0.0000 </r>
       <r>   21.2158    0.0000 </r>
       <r>   24.0276    0.0000 </r>
       <r>   24.0276    0.0000 </r>
       <r>   27.2389    0.0000 </r>
      </set>
      <set comment="kpoint 10">
       <r>   -3.8005    1.0000 </r>
       <r>   17.3842    0.0000 </r>
       <r>   18.8425    0.0000 </r>
       <r>   20.3970    0.0000 </r>
       <r>   21.7621    0.0000 </r>
       <r>   24.7457    0.0000 </r>
       <r>   25.1766    0.0000 </r>
       <r>   25.7699    0.0000 </r>
      </set>
      <set comment="kpoint 11">
       <r>   -3.2407    1.0000 </r>
       <r>   14.5694    0.0000 </r>
       <r>   18.2064    0.0000 </r>
       <r>   19.7651    0.0000 </r>
       <r>   22.4507    0.0000 </r>
       <r>   24.5437    0.0000 </r>
       <r>   25.2986    0.0000 </r>
       <r>   25.7888    0.0000 </r>
      </set>
      <set comment="kpoint 12">
       <r>   -2.4255    1.0000 </r>
       <r>   11.8270    0.0000 </r>
       <r>   17.7849    0.0000 </r>
       <r>   19.2543    0.0000 </r>
       <r>   21.8857    0.0000 </r>
       <r>   24.3817    0.0000 </r>
       <r>   25.1347    0.0000 </r>
       <r>   26.3314    0.0000 </r>
      </set>
      <set comment="kpoint 13">
       <r>   -1.3585    1.0000 </r>
       <r>    9.2440    1.0000 </r>
       <r>   17.5792    0.0000 </r>
       <r>   18.8198    0.0000 </r>
       <r>   21.0140    0.0000 </r>
       <r>   24.0988    0.0000 </r>
       <r>   24.3577    0.0000 </r>
       <r>   27.9264    0.0000 </r>
      </set>
      <set comment="kpoint 14">
       <r>   -0.0453    1.0000 </r>
       <r>    6.8571    1.0000 </r>
       <r>   17.5855    0.0000 </r>
       <r>   18.3473    0.0000 </r>
       <r>   20.4944    0.0000 </r>
       <r>   23.1411    0.0000 </r>
       <r>   24.3761    0.0000 </r>
       <r>   27.8359    0.0000 </r>
      </set>
      <set comment="kpoint 15">
       <r>    1.4994    1.0000 </r>
       <r>    4.6952    1.0000 </r>
       <r>   17.7942    0.0000 </r>
       <r>   17.8085    0.0000 </r>
       <r>   20.4552    0.0000 </r>
       <r>   22.3748    0.0000 </r>
       <r>   24.3998    0.0000 </r>
       <r>   27.2970    0.0000 </r>
      </set>
      <set comment="kpoint 16">
       <r>    2.5699    1.0000 </r>
       <r>    3.4700    1.0000 </r>
       <r>   17.3196    0.0000 </r>
       <r>   18.1842    0.0000 </r>
       <r>   20.8050    0.0000 </r>
       <r>   21.8521    0.0000 </r>
       <r>   24.3374    0.0000 </r>
       <r>   27.2087    0.0000 </r>
      </set>
      <set comment="kpoint 17">
       <r>    0.9611    1.0000 </r>
       <r>    5.3879    1.0000 </r>
       <r>   16.9779    0.0000 </r>
       <r>   18.7113    0.0000 </r>
       <r>   21.4506    0.0000 </r>
       <r>   21.6254    0.0000 </r>
       <r>   24.1882    0.0000 </r>
       <r>   27.6039    0.0000 </r>
      </set>
      <set comment="kpoint 18">
       <r>   -0.5099    1.0000 </r>
       <r>    7.6290    1.0000 </r>
       <r>   16.8275    0.0000 </r>
       <r>   19.2933    0.0000 </r>
       <r>   21.7699    0.0000 </r>
       <r>   22.3381    0.0000 </r>
       <r>   24.0552    0.0000 </r>
       <r>   28.3348    0.0000 </r>
      </set>
      <set comment="kpoint 19">
       <r>   -1.7419    1.0000 </r>
       <r>   10.0838    0.9942 </r>
       <r>   16.8870    0.0000 </r>
       <r>   19.8464    0.0000 </r>
       <r>   22.3339    0.0000 </r>
       <r>   23.4158    0.0000 </r>
       <r>   24.0039    0.0000 </r>
       <r>   27.9868    0.0000 </r>
      </set>
      <set comment="kpoint 20">
       <r>   -2.7254    1.0000 </r>
       <r>   12.7242    0.0000 </r>
       <r>   17.1635    0.0000 </r>
       <r>   20.3858    0.0000 </r>
       <r>   23.1400    0.0000 </r>
       <r>   24.0157    0.0000 </r>
       <r>   24.5631    0.0000 </r>
       <r>   26.3113    0.0000 </r>
      </set>
      <set comment="kpoint 21">
       <r>   -3.4559    1.0000 </r>
       <r>   15.5029    0.0000 </r>
       <r>   17.6591    0.0000 </r>
       <r>   20.9793    0.0000 </r>
       <r>   23.2478    0.0000 </r>
       <r>   23.9695    0.0000 </r>
       <r>   25.1836    0.0000 </r>
       <r>   25.8767    0.0000 </r>
      </set>
      <set comment="kpoint 22">
       <r>   -3.9300    1.0000 </r>
       <r>   18.2059    0.0000 </r>
       <r>   18.4652    0.0000 </r>
       <r>   21.4413    0.0000 </r>
       <r>   22.4681    0.0000 </r>
       <r>   23.6070    0.0000 </r>
       <r>   24.4893    0.0000 </r>
       <r>   26.9953    0.0000 </r>
      </set>
      <set comment="kpoint 23">
       <r>   -3.5849    1.0000 </r>
       <r>   17.9287    0.0000 </r>
       <r>   17.9287    0.0000 </r>
       <r>   19.5662    0.0000 </r>
       <r>   19.8869    0.0000 </r>
       <r>   23.9645    0.0000 </r>
       <r>   26.4014    0.0000 </r>
       <r>   26.4014    0.0000 </r>
      </set>
      <set comment="kpoint 24">
       <r>   -3.1116    1.0000 </r>
       <r>   15.7346    0.0000 </r>
       <r>   17.2215    0.0000 </r>
       <r>   19.0317    0.0000 </r>
       <r>   20.1392    0.0000 </r>
       <r>   22.6553    0.0000 </r>
       <r>   27.1181    0.0000 </r>
       <r>   27.3593    0.0000 </r>
      </set>
      <set comment="kpoint 25">
       <r>   -2.3823    1.0000 </r>
       <r>   13.0150    0.0000 </r>
       <r>   16.7319    0.0000 </r>
       <r>   18.3187    0.0000 </r>
       <r>   20.0277    0.0000 </r>
       <r>   23.0106    0.0000 </r>
       <r>   27.0921    0.0000 </r>
       <r>   27.2948    0.0000 </r>
      </set>
      <set comment="kpoint 26">
       <r>   -1.4003    1.0000 </r>
       <r>   10.3943    0.0000 </r>
       <r>   16.4630    0.0000 </r>
       <r>   17.4970    0.0000 </r>
       <r>   19.4276    0.0000 </r>
       <r>   24.4897    0.0000 </r>
       <r>   26.1335    0.0000 </r>
       <r>   27.4554    0.0000 </r>
      </set>
      <set comment="kpoint 27">
       <r>   -0.1702    1.0000 </r>
       <r>    7.9494    1.0000 </r>
       <r>   16.4150    0.0000 </r>
       <r>   16.5878    0.0000 </r>
       <r>   19.1821    0.0000 </r>
       <r>   25.1480    0.0000 </r>
       <r>   25.7513    0.0000 </r>
       <r>   28.1492    0.0000 </r>
      </set>
      <set comment="kpoint 28">
       <r>    1.2986    1.0000 </r>
       <r>    5.7141    1.0000 </r>
       <r>   15.7453    0.0000 </r>
       <r>   16.5856    0.0000 </r>
       <r>   19.2878    0.0000 </r>
       <r>   24.3042    0.0000 </r>
       <r>   26.1302    0.0000 </r>
       <r>   29.6535    0.0000 </r>
      </set>
      <set comment="kpoint 29">
       <r>    2.9085    1.0000 </r>
       <r>    3.7959    1.0000 </r>
       <r>   15.0661    0.0000 </r>
       <r>   16.9698    0.0000 </r>
       <r>   19.6810    0.0000 </r>
       <r>   23.6582    0.0000 </r>
       <r>   26.0401    0.0000 </r>
       <r>   29.7861    0.0000 </r>
      </set>
      <set comment="kpoint 30">
       <r>    1.8363    1.0000 </r>
       <r>    5.0215    1.0000 </r>
       <r>   14.5902    0.0000 </r>
       <r>   17.5580    0.0000 </r>
       <r>   20.3293    0.0000 </r>
       <r>   23.2377    0.0000 </r>
       <r>   25.8081    0.0000 </r>
       <r>   30.0897    0.0000 </r>
      </set>
      <set comment="kpoint 31">
       <r>    0.2935    1.0000 </r>
       <r>    7.1770    1.0000 </r>
       <r>   14.3348    0.0000 </r>
       <r>   18.3313    0.0000 </r>
       <r>   21.2110    0.0000 </r>
       <r>   23.0632    0.0000 </r>
       <r>   25.5773    0.0000 </r>
       <r>   29.6215    0.0000 </r>
      </set>
      <set comment="kpoint 32">
       <r>   -1.0177    1.0000 </r>
       <r>    9.5509    1.0000 </r>
       <r>   14.3094    0.0000 </r>
       <r>   19.2519    0.0000 </r>
       <r>   22.3000    0.0000 </r>
       <r>   23.1546    0.0000 </r>
       <r>   25.3890    0.0000 </r>
       <r>   27.4647    0.0000 </r>
      </set>
      <set comment="kpoint 33">
       <r>   -2.0831    1.0000 </r>
       <r>   12.1014    0.0000 </r>
       <r>   14.5268    0.0000 </r>
       <r>   20.2390    0.0000 </r>
       <r>   23.4994    0.0000 </r>
       <r>   23.5423    0.0000 </r>
       <r>   25.1760    0.0000 </r>
       <r>   25.5909    0.0000 </r>
      </set>
      <set comment="kpoint 34">
       <r>   -2.8970    1.0000 </r>
       <r>   14.5617    0.0000 </r>
       <r>   15.2079    0.0000 </r>
       <r>   21.0792    0.0000 </r>
       <r>   23.4666    0.0000 </r>
       <r>   24.7346    0.0000 </r>
       <r>   24.7573    0.0000 </r>
       <r>   24.8680    0.0000 </r>
      </set>
      <set comment="kpoint 35">
       <r>   -2.7249    1.0000 </r>
       <r>   16.4411    0.0000 </r>
       <r>   16.4411    0.0000 </r>
       <r>   17.9881    0.0000 </r>
       <r>   18.1357    0.0000 </r>
       <r>   20.9628    0.0000 </r>
       <r>   28.8191    0.0000 </r>
       <r>   28.8191    0.0000 </r>
      </set>
      <set comment="kpoint 36">
       <r>   -2.0823    1.0000 </r>
       <r>   14.3451    0.0000 </r>
       <r>   15.8784    0.0000 </r>
       <r>   16.9861    0.0000 </r>
       <r>   18.2500    0.0000 </r>
       <r>   20.5313    0.0000 </r>
       <r>   29.1414    0.0000 </r>
       <r>   29.5577    0.0000 </r>
      </set>
      <set comment="kpoint 37">
       <r>   -1.1865    1.0000 </r>
       <r>   11.7485    0.0000 </r>
       <r>   15.5379    0.0000 </r>
       <r>   15.7601    0.0000 </r>
       <r>   18.1538    0.0000 </r>
       <r>   21.7967    0.0000 </r>
       <r>   28.3408    0.0000 </r>
       <r>   29.7194    0.0000 </r>
      </set>
      <set comment="kpoint 38">
       <r>   -0.0416    1.0000 </r>
       <r>    9.2666    1.0000 </r>
       <r>   14.5913    0.0000 </r>
       <r>   15.4206    0.0000 </r>
       <r>   18.0389    0.0000 </r>
       <r>   23.6941    0.0000 </r>
       <r>   27.3783    0.0000 </r>
       <r>   29.6427    0.0000 </r>
      </set>
      <set comment="kpoint 39">
       <r>    1.3456    1.0000 </r>
       <r>    6.9717    1.0000 </r>
       <r>   13.5841    0.0000 </r>
       <r>   15.5262    0.0000 </r>
       <r>   18.1507    0.0000 </r>
       <r>   25.7032    0.0000 </r>
       <r>   26.5018    0.0000 </r>
       <r>   29.5199    0.0000 </r>
      </set>
      <set comment="kpoint 40">
       <r>    2.9480    1.0000 </r>
       <r>    4.9109    1.0000 </r>
       <r>   12.7820    0.0000 </r>
       <r>   15.8525    0.0000 </r>
       <r>   18.5097    0.0000 </r>
       <r>   25.7927    0.0000 </r>
       <r>   27.2317    0.0000 </r>
       <r>   29.8252    0.0000 </r>
      </set>
      <set comment="kpoint 41">
       <r>    2.9485    1.0000 </r>
       <r>    4.9079    1.0000 </r>
       <r>   12.2046    0.0000 </r>
       <r>   16.3956    0.0000 </r>
       <r>   19.1122    0.0000 </r>
       <r>   25.2862    0.0000 </r>
       <r>   27.5439    0.0000 </r>
       <r>   31.0116    0.0000 </r>
      </set>
      <set comment="kpoint 42">
       <r>    1.3451    1.0000 </r>
       <r>    6.9615    1.0000 </r>
       <r>   11.8643    0.0000 </r>
       <r>   17.1473    0.0000 </r>
       <r>   19.9482    0.0000 </r>
       <r>   25.0007    0.0000 </r>
       <r>   27.3040    0.0000 </r>
       <r>   29.4409    0.0000 </r>
      </set>
      <set comment="kpoint 43">
       <r>   -0.0424    1.0000 </r>
       <r>    9.2286    1.0000 </r>
       <r>   11.7827    0.0000 </r>
       <r>   18.0903    0.0000 </r>
       <r>   21.0003    0.0000 </r>
       <r>   24.9485    0.0000 </r>
       <r>   26.8951    0.0000 </r>
       <r>   27.1783    0.0000 </r>
      </set>
      <set comment="kpoint 44">
       <r>   -1.1874    1.0000 </r>
       <r>   11.3841    0.0000 </r>
       <r>   12.2437    0.0000 </r>
       <r>   19.1801    0.0000 </r>
       <r>   22.2318    0.0000 </r>
       <r>   25.1143    0.0000 </r>
       <r>   25.1600    0.0000 </r>
       <r>   26.2233    0.0000 </r>
      </set>
      <set comment="kpoint 45">
       <r>   -1.5269    1.0000 </r>
       <r>   15.2416    0.0000 </r>
       <r>   15.2416    0.0000 </r>
       <r>   15.4069    0.0000 </r>
       <r>   16.6683    0.0000 </r>
       <r>   19.1153    0.0000 </r>
       <r>   31.1327    0.0000 </r>
       <r>   31.1327    0.0000 </r>
      </set>
      <set comment="kpoint 46">
       <r>   -0.7182    1.0000 </r>
       <r>   13.2066    0.0000 </r>
       <r>   14.0291    0.0000 </r>
       <r>   14.8271    0.0000 </r>
       <r>   16.9853    0.0000 </r>
       <r>   19.3042    0.0000 </r>
       <r>   30.6246    0.0000 </r>
       <r>   31.8090    0.0000 </r>
      </set>
      <set comment="kpoint 47">
       <r>    0.3400    1.0000 </r>
       <r>   10.7742    0.0000 </r>
       <r>   12.6834    0.0000 </r>
       <r>   14.6369    0.0000 </r>
       <r>   17.0819    0.0000 </r>
       <r>   20.9145    0.0000 </r>
       <r>   29.7460    0.0000 </r>
       <r>   31.8262    0.0000 </r>
      </set>
      <set comment="kpoint 48">
       <r>    1.6419    1.0000 </r>
       <r>    8.4490    1.0000 </r>
       <r>   11.5478    0.0000 </r>
       <r>   14.6711    0.0000 </r>
       <r>   17.1883    0.0000 </r>
       <r>   23.0422    0.0000 </r>
       <r>   28.8749    0.0000 </r>
       <r>   31.4639    0.0000 </r>
      </set>
      <set comment="kpoint 49">
       <r>    3.1736    1.0000 </r>
       <r>    6.3181    1.0000 </r>
       <r>   10.6401    0.0000 </r>
       <r>   14.9288    0.0000 </r>
       <r>   17.4977    0.0000 </r>
       <r>   25.3515    0.0000 </r>
       <r>   28.1283    0.0000 </r>
       <r>   30.9176    0.0000 </r>
      </set>
      <set comment="kpoint 50">
       <r>    4.2538    1.0000 </r>
       <r>    5.0799    1.0000 </r>
       <r>    9.9730    1.0000 </r>
       <r>   15.4079    0.0000 </r>
       <r>   18.0398    0.0000 </r>
       <r>   27.5571    0.0000 </r>
       <r>   27.6017    0.0000 </r>
       <r>   30.3255    0.0000 </r>
      </set>
      <set comment="kpoint 51">
       <r>    2.6393    1.0000 </r>
       <r>    6.9626    1.0000 </r>
       <r>    9.5720    1.0000 </r>
       <r>   16.1039    0.0000 </r>
       <r>   18.8152    0.0000 </r>
       <r>   27.1786    0.0000 </r>
       <r>   28.9196    0.0000 </r>
       <r>   29.5098    0.0000 </r>
      </set>
      <set comment="kpoint 52">
       <r>    1.1796    1.0000 </r>
       <r>    8.8053    1.0000 </r>
       <r>    9.7478    1.0000 </r>
       <r>   17.0069    0.0000 </r>
       <r>   19.8118    0.0000 </r>
       <r>   26.8184    0.0000 </r>
       <r>   27.3767    0.0000 </r>
       <r>   28.2140    0.0000 </r>
      </set>
      <set comment="kpoint 53">
       <r>    0.0027    1.0000 </r>
       <r>   12.3067    0.0000 </r>
       <r>   14.3382    0.0000 </r>
       <r>   14.3382    0.0000 </r>
       <r>   15.6592    0.0000 </r>
       <r>   18.0442    0.0000 </r>
       <r>   32.5496    0.0000 </r>
       <r>   33.2314    0.0000 </r>
      </set>
      <set comment="kpoint 54">
       <r>    0.9727    1.0000 </r>
       <r>   10.8488    0.0000 </r>
       <r>   12.5215    0.0000 </r>
       <r>   14.0737    0.0000 </r>
       <r>   16.1421    0.0000 </r>
       <r>   18.5036    0.0000 </r>
       <r>   32.1092    0.0000 </r>
       <r>   33.7600    0.0000 </r>
      </set>
      <set comment="kpoint 55">
       <r>    2.1861    1.0000 </r>
       <r>    9.5424    1.0000 </r>
       <r>   10.2877    0.0006 </r>
       <r>   14.0343    0.0000 </r>
       <r>   16.4054    0.0000 </r>
       <r>   20.3231    0.0000 </r>
       <r>   31.3194    0.0000 </r>
       <r>   33.5424    0.0000 </r>
      </set>
      <set comment="kpoint 56">
       <r>    3.6313    1.0000 </r>
       <r>    7.8820    1.0000 </r>
       <r>    8.7741    1.0000 </r>
       <r>   14.2198    0.0000 </r>
       <r>   16.6891    0.0000 </r>
       <r>   22.6336    0.0000 </r>
       <r>   30.5674    0.0000 </r>
       <r>   32.8740    0.0000 </r>
      </set>
      <set comment="kpoint 57">
       <r>    5.2307    1.0000 </r>
       <r>    6.0078    1.0000 </r>
       <r>    7.9885    1.0000 </r>
       <r>   14.6290    0.0000 </r>
       <r>   17.1720    0.0000 </r>
       <r>   25.1362    0.0000 </r>
       <r>   29.9203    0.0000 </r>
       <r>   31.9143    0.0000 </r>
      </set>
      <set comment="kpoint 58">
       <r>    4.1637    1.0000 </r>
       <r>    6.8610    1.0000 </r>
       <r>    7.8304    1.0000 </r>
       <r>   15.2591    0.0000 </r>
       <r>   17.8820    0.0000 </r>
       <r>   27.6441    0.0000 </r>
       <r>   29.1534    0.0000 </r>
       <r>   30.1738    0.0000 </r>
      </set>
      <set comment="kpoint 59">
       <r>    1.8528    1.0000 </r>
       <r>    9.3183    1.0000 </r>
       <r>   13.7346    0.0000 </r>
       <r>   13.7346    0.0000 </r>
       <r>   14.9802    0.0000 </r>
       <r>   17.3807    0.0000 </r>
       <r>   33.7897    0.0000 </r>
       <r>   35.0281    0.0000 </r>
      </set>
      <set comment="kpoint 60">
       <r>    2.9730    1.0000 </r>
       <r>    7.9940    1.0000 </r>
       <r>   12.0315    0.0000 </r>
       <r>   13.6209    0.0000 </r>
       <r>   15.6400    0.0000 </r>
       <r>   18.0309    0.0000 </r>
       <r>   33.5549    0.0000 </r>
       <r>   35.2992    0.0000 </r>
      </set>
      <set comment="kpoint 61">
       <r>    4.3101    1.0000 </r>
       <r>    6.9176    1.0000 </r>
       <r>    9.8817    1.0000 </r>
       <r>   13.7326    0.0000 </r>
       <r>   16.0698    0.0000 </r>
       <r>   20.0252    0.0000 </r>
       <r>   32.8714    0.0000 </r>
       <r>   34.6887    0.0000 </r>
      </set>
      <set comment="kpoint 62">
       <r>    5.5622    1.0000 </r>
       <r>    6.3536    1.0000 </r>
       <r>    7.9161    1.0000 </r>
       <r>   14.0692    0.0000 </r>
       <r>   16.5230    0.0000 </r>
       <r>   22.4951    0.0000 </r>
       <r>   31.8963    0.0000 </r>
       <r>   33.2871    0.0000 </r>
      </set>
      <set comment="kpoint 63">
       <r>    3.9825    1.0000 </r>
       <r>    6.6038    1.0000 </r>
       <r>   13.4325    0.0000 </r>
       <r>   13.4325    0.0000 </r>
       <r>   14.6391    0.0000 </r>
       <r>   17.0539    0.0000 </r>
       <r>   34.6803    0.0000 </r>
       <r>   36.2392    0.0000 </r>
      </set>
      <set comment="kpoint 64">
       <r>    4.9124    1.0000 </r>
       <r>    5.7625    1.0000 </r>
       <r>   11.8709    0.0000 </r>
       <r>   13.4698    0.0000 </r>
       <r>   15.4727    0.0000 </r>
       <r>   17.8736    0.0000 </r>
       <r>   34.3580    0.0000 </r>
       <r>   35.9483    0.0000 </r>
      </set>
      <set comment="kpoint 65">
       <r>   -3.4128    1.0000 </r>
       <r>   16.4054    0.0000 </r>
       <r>   16.8259    0.0000 </r>
       <r>   20.7293    0.0000 </r>
       <r>   21.3375    0.0000 </r>
       <r>   24.2996    0.0000 </r>
       <r>   25.6606    0.0000 </r>
       <r>   26.0239    0.0000 </r>
      </set>
      <set comment="kpoint 66">
       <r>   -2.7682    1.0000 </r>
       <r>   13.8154    0.0000 </r>
       <r>   16.0915    0.0000 </r>
       <r>   20.0796    0.0000 </r>
       <r>   21.7695    0.0000 </r>
       <r>   23.8480    0.0000 </r>
       <r>   25.8737    0.0000 </r>
       <r>   26.1085    0.0000 </r>
      </set>
      <set comment="kpoint 67">
       <r>   -1.8695    1.0000 </r>
       <r>   11.1458    0.0000 </r>
       <r>   15.7341    0.0000 </r>
       <r>   19.2079    0.0000 </r>
       <r>   21.3315    0.0000 </r>
       <r>   24.4192    0.0000 </r>
       <r>   25.3408    0.0000 </r>
       <r>   26.4948    0.0000 </r>
      </set>
      <set comment="kpoint 68">
       <r>   -0.7208    1.0000 </r>
       <r>    8.6356    1.0000 </r>
       <r>   15.6038    0.0000 </r>
       <r>   18.2705    0.0000 </r>
       <r>   21.0051    0.0000 </r>
       <r>   23.6465    0.0000 </r>
       <r>   25.6075    0.0000 </r>
       <r>   27.8779    0.0000 </r>
      </set>
      <set comment="kpoint 69">
       <r>    0.6709    1.0000 </r>
       <r>    6.3254    1.0000 </r>
       <r>   15.6875    0.0000 </r>
       <r>   17.4065    0.0000 </r>
       <r>   20.9667    0.0000 </r>
       <r>   22.7711    0.0000 </r>
       <r>   25.7573    0.0000 </r>
       <r>   29.2997    0.0000 </r>
      </set>
      <set comment="kpoint 70">
       <r>    2.2770    1.0000 </r>
       <r>    4.2575    1.0000 </r>
       <r>   15.9313    0.0000 </r>
       <r>   16.7560    0.0000 </r>
       <r>   21.1091    0.0000 </r>
       <r>   22.1634    0.0000 </r>
       <r>   25.8478    0.0000 </r>
       <r>   29.0416    0.0000 </r>
      </set>
      <set comment="kpoint 71">
       <r>   -2.5535    1.0000 </r>
       <r>   14.8533    0.0000 </r>
       <r>   15.3566    0.0000 </r>
       <r>   18.7336    0.0000 </r>
       <r>   19.8648    0.0000 </r>
       <r>   21.7419    0.0000 </r>
       <r>   27.5994    0.0000 </r>
       <r>   28.2511    0.0000 </r>
      </set>
      <set comment="kpoint 72">
       <r>   -1.7409    1.0000 </r>
       <r>   12.4018    0.0000 </r>
       <r>   14.7316    0.0000 </r>
       <r>   17.5623    0.0000 </r>
       <r>   20.0815    0.0000 </r>
       <r>   22.4318    0.0000 </r>
       <r>   26.8738    0.0000 </r>
       <r>   28.7093    0.0000 </r>
      </set>
      <set comment="kpoint 73">
       <r>   -0.6772    1.0000 </r>
       <r>    9.8650    1.0000 </r>
       <r>   14.5063    0.0000 </r>
       <r>   16.3739    0.0000 </r>
       <r>   19.9385    0.0000 </r>
       <r>   24.0672    0.0000 </r>
       <r>   25.9607    0.0000 </r>
       <r>   28.8483    0.0000 </r>
      </set>
      <set comment="kpoint 74">
       <r>    0.6318    1.0000 </r>
       <r>    7.4990    1.0000 </r>
       <r>   14.4634    0.0000 </r>
       <r>   15.3848    0.0000 </r>
       <r>   19.9617    0.0000 </r>
       <r>   24.6160    0.0000 </r>
       <r>   26.3274    0.0000 </r>
       <r>   29.0567    0.0000 </r>
      </set>
      <set comment="kpoint 75">
       <r>    2.1722    1.0000 </r>
       <r>    5.3482    1.0000 </r>
       <r>   14.2140    0.0000 </r>
       <r>   15.0294    0.0000 </r>
       <r>   20.2094    0.0000 </r>
       <r>   23.9404    0.0000 </r>
       <r>   27.4809    0.0000 </r>
       <r>   29.8486    0.0000 </r>
      </set>
      <set comment="kpoint 76">
       <r>    3.2464    1.0000 </r>
       <r>    4.1203    1.0000 </r>
       <r>   13.6628    0.0000 </r>
       <r>   15.4206    0.0000 </r>
       <r>   20.6753    0.0000 </r>
       <r>   23.3808    0.0000 </r>
       <r>   27.6817    0.0000 </r>
       <r>   30.9885    0.0000 </r>
      </set>
      <set comment="kpoint 77">
       <r>    1.6351    1.0000 </r>
       <r>    6.0361    1.0000 </r>
       <r>   13.2643    0.0000 </r>
       <r>   16.1080    0.0000 </r>
       <r>   21.3262    0.0000 </r>
       <r>   23.0574    0.0000 </r>
       <r>   27.4266    0.0000 </r>
       <r>   29.8027    0.0000 </r>
      </set>
      <set comment="kpoint 78">
       <r>    0.1684    1.0000 </r>
       <r>    8.2593    1.0000 </r>
       <r>   13.0883    0.0000 </r>
       <r>   17.0166    0.0000 </r>
       <r>   22.0426    0.0000 </r>
       <r>   23.0765    0.0000 </r>
       <r>   26.6306    0.0000 </r>
       <r>   28.2867    0.0000 </r>
      </set>
      <set comment="kpoint 79">
       <r>   -1.0597    1.0000 </r>
       <r>   10.6706    0.0000 </r>
       <r>   13.1599    0.0000 </r>
       <r>   18.1083    0.0000 </r>
       <r>   22.5421    0.0000 </r>
       <r>   23.5473    0.0000 </r>
       <r>   25.1631    0.0000 </r>
       <r>   27.6441    0.0000 </r>
      </set>
      <set comment="kpoint 80">
       <r>   -2.0401    1.0000 </r>
       <r>   12.9807    0.0000 </r>
       <r>   13.7335    0.0000 </r>
       <r>   19.2959    0.0000 </r>
       <r>   22.5791    0.0000 </r>
       <r>   23.3292    0.0000 </r>
       <r>   25.1194    0.0000 </r>
       <r>   27.0564    0.0000 </r>
      </set>
      <set comment="kpoint 81">
       <r>   -1.3566    1.0000 </r>
       <r>   13.5951    0.0000 </r>
       <r>   14.1077    0.0000 </r>
       <r>   15.7855    0.0000 </r>
       <r>   18.6176    0.0000 </r>
       <r>   20.2353    0.0000 </r>
       <r>   28.9748    0.0000 </r>
       <r>   30.7848    0.0000 </r>
      </set>
      <set comment="kpoint 82">
       <r>   -0.3794    1.0000 </r>
       <r>   11.2837    0.0000 </r>
       <r>   13.5645    0.0000 </r>
       <r>   14.5046    0.0000 </r>
       <r>   18.9376    0.0000 </r>
       <r>   21.4190    0.0000 </r>
       <r>   28.1148    0.0000 </r>
       <r>   31.2272    0.0000 </r>
      </set>
      <set comment="kpoint 83">
       <r>    0.8445    1.0000 </r>
       <r>    8.8933    1.0000 </r>
       <r>   13.0105    0.0000 </r>
       <r>   13.8148    0.0000 </r>
       <r>   18.9960    0.0000 </r>
       <r>   23.3888    0.0000 </r>
       <r>   27.2077    0.0000 </r>
       <r>   31.1523    0.0000 </r>
      </set>
      <set comment="kpoint 84">
       <r>    2.3058    1.0000 </r>
       <r>    6.6830    1.0000 </r>
       <r>   12.1363    0.0000 </r>
       <r>   13.9004    0.0000 </r>
       <r>   19.2144    0.0000 </r>
       <r>   25.3474    0.0000 </r>
       <r>   26.6419    0.0000 </r>
       <r>   30.8077    0.0000 </r>
      </set>
      <set comment="kpoint 85">
       <r>    3.9175    1.0000 </r>
       <r>    4.7670    1.0000 </r>
       <r>   11.4127    0.0000 </r>
       <r>   14.2988    0.0000 </r>
       <r>   19.6482    0.0000 </r>
       <r>   25.4767    0.0000 </r>
       <r>   28.0288    0.0000 </r>
       <r>   30.1992    0.0000 </r>
      </set>
      <set comment="kpoint 86">
       <r>    2.8415    1.0000 </r>
       <r>    5.9874    1.0000 </r>
       <r>   10.9161    0.0000 </r>
       <r>   14.9396    0.0000 </r>
       <r>   20.2999    0.0000 </r>
       <r>   25.0812    0.0000 </r>
       <r>   28.7738    0.0000 </r>
       <r>   29.6553    0.0000 </r>
      </set>
      <set comment="kpoint 87">
       <r>    1.3052    1.0000 </r>
       <r>    8.0968    1.0000 </r>
       <r>   10.6787    0.0000 </r>
       <r>   15.8056    0.0000 </r>
       <r>   21.1537    0.0000 </r>
       <r>   24.8350    0.0000 </r>
       <r>   26.9044    0.0000 </r>
       <r>   29.6077    0.0000 </r>
      </set>
      <set comment="kpoint 88">
       <r>    0.0004    1.0000 </r>
       <r>   10.0973    0.9838 </r>
       <r>   11.0006    0.0000 </r>
       <r>   16.8782    0.0000 </r>
       <r>   22.1583    0.0000 </r>
       <r>   24.4693    0.0000 </r>
       <r>   25.2102    0.0000 </r>
       <r>   28.8609    0.0000 </r>
      </set>
      <set comment="kpoint 89">
       <r>    0.1715    1.0000 </r>
       <r>   12.3613    0.0000 </r>
       <r>   12.6448    0.0000 </r>
       <r>   13.4491    0.0000 </r>
       <r>   17.6620    0.0000 </r>
       <r>   19.2752    0.0000 </r>
       <r>   30.4085    0.0000 </r>
       <r>   33.0722    0.0000 </r>
      </set>
      <set comment="kpoint 90">
       <r>    1.3081    1.0000 </r>
       <r>   10.4263    0.0000 </r>
       <r>   11.2507    0.0000 </r>
       <r>   12.9981    0.0000 </r>
       <r>   18.1399    0.0000 </r>
       <r>   20.6947    0.0000 </r>
       <r>   29.5960    0.0000 </r>
       <r>   33.3047    0.0000 </r>
      </set>
      <set comment="kpoint 91">
       <r>    2.6839    1.0000 </r>
       <r>    8.2251    1.0000 </r>
       <r>   10.1689    0.5453 </r>
       <r>   13.0697    0.0000 </r>
       <r>   18.3698    0.0000 </r>
       <r>   22.8725    0.0000 </r>
       <r>   28.7846    0.0000 </r>
       <r>   32.7215    0.0000 </r>
      </set>
      <set comment="kpoint 92">
       <r>    4.2732    1.0000 </r>
       <r>    6.1950    1.0000 </r>
       <r>    9.3352    1.0000 </r>
       <r>   13.4050    0.0000 </r>
       <r>   18.7574    0.0000 </r>
       <r>   25.2398    0.0000 </r>
       <r>   28.1362    0.0000 </r>
       <r>   31.4257    0.0000 </r>
      </set>
      <set comment="kpoint 93">
       <r>    4.2782    1.0000 </r>
       <r>    6.1605    1.0000 </r>
       <r>    8.7693    1.0000 </r>
       <r>   13.9795    0.0000 </r>
       <r>   19.3561    0.0000 </r>
       <r>   27.0797    0.0000 </r>
       <r>   28.1526    0.0000 </r>
       <r>   29.4781    0.0000 </r>
      </set>
      <set comment="kpoint 94">
       <r>    2.6828    1.0000 </r>
       <r>    7.8339    1.0000 </r>
       <r>    8.7856    1.0000 </r>
       <r>   14.7836    0.0000 </r>
       <r>   20.1653    0.0000 </r>
       <r>   26.9483    0.0000 </r>
       <r>   27.1362    0.0000 </r>
       <r>   30.1841    0.0000 </r>
      </set>
      <set comment="kpoint 95">
       <r>    2.0197    1.0000 </r>
       <r>    9.4657    1.0000 </r>
       <r>   12.0087    0.0000 </r>
       <r>   12.7246    0.0000 </r>
       <r>   17.0187    0.0000 </r>
       <r>   18.6556    0.0000 </r>
       <r>   31.9637    0.0000 </r>
       <r>   34.9884    0.0000 </r>
      </set>
      <set comment="kpoint 96">
       <r>    3.3037    1.0000 </r>
       <r>    8.2920    1.0000 </r>
       <r>   10.0633    0.9990 </r>
       <r>   12.4974    0.0000 </r>
       <r>   17.6607    0.0000 </r>
       <r>   20.2551    0.0000 </r>
       <r>   31.2614    0.0000 </r>
       <r>   34.1875    0.0000 </r>
      </set>
      <set comment="kpoint 97">
       <r>    4.7972    1.0000 </r>
       <r>    7.2928    1.0000 </r>
       <r>    8.0888    1.0000 </r>
       <r>   12.7458    0.0000 </r>
       <r>   18.0551    0.0000 </r>
       <r>   22.6033    0.0000 </r>
       <r>   30.5636    0.0000 </r>
       <r>   32.3029    0.0000 </r>
      </set>
      <set comment="kpoint 98">
       <r>    5.8921    1.0000 </r>
       <r>    6.2118    1.0000 </r>
       <r>    7.2482    1.0000 </r>
       <r>   13.2452    0.0000 </r>
       <r>   18.6037    0.0000 </r>
       <r>   25.1515    0.0000 </r>
       <r>   29.9321    0.0000 </r>
       <r>   30.0050    0.0000 </r>
      </set>
      <set comment="kpoint 99">
       <r>    4.1467    1.0000 </r>
       <r>    6.7634    1.0000 </r>
       <r>   11.6900    0.0000 </r>
       <r>   12.4007    0.0000 </r>
       <r>   16.6956    0.0000 </r>
       <r>   18.3468    0.0000 </r>
       <r>   33.4793    0.0000 </r>
       <r>   34.9949    0.0000 </r>
      </set>
      <set comment="kpoint 100">
       <r>    5.2373    1.0000 </r>
       <r>    6.0820    1.0000 </r>
       <r>    9.8879    1.0000 </r>
       <r>   12.3362    0.0000 </r>
       <r>   17.5007    0.0000 </r>
       <r>   20.1076    0.0000 </r>
       <r>   32.7630    0.0000 </r>
       <r>   33.2015    0.0000 </r>
      </set>
      <set comment="kpoint 101">
       <r>   -0.8466    1.0000 </r>
       <r>   11.7032    0.0000 </r>
       <r>   12.4996    0.0000 </r>
       <r>   16.2491    0.0000 </r>
       <r>   21.4082    0.0000 </r>
       <r>   22.3481    0.0000 </r>
       <r>   25.9615    0.0000 </r>
       <r>   29.9121    0.0000 </r>
      </set>
      <set comment="kpoint 102">
       <r>    0.2964    1.0000 </r>
       <r>    9.5450    1.0000 </r>
       <r>   12.0567    0.0000 </r>
       <r>   15.0243    0.0000 </r>
       <r>   21.6828    0.0000 </r>
       <r>   23.6434    0.0000 </r>
       <r>   25.2317    0.0000 </r>
       <r>   30.4675    0.0000 </r>
      </set>
      <set comment="kpoint 103">
       <r>    1.6814    1.0000 </r>
       <r>    7.2838    1.0000 </r>
       <r>   12.1221    0.0000 </r>
       <r>   14.0097    0.0000 </r>
       <r>   21.7695    0.0000 </r>
       <r>   23.6910    0.0000 </r>
       <r>   26.4341    0.0000 </r>
       <r>   30.5452    0.0000 </r>
      </set>
      <set comment="kpoint 104">
       <r>    3.2823    1.0000 </r>
       <r>    5.2335    1.0000 </r>
       <r>   12.3747    0.0000 </r>
       <r>   13.2861    0.0000 </r>
       <r>   21.9305    0.0000 </r>
       <r>   23.1982    0.0000 </r>
       <r>   28.4547    0.0000 </r>
       <r>   30.0298    0.0000 </r>
      </set>
      <set comment="kpoint 105">
       <r>    0.6769    1.0000 </r>
       <r>   10.7404    0.0000 </r>
       <r>   11.4960    0.0000 </r>
       <r>   13.1425    0.0000 </r>
       <r>   20.4877    0.0000 </r>
       <r>   21.5786    0.0000 </r>
       <r>   27.2360    0.0000 </r>
       <r>   32.6002    0.0000 </r>
      </set>
      <set comment="kpoint 106">
       <r>    1.9766    1.0000 </r>
       <r>    8.7310    1.0000 </r>
       <r>   11.1401    0.0000 </r>
       <r>   12.0778    0.0000 </r>
       <r>   20.9737    0.0000 </r>
       <r>   23.2609    0.0000 </r>
       <r>   26.3958    0.0000 </r>
       <r>   32.6286    0.0000 </r>
      </set>
      <set comment="kpoint 107">
       <r>    3.5060    1.0000 </r>
       <r>    6.6316    1.0000 </r>
       <r>   10.8192    0.0000 </r>
       <r>   11.7322    0.0000 </r>
       <r>   21.2789    0.0000 </r>
       <r>   24.8459    0.0000 </r>
       <r>   26.3381    0.0000 </r>
       <r>   31.1269    0.0000 </r>
      </set>
      <set comment="kpoint 108">
       <r>    4.5862    1.0000 </r>
       <r>    5.4010    1.0000 </r>
       <r>   10.2472    0.0179 </r>
       <r>   12.1398    0.0000 </r>
       <r>   21.7466    0.0000 </r>
       <r>   24.6670    0.0000 </r>
       <r>   28.0250    0.0000 </r>
       <r>   29.2655    0.0000 </r>
      </set>
      <set comment="kpoint 109">
       <r>    2.9726    1.0000 </r>
       <r>    7.2845    1.0000 </r>
       <r>    9.8660    1.0000 </r>
       <r>   12.8628    0.0000 </r>
       <r>   22.3676    0.0000 </r>
       <r>   24.3092    0.0000 </r>
       <r>   26.5036    0.0000 </r>
       <r>   30.7077    0.0000 </r>
      </set>
      <set comment="kpoint 110">
       <r>    1.5160    1.0000 </r>
       <r>    9.1289    1.0000 </r>
       <r>   10.0371    0.9999 </r>
       <r>   13.8323    0.0000 </r>
       <r>   23.0013    0.0000 </r>
       <r>   23.6090    0.0000 </r>
       <r>   25.0148    0.0000 </r>
       <r>   31.8969    0.0000 </r>
      </set>
      <set comment="kpoint 111">
       <r>    2.5191    1.0000 </r>
       <r>    9.8403    1.0000 </r>
       <r>   10.0968    0.9844 </r>
       <r>   11.1682    0.0000 </r>
       <r>   19.8629    0.0000 </r>
       <r>   21.0404    0.0000 </r>
       <r>   28.8131    0.0000 </r>
       <r>   33.8004    0.0000 </r>
      </set>
      <set comment="kpoint 112">
       <r>    3.9615    1.0000 </r>
       <r>    8.1831    1.0000 </r>
       <r>    9.0224    1.0000 </r>
       <r>   10.9239    0.0000 </r>
       <r>   20.5299    0.0000 </r>
       <r>   22.9199    0.0000 </r>
       <r>   28.0430    0.0000 </r>
       <r>   31.8310    0.0000 </r>
      </set>
      <set comment="kpoint 113">
       <r>    5.5609    1.0000 </r>
       <r>    6.3218    1.0000 </r>
       <r>    8.2847    1.0000 </r>
       <r>   11.2979    0.0000 </r>
       <r>   21.0048    0.0000 </r>
       <r>   25.2401    0.0000 </r>
       <r>   27.4377    0.0000 </r>
       <r>   29.5247    0.0000 </r>
      </set>
      <set comment="kpoint 114">
       <r>    4.4926    1.0000 </r>
       <r>    7.1856    1.0000 </r>
       <r>    8.1312    1.0000 </r>
       <r>   11.9558    0.0000 </r>
       <r>   21.6353    0.0000 </r>
       <r>   26.3990    0.0000 </r>
       <r>   26.5949    0.0000 </r>
       <r>   28.8372    0.0000 </r>
      </set>
      <set comment="kpoint 115">
       <r>    4.6375    1.0000 </r>
       <r>    7.2330    1.0000 </r>
       <r>    9.7746    1.0000 </r>
       <r>   10.7503    0.0000 </r>
       <r>   19.5480    0.0000 </r>
       <r>   20.7643    0.0000 </r>
       <r>   30.5961    0.0000 </r>
       <r>   32.4196    0.0000 </r>
      </set>
      <set comment="kpoint 116">
       <r>    5.8871    1.0000 </r>
       <r>    6.6786    1.0000 </r>
       <r>    8.1732    1.0000 </r>
       <r>   10.7359    0.0000 </r>
       <r>   20.3798    0.0000 </r>
       <r>   22.7971    0.0000 </r>
       <r>   29.6833    0.0000 </r>
       <r>   30.2156    0.0000 </r>
      </set>
      <set comment="kpoint 117">
       <r>    3.3470    1.0000 </r>
       <r>    8.4822    1.0000 </r>
       <r>    9.3199    1.0000 </r>
       <r>   10.9464    0.0000 </r>
       <r>   23.0105    0.0000 </r>
       <r>   23.4090    0.0000 </r>
       <r>   25.7191    0.0000 </r>
       <r>   31.3339    0.0000 </r>
      </set>
      <set comment="kpoint 118">
       <r>    4.9321    1.0000 </r>
       <r>    6.7987    1.0000 </r>
       <r>    9.2439    1.0000 </r>
       <r>   10.1947    0.2689 </r>
       <r>   23.3654    0.0000 </r>
       <r>   24.4589    0.0000 </r>
       <r>   26.1892    0.0000 </r>
       <r>   29.0864    0.0000 </r>
      </set>
      <set comment="kpoint 119">
       <r>    5.4483    1.0000 </r>
       <r>    7.9233    1.0000 </r>
       <r>    8.1585    1.0000 </r>
       <r>    9.3375    1.0000 </r>
       <r>   22.7067    0.0000 </r>
       <r>   23.3702    0.0000 </r>
       <r>   27.2758    0.0000 </r>
       <r>   29.4926    0.0000 </r>
      </set>
      <set comment="kpoint 120">
       <r>    6.5309    1.0000 </r>
       <r>    6.8613    1.0000 </r>
       <r>    7.7527    1.0000 </r>
       <r>    9.4116    1.0000 </r>
       <r>   23.4283    0.0000 </r>
       <r>   25.2725    0.0000 </r>
       <r>   26.1141    0.0000 </r>
       <r>   27.9096    0.0000 </r>
      </set>
     </set>
    </set>
   </array>
  </eigenvalues>
  <separator name="orbital magnetization" >
   <v name="MAGDIPOLOUT">      0.00000000      0.00000000      0.00000000</v>
  </separator>
  <dos>
   <i name="efermi">     10.17293421 </i>
   <total>
    <array>
     <dimension dim="1">gridpoints</dimension>
     <dimension dim="2">spin</dimension>
     <field>energy</field>
     <field>total</field>
     <field>integrated</field>
     <set>
      <set comment="spin 1">
       <r>    -6.3012     0.0000     0.0000 </r>
       <r>    -6.1527     0.0000     0.0000 </r>
       <r>    -6.0041     0.0000     0.0000 </r>
       <r>    -5.8556     0.0000     0.0000 </r>
       <r>    -5.7070     0.0000     0.0000 </r>
       <r>    -5.5585     0.0000     0.0000 </r>
       <r>    -5.4099     0.0000     0.0000 </r>
       <r>    -5.2614     0.0000     0.0000 </r>
       <r>    -5.1128     0.0000     0.0000 </r>
       <r>    -4.9643     0.0000     0.0000 </r>
       <r>    -4.8157     0.0000     0.0000 </r>
       <r>    -4.6671     0.0000     0.0000 </r>
       <r>    -4.5186     0.0000     0.0000 </r>
       <r>    -4.3700     0.0000     0.0000 </r>
       <r>    -4.2215     0.0042     0.0006 </r>
       <r>    -4.0729     0.0502     0.0081 </r>
       <r>    -3.9244     0.0324     0.0129 </r>
       <r>    -3.7758     0.1031     0.0282 </r>
       <r>    -3.6273     0.0482     0.0354 </r>
       <r>    -3.4787     0.0489     0.0426 </r>
       <r>    -3.3302     0.1633     0.0669 </r>
       <r>    -3.1816     0.0947     0.0810 </r>
       <r>    -3.0331     0.1275     0.0999 </r>
       <r>    -2.8845     0.0323     0.1047 </r>
       <r>    -2.7359     0.2198     0.1373 </r>
       <r>    -2.5874     0.1248     0.1559 </r>
       <r>    -2.4388     0.1186     0.1735 </r>
       <r>    -2.2903     0.1525     0.1961 </r>
       <r>    -2.1417     0.0405     0.2022 </r>
       <r>    -1.9932     0.2688     0.2421 </r>
       <r>    -1.8446     0.1557     0.2652 </r>
       <r>    -1.6961     0.3039     0.3104 </r>
       <r>    -1.5475     0.0357     0.3157 </r>
       <r>    -1.3990     0.0896     0.3290 </r>
       <r>    -1.2504     0.2198     0.3616 </r>
       <r>    -1.1019     0.1647     0.3861 </r>
       <r>    -0.9533     0.2897     0.4291 </r>
       <r>    -0.8047     0.0903     0.4425 </r>
       <r>    -0.6562     0.4245     0.5056 </r>
       <r>    -0.5076     0.1134     0.5224 </r>
       <r>    -0.3591     0.1827     0.5496 </r>
       <r>    -0.2105     0.0664     0.5594 </r>
       <r>    -0.0620     0.1732     0.5852 </r>
       <r>     0.0866     0.3190     0.6326 </r>
       <r>     0.2351     0.2892     0.6755 </r>
       <r>     0.3837     0.3965     0.7344 </r>
       <r>     0.5322     0.0150     0.7367 </r>
       <r>     0.6808     0.3440     0.7878 </r>
       <r>     0.8293     0.1982     0.8172 </r>
       <r>     0.9779     0.2464     0.8538 </r>
       <r>     1.1265     0.0758     0.8651 </r>
       <r>     1.2750     0.1443     0.8865 </r>
       <r>     1.4236     0.5697     0.9711 </r>
       <r>     1.5721     0.1947     1.0001 </r>
       <r>     1.7207     0.4481     1.0666 </r>
       <r>     1.8692     0.1243     1.0851 </r>
       <r>     2.0178     0.2690     1.1251 </r>
       <r>     2.1663     0.1844     1.1525 </r>
       <r>     2.3149     0.4558     1.2202 </r>
       <r>     2.4634     0.1093     1.2364 </r>
       <r>     2.6120     0.2015     1.2663 </r>
       <r>     2.7605     0.3652     1.3206 </r>
       <r>     2.9091     0.2728     1.3611 </r>
       <r>     3.0577     0.4928     1.4343 </r>
       <r>     3.2062     0.1092     1.4505 </r>
       <r>     3.3548     0.6013     1.5399 </r>
       <r>     3.5033     0.2270     1.5736 </r>
       <r>     3.6519     0.1870     1.6014 </r>
       <r>     3.8004     0.0796     1.6132 </r>
       <r>     3.9490     0.2945     1.6569 </r>
       <r>     4.0975     0.2463     1.6935 </r>
       <r>     4.2461     0.4671     1.7629 </r>
       <r>     4.3946     0.5741     1.8482 </r>
       <r>     4.5432     0.1110     1.8647 </r>
       <r>     4.6917     0.3140     1.9113 </r>
       <r>     4.8403     0.4191     1.9736 </r>
       <r>     4.9889     0.4531     2.0409 </r>
       <r>     5.1374     0.1837     2.0682 </r>
       <r>     5.2860     0.3676     2.1228 </r>
       <r>     5.4345     0.4880     2.1953 </r>
       <r>     5.5831     0.2808     2.2370 </r>
       <r>     5.7316     0.1394     2.2577 </r>
       <r>     5.8802     0.1443     2.2791 </r>
       <r>     6.0287     0.4643     2.3481 </r>
       <r>     6.1773     0.4627     2.4168 </r>
       <r>     6.3258     0.5412     2.4972 </r>
       <r>     6.4744     0.2642     2.5365 </r>
       <r>     6.6229     0.1982     2.5659 </r>
       <r>     6.7715     0.4936     2.6393 </r>
       <r>     6.9201     0.4972     2.7131 </r>
       <r>     7.0686     0.3132     2.7596 </r>
       <r>     7.2172     0.2256     2.7932 </r>
       <r>     7.3657     0.7243     2.9008 </r>
       <r>     7.5143     0.1356     2.9209 </r>
       <r>     7.6628     0.1438     2.9423 </r>
       <r>     7.8114     0.1484     2.9643 </r>
       <r>     7.9599     0.4204     3.0267 </r>
       <r>     8.1085     0.5086     3.1023 </r>
       <r>     8.2570     0.8822     3.2334 </r>
       <r>     8.4056     0.4930     3.3066 </r>
       <r>     8.5542     0.1799     3.3333 </r>
       <r>     8.7027     0.2355     3.3683 </r>
       <r>     8.8513     0.5898     3.4559 </r>
       <r>     8.9998     0.2300     3.4901 </r>
       <r>     9.1484     0.2116     3.5215 </r>
       <r>     9.2969     0.5339     3.6008 </r>
       <r>     9.4455     0.4847     3.6728 </r>
       <r>     9.5940     0.5040     3.7477 </r>
       <r>     9.7426     0.0979     3.7622 </r>
       <r>     9.8911     0.5967     3.8509 </r>
       <r>    10.0397     0.3902     3.9088 </r>
       <r>    10.1882     0.6837     4.0104 </r>
       <r>    10.3368     0.4417     4.0760 </r>
       <r>    10.4854     0.2805     4.1177 </r>
       <r>    10.6339     0.0994     4.1325 </r>
       <r>    10.7825     0.7275     4.2405 </r>
       <r>    10.9310     0.6343     4.3348 </r>
       <r>    11.0796     0.3170     4.3819 </r>
       <r>    11.2281     0.5235     4.4596 </r>
       <r>    11.3767     0.5623     4.5432 </r>
       <r>    11.5252     0.2942     4.5869 </r>
       <r>    11.6738     0.1519     4.6094 </r>
       <r>    11.8223     0.5557     4.6920 </r>
       <r>    11.9709     0.2795     4.7335 </r>
       <r>    12.1194     0.8284     4.8566 </r>
       <r>    12.2680     0.5638     4.9403 </r>
       <r>    12.4166     0.5807     5.0266 </r>
       <r>    12.5651     0.4875     5.0990 </r>
       <r>    12.7137     0.2981     5.1433 </r>
       <r>    12.8622     0.4829     5.2150 </r>
       <r>    13.0108     0.4490     5.2817 </r>
       <r>    13.1593     0.7708     5.3962 </r>
       <r>    13.3079     0.6218     5.4886 </r>
       <r>    13.4564     0.3621     5.5424 </r>
       <r>    13.6050     0.4628     5.6112 </r>
       <r>    13.7535     0.5230     5.6888 </r>
       <r>    13.9021     0.6282     5.7822 </r>
       <r>    14.0506     0.6279     5.8754 </r>
       <r>    14.1992     0.3714     5.9306 </r>
       <r>    14.3478     0.5952     6.0190 </r>
       <r>    14.4963     0.4601     6.0874 </r>
       <r>    14.6449     0.8158     6.2086 </r>
       <r>    14.7934     0.4304     6.2725 </r>
       <r>    14.9420     0.3845     6.3296 </r>
       <r>    15.0905     0.5840     6.4164 </r>
       <r>    15.2391     0.1124     6.4331 </r>
       <r>    15.3876     0.3329     6.4825 </r>
       <r>    15.5362     0.6650     6.5813 </r>
       <r>    15.6847     0.5122     6.6574 </r>
       <r>    15.8333     0.8412     6.7824 </r>
       <r>    15.9818     0.3839     6.8394 </r>
       <r>    16.1304     0.5216     6.9169 </r>
       <r>    16.2790     0.2400     6.9525 </r>
       <r>    16.4275     0.5387     7.0326 </r>
       <r>    16.5761     0.3474     7.0842 </r>
       <r>    16.7246     0.3770     7.1402 </r>
       <r>    16.8732     0.4967     7.2140 </r>
       <r>    17.0217     0.6679     7.3132 </r>
       <r>    17.1703     0.5108     7.3891 </r>
       <r>    17.3188     0.3229     7.4371 </r>
       <r>    17.4674     0.4016     7.4967 </r>
       <r>    17.6159     0.7084     7.6020 </r>
       <r>    17.7645     0.4496     7.6687 </r>
       <r>    17.9130     0.3278     7.7174 </r>
       <r>    18.0616     0.4569     7.7853 </r>
       <r>    18.2102     0.9686     7.9292 </r>
       <r>    18.3587     0.7185     8.0359 </r>
       <r>    18.5073     0.3645     8.0901 </r>
       <r>    18.6558     0.3273     8.1387 </r>
       <r>    18.8044     0.6700     8.2382 </r>
       <r>    18.9529     0.4222     8.3010 </r>
       <r>    19.1015     0.4159     8.3627 </r>
       <r>    19.2500     0.7262     8.4706 </r>
       <r>    19.3986     0.8251     8.5932 </r>
       <r>    19.5471     0.1581     8.6167 </r>
       <r>    19.6957     0.3355     8.6665 </r>
       <r>    19.8442     0.3040     8.7117 </r>
       <r>    19.9928     0.7335     8.8206 </r>
       <r>    20.1414     0.7421     8.9309 </r>
       <r>    20.2899     0.7770     9.0463 </r>
       <r>    20.4385     0.6339     9.1405 </r>
       <r>    20.5870     0.5375     9.2203 </r>
       <r>    20.7356     0.5007     9.2947 </r>
       <r>    20.8841     0.2697     9.3348 </r>
       <r>    21.0327     1.0718     9.4940 </r>
       <r>    21.1812     0.6695     9.5935 </r>
       <r>    21.3298     0.5607     9.6767 </r>
       <r>    21.4783     0.6575     9.7744 </r>
       <r>    21.6269     0.2840     9.8166 </r>
       <r>    21.7754     0.8879     9.9485 </r>
       <r>    21.9240     0.6246    10.0413 </r>
       <r>    22.0726     0.2806    10.0830 </r>
       <r>    22.2211     0.3411    10.1336 </r>
       <r>    22.3697     0.5376    10.2135 </r>
       <r>    22.5182     0.6545    10.3107 </r>
       <r>    22.6668     0.5896    10.3983 </r>
       <r>    22.8153     0.3912    10.4564 </r>
       <r>    22.9639     0.4649    10.5255 </r>
       <r>    23.1124     0.8849    10.6570 </r>
       <r>    23.2610     0.7412    10.7671 </r>
       <r>    23.4095     1.0643    10.9252 </r>
       <r>    23.5581     0.7288    11.0335 </r>
       <r>    23.7067     0.8838    11.1647 </r>
       <r>    23.8552     0.2344    11.1996 </r>
       <r>    24.0038     0.4766    11.2704 </r>
       <r>    24.1523     0.6059    11.3604 </r>
       <r>    24.3009     0.3282    11.4091 </r>
       <r>    24.4494     0.9493    11.5502 </r>
       <r>    24.5980     0.5925    11.6382 </r>
       <r>    24.7465     0.4378    11.7032 </r>
       <r>    24.8951     0.4973    11.7771 </r>
       <r>    25.0436     0.3162    11.8241 </r>
       <r>    25.1922     1.1495    11.9948 </r>
       <r>    25.3407     1.2529    12.1810 </r>
       <r>    25.4893     0.4965    12.2547 </r>
       <r>    25.6379     0.4302    12.3186 </r>
       <r>    25.7864     0.7244    12.4262 </r>
       <r>    25.9350     0.7859    12.5430 </r>
       <r>    26.0835     0.5106    12.6188 </r>
       <r>    26.2321     0.6262    12.7118 </r>
       <r>    26.3806     0.6872    12.8139 </r>
       <r>    26.5292     0.8367    12.9382 </r>
       <r>    26.6777     0.5556    13.0208 </r>
       <r>    26.8263     0.1000    13.0356 </r>
       <r>    26.9748     0.5590    13.1187 </r>
       <r>    27.1234     0.5040    13.1936 </r>
       <r>    27.2719     0.8999    13.3272 </r>
       <r>    27.4205     0.7678    13.4413 </r>
       <r>    27.5691     0.8266    13.5641 </r>
       <r>    27.7176     0.6939    13.6672 </r>
       <r>    27.8662     0.1969    13.6964 </r>
       <r>    28.0147     0.5717    13.7814 </r>
       <r>    28.1633     1.0044    13.9306 </r>
       <r>    28.3118     0.5088    14.0062 </r>
       <r>    28.4604     0.3336    14.0557 </r>
       <r>    28.6089     0.0843    14.0682 </r>
       <r>    28.7575     0.3183    14.1155 </r>
       <r>    28.9060     0.9050    14.2500 </r>
       <r>    29.0546     0.4456    14.3162 </r>
       <r>    29.2031     0.4689    14.3858 </r>
       <r>    29.3517     0.3683    14.4405 </r>
       <r>    29.5003     0.4206    14.5030 </r>
       <r>    29.6488     1.0733    14.6625 </r>
       <r>    29.7974     0.7014    14.7667 </r>
       <r>    29.9459     0.6248    14.8595 </r>
       <r>    30.0945     0.4010    14.9190 </r>
       <r>    30.2430     0.4327    14.9833 </r>
       <r>    30.3916     0.1724    15.0089 </r>
       <r>    30.5401     0.4136    15.0704 </r>
       <r>    30.6887     0.5666    15.1546 </r>
       <r>    30.8372     0.3814    15.2112 </r>
       <r>    30.9858     0.2494    15.2483 </r>
       <r>    31.1343     0.3736    15.3038 </r>
       <r>    31.2829     0.5764    15.3894 </r>
       <r>    31.4315     0.3579    15.4426 </r>
       <r>    31.5800     0.1622    15.4667 </r>
       <r>    31.7286     0.0018    15.4669 </r>
       <r>    31.8771     0.4094    15.5277 </r>
       <r>    32.0257     0.3039    15.5729 </r>
       <r>    32.1742     0.0957    15.5871 </r>
       <r>    32.3228     0.1400    15.6079 </r>
       <r>    32.4713     0.1438    15.6293 </r>
       <r>    32.6199     0.1755    15.6553 </r>
       <r>    32.7684     0.3701    15.7103 </r>
       <r>    32.9170     0.2306    15.7446 </r>
       <r>    33.0655     0.0609    15.7536 </r>
       <r>    33.2141     0.1256    15.7723 </r>
       <r>    33.3627     0.2780    15.8136 </r>
       <r>    33.5112     0.1171    15.8310 </r>
       <r>    33.6598     0.1806    15.8578 </r>
       <r>    33.8083     0.1606    15.8816 </r>
       <r>    33.9569     0.0548    15.8898 </r>
       <r>    34.1054     0.0019    15.8901 </r>
       <r>    34.2540     0.1839    15.9174 </r>
       <r>    34.4025     0.0486    15.9246 </r>
       <r>    34.5511     0.0050    15.9253 </r>
       <r>    34.6996     0.0765    15.9367 </r>
       <r>    34.8482     0.0432    15.9431 </r>
       <r>    34.9967     0.1112    15.9596 </r>
       <r>    35.1453     0.1042    15.9751 </r>
       <r>    35.2939     0.0422    15.9814 </r>
       <r>    35.4424     0.0536    15.9893 </r>
       <r>    35.5910     0.0000    15.9893 </r>
       <r>    35.7395     0.0000    15.9893 </r>
       <r>    35.8881     0.0021    15.9896 </r>
       <r>    36.0366     0.0455    15.9964 </r>
       <r>    36.1852     0.0018    15.9967 </r>
       <r>    36.3337     0.0223    16.0000 </r>
       <r>    36.4823     0.0001    16.0000 </r>
       <r>    36.6308     0.0000    16.0000 </r>
       <r>    36.7794     0.0000    16.0000 </r>
       <r>    36.9279     0.0000    16.0000 </r>
       <r>    37.0765     0.0000    16.0000 </r>
       <r>    37.2251     0.0000    16.0000 </r>
       <r>    37.3736     0.0000    16.0000 </r>
       <r>    37.5222     0.0000    16.0000 </r>
       <r>    37.6707     0.0000    16.0000 </r>
       <r>    37.8193     0.0000    16.0000 </r>
       <r>    37.9678     0.0000    16.0000 </r>
       <r>    38.1164     0.0000    16.0000 </r>
       <r>    38.2649     0.0000    16.0000 </r>
      </set>
     </set>
    </array>
   </total>
  </dos>
 </calculation>
 <structure name="finalpos" >
  <crystal>
   <varray name="basis" >
    <v>       2.36715977      -0.00000000       1.36667918 </v>
    <v>       0.78905326       2.23177940       1.36667918 </v>
    <v>      -0.00000001      -0.00000001       2.73336039 </v>
   </varray>
   <i name="volume">     14.44028406 </i>
   <varray name="rec_basis" >
    <v>       0.42244719      -0.14935765       0.00000000 </v>
    <v>       0.00000000       0.44807296       0.00000000 </v>
    <v>      -0.21122344      -0.14935754       0.36585004 </v>
   </varray>
  </crystal>
  <varray name="positions" >
   <v>      -0.00000000       0.00000000      -0.00000000 </v>
  </varray>
 </structure>
</modeling>
