 running on    4 total cores
 distrk:  each k-point on    4 cores,    1 groups
 distr:  one band on    1 cores,    4 groups
 vasp.6.2.0 18Jan21 (build Aug 12 2022 13:00:08) complex                        
  
 POSCAR found type information on POSCAR Si
 POSCAR found :  1 types and       1 ions
 scaLAPACK will be used
 LDA part: xc-table for Pade appr. of Perdew
 POSCAR, INCAR and KPOINTS ok, starting setup
 FFT: planning ...
 WAVECAR not read
 entering main loop
       N       E                     dE             d eps       ncg     rms          rms(c)
DAV:   1    -0.221651868778E+01   -0.22165E+01   -0.19040E+03  2032   0.407E+02
DAV:   2    -0.488837921835E+01   -0.26719E+01   -0.25502E+01  2904   0.323E+01
DAV:   3    -0.490310072435E+01   -0.14722E-01   -0.14719E-01  2280   0.253E+00
DAV:   4    -0.490311394785E+01   -0.13223E-04   -0.13224E-04  3152   0.824E-02
DAV:   5    -0.490311394874E+01   -0.89410E-09   -0.11661E-08  2272   0.509E-04    0.280E+00
DAV:   6    -0.488951787599E+01    0.13596E-01   -0.39117E-03  2248   0.276E-01    0.154E+00
DAV:   7    -0.488171489346E+01    0.78030E-02   -0.79139E-03  2360   0.392E-01    0.136E-01
DAV:   8    -0.488167581950E+01    0.39074E-04   -0.27146E-05  2896   0.424E-02    0.131E-02
DAV:   9    -0.488167608445E+01   -0.26495E-06   -0.33808E-07  2520   0.337E-03
   1 F= -.48816761E+01 E0= -.48812815E+01  d E =-.488168E+01
 curvature:   0.00 expect dE= 0.000E+00 dE for cont linesearch  0.000E+00
 trial: gam= 0.00000 g(F)=  0.122E-66 g(S)=  0.529E-02 ort = 0.000E+00 (trialstep = 0.100E+01)
 search vector abs. value=  0.529E-02
 bond charge predicted
       N       E                     dE             d eps       ncg     rms          rms(c)
DAV:   1    -0.488547434041E+01   -0.37985E-02   -0.82011E-02  2040   0.115E+00    0.273E-01
DAV:   2    -0.488457059820E+01    0.90374E-03   -0.54303E-04  2664   0.191E-01    0.155E-01
DAV:   3    -0.488404052540E+01    0.53007E-03   -0.59846E-04  2080   0.105E-01    0.456E-02
DAV:   4    -0.488403975329E+01    0.77211E-06   -0.12856E-06  2864   0.105E-02    0.391E-02
DAV:   5    -0.488403630510E+01    0.34482E-05   -0.24216E-07  1512   0.359E-03    0.897E-03
DAV:   6    -0.488403655543E+01   -0.25033E-06   -0.10147E-08  1120   0.940E-04
   2 F= -.48840366E+01 E0= -.48836245E+01  d E =-.236047E-02
 trial-energy change:   -0.002360  1 .order   -0.002403   -0.005287    0.000481
 step:   0.9131(harm=  0.9167)  dis= 0.00000  next Energy=    -4.884057 (dE=-0.238E-02)
 bond charge predicted
       N       E                     dE             d eps       ncg     rms          rms(c)
DAV:   1    -0.488406799262E+01   -0.31688E-04   -0.62245E-04  2056   0.101E-01    0.232E-02
DAV:   2    -0.488406117490E+01    0.68177E-05   -0.41109E-06  2640   0.167E-02    0.131E-02
DAV:   3    -0.488405739042E+01    0.37845E-05   -0.45608E-06  2080   0.917E-03    0.409E-03
DAV:   4    -0.488405741824E+01   -0.27824E-07   -0.92207E-09  1032   0.914E-04    0.349E-03
DAV:   5    -0.488405758870E+01   -0.17045E-06   -0.27965E-09  1000   0.419E-04    0.518E-04
DAV:   6    -0.488405757037E+01    0.18330E-07   -0.12564E-10  1016   0.106E-04
   3 F= -.48840576E+01 E0= -.48836438E+01  d E =-.238149E-02
 curvature:  -0.46 expect dE=-0.191E-08 dE for cont linesearch -0.191E-08
 trial: gam=-0.00089 g(F)=  0.328E-65 g(S)=  0.418E-08 ort = 0.470E-05 (trialstep = 0.983E+00)
 search vector abs. value=  0.100E-09
 reached required accuracy - stopping structural energy minimisation
