   1   1   0   0
  0.1408159E+02  0.2710538E-09  0.2710538E-09  0.2710538E-09  0.5000000E-15
  1.000000000000000E-004
  CAR 
 unknown system                          
     38.26292524     -6.30139614  301     10.17206827      1.00000000
     -6.301  0.0000E+00  0.0000E+00
     -6.153  0.0000E+00  0.0000E+00
     -6.004  0.0000E+00  0.0000E+00
     -5.856  0.0000E+00  0.0000E+00
     -5.707  0.0000E+00  0.0000E+00
     -5.559  0.0000E+00  0.0000E+00
     -5.410  0.0000E+00  0.0000E+00
     -5.262  0.0000E+00  0.0000E+00
     -5.113  0.0000E+00  0.0000E+00
     -4.964  0.0000E+00  0.0000E+00
     -4.816  0.0000E+00  0.0000E+00
     -4.667  0.0000E+00  0.0000E+00
     -4.519  0.1234E-15  0.1833E-16
     -4.370  0.1496E-06  0.2223E-07
     -4.222  0.4249E-04  0.6334E-05
     -4.073  0.5016E-03  0.8084E-04
     -3.925  0.3239E-03  0.1290E-03
     -3.776  0.1031E-02  0.2821E-03
     -3.628  0.4824E-03  0.3537E-03
     -3.479  0.4892E-03  0.4264E-03
     -3.330  0.1633E-02  0.6690E-03
     -3.182  0.9467E-03  0.8097E-03
     -3.033  0.1275E-02  0.9990E-03
     -2.885  0.3231E-03  0.1047E-02
     -2.736  0.2198E-02  0.1374E-02
     -2.588  0.1247E-02  0.1559E-02
     -2.439  0.1186E-02  0.1735E-02
     -2.291  0.1524E-02  0.1961E-02
     -2.142  0.4048E-03  0.2022E-02
     -1.994  0.2688E-02  0.2421E-02
     -1.845  0.1557E-02  0.2652E-02
     -1.696  0.3039E-02  0.3104E-02
     -1.548  0.3563E-03  0.3157E-02
     -1.399  0.8968E-03  0.3290E-02
     -1.251  0.2197E-02  0.3616E-02
     -1.102  0.1647E-02  0.3861E-02
     -0.954  0.2897E-02  0.4291E-02
     -0.805  0.9028E-03  0.4425E-02
     -0.657  0.4246E-02  0.5056E-02
     -0.508  0.1134E-02  0.5224E-02
     -0.359  0.1828E-02  0.5496E-02
     -0.211  0.6633E-03  0.5594E-02
     -0.062  0.1733E-02  0.5852E-02
      0.086  0.3190E-02  0.6326E-02
      0.235  0.2893E-02  0.6755E-02
      0.383  0.3965E-02  0.7344E-02
      0.532  0.1500E-03  0.7367E-02
      0.680  0.3441E-02  0.7878E-02
      0.829  0.1981E-02  0.8172E-02
      0.977  0.2464E-02  0.8538E-02
      1.126  0.7578E-03  0.8651E-02
      1.275  0.1445E-02  0.8865E-02
      1.423  0.5696E-02  0.9711E-02
      1.572  0.1947E-02  0.1000E-01
      1.720  0.4481E-02  0.1067E-01
      1.869  0.1243E-02  0.1085E-01
      2.017  0.2690E-02  0.1125E-01
      2.166  0.1845E-02  0.1152E-01
      2.314  0.4558E-02  0.1220E-01
      2.463  0.1091E-02  0.1236E-01
      2.611  0.2016E-02  0.1266E-01
      2.760  0.3651E-02  0.1321E-01
      2.909  0.2730E-02  0.1361E-01
      3.057  0.4926E-02  0.1434E-01
      3.206  0.1094E-02  0.1451E-01
      3.354  0.6013E-02  0.1540E-01
      3.503  0.2270E-02  0.1574E-01
      3.651  0.1870E-02  0.1601E-01
      3.800  0.7954E-03  0.1613E-01
      3.948  0.2949E-02  0.1657E-01
      4.097  0.2459E-02  0.1694E-01
      4.245  0.4676E-02  0.1763E-01
      4.394  0.5738E-02  0.1848E-01
      4.543  0.1111E-02  0.1865E-01
      4.691  0.3139E-02  0.1911E-01
      4.840  0.4191E-02  0.1974E-01
      4.988  0.4531E-02  0.2041E-01
      5.137  0.1837E-02  0.2068E-01
      5.285  0.3676E-02  0.2123E-01
      5.434  0.4880E-02  0.2195E-01
      5.582  0.2810E-02  0.2237E-01
      5.731  0.1393E-02  0.2258E-01
      5.880  0.1443E-02  0.2279E-01
      6.028  0.4644E-02  0.2348E-01
      6.177  0.4626E-02  0.2417E-01
      6.325  0.5414E-02  0.2497E-01
      6.474  0.2641E-02  0.2536E-01
      6.622  0.1984E-02  0.2566E-01
      6.771  0.4936E-02  0.2639E-01
      6.919  0.4972E-02  0.2713E-01
      7.068  0.3130E-02  0.2760E-01
      7.216  0.2259E-02  0.2793E-01
      7.365  0.7242E-02  0.2901E-01
      7.514  0.1356E-02  0.2921E-01
      7.662  0.1437E-02  0.2942E-01
      7.811  0.1484E-02  0.2964E-01
      7.959  0.4206E-02  0.3027E-01
      8.108  0.5084E-02  0.3102E-01
      8.256  0.8828E-02  0.3233E-01
      8.405  0.4925E-02  0.3307E-01
      8.553  0.1798E-02  0.3333E-01
      8.702  0.2356E-02  0.3368E-01
      8.850  0.5898E-02  0.3456E-01
      8.999  0.2300E-02  0.3490E-01
      9.148  0.2115E-02  0.3522E-01
      9.296  0.5345E-02  0.3601E-01
      9.445  0.4843E-02  0.3673E-01
      9.593  0.5041E-02  0.3748E-01
      9.742  0.9777E-03  0.3762E-01
      9.890  0.5970E-02  0.3851E-01
     10.039  0.3900E-02  0.3909E-01
     10.187  0.6837E-02  0.4010E-01
     10.336  0.4416E-02  0.4076E-01
     10.484  0.2806E-02  0.4118E-01
     10.633  0.9962E-03  0.4132E-01
     10.782  0.7277E-02  0.4241E-01
     10.930  0.6342E-02  0.4335E-01
     11.079  0.3169E-02  0.4382E-01
     11.227  0.5236E-02  0.4460E-01
     11.376  0.5623E-02  0.4543E-01
     11.524  0.2944E-02  0.4587E-01
     11.673  0.1516E-02  0.4609E-01
     11.821  0.5560E-02  0.4692E-01
     11.970  0.2794E-02  0.4734E-01
     12.119  0.8290E-02  0.4857E-01
     12.267  0.5633E-02  0.4940E-01
     12.416  0.5811E-02  0.5027E-01
     12.564  0.4871E-02  0.5099E-01
     12.713  0.2984E-02  0.5143E-01
     12.861  0.4827E-02  0.5215E-01
     13.010  0.4495E-02  0.5282E-01
     13.158  0.7706E-02  0.5396E-01
     13.307  0.6216E-02  0.5489E-01
     13.455  0.3622E-02  0.5542E-01
     13.604  0.4631E-02  0.5611E-01
     13.753  0.5229E-02  0.5689E-01
     13.901  0.6280E-02  0.5782E-01
     14.050  0.6283E-02  0.5876E-01
     14.198  0.3714E-02  0.5931E-01
     14.347  0.5951E-02  0.6019E-01
     14.495  0.4604E-02  0.6087E-01
     14.644  0.8155E-02  0.6209E-01
     14.792  0.4302E-02  0.6273E-01
     14.941  0.3846E-02  0.6330E-01
     15.089  0.5839E-02  0.6416E-01
     15.238  0.1125E-02  0.6433E-01
     15.387  0.3333E-02  0.6483E-01
     15.535  0.6648E-02  0.6581E-01
     15.684  0.5123E-02  0.6657E-01
     15.832  0.8412E-02  0.6782E-01
     15.981  0.3837E-02  0.6839E-01
     16.129  0.5217E-02  0.6917E-01
     16.278  0.2398E-02  0.6953E-01
     16.426  0.5390E-02  0.7033E-01
     16.575  0.3474E-02  0.7084E-01
     16.724  0.3767E-02  0.7140E-01
     16.872  0.4971E-02  0.7214E-01
     17.021  0.6679E-02  0.7313E-01
     17.169  0.5106E-02  0.7389E-01
     17.318  0.3231E-02  0.7437E-01
     17.466  0.4015E-02  0.7497E-01
     17.615  0.7086E-02  0.7602E-01
     17.763  0.4496E-02  0.7669E-01
     17.912  0.3275E-02  0.7717E-01
     18.060  0.4569E-02  0.7785E-01
     18.209  0.9688E-02  0.7929E-01
     18.358  0.7190E-02  0.8036E-01
     18.506  0.3639E-02  0.8090E-01
     18.655  0.3274E-02  0.8139E-01
     18.803  0.6704E-02  0.8238E-01
     18.952  0.4216E-02  0.8301E-01
     19.100  0.4160E-02  0.8363E-01
     19.249  0.7274E-02  0.8471E-01
     19.397  0.8238E-02  0.8593E-01
     19.546  0.1581E-02  0.8617E-01
     19.694  0.3357E-02  0.8667E-01
     19.843  0.3043E-02  0.8712E-01
     19.992  0.7332E-02  0.8821E-01
     20.140  0.7425E-02  0.8931E-01
     20.289  0.7770E-02  0.9046E-01
     20.437  0.6336E-02  0.9140E-01
     20.586  0.5376E-02  0.9220E-01
     20.734  0.5015E-02  0.9295E-01
     20.883  0.2690E-02  0.9335E-01
     21.031  0.1072E-01  0.9494E-01
     21.180  0.6695E-02  0.9593E-01
     21.328  0.5604E-02  0.9677E-01
     21.477  0.6580E-02  0.9774E-01
     21.626  0.2837E-02  0.9817E-01
     21.774  0.8877E-02  0.9948E-01
     21.923  0.6250E-02  0.1004E+00
     22.071  0.2806E-02  0.1008E+00
     22.220  0.3409E-02  0.1013E+00
     22.368  0.5375E-02  0.1021E+00
     22.517  0.6547E-02  0.1031E+00
     22.665  0.5895E-02  0.1040E+00
     22.814  0.3915E-02  0.1046E+00
     22.963  0.4650E-02  0.1053E+00
     23.111  0.8843E-02  0.1066E+00
     23.260  0.7418E-02  0.1077E+00
     23.408  0.1065E-01  0.1093E+00
     23.557  0.7283E-02  0.1103E+00
     23.705  0.8840E-02  0.1116E+00
     23.854  0.2343E-02  0.1120E+00
     24.002  0.4772E-02  0.1127E+00
     24.151  0.6056E-02  0.1136E+00
     24.299  0.3279E-02  0.1141E+00
     24.448  0.9496E-02  0.1155E+00
     24.597  0.5925E-02  0.1164E+00
     24.745  0.4380E-02  0.1170E+00
     24.894  0.4971E-02  0.1178E+00
     25.042  0.3162E-02  0.1182E+00
     25.191  0.1150E-01  0.1199E+00
     25.339  0.1253E-01  0.1218E+00
     25.488  0.4964E-02  0.1225E+00
     25.636  0.4304E-02  0.1232E+00
     25.785  0.7246E-02  0.1243E+00
     25.933  0.7854E-02  0.1254E+00
     26.082  0.5108E-02  0.1262E+00
     26.231  0.6262E-02  0.1271E+00
     26.379  0.6870E-02  0.1281E+00
     26.528  0.8369E-02  0.1294E+00
     26.676  0.5557E-02  0.1302E+00
     26.825  0.1001E-02  0.1304E+00
     26.973  0.5589E-02  0.1312E+00
     27.122  0.5043E-02  0.1319E+00
     27.270  0.8996E-02  0.1333E+00
     27.419  0.7682E-02  0.1344E+00
     27.567  0.8266E-02  0.1356E+00
     27.716  0.6941E-02  0.1367E+00
     27.865  0.1964E-02  0.1370E+00
     28.013  0.5720E-02  0.1378E+00
     28.162  0.1004E-01  0.1393E+00
     28.310  0.5088E-02  0.1401E+00
     28.459  0.3339E-02  0.1406E+00
     28.607  0.8427E-03  0.1407E+00
     28.756  0.3183E-02  0.1412E+00
     28.904  0.9051E-02  0.1425E+00
     29.053  0.4452E-02  0.1432E+00
     29.202  0.4693E-02  0.1439E+00
     29.350  0.3682E-02  0.1444E+00
     29.499  0.4206E-02  0.1450E+00
     29.647  0.1073E-01  0.1466E+00
     29.796  0.7013E-02  0.1477E+00
     29.944  0.6251E-02  0.1486E+00
     30.093  0.4009E-02  0.1492E+00
     30.241  0.4330E-02  0.1498E+00
     30.390  0.1724E-02  0.1501E+00
     30.538  0.4136E-02  0.1507E+00
     30.687  0.5667E-02  0.1515E+00
     30.836  0.3815E-02  0.1521E+00
     30.984  0.2493E-02  0.1525E+00
     31.133  0.3739E-02  0.1530E+00
     31.281  0.5761E-02  0.1539E+00
     31.430  0.3581E-02  0.1544E+00
     31.578  0.1621E-02  0.1547E+00
     31.727  0.1785E-04  0.1547E+00
     31.875  0.4094E-02  0.1553E+00
     32.024  0.3038E-02  0.1557E+00
     32.172  0.9566E-03  0.1559E+00
     32.321  0.1400E-02  0.1561E+00
     32.470  0.1439E-02  0.1563E+00
     32.618  0.1755E-02  0.1566E+00
     32.767  0.3700E-02  0.1571E+00
     32.915  0.2306E-02  0.1574E+00
     33.064  0.6095E-03  0.1575E+00
     33.212  0.1254E-02  0.1577E+00
     33.361  0.2781E-02  0.1581E+00
     33.509  0.1171E-02  0.1583E+00
     33.658  0.1806E-02  0.1586E+00
     33.806  0.1606E-02  0.1588E+00
     33.955  0.5479E-03  0.1589E+00
     34.104  0.1930E-04  0.1589E+00
     34.252  0.1839E-02  0.1592E+00
     34.401  0.4858E-03  0.1592E+00
     34.549  0.5000E-04  0.1593E+00
     34.698  0.7646E-03  0.1594E+00
     34.846  0.4322E-03  0.1594E+00
     34.995  0.1109E-02  0.1596E+00
     35.143  0.1045E-02  0.1598E+00
     35.292  0.4217E-03  0.1598E+00
     35.441  0.5358E-03  0.1599E+00
     35.589  0.2436E-07  0.1599E+00
     35.738  0.9491E-13  0.1599E+00
     35.886  0.9572E-05  0.1599E+00
     36.035  0.4615E-03  0.1600E+00
     36.183  0.2274E-04  0.1600E+00
     36.332  0.2233E-03  0.1600E+00
     36.480  0.8978E-06  0.1600E+00
     36.629  0.7404E-15  0.1600E+00
     36.777  0.0000E+00  0.1600E+00
     36.926  0.0000E+00  0.1600E+00
     37.075  0.0000E+00  0.1600E+00
     37.223  0.0000E+00  0.1600E+00
     37.372  0.0000E+00  0.1600E+00
     37.520  0.0000E+00  0.1600E+00
     37.669  0.0000E+00  0.1600E+00
     37.817  0.0000E+00  0.1600E+00
     37.966  0.0000E+00  0.1600E+00
     38.114  0.0000E+00  0.1600E+00
     38.263  0.0000E+00  0.1600E+00
