    1    1  100    1
  0.1408159E+02  0.2710538E-09  0.2710538E-09  0.2710538E-09  0.5000000E-15
  1.000000000000000E-004
  CAR 
 unknown system                          
      4    120      8
 
  0.0000000E+00  0.0000000E+00  0.0000000E+00  0.2962963E-03
    1       -4.275745   1.000000
    2       21.359523   0.000000
    3       21.359531   0.000000
    4       21.359539   0.000000
    5       22.132671   0.000000
    6       22.132680   0.000000
    7       22.132689   0.000000
    8       27.474042   0.000000
 
  0.6666667E-01 -0.6938894E-17  0.0000000E+00  0.2370370E-02
    1       -4.146110   1.000000
    2       19.204944   0.000000
    3       20.686319   0.000000
    4       20.686331   0.000000
    5       22.964760   0.000000
    6       22.964774   0.000000
    7       23.184777   0.000000
    8       28.356894   0.000000
 
  0.1333333E+00  0.0000000E+00  0.0000000E+00  0.2370370E-02
    1       -3.757714   1.000000
    2       16.375533   0.000000
    3       19.923877   0.000000
    4       19.923888   0.000000
    5       23.471421   0.000000
    6       24.057779   0.000000
    7       24.057794   0.000000
    8       27.326385   0.000000
 
  0.2000000E+00  0.0000000E+00  0.0000000E+00  0.2370370E-02
    1       -3.112143   1.000000
    2       13.545782   0.000000
    3       19.346801   0.000000
    4       19.346811   0.000000
    5       23.401528   0.000000
    6       24.280084   0.000000
    7       24.280095   0.000000
    8       27.304800   0.000000
 
  0.2666667E+00  0.0000000E+00  0.0000000E+00  0.2370370E-02
    1       -2.212094   1.000000
    2       10.842976   0.000000
    3       18.967864   0.000000
    4       18.967873   0.000000
    5       23.304659   0.000000
    6       23.388311   0.000000
    7       23.388320   0.000000
    8       28.700906   0.000000
 
  0.3333333E+00  0.0000000E+00  0.0000000E+00  0.2370370E-02
    1       -1.061667   1.000000
    2        8.318466   1.000000
    3       18.775697   0.000000
    4       18.775704   0.000000
    5       22.381887   0.000000
    6       22.381897   0.000000
    7       23.291776   0.000000
    8       27.536727   0.000000
 
  0.4000000E+00 -0.2775558E-16  0.0000000E+00  0.2370370E-02
    1        0.332044   1.000000
    2        6.000567   1.000000
    3       18.734748   0.000000
    4       18.734754   0.000000
    5       21.576786   0.000000
    6       21.576798   0.000000
    7       23.377881   0.000000
    8       26.616227   0.000000
 
  0.4666667E+00  0.0000000E+00  0.0000000E+00  0.2370370E-02
    1        1.939409   1.000000
    2        3.929046   1.000000
    3       18.766215   0.000000
    4       18.766219   0.000000
    5       21.113642   0.000000
    6       21.113655   0.000000
    7       23.489409   0.000000
    8       26.074794   0.000000
 
  0.6666667E-01  0.6666667E-01  0.0000000E+00  0.1777778E-02
    1       -4.102910   1.000000
    2       19.682431   0.000000
    3       19.682432   0.000000
    4       20.956586   0.000000
    5       21.214719   0.000000
    6       24.026146   0.000000
    7       24.026147   0.000000
    8       27.237515   0.000000
 
  0.1333333E+00  0.6666667E-01  0.0000000E+00  0.7111111E-02
    1       -3.800804   1.000000
    2       17.382979   0.000000
    3       18.841191   0.000000
    4       20.395561   0.000000
    5       21.760666   0.000000
    6       24.744233   0.000000
    7       25.175085   0.000000
    8       25.768642   0.000000
 
  0.2000000E+00  0.6666667E-01  0.0000000E+00  0.7111111E-02
    1       -3.241013   1.000000
    2       14.568350   0.000000
    3       18.205069   0.000000
    4       19.763631   0.000000
    5       22.449337   0.000000
    6       24.542265   0.000000
    7       25.297291   0.000000
    8       25.787217   0.000000
 
  0.2666667E+00  0.6666667E-01  0.0000000E+00  0.7111111E-02
    1       -2.425841   1.000000
    2       11.826018   0.000000
    3       17.783610   0.000000
    4       19.252783   0.000000
    5       21.884477   0.000000
    6       24.380157   0.000000
    7       25.133275   0.000000
    8       26.330034   0.000000
 
  0.3333333E+00  0.6666667E-01  0.0000000E+00  0.7111111E-02
    1       -1.358853   1.000000
    2        9.243155   1.000000
    3       17.577898   0.000000
    4       18.818266   0.000000
    5       21.012904   0.000000
    6       24.097444   0.000000
    7       24.356147   0.000000
    8       27.924914   0.000000
 
  0.4000000E+00  0.6666667E-01  0.0000000E+00  0.7111111E-02
    1       -0.045717   1.000000
    2        6.856420   1.000000
    3       17.584213   0.000000
    4       18.345850   0.000000
    5       20.493375   0.000000
    6       23.139790   0.000000
    7       24.374518   0.000000
    8       27.834518   0.000000
 
  0.4666667E+00  0.6666667E-01  0.0000000E+00  0.7111111E-02
    1        1.498865   1.000000
    2        4.694589   1.000000
    3       17.792843   0.000000
    4       17.807062   0.000000
    5       20.454141   0.000000
    6       22.373558   0.000000
    7       24.398181   0.000000
    8       27.295711   0.000000
 
 -0.4666667E+00  0.6666667E-01  0.0000000E+00  0.7111111E-02
    1        2.569220   1.000000
    2        3.469505   1.000000
    3       17.318248   0.000000
    4       18.182817   0.000000
    5       20.803879   0.000000
    6       21.850881   0.000000
    7       24.335806   0.000000
    8       27.207375   0.000000
 
 -0.4000000E+00  0.6666667E-01  0.0000000E+00  0.7111111E-02
    1        0.960592   1.000000
    2        5.387275   1.000000
    3       16.976582   0.000000
    4       18.709813   0.000000
    5       21.449420   0.000000
    6       21.624271   0.000000
    7       24.186581   0.000000
    8       27.602538   0.000000
 
 -0.3333333E+00  0.6666667E-01  0.0000000E+00  0.7111111E-02
    1       -0.510275   1.000000
    2        7.628281   1.000000
    3       16.826268   0.000000
    4       19.291735   0.000000
    5       21.768802   0.000000
    6       22.336784   0.000000
    7       24.053645   0.000000
    8       28.333335   0.000000
 
 -0.2666667E+00  0.6666667E-01  0.0000000E+00  0.7111111E-02
    1       -1.742231   1.000000
    2       10.082931   0.994152
    3       16.885732   0.000000
    4       19.844855   0.000000
    5       22.332792   0.000000
    6       23.414491   0.000000
    7       24.002374   0.000000
    8       27.985333   0.000000
 
 -0.2000000E+00  0.6666667E-01  0.0000000E+00  0.7111111E-02
    1       -2.725774   1.000000
    2       12.723197   0.000000
    3       17.162241   0.000000
    4       20.384182   0.000000
    5       23.138775   0.000000
    6       24.014162   0.000000
    7       24.561678   0.000000
    8       26.309948   0.000000
 
 -0.1333333E+00  0.6666667E-01  0.0000000E+00  0.7111111E-02
    1       -3.456147   1.000000
    2       15.501720   0.000000
    3       17.657785   0.000000
    4       20.977719   0.000000
    5       23.246549   0.000000
    6       23.968009   0.000000
    7       25.182096   0.000000
    8       25.875463   0.000000
 
 -0.6666667E-01  0.6666667E-01  0.0000000E+00  0.3555556E-02
    1       -3.930242   1.000000
    2       18.204705   0.000000
    3       18.463815   0.000000
    4       21.439513   0.000000
    5       22.466929   0.000000
    6       23.605489   0.000000
    7       24.487847   0.000000
    8       26.993930   0.000000
 
  0.1333333E+00  0.1333333E+00  0.0000000E+00  0.1777778E-02
    1       -3.585228   1.000000
    2       17.927339   0.000000
    3       17.927340   0.000000
    4       19.565186   0.000000
    5       19.885172   0.000000
    6       23.963275   0.000000
    7       26.399815   0.000000
    8       26.399816   0.000000
 
  0.2000000E+00  0.1333333E+00  0.0000000E+00  0.7111111E-02
    1       -3.111859   1.000000
    2       15.733422   0.000000
    3       17.220224   0.000000
    4       19.030329   0.000000
    5       20.137850   0.000000
    6       22.654087   0.000000
    7       27.116459   0.000000
    8       27.357634   0.000000
 
  0.2666667E+00  0.1333333E+00  0.0000000E+00  0.7111111E-02
    1       -2.382638   1.000000
    2       13.014022   0.000000
    3       16.730632   0.000000
    4       18.317258   0.000000
    5       20.026612   0.000000
    6       23.009210   0.000000
    7       27.090530   0.000000
    8       27.293157   0.000000
 
  0.3333333E+00  0.1333333E+00  0.0000000E+00  0.7111111E-02
    1       -1.400646   1.000000
    2       10.393391   0.000000
    3       16.461815   0.000000
    4       17.495535   0.000000
    5       19.426578   0.000000
    6       24.488179   0.000000
    7       26.131997   0.000000
    8       27.453795   0.000000
 
  0.4000000E+00  0.1333333E+00  0.0000000E+00  0.7111111E-02
    1       -0.170627   1.000000
    2        7.948629   1.000000
    3       16.413793   0.000000
    4       16.586467   0.000000
    5       19.181029   0.000000
    6       25.146586   0.000000
    7       25.749652   0.000000
    8       28.147629   0.000000
 
  0.4666667E+00  0.1333333E+00  0.0000000E+00  0.7111111E-02
    1        1.298059   1.000000
    2        5.713394   1.000000
    3       15.744067   0.000000
    4       16.584353   0.000000
    5       19.286720   0.000000
    6       24.302828   0.000000
    7       26.128495   0.000000
    8       29.651968   0.000000
 
 -0.4666667E+00  0.1333333E+00  0.0000000E+00  0.7111111E-02
    1        2.907872   1.000000
    2        3.795395   1.000000
    3       15.064935   0.000000
    4       16.968525   0.000000
    5       19.679869   0.000000
    6       23.656908   0.000000
    7       26.038407   0.000000
    8       29.784644   0.000000
 
 -0.4000000E+00  0.1333333E+00  0.0000000E+00  0.7111111E-02
    1        1.835704   1.000000
    2        5.020903   1.000000
    3       14.589035   0.000000
    4       17.556670   0.000000
    5       20.328108   0.000000
    6       23.236438   0.000000
    7       25.806480   0.000000
    8       30.088213   0.000000
 
 -0.3333333E+00  0.1333333E+00  0.0000000E+00  0.7111111E-02
    1        0.293016   1.000000
    2        7.176245   1.000000
    3       14.333677   0.000000
    4       18.329935   0.000000
    5       21.209809   0.000000
    6       23.061908   0.000000
    7       25.575706   0.000000
    8       29.619931   0.000000
 
 -0.2666667E+00  0.1333333E+00  0.0000000E+00  0.7111111E-02
    1       -1.018127   1.000000
    2        9.550003   1.000000
    3       14.308235   0.000000
    4       19.250370   0.000000
    5       22.298738   0.000000
    6       23.153403   0.000000
    7       25.387402   0.000000
    8       27.463231   0.000000
 
 -0.2000000E+00  0.1333333E+00  0.0000000E+00  0.7111111E-02
    1       -2.083421   1.000000
    2       12.100423   0.000000
    3       14.525685   0.000000
    4       20.237406   0.000000
    5       23.498239   0.000000
    6       23.540897   0.000000
    7       25.174467   0.000000
    8       25.589516   0.000000
 
 -0.1333333E+00  0.1333333E+00  0.0000000E+00  0.3555556E-02
    1       -2.897275   1.000000
    2       14.560670   0.000000
    3       15.206632   0.000000
    4       21.077507   0.000000
    5       23.465417   0.000000
    6       24.733013   0.000000
    7       24.755883   0.000000
    8       24.866694   0.000000
 
  0.2000000E+00  0.2000000E+00  0.0000000E+00  0.1777778E-02
    1       -2.725233   1.000000
    2       16.439840   0.000000
    3       16.439841   0.000000
    4       17.987175   0.000000
    5       18.134085   0.000000
    6       20.961703   0.000000
    7       28.817353   0.000000
    8       28.817354   0.000000
 
  0.2666667E+00  0.2000000E+00  0.0000000E+00  0.7111111E-02
    1       -2.082680   1.000000
    2       14.344041   0.000000
    3       15.877198   0.000000
    4       16.984734   0.000000
    5       18.248995   0.000000
    6       20.530058   0.000000
    7       29.139714   0.000000
    8       29.555951   0.000000
 
  0.3333333E+00  0.2000000E+00  0.0000000E+00  0.7111111E-02
    1       -1.186922   1.000000
    2       11.747511   0.000000
    3       15.536677   0.000000
    4       15.758820   0.000000
    5       18.152847   0.000000
    6       21.795375   0.000000
    7       28.339218   0.000000
    8       29.717668   0.000000
 
  0.4000000E+00  0.2000000E+00  0.0000000E+00  0.7111111E-02
    1       -0.042024   1.000000
    2        9.265810   1.000000
    3       14.590164   0.000000
    4       15.419445   0.000000
    5       18.037845   0.000000
    6       23.692594   0.000000
    7       27.376767   0.000000
    8       29.640971   0.000000
 
  0.4666667E+00  0.2000000E+00  0.0000000E+00  0.7111111E-02
    1        1.345044   1.000000
    2        6.970979   1.000000
    3       13.582973   0.000000
    4       15.524988   0.000000
    5       18.149631   0.000000
    6       25.701599   0.000000
    7       26.500288   0.000000
    8       29.518236   0.000000
 
 -0.4666667E+00  0.2000000E+00  0.0000000E+00  0.7111111E-02
    1        2.947370   1.000000
    2        4.910304   1.000000
    3       12.780902   0.000000
    4       15.851314   0.000000
    5       18.508636   0.000000
    6       25.791296   0.000000
    7       27.230012   0.000000
    8       29.823578   0.000000
 
 -0.4000000E+00  0.2000000E+00  0.0000000E+00  0.7111111E-02
    1        2.947859   1.000000
    2        4.907276   1.000000
    3       12.203562   0.000000
    4       16.394341   0.000000
    5       19.111017   0.000000
    6       25.284830   0.000000
    7       27.542261   0.000000
    8       31.009947   0.000000
 
 -0.3333333E+00  0.2000000E+00  0.0000000E+00  0.7111111E-02
    1        1.344604   1.000000
    2        6.960741   1.000000
    3       11.863292   0.000000
    4       17.145989   0.000000
    5       19.946990   0.000000
    6       24.999344   0.000000
    7       27.302355   0.000000
    8       29.439349   0.000000
 
 -0.2666667E+00  0.2000000E+00  0.0000000E+00  0.7111111E-02
    1       -0.042821   1.000000
    2        9.227728   1.000000
    3       11.781697   0.000000
    4       18.088987   0.000000
    5       20.999026   0.000000
    6       24.947159   0.000000
    7       26.893472   0.000000
    8       27.176830   0.000000
 
 -0.2000000E+00  0.2000000E+00  0.0000000E+00  0.3555556E-02
    1       -1.187772   1.000000
    2       11.383204   0.000000
    3       12.242608   0.000000
    4       19.178604   0.000000
    5       22.230544   0.000000
    6       25.113049   0.000000
    7       25.158562   0.000000
    8       26.221657   0.000000
 
  0.2666667E+00  0.2666667E+00  0.0000000E+00  0.1777778E-02
    1       -1.527232   1.000000
    2       15.240438   0.000000
    3       15.240439   0.000000
    4       15.405569   0.000000
    5       16.667430   0.000000
    6       19.114058   0.000000
    7       31.130900   0.000000
    8       31.130901   0.000000
 
  0.3333333E+00  0.2666667E+00  0.0000000E+00  0.7111111E-02
    1       -0.718592   1.000000
    2       13.205533   0.000000
    3       14.027949   0.000000
    4       14.826001   0.000000
    5       16.984384   0.000000
    6       19.302895   0.000000
    7       30.622918   0.000000
    8       31.807212   0.000000
 
  0.4000000E+00  0.2666667E+00  0.0000000E+00  0.7111111E-02
    1        0.339540   1.000000
    2       10.773267   0.000000
    3       12.682325   0.000000
    4       14.635749   0.000000
    5       17.080863   0.000000
    6       20.913187   0.000000
    7       29.744417   0.000000
    8       31.824436   0.000000
 
  0.4666667E+00  0.2666667E+00  0.0000000E+00  0.7111111E-02
    1        1.641358   1.000000
    2        8.448227   1.000000
    3       11.546850   0.000000
    4       14.669925   0.000000
    5       17.187312   0.000000
    6       23.040809   0.000000
    7       28.873288   0.000000
    8       31.462098   0.000000
 
 -0.4666667E+00  0.2666667E+00  0.0000000E+00  0.7111111E-02
    1        3.172973   1.000000
    2        6.317401   1.000000
    3       10.639153   0.000000
    4       14.927648   0.000000
    5       17.496615   0.000000
    6       25.349981   0.000000
    7       28.126807   0.000000
    8       30.915821   0.000000
 
 -0.4000000E+00  0.2666667E+00  0.0000000E+00  0.7111111E-02
    1        4.253050   1.000000
    2        5.079308   1.000000
    3        9.972094   1.000000
    4       15.406751   0.000000
    5       18.038744   0.000000
    6       27.555592   0.000000
    7       27.600086   0.000000
    8       30.323739   0.000000
 
 -0.3333333E+00  0.2666667E+00  0.0000000E+00  0.7111111E-02
    1        2.638765   1.000000
    2        6.961925   1.000000
    3        9.571044   1.000000
    4       16.102713   0.000000
    5       18.814088   0.000000
    6       27.177063   0.000000
    7       28.917899   0.000000
    8       29.508259   0.000000
 
 -0.2666667E+00  0.2666667E+00  0.0000000E+00  0.3555556E-02
    1        1.179059   1.000000
    2        8.804546   1.000000
    3        9.746815   1.000000
    4       17.005573   0.000000
    5       19.810666   0.000000
    6       26.816837   0.000000
    7       27.375359   0.000000
    8       28.212322   0.000000
 
  0.3333333E+00  0.3333333E+00  0.0000000E+00  0.1777778E-02
    1        0.002241   1.000000
    2       12.305653   0.000000
    3       14.337098   0.000000
    4       14.337099   0.000000
    5       15.658442   0.000000
    6       18.042981   0.000000
    7       32.547928   0.000000
    8       33.229557   0.000000
 
  0.4000000E+00  0.3333333E+00  0.0000000E+00  0.7111111E-02
    1        0.972211   1.000000
    2       10.847761   0.000000
    3       12.520598   0.000000
    4       14.072592   0.000000
    5       16.141197   0.000000
    6       18.502267   0.000000
    7       32.107499   0.000000
    8       33.758135   0.000000
 
  0.4666667E+00  0.3333333E+00  0.0000000E+00  0.7111111E-02
    1        2.185574   1.000000
    2        9.541378   1.000000
    3       10.286861   0.000583
    4       14.033220   0.000000
    5       16.404401   0.000000
    6       20.321790   0.000000
    7       31.317769   0.000000
    8       33.540537   0.000000
 
 -0.4666667E+00  0.3333333E+00  0.0000000E+00  0.7111111E-02
    1        3.630660   1.000000
    2        7.881104   1.000000
    3        8.773305   1.000000
    4       14.218716   0.000000
    5       16.688052   0.000000
    6       22.632203   0.000000
    7       30.565807   0.000000
    8       32.872185   0.000000
 
 -0.4000000E+00  0.3333333E+00  0.0000000E+00  0.7111111E-02
    1        5.229966   1.000000
    2        6.007104   1.000000
    3        7.987707   1.000000
    4       14.627890   0.000000
    5       17.170958   0.000000
    6       25.134734   0.000000
    7       29.918625   0.000000
    8       31.912514   0.000000
 
 -0.3333333E+00  0.3333333E+00  0.0000000E+00  0.3555556E-02
    1        4.163070   1.000000
    2        6.860300   1.000000
    3        7.829520   1.000000
    4       15.257950   0.000000
    5       17.880863   0.000000
    6       27.642476   0.000000
    7       29.151769   0.000000
    8       30.172257   0.000000
 
  0.4000000E+00  0.4000000E+00  0.0000000E+00  0.1777778E-02
    1        1.852297   1.000000
    2        9.317359   1.000000
    3       13.733519   0.000000
    4       13.733520   0.000000
    5       14.979399   0.000000
    6       17.379426   0.000000
    7       33.788022   0.000000
    8       35.026254   0.000000
 
  0.4666667E+00  0.4000000E+00  0.0000000E+00  0.7111111E-02
    1        2.972436   1.000000
    2        7.993164   1.000000
    3       12.030551   0.000000
    4       13.619764   0.000000
    5       15.639128   0.000000
    6       18.029590   0.000000
    7       33.553119   0.000000
    8       35.297274   0.000000
 
 -0.4666667E+00  0.4000000E+00  0.0000000E+00  0.7111111E-02
    1        4.309471   1.000000
    2        6.916721   1.000000
    3        9.880875   1.000000
    4       13.731503   0.000000
    5       16.068850   0.000000
    6       20.023847   0.000000
    7       32.869654   0.000000
    8       34.686827   0.000000
 
 -0.4000000E+00  0.4000000E+00  0.0000000E+00  0.3555556E-02
    1        5.561587   1.000000
    2        6.352703   1.000000
    3        7.915379   1.000000
    4       14.068115   0.000000
    5       16.521997   0.000000
    6       22.493646   0.000000
    7       31.894533   0.000000
    8       33.285472   0.000000
 
  0.4666667E+00  0.4666667E+00  0.0000000E+00  0.1777778E-02
    1        3.981916   1.000000
    2        6.602955   1.000000
    3       13.431406   0.000000
    4       13.431407   0.000000
    5       14.638333   0.000000
    6       17.052630   0.000000
    7       34.678415   0.000000
    8       36.237274   0.000000
 
 -0.4666667E+00  0.4666667E+00  0.0000000E+00  0.3555556E-02
    1        4.911820   1.000000
    2        5.761653   1.000000
    3       11.870015   0.000000
    4       13.468716   0.000000
    5       15.471837   0.000000
    6       17.872279   0.000000
    7       34.356225   0.000000
    8       35.958775   0.000000
 
  0.2000000E+00  0.1333333E+00  0.6666667E-01  0.7111111E-02
    1       -3.413039   1.000000
    2       16.404260   0.000000
    3       16.824547   0.000000
    4       20.727534   0.000000
    5       21.336351   0.000000
    6       24.298384   0.000000
    7       25.659064   0.000000
    8       26.022333   0.000000
 
  0.2666667E+00  0.1333333E+00  0.6666667E-01  0.1422222E-01
    1       -2.768491   1.000000
    2       13.814365   0.000000
    3       16.090327   0.000000
    4       20.077953   0.000000
    5       21.768343   0.000000
    6       23.846671   0.000000
    7       25.872186   0.000000
    8       26.106975   0.000000
 
  0.3333333E+00  0.1333333E+00  0.6666667E-01  0.1422222E-01
    1       -1.869854   1.000000
    2       11.144914   0.000000
    3       15.732948   0.000000
    4       19.206421   0.000000
    5       21.330333   0.000000
    6       24.417739   0.000000
    7       25.339364   0.000000
    8       26.493341   0.000000
 
  0.4000000E+00  0.1333333E+00  0.6666667E-01  0.1422222E-01
    1       -0.721216   1.000000
    2        8.634772   1.000000
    3       15.602561   0.000000
    4       18.269154   0.000000
    5       21.003901   0.000000
    6       23.645156   0.000000
    7       25.605910   0.000000
    8       27.876435   0.000000
 
  0.4666667E+00  0.1333333E+00  0.6666667E-01  0.1422222E-01
    1        0.670424   1.000000
    2        6.324721   1.000000
    3       15.686307   0.000000
    4       17.405211   0.000000
    5       20.965510   0.000000
    6       22.769842   0.000000
    7       25.755623   0.000000
    8       29.298189   0.000000
 
 -0.4666667E+00  0.1333333E+00  0.6666667E-01  0.1422222E-01
    1        2.276458   1.000000
    2        4.256877   1.000000
    3       15.930018   0.000000
    4       16.754821   0.000000
    5       21.107855   0.000000
    6       22.162175   0.000000
    7       25.846114   0.000000
    8       29.040147   0.000000
 
  0.2666667E+00  0.2000000E+00  0.6666667E-01  0.7111111E-02
    1       -2.553844   1.000000
    2       14.852304   0.000000
    3       15.355315   0.000000
    4       18.732043   0.000000
    5       19.863713   0.000000
    6       21.740705   0.000000
    7       27.597824   0.000000
    8       28.249456   0.000000
 
  0.3333333E+00  0.2000000E+00  0.6666667E-01  0.1422222E-01
    1       -1.741256   1.000000
    2       12.400806   0.000000
    3       14.730411   0.000000
    4       17.561006   0.000000
    5       20.080330   0.000000
    6       22.430412   0.000000
    7       26.872284   0.000000
    8       28.707602   0.000000
 
  0.4000000E+00  0.2000000E+00  0.6666667E-01  0.1422222E-01
    1       -0.677652   1.000000
    2        9.864131   1.000000
    3       14.505118   0.000000
    4       16.372716   0.000000
    5       19.937282   0.000000
    6       24.065713   0.000000
    7       25.959264   0.000000
    8       28.846616   0.000000
 
  0.4666667E+00  0.2000000E+00  0.6666667E-01  0.1422222E-01
    1        0.631334   1.000000
    2        7.498270   1.000000
    3       14.462225   0.000000
    4       15.383719   0.000000
    5       19.960467   0.000000
    6       24.614569   0.000000
    7       26.325874   0.000000
    8       29.055001   0.000000
 
 -0.4666667E+00  0.2000000E+00  0.6666667E-01  0.1422222E-01
    1        2.171691   1.000000
    2        5.347509   1.000000
    3       14.212837   0.000000
    4       15.028306   0.000000
    5       20.208185   0.000000
    6       23.938994   0.000000
    7       27.479177   0.000000
    8       29.846977   0.000000
 
 -0.4000000E+00  0.2000000E+00  0.6666667E-01  0.1422222E-01
    1        3.245708   1.000000
    2        4.119756   1.000000
    3       13.661657   0.000000
    4       15.419444   0.000000
    5       20.674015   0.000000
    6       23.379480   0.000000
    7       27.680048   0.000000
    8       30.986838   0.000000
 
 -0.3333333E+00  0.2000000E+00  0.6666667E-01  0.1422222E-01
    1        1.634583   1.000000
    2        6.035420   1.000000
    3       13.263211   0.000000
    4       16.106772   0.000000
    5       21.324875   0.000000
    6       23.056133   0.000000
    7       27.424960   0.000000
    8       29.801078   0.000000
 
 -0.2666667E+00  0.2000000E+00  0.6666667E-01  0.1422222E-01
    1        0.167968   1.000000
    2        8.258507   1.000000
    3       13.087212   0.000000
    4       17.015316   0.000000
    5       22.041244   0.000000
    6       23.075191   0.000000
    7       26.628989   0.000000
    8       28.285124   0.000000
 
 -0.2000000E+00  0.2000000E+00  0.6666667E-01  0.1422222E-01
    1       -1.060112   1.000000
    2       10.669721   0.000000
    3       13.158840   0.000000
    4       18.107007   0.000000
    5       22.540783   0.000000
    6       23.545895   0.000000
    7       25.161659   0.000000
    8       27.642576   0.000000
 
 -0.1333333E+00  0.2000000E+00  0.6666667E-01  0.7111111E-02
    1       -2.040490   1.000000
    2       12.979743   0.000000
    3       13.732293   0.000000
    4       19.294419   0.000000
    5       22.577895   0.000000
    6       23.327771   0.000000
    7       25.117962   0.000000
    8       27.054853   0.000000
 
  0.3333333E+00  0.2666667E+00  0.6666667E-01  0.7111111E-02
    1       -1.356972   1.000000
    2       13.594168   0.000000
    3       14.106529   0.000000
    4       15.784367   0.000000
    5       18.616525   0.000000
    6       20.234005   0.000000
    7       28.973156   0.000000
    8       30.783090   0.000000
 
  0.4000000E+00  0.2666667E+00  0.6666667E-01  0.1422222E-01
    1       -0.379798   1.000000
    2       11.282803   0.000000
    3       13.563347   0.000000
    4       14.503547   0.000000
    5       18.936454   0.000000
    6       21.417576   0.000000
    7       28.113271   0.000000
    8       31.225425   0.000000
 
  0.4666667E+00  0.2666667E+00  0.6666667E-01  0.1422222E-01
    1        0.844031   1.000000
    2        8.892487   1.000000
    3       13.009362   0.000000
    4       13.813856   0.000000
    5       18.994794   0.000000
    6       23.387353   0.000000
    7       27.206234   0.000000
    8       31.150510   0.000000
 
 -0.4666667E+00  0.2666667E+00  0.6666667E-01  0.1422222E-01
    1        2.305286   1.000000
    2        6.682283   1.000000
    3       12.135257   0.000000
    4       13.899349   0.000000
    5       19.213242   0.000000
    6       25.345886   0.000000
    7       26.640480   0.000000
    8       30.805921   0.000000
 
 -0.4000000E+00  0.2666667E+00  0.6666667E-01  0.1422222E-01
    1        3.916790   1.000000
    2        4.766450   1.000000
    3       11.411699   0.000000
    4       14.297682   0.000000
    5       19.647007   0.000000
    6       25.475242   0.000000
    7       28.027143   0.000000
    8       30.197469   0.000000
 
 -0.3333333E+00  0.2666667E+00  0.6666667E-01  0.1422222E-01
    1        2.840931   1.000000
    2        5.986714   1.000000
    3       10.915114   0.000000
    4       14.938476   0.000000
    5       20.298630   0.000000
    6       25.079759   0.000000
    7       28.772172   0.000000
    8       29.653669   0.000000
 
 -0.2666667E+00  0.2666667E+00  0.6666667E-01  0.1422222E-01
    1        1.304690   1.000000
    2        8.095995   1.000000
    3       10.677737   0.000000
    4       15.804471   0.000000
    5       21.152400   0.000000
    6       24.833633   0.000000
    7       26.902833   0.000000
    8       29.606047   0.000000
 
 -0.2000000E+00  0.2666667E+00  0.6666667E-01  0.7111111E-02
    1       -0.000096   1.000000
    2       10.096475   0.983745
    3       10.999585   0.000000
    4       16.876936   0.000000
    5       22.156947   0.000000
    6       24.467996   0.000000
    7       25.208701   0.000000
    8       28.859334   0.000000
 
  0.4000000E+00  0.3333333E+00  0.6666667E-01  0.7111111E-02
    1        0.171030   1.000000
    2       12.360143   0.000000
    3       12.643898   0.000000
    4       13.448144   0.000000
    5       17.660946   0.000000
    6       19.273864   0.000000
    7       30.406895   0.000000
    8       33.070360   0.000000
 
  0.4666667E+00  0.3333333E+00  0.6666667E-01  0.1422222E-01
    1        1.307552   1.000000
    2       10.425389   0.000000
    3       11.249774   0.000000
    4       12.997102   0.000000
    5       18.138759   0.000000
    6       20.693319   0.000000
    7       29.594364   0.000000
    8       33.302869   0.000000
 
 -0.4666667E+00  0.3333333E+00  0.6666667E-01  0.1422222E-01
    1        2.683332   1.000000
    2        8.224264   1.000000
    3       10.167990   0.545916
    4       13.068715   0.000000
    5       18.368622   0.000000
    6       22.871093   0.000000
    7       28.783043   0.000000
    8       32.719660   0.000000
 