unknown system                          
           1
     2.347395    0.000000    1.355268
     0.782465    2.213145    1.355268
     0.000000    0.000000    2.710538
   Si
     1
Direct configuration=     1
   0.00000000  0.00000000  0.00000000
unknown system                          
           1
     2.369091   -0.000000    1.367794
     0.789697    2.233600    1.367794
    -0.000000   -0.000000    2.735590
   Si
     1
Direct configuration=     2
   0.00000000  0.00000000 -0.00000000
unknown system                          
           1
     2.367213   -0.000000    1.366710
     0.789071    2.231829    1.366710
    -0.000000   -0.000000    2.733421
   Si
     1
Direct configuration=     3
   0.00000000 -0.00000000 -0.00000000
