unknown system                          
   1.00000000000000     
     2.802208   -0.000000    0.000000
     0.000000    2.802208    0.000000
    -0.000000   -0.000000    2.802208
   Fe
     2
Direct
  0.000000  0.000000  0.000000
  0.500000  0.500000  0.500000
 
   48   48   48
  199.03      196.22      188.00      175.03      158.29      138.98      118.40      97.790      78.255      60.648    
  45.553      33.268      23.830      17.047      12.548      9.8323      8.3389      7.4851      6.8465      6.3515    
  5.9930      5.7478      5.5924      5.5075      5.4805      5.5075      5.5924      5.7478      5.9930      6.3515    
  6.8465      7.4851      8.3389      9.8323      12.548      17.047      23.830      33.268      45.553      60.648    
  78.255      97.790      118.40      138.98      158.29      175.03      188.00      196.22      196.22      193.45    
  185.37      172.60      156.12      137.10      116.82      96.506      77.240      59.871      44.978      32.859    
  23.555      16.874      12.449      9.7837      8.3187      7.4748      6.8391      6.3471      5.9907      5.7471    
  5.5925      5.5082      5.4812      5.5082      5.5925      5.7471      5.9907      6.3471      6.8391      7.4748    
  8.3187      9.7837      12.449      16.874      23.555      32.859      44.978      59.871      77.240      96.506    
  116.82      137.10      156.12      172.60      185.37      193.45      188.00      185.37      177.67      165.50    
  149.77      131.60      112.19      92.736      74.260      57.588      43.288      31.660      22.747      16.367    
  12.163      9.6434      8.2603      7.4438      6.8168      6.3340      5.9839      5.7451      5.5929      5.5101    
  5.4834      5.5101      5.5929      5.7451      5.9839      6.3340      6.8168      7.4438      8.2603      9.6434    
  12.163      16.367      22.747      31.660      43.288      57.588      74.260      92.736      112.19      131.60    
  149.77      165.50      177.67      185.37      175.03      172.60      165.50      154.26      139.70      122.86    
  104.84      86.729      69.502      53.939      40.589      29.747      21.464      15.569      11.716      9.4277    
  8.1695      7.3920      6.7797      6.3123      5.9726      5.7417      5.5936      5.5134      5.4870      5.5134    
  5.5936      5.7417      5.9726      6.3123      6.7797      7.3920      8.1695      9.4277      11.716      15.569    
  21.464      29.747      40.589      53.939      69.502      86.729      104.84      122.86      139.70      154.26    
  165.50      172.60      158.29      156.12      149.77      139.70      126.65      111.50      95.248      78.875    
  63.269      49.155      37.053      27.251      19.803      14.548      11.154      9.1610      8.0531      7.3187    
  6.7288      6.2824      5.9576      5.7370      5.5947      5.5177      5.4921      5.5177      5.5947      5.7370    
  5.9576      6.2824      6.7288      7.3187      8.0531      9.1610      11.154      14.548      19.803      27.251    
  37.053      49.155      63.269      78.875      95.248      111.50      126.65      139.70      149.77      156.12    
  138.98      137.10      131.60      122.86      111.50      98.280      84.055      69.684      55.960      43.545    
  32.918      24.349      17.892      13.392      10.531      8.8715      7.9162      7.2236      6.6654      6.2447    
  5.9394      5.7309      5.5963      5.5227      5.4985      5.5227      5.5963      5.7309      5.9394      6.2447    
  6.6654      7.2236      7.9162      8.8715      10.531      13.392      17.892      24.349      32.918      43.545    
  55.960      69.684      84.055      98.280      111.50      122.86      131.60      137.10      118.40      116.82    
  112.19      104.84      95.248      84.055      71.974      59.741      48.047      37.480      28.468      21.256    
  15.885      12.206      9.9090      8.5827      7.7590      7.1084      6.5912      6.2005      5.9185      5.7235    
  5.5983      5.5281      5.5060      5.5281      5.5983      5.7235      5.9185      6.2005      6.5912      7.1084    
  7.7590      8.5827      9.9090      12.206      15.885      21.256      28.468      37.480      48.047      59.741    
  71.974      84.055      95.248      104.84      112.19      116.82      97.790      96.506      92.736      86.729    
  78.875      69.684      59.741      49.661      40.031      31.358      24.012      18.200      13.943      11.088    
  9.3380      8.3054      7.5786      6.9780      6.5079      6.1516      5.8950      5.7155      5.5999      5.5341    
  5.5137      5.5341      5.5999      5.7155      5.8950      6.1516      6.5079      6.9780      7.5786      8.3054    
  9.3380      11.088      13.943      18.200      24.012      31.358      40.031      49.661      59.741      69.684    
  78.875      86.729      92.736      96.506      78.255      77.240      74.260      69.502      63.269      55.960    
  48.047      40.031      32.399      25.569      19.849      15.397      12.207      10.118      8.8480      8.0317    
  7.3767      6.8383      6.4176      6.1003      5.8691      5.7070      5.6005      5.5402      5.5207      5.5402    
  5.6005      5.7070      5.8691      6.1003      6.4176      6.8383      7.3767      8.0317      8.8480      10.118    
  12.207      15.397      19.849      25.569      32.399      40.031      48.047      55.960      63.269      69.502    
  74.260      77.240      60.648      59.871      57.588      53.939      49.155      43.545      37.480      31.358    
  25.569      20.448      16.230      13.018      10.779      9.3390      8.4309      7.7463      7.1637      6.6934    
  6.3247      6.0470      5.8419      5.6973      5.6004      5.5455      5.5271      5.5455      5.6004      5.6973    
  5.8419      6.0470      6.3247      6.6934      7.1637      7.7463      8.4309      9.3390      10.779      13.018    
  16.230      20.448      25.569      31.358      37.480      43.545      49.155      53.939      57.588      59.871    
  45.553      44.978      43.288      40.589      37.053      32.918      28.468      24.012      19.849      16.230    
  13.315      11.160      9.6909      8.7378      8.0459      7.4503      6.9509      6.5473      6.2329      5.9927    
  5.8146      5.6858      5.5993      5.5488      5.5326      5.5488      5.5993      5.6858      5.8146      5.9927    
  6.2329      6.5473      6.9509      7.4503      8.0459      8.7378      9.6909      11.160      13.315      16.230    
  19.849      24.012      28.468      32.918      37.053      40.589      43.288      44.978      33.268      32.859    
  31.660      29.747      27.251      24.349      21.256      18.200      15.397      13.018      11.160      9.8197    
  8.9074      8.2417      7.6641      7.1616      6.7437      6.4072      6.1430      5.9396      5.7858      5.6733    
  5.5960      5.5508      5.5358      5.5508      5.5960      5.6733      5.7858      5.9396      6.1430      6.4072    
  6.7437      7.1616      7.6641      8.2417      8.9074      9.8197      11.160      13.018      15.397      18.200    
  21.256      24.349      27.251      29.747      31.660      32.859      23.830      23.555      22.747      21.464    
  19.803      17.892      15.885      13.943      12.207      10.779      9.6909      8.9074      8.3101      7.7782    
  7.2999      6.8901      6.5500      6.2756      6.0578      5.8877      5.7567      5.6591      5.5908      5.5504    
  5.5369      5.5504      5.5908      5.6591      5.7567      5.8877      6.0578      6.2756      6.5500      6.8901    
  7.2999      7.7782      8.3101      8.9074      9.6909      10.779      12.207      13.943      15.885      17.892    
  19.803      21.464      22.747      23.555      17.047      16.874      16.367      15.569      14.548      13.392    
  12.206      11.088      10.118      9.3390      8.7378      8.2417      7.7782      7.3482      6.9684      6.6437    
  6.3742      6.1546      5.9781      5.8374      5.7269      5.6428      5.5834      5.5477      5.5358      5.5477    
  5.5834      5.6428      5.7269      5.8374      5.9781      6.1546      6.3742      6.6437      6.9684      7.3482    
  7.7782      8.2417      8.7378      9.3390      10.118      11.088      12.206      13.392      14.548      15.569    
  16.367      16.874      12.548      12.449      12.163      11.716      11.154      10.531      9.9090      9.3380    
  8.8480      8.4309      8.0459      7.6641      7.2999      6.9684      6.6763      6.4268      6.2179      6.0455    
  5.9040      5.7890      5.6968      5.6254      5.5741      5.5430      5.5326      5.5430      5.5741      5.6254    
  5.6968      5.7890      5.9040      6.0455      6.2179      6.4268      6.6763      6.9684      7.2999      7.6641    
  8.0459      8.4309      8.8480      9.3380      9.9090      10.531      11.154      11.716      12.163      12.449    
  9.8323      9.7837      9.6434      9.4277      9.1610      8.8715      8.5827      8.3054      8.0317      7.7463    
  7.4503      7.1616      6.8901      6.6437      6.4268      6.2400      6.0814      5.9477      5.8359      5.7428    
  5.6665      5.6063      5.5626      5.5360      5.5271      5.5360      5.5626      5.6063      5.6665      5.7428    
  5.8359      5.9477      6.0814      6.2400      6.4268      6.6437      6.8901      7.1616      7.4503      7.7463    
  8.0317      8.3054      8.5827      8.8715      9.1610      9.4277      9.6434      9.7837      8.3389      8.3187    
  8.2603      8.1695      8.0531      7.9162      7.7590      7.5786      7.3767      7.1637      6.9509      6.7437    
  6.5500      6.3742      6.2179      6.0814      5.9629      5.8610      5.7733      5.6985      5.6361      5.5865    
  5.5503      5.5282      5.5207      5.5282      5.5503      5.5865      5.6361      5.6985      5.7733      5.8610    
  5.9629      6.0814      6.2179      6.3742      6.5500      6.7437      6.9509      7.1637      7.3767      7.5786    
  7.7590      7.9162      8.0531      8.1695      8.2603      8.3187      7.4851      7.4748      7.4438      7.3920    
  7.3187      7.2236      7.1084      6.9780      6.8383      6.6934      6.5473      6.4072      6.2756      6.1546    
  6.0455      5.9477      5.8610      5.7840      5.7158      5.6568      5.6071      5.5672      5.5378      5.5198    
  5.5137      5.5198      5.5378      5.5672      5.6071      5.6568      5.7158      5.7840      5.8610      5.9477    
  6.0455      6.1546      6.2756      6.4072      6.5473      6.6934      6.8383      6.9780      7.1084      7.2236    
  7.3187      7.3920      7.4438      7.4748      6.8465      6.8391      6.8168      6.7797      6.7288      6.6654    
  6.5912      6.5079      6.4176      6.3247      6.2329      6.1430      6.0578      5.9781      5.9040      5.8359    
  5.7733      5.7158      5.6642      5.6188      5.5800      5.5485      5.5252      5.5108      5.5060      5.5108    
  5.5252      5.5485      5.5800      5.6188      5.6642      5.7158      5.7733      5.8359      5.9040      5.9781    
  6.0578      6.1430      6.2329      6.3247      6.4176      6.5079      6.5912      6.6654      6.7288      6.7797    
  6.8168      6.8391      6.3515      6.3471      6.3340      6.3123      6.2824      6.2447      6.2005      6.1516    
  6.1003      6.0470      5.9927      5.9396      5.8877      5.8374      5.7890      5.7428      5.6985      5.6568    
  5.6188      5.5847      5.5551      5.5309      5.5131      5.5022      5.4985      5.5022      5.5131      5.5309    
  5.5551      5.5847      5.6188      5.6568      5.6985      5.7428      5.7890      5.8374      5.8877      5.9396    
  5.9927      6.0470      6.1003      6.1516      6.2005      6.2447      6.2824      6.3123      6.3340      6.3471    
  5.9930      5.9907      5.9839      5.9726      5.9576      5.9394      5.9185      5.8950      5.8691      5.8419    
  5.8146      5.7858      5.7567      5.7269      5.6968      5.6665      5.6361      5.6071      5.5800      5.5551    
  5.5333      5.5156      5.5026      5.4947      5.4921      5.4947      5.5026      5.5156      5.5333      5.5551    
  5.5800      5.6071      5.6361      5.6665      5.6968      5.7269      5.7567      5.7858      5.8146      5.8419    
  5.8691      5.8950      5.9185      5.9394      5.9576      5.9726      5.9839      5.9907      5.7478      5.7471    
  5.7451      5.7417      5.7370      5.7309      5.7235      5.7155      5.7070      5.6973      5.6858      5.6733    
  5.6591      5.6428      5.6254      5.6063      5.5865      5.5672      5.5485      5.5309      5.5156      5.5032    
  5.4943      5.4888      5.4870      5.4888      5.4943      5.5032      5.5156      5.5309      5.5485      5.5672    
  5.5865      5.6063      5.6254      5.6428      5.6591      5.6733      5.6858      5.6973      5.7070      5.7155    
  5.7235      5.7309      5.7370      5.7417      5.7451      5.7471      5.5924      5.5925      5.5929      5.5936    
  5.5947      5.5963      5.5983      5.5999      5.6005      5.6004      5.5993      5.5960      5.5908      5.5834    
  5.5741      5.5626      5.5503      5.5378      5.5252      5.5131      5.5026      5.4943      5.4882      5.4846    
  5.4834      5.4846      5.4882      5.4943      5.5026      5.5131      5.5252      5.5378      5.5503      5.5626    
  5.5741      5.5834      5.5908      5.5960      5.5993      5.6004      5.6005      5.5999      5.5983      5.5963    
  5.5947      5.5936      5.5929      5.5925      5.5075      5.5082      5.5101      5.5134      5.5177      5.5227    
  5.5281      5.5341      5.5402      5.5455      5.5488      5.5508      5.5504      5.5477      5.5430      5.5360    
  5.5282      5.5198      5.5108      5.5022      5.4947      5.4888      5.4846      5.4821      5.4812      5.4821    
  5.4846      5.4888      5.4947      5.5022      5.5108      5.5198      5.5282      5.5360      5.5430      5.5477    
  5.5504      5.5508      5.5488      5.5455      5.5402      5.5341      5.5281      5.5227      5.5177      5.5134    
  5.5101      5.5082      5.4805      5.4812      5.4834      5.4870      5.4921      5.4985      5.5060      5.5137    
  5.5207      5.5271      5.5326      5.5358      5.5369      5.5358      5.5326      5.5271      5.5207      5.5137    
  5.5060      5.4985      5.4921      5.4870      5.4834      5.4812      5.4805      5.4812      5.4834      5.4870    
  5.4921      5.4985      5.5060      5.5137      5.5207      5.5271      5.5326      5.5358      5.5369      5.5358    
  5.5326      5.5271      5.5207      5.5137      5.5060      5.4985      5.4921      5.4870      5.4834      5.4812    
  5.5075      5.5082      5.5101      5.5134      5.5177      5.5227      5.5281      5.5341      5.5402      5.5455    
  5.5488      5.5508      5.5504      5.5477      5.5430      5.5360      5.5282      5.5198      5.5108      5.5022    
  5.4947      5.4888      5.4846      5.4821      5.4812      5.4821      5.4846      5.4888      5.4947      5.5022    
  5.5108      5.5198      5.5282      5.5360      5.5430      5.5477      5.5504      5.5508      5.5488      5.5455    
  5.5402      5.5341      5.5281      5.5227      5.5177      5.5134      5.5101      5.5082      5.5924      5.5925    
  5.5929      5.5936      5.5947      5.5963      5.5983      5.5999      5.6005      5.6004      5.5993      5.5960    
  5.5908      5.5834      5.5741      5.5626      5.5503      5.5378      5.5252      5.5131      5.5026      5.4943    
  5.4882      5.4846      5.4834      5.4846      5.4882      5.4943      5.5026      5.5131      5.5252      5.5378    
  5.5503      5.5626      5.5741      5.5834      5.5908      5.5960      5.5993      5.6004      5.6005      5.5999    
  5.5983      5.5963      5.5947      5.5936      5.5929      5.5925      5.7478      5.7471      5.7451      5.7417    
  5.7370      5.7309      5.7235      5.7155      5.7070      5.6973      5.6858      5.6733      5.6591      5.6428    
  5.6254      5.6063      5.5865      5.5672      5.5485      5.5309      5.5156      5.5032      5.4943      5.4888    
  5.4870      5.4888      5.4943      5.5032      5.5156      5.5309      5.5485      5.5672      5.5865      5.6063    
  5.6254      5.6428      5.6591      5.6733      5.6858      5.6973      5.7070      5.7155      5.7235      5.7309    
  5.7370      5.7417      5.7451      5.7471      5.9930      5.9907      5.9839      5.9726      5.9576      5.9394    
  5.9185      5.8950      5.8691      5.8419      5.8146      5.7858      5.7567      5.7269      5.6968      5.6665    
  5.6361      5.6071      5.5800      5.5551      5.5333      5.5156      5.5026      5.4947      5.4921      5.4947    
  5.5026      5.5156      5.5333      5.5551      5.5800      5.6071      5.6361      5.6665      5.6968      5.7269    
  5.7567      5.7858      5.8146      5.8419      5.8691      5.8950      5.9185      5.9394      5.9576      5.9726    
  5.9839      5.9907      6.3515      6.3471      6.3340      6.3123      6.2824      6.2447      6.2005      6.1516    
  6.1003      6.0470      5.9927      5.9396      5.8877      5.8374      5.7890      5.7428      5.6985      5.6568    
  5.6188      5.5847      5.5551      5.5309      5.5131      5.5022      5.4985      5.5022      5.5131      5.5309    
  5.5551      5.5847      5.6188      5.6568      5.6985      5.7428      5.7890      5.8374      5.8877      5.9396    
  5.9927      6.0470      6.1003      6.1516      6.2005      6.2447      6.2824      6.3123      6.3340      6.3471    
  6.8465      6.8391      6.8168      6.7797      6.7288      6.6654      6.5912      6.5079      6.4176      6.3247    
  6.2329      6.1430      6.0578      5.9781      5.9040      5.8359      5.7733      5.7158      5.6642      5.6188    
  5.5800      5.5485      5.5252      5.5108      5.5060      5.5108      5.5252      5.5485      5.5800      5.6188    
  5.6642      5.7158      5.7733      5.8359      5.9040      5.9781      6.0578      6.1430      6.2329      6.3247    
  6.4176      6.5079      6.5912      6.6654      6.7288      6.7797      6.8168      6.8391      7.4851      7.4748    
  7.4438      7.3920      7.3187      7.2236      7.1084      6.9780      6.8383      6.6934      6.5473      6.4072    
  6.2756      6.1546      6.0455      5.9477      5.8610      5.7840      5.7158      5.6568      5.6071      5.5672    
  5.5378      5.5198      5.5137      5.5198      5.5378      5.5672      5.6071      5.6568      5.7158      5.7840    
  5.8610      5.9477      6.0455      6.1546      6.2756      6.4072      6.5473      6.6934      6.8383      6.9780    
  7.1084      7.2236      7.3187      7.3920      7.4438      7.4748      8.3389      8.3187      8.2603      8.1695    
  8.0531      7.9162      7.7590      7.5786      7.3767      7.1637      6.9509      6.7437      6.5500      6.3742    
  6.2179      6.0814      5.9629      5.8610      5.7733      5.6985      5.6361      5.5865      5.5503      5.5282    
  5.5207      5.5282      5.5503      5.5865      5.6361      5.6985      5.7733      5.8610      5.9629      6.0814    
  6.2179      6.3742      6.5500      6.7437      6.9509      7.1637      7.3767      7.5786      7.7590      7.9162    
  8.0531      8.1695      8.2603      8.3187      9.8323      9.7837      9.6434      9.4277      9.1610      8.8715    
  8.5827      8.3054      8.0317      7.7463      7.4503      7.1616      6.8901      6.6437      6.4268      6.2400    
  6.0814      5.9477      5.8359      5.7428      5.6665      5.6063      5.5626      5.5360      5.5271      5.5360    
  5.5626      5.6063      5.6665      5.7428      5.8359      5.9477      6.0814      6.2400      6.4268      6.6437    
  6.8901      7.1616      7.4503      7.7463      8.0317      8.3054      8.5827      8.8715      9.1610      9.4277    
  9.6434      9.7837      12.548      12.449      12.163      11.716      11.154      10.531      9.9090      9.3380    
  8.8480      8.4309      8.0459      7.6641      7.2999      6.9684      6.6763      6.4268      6.2179      6.0455    
  5.9040      5.7890      5.6968      5.6254      5.5741      5.5430      5.5326      5.5430      5.5741      5.6254    
  5.6968      5.7890      5.9040      6.0455      6.2179      6.4268      6.6763      6.9684      7.2999      7.6641    
  8.0459      8.4309      8.8480      9.3380      9.9090      10.531      11.154      11.716      12.163      12.449    
  17.047      16.874      16.367      15.569      14.548      13.392      12.206      11.088      10.118      9.3390    
  8.7378      8.2417      7.7782      7.3482      6.9684      6.6437      6.3742      6.1546      5.9781      5.8374    
  5.7269      5.6428      5.5834      5.5477      5.5358      5.5477      5.5834      5.6428      5.7269      5.8374    
  5.9781      6.1546      6.3742      6.6437      6.9684      7.3482      7.7782      8.2417      8.7378      9.3390    
  10.118      11.088      12.206      13.392      14.548      15.569      16.367      16.874      23.830      23.555    
  22.747      21.464      19.803      17.892      15.885      13.943      12.207      10.779      9.6909      8.9074    
  8.3101      7.7782      7.2999      6.8901      6.5500      6.2756      6.0578      5.8877      5.7567      5.6591    
  5.5908      5.5504      5.5369      5.5504      5.5908      5.6591      5.7567      5.8877      6.0578      6.2756    
  6.5500      6.8901      7.2999      7.7782      8.3101      8.9074      9.6909      10.779      12.207      13.943    
  15.885      17.892      19.803      21.464      22.747      23.555      33.268      32.859      31.660      29.747    
  27.251      24.349      21.256      18.200      15.397      13.018      11.160      9.8197      8.9074      8.2417    
  7.6641      7.1616      6.7437      6.4072      6.1430      5.9396      5.7858      5.6733      5.5960      5.5508    
  5.5358      5.5508      5.5960      5.6733      5.7858      5.9396      6.1430      6.4072      6.7437      7.1616    
  7.6641      8.2417      8.9074      9.8197      11.160      13.018      15.397      18.200      21.256      24.349    
  27.251      29.747      31.660      32.859      45.553      44.978      43.288      40.589      37.053      32.918    
  28.468      24.012      19.849      16.230      13.315      11.160      9.6909      8.7378      8.0459      7.4503    
  6.9509      6.5473      6.2329      5.9927      5.8146      5.6858      5.5993      5.5488      5.5326      5.5488    
  5.5993      5.6858      5.8146      5.9927      6.2329      6.5473      6.9509      7.4503      8.0459      8.7378    
  9.6909      11.160      13.315      16.230      19.849      24.012      28.468      32.918      37.053      40.589    
  43.288      44.978      60.648      59.871      57.588      53.939      49.155      43.545      37.480      31.358    
  25.569      20.448      16.230      13.018      10.779      9.3390      8.4309      7.7463      7.1637      6.6934    
  6.3247      6.0470      5.8419      5.6973      5.6004      5.5455      5.5271      5.5455      5.6004      5.6973    
  5.8419      6.0470      6.3247      6.6934      7.1637      7.7463      8.4309      9.3390      10.779      13.018    
  16.230      20.448      25.569      31.358      37.480      43.545      49.155      53.939      57.588      59.871    
  78.255      77.240      74.260      69.502      63.269      55.960      48.047      40.031      32.399      25.569    
  19.849      15.397      12.207      10.118      8.8480      8.0317      7.3767      6.8383      6.4176      6.1003    
  5.8691      5.7070      5.6005      5.5402      5.5207      5.5402      5.6005      5.7070      5.8691      6.1003    
  6.4176      6.8383      7.3767      8.0317      8.8480      10.118      12.207      15.397      19.849      25.569    
  32.399      40.031      48.047      55.960      63.269      69.502      74.260      77.240      97.790      96.506    
  92.736      86.729      78.875      69.684      59.741      49.661      40.031      31.358      24.012      18.200    
  13.943      11.088      9.3380      8.3054      7.5786      6.9780      6.5079      6.1516      5.8950      5.7155    
  5.5999      5.5341      5.5137      5.5341      5.5999      5.7155      5.8950      6.1516      6.5079      6.9780    
  7.5786      8.3054      9.3380      11.088      13.943      18.200      24.012      31.358      40.031      49.661    
  59.741      69.684      78.875      86.729      92.736      96.506      118.40      116.82      112.19      104.84    
  95.248      84.055      71.974      59.741      48.047      37.480      28.468      21.256      15.885      12.206    
  9.9090      8.5827      7.7590      7.1084      6.5912      6.2005      5.9185      5.7235      5.5983      5.5281    
  5.5060      5.5281      5.5983      5.7235      5.9185      6.2005      6.5912      7.1084      7.7590      8.5827    
  9.9090      12.206      15.885      21.256      28.468      37.480      48.047      59.741      71.974      84.055    
  95.248      104.84      112.19      116.82      138.98      137.10      131.60      122.86      111.50      98.280    
  84.055      69.684      55.960      43.545      32.918      24.349      17.892      13.392      10.531      8.8715    
  7.9162      7.2236      6.6654      6.2447      5.9394      5.7309      5.5963      5.5227      5.4985      5.5227    
  5.5963      5.7309      5.9394      6.2447      6.6654      7.2236      7.9162      8.8715      10.531      13.392    
  17.892      24.349      32.918      43.545      55.960      69.684      84.055      98.280      111.50      122.86    
  131.60      137.10      158.29      156.12      149.77      139.70      126.65      111.50      95.248      78.875    
  63.269      49.155      37.053      27.251      19.803      14.548      11.154      9.1610      8.0531      7.3187    
  6.7288      6.2824      5.9576      5.7370      5.5947      5.5177      5.4921      5.5177      5.5947      5.7370    
  5.9576      6.2824      6.7288      7.3187      8.0531      9.1610      11.154      14.548      19.803      27.251    
  37.053      49.155      63.269      78.875      95.248      111.50      126.65      139.70      149.77      156.12    
  175.03      172.60      165.50      154.26      139.70      122.86      104.84      86.729      69.502      53.939    
  40.589      29.747      21.464      15.569      11.716      9.4277      8.1695      7.3920      6.7797      6.3123    
  5.9726      5.7417      5.5936      5.5134      5.4870      5.5134      5.5936      5.7417      5.9726      6.3123    
  6.7797      7.3920      8.1695      9.4277      11.716      15.569      21.464      29.747      40.589      53.939    
  69.502      86.729      104.84      122.86      139.70      154.26      165.50      172.60      188.00      185.37    
  177.67      165.50      149.77      131.60      112.19      92.736      74.260      57.588      43.288      31.660    
  22.747      16.367      12.163      9.6434      8.2603      7.4438      6.8168      6.3340      5.9839      5.7451    
  5.5929      5.5101      5.4834      5.5101      5.5929      5.7451      5.9839      6.3340      6.8168      7.4438    
  8.2603      9.6434      12.163      16.367      22.747      31.660      43.288      57.588      74.260      92.736    
  112.19      131.60      149.77      165.50      177.67      185.37      196.22      193.45      185.37      172.60    
  156.12      137.10      116.82      96.506      77.240      59.871      44.978      32.859      23.555      16.874    
  12.449      9.7837      8.3187      7.4748      6.8391      6.3471      5.9907      5.7471      5.5925      5.5082    
  5.4812      5.5082      5.5925      5.7471      5.9907      6.3471      6.8391      7.4748      8.3187      9.7837    
  12.449      16.874      23.555      32.859      44.978      59.871      77.240      96.506      116.82      137.10    
  156.12      172.60      185.37      193.45      196.22      193.45      185.37      172.60      156.12      137.10    
  116.82      96.506      77.240      59.871      44.978      32.859      23.555      16.874      12.449      9.7837    
  8.3187      7.4748      6.8391      6.3471      5.9907      5.7471      5.5925      5.5082      5.4812      5.5082    
  5.5925      5.7471      5.9907      6.3471      6.8391      7.4748      8.3187      9.7837      12.449      16.874    
  23.555      32.859      44.978      59.871      77.240      96.506      116.82      137.10      156.12      172.60    
  185.37      193.45      193.45      190.73      182.78      170.21      153.98      135.25      115.26      95.239    
  76.239      59.104      44.410      32.456      23.283      16.703      12.352      9.7362      8.2990      7.4646    
  6.8318      6.3428      5.9885      5.7466      5.5928      5.5089      5.4821      5.5089      5.5928      5.7466    
  5.9885      6.3428      6.8318      7.4646      8.2990      9.7362      12.352      16.703      23.283      32.456    
  44.410      59.104      76.239      95.239      115.26      135.25      153.98      170.21      182.78      190.73    
  185.37      182.78      175.20      163.22      147.73      129.83      110.70      91.520      73.296      56.849    
  42.741      31.271      22.486      16.204      12.071      9.5991      8.2421      7.4340      6.8099      6.3301    
  5.9821      5.7449      5.5936      5.5113      5.4846      5.5113      5.5936      5.7449      5.9821      6.3301    
  6.8099      7.4340      8.2421      9.5991      12.071      16.204      22.486      31.271      42.741      56.849    
  73.296      91.520      110.70      129.83      147.73      163.22      175.20      182.78      172.60      170.21    