unknown system                          
   1.00000000000000     
     2.830732   -0.000000    0.000000
     0.000000    2.830732    0.000000
    -0.000000   -0.000000    2.830732
   Fe
     2
Direct
  0.000000 -0.000000  0.000000
  0.500000  0.500000  0.500000
 
   48   48   48
 0.19213136424E+03 0.18947819637E+03 0.18172510511E+03 0.16946686472E+03 0.15361431190E+03
 0.13528877033E+03 0.11569741711E+03 0.96012016939E+02 0.77264535610E+02 0.60274179362E+02
 0.45607401922E+02 0.33572342891E+02 0.24229866606E+02 0.17426992482E+02 0.12838900659E+02
 0.10015680418E+02 0.84378939126E+01 0.75622253470E+01 0.69379520948E+01 0.64471201385E+01
 0.60902337354E+01 0.58435065621E+01 0.56877582186E+01 0.56016504436E+01 0.55750042250E+01
 0.56016504436E+01 0.56877582186E+01 0.58435065621E+01 0.60902337354E+01 0.64471201385E+01
 0.69379520948E+01 0.75622253470E+01 0.84378939126E+01 0.10015680418E+02 0.12838900659E+02
 0.17426992482E+02 0.24229866606E+02 0.33572342891E+02 0.45607401922E+02 0.60274179362E+02
 0.77264535610E+02 0.96012016939E+02 0.11569741711E+03 0.13528877033E+03 0.15361431190E+03
 0.16946686472E+03 0.18172510511E+03 0.18947819637E+03 0.18947819637E+03 0.18686670899E+03
 0.17923478146E+03 0.16716556237E+03 0.15155300462E+03 0.13349828485E+03 0.11418866078E+03
 0.94777803457E+02 0.76284142522E+02 0.59518492222E+02 0.45044443558E+02 0.33168594844E+02
 0.23954189957E+02 0.17250928934E+02 0.12736511863E+02 0.99637793926E+01 0.84159207684E+01
 0.75522138331E+01 0.69308056827E+01 0.64428306038E+01 0.60879772870E+01 0.58428894750E+01
 0.56879710090E+01 0.56024472369E+01 0.55758530924E+01 0.56024472369E+01 0.56879710090E+01
 0.58428894750E+01 0.60879772870E+01 0.64428306038E+01 0.69308056827E+01 0.75522138331E+01
 0.84159207684E+01 0.99637793926E+01 0.12736511863E+02 0.17250928934E+02 0.23954189957E+02
 0.33168594844E+02 0.45044443558E+02 0.59518492222E+02 0.76284142522E+02 0.94777803457E+02
 0.11418866078E+03 0.13349828485E+03 0.15155300462E+03 0.16716556237E+03 0.17923478146E+03
 0.18686670899E+03 0.18172510511E+03 0.17923478146E+03 0.17195484061E+03 0.16043518387E+03
 0.14552055825E+03 0.12825388276E+03 0.10976420929E+03 0.91154075631E+02 0.73403440184E+02
 0.57297810318E+02 0.43388879289E+02 0.31982458496E+02 0.23146109713E+02 0.16736182623E+02
 0.12439007817E+02 0.98137518205E+01 0.83527256971E+01 0.75222615124E+01 0.69093736674E+01
 0.64300301848E+01 0.60813242713E+01 0.58410068414E+01 0.56886103802E+01 0.56047406666E+01
 0.55783754236E+01 0.56047406666E+01 0.56886103802E+01 0.58410068414E+01 0.60813242713E+01
 0.64300301848E+01 0.69093736674E+01 0.75222615124E+01 0.83527256971E+01 0.98137518205E+01
 0.12439007817E+02 0.16736182623E+02 0.23146109713E+02 0.31982458496E+02 0.43388879289E+02
 0.57297810318E+02 0.73403440184E+02 0.91154075631E+02 0.10976420929E+03 0.12825388276E+03
 0.14552055825E+03 0.16043518387E+03 0.17195484061E+03 0.17923478146E+03 0.16946686472E+03
 0.16716556237E+03 0.16043518387E+03 0.14977417005E+03 0.13595174979E+03 0.11992101961E+03
 0.10272148911E+03 0.85375436093E+02 0.68801902005E+02 0.53746353959E+02 0.40742418841E+02
 0.30089583640E+02 0.21861554780E+02 0.15923832399E+02 0.11974122807E+02 0.95825799250E+01
 0.82552286060E+01 0.74725189723E+01 0.68736024388E+01 0.64089591416E+01 0.60703805495E+01
 0.58380200337E+01 0.56896938482E+01 0.56085918964E+01 0.55825337089E+01 0.56085918964E+01
 0.56896938482E+01 0.58380200337E+01 0.60703805495E+01 0.64089591416E+01 0.68736024388E+01
 0.74725189723E+01 0.82552286060E+01 0.95825799250E+01 0.11974122807E+02 0.15923832399E+02
 0.21861554780E+02 0.30089583640E+02 0.40742418841E+02 0.53746353959E+02 0.68801902005E+02
 0.85375436093E+02 0.10272148911E+03 0.11992101961E+03 0.13595174979E+03 0.14977417005E+03
 0.16043518387E+03 0.16716556237E+03 0.15361431190E+03 0.15155300462E+03 0.14552055825E+03
 0.13595174979E+03 0.12352148311E+03 0.10907100018E+03 0.93527283000E+02 0.77812344461E+02
 0.62767617928E+02 0.49085558541E+02 0.37271422130E+02 0.27615343151E+02 0.20193699221E+02
 0.14880367737E+02 0.11386491368E+02 0.92957609456E+01 0.81327715296E+01 0.74027877878E+01
 0.68239560908E+01 0.63799594540E+01 0.60555880196E+01 0.58339168832E+01 0.56912666094E+01
 0.56137540827E+01 0.55882581517E+01 0.56137540827E+01 0.56912666094E+01 0.58339168832E+01
 0.60555880196E+01 0.63799594540E+01 0.68239560908E+01 0.74027877878E+01 0.81327715296E+01
 0.92957609456E+01 0.11386491368E+02 0.14880367737E+02 0.20193699221E+02 0.27615343151E+02
 0.37271422130E+02 0.49085558541E+02 0.62767617928E+02 0.77812344461E+02 0.93527283000E+02
 0.10907100018E+03 0.12352148311E+03 0.13595174979E+03 0.14552055825E+03 0.15155300462E+03
 0.13528877033E+03 0.13349828485E+03 0.12825388276E+03 0.11992101961E+03 0.10907100018E+03
 0.96422662643E+02 0.82778267160E+02 0.68947302762E+02 0.55681158664E+02 0.43610181353E+02
 0.33202975739E+02 0.24730964688E+02 0.18268168622E+02 0.13694686566E+02 0.10732433198E+02
 0.89838106477E+01 0.79926998038E+01 0.73124976700E+01 0.67617202869E+01 0.63434228155E+01
 0.60375578374E+01 0.58286763389E+01 0.56934602140E+01 0.56199489522E+01 0.55955221612E+01
 0.56199489522E+01 0.56934602140E+01 0.58286763389E+01 0.60375578374E+01 0.63434228155E+01
 0.67617202869E+01 0.73124976700E+01 0.79926998038E+01 0.89838106477E+01 0.10732433198E+02
 0.13694686566E+02 0.18268168622E+02 0.24730964688E+02 0.33202975739E+02 0.43610181353E+02
 0.55681158664E+02 0.68947302762E+02 0.82778267160E+02 0.96422662643E+02 0.10907100018E+03
 0.11992101961E+03 0.12825388276E+03 0.13349828485E+03 0.11569741711E+03 0.11418866078E+03
 0.10976420929E+03 0.10272148911E+03 0.93527283000E+02 0.82778267160E+02 0.71148796072E+02
 0.59333814564E+02 0.47988514262E+02 0.37673994450E+02 0.28809405483E+02 0.21642735794E+02
 0.16234920601E+02 0.12468430720E+02 0.10073386005E+02 0.86745097721E+01 0.78376420187E+01
 0.72018366603E+01 0.66889591953E+01 0.63000909214E+01 0.60170941864E+01 0.58221279523E+01
 0.56962483955E+01 0.56265930807E+01 0.56040919101E+01 0.56265930807E+01 0.56962483955E+01
 0.58221279523E+01 0.60170941864E+01 0.63000909214E+01 0.66889591953E+01 0.72018366603E+01
 0.78376420187E+01 0.86745097721E+01 0.10073386005E+02 0.12468430720E+02 0.16234920601E+02
 0.21642735794E+02 0.28809405483E+02 0.37673994450E+02 0.47988514262E+02 0.59333814564E+02
 0.71148796072E+02 0.82778267160E+02 0.93527283000E+02 0.10272148911E+03 0.10976420929E+03
 0.11418866078E+03 0.96012016939E+02 0.94777803457E+02 0.91154075631E+02 0.85375436093E+02
 0.77812344461E+02 0.68947302762E+02 0.59333814564E+02 0.49554527882E+02 0.40166967337E+02
 0.31657145799E+02 0.24388347524E+02 0.18573022083E+02 0.14251381040E+02 0.11303163434E+02
 0.94644849651E+01 0.83843668317E+01 0.76641667191E+01 0.70746700877E+01 0.66073527481E+01
 0.62516934288E+01 0.59943362895E+01 0.58146754143E+01 0.56990603915E+01 0.56335988690E+01
 0.56132068959E+01 0.56335988690E+01 0.56990603915E+01 0.58146754143E+01 0.59943362895E+01
 0.62516934288E+01 0.66073527481E+01 0.70746700877E+01 0.76641667191E+01 0.83843668317E+01
 0.94644849651E+01 0.11303163434E+02 0.14251381040E+02 0.18573022083E+02 0.24388347524E+02
 0.31657145799E+02 0.40166967337E+02 0.49554527882E+02 0.59333814564E+02 0.68947302762E+02
 0.77812344461E+02 0.85375436093E+02 0.91154075631E+02 0.94777803457E+02 0.77264535610E+02
 0.76284142522E+02 0.73403440184E+02 0.68801902005E+02 0.62767617928E+02 0.55681158664E+02
 0.47988514262E+02 0.40166967337E+02 0.32680624051E+02 0.25934080413E+02 0.20229058673E+02
 0.15733626760E+02 0.12461753589E+02 0.10281984800E+02 0.89423420172E+01 0.81100665144E+01
 0.74699841302E+01 0.69371372236E+01 0.65186872749E+01 0.62005365423E+01 0.59692459934E+01
 0.58067187137E+01 0.57009254119E+01 0.56407358372E+01 0.56217045998E+01 0.56407358372E+01
 0.57009254119E+01 0.58067187137E+01 0.59692459934E+01 0.62005365423E+01 0.65186872749E+01
 0.69371372236E+01 0.74699841302E+01 0.81100665144E+01 0.89423420172E+01 0.10281984800E+02
 0.12461753589E+02 0.15733626760E+02 0.20229058673E+02 0.25934080413E+02 0.32680624051E+02
 0.40166967337E+02 0.47988514262E+02 0.55681158664E+02 0.62767617928E+02 0.68801902005E+02
 0.73403440184E+02 0.76284142522E+02 0.60274179362E+02 0.59518492222E+02 0.57297810318E+02
 0.53746353959E+02 0.49085558541E+02 0.43610181353E+02 0.37673994450E+02 0.31657145799E+02
 0.25934080413E+02 0.20828376163E+02 0.16578101658E+02 0.13296595378E+02 0.10970553653E+02
 0.94544955750E+01 0.85090933615E+01 0.78338813866E+01 0.72616195750E+01 0.67945113612E+01
 0.64262193101E+01 0.61478878772E+01 0.59424062464E+01 0.57979737576E+01 0.57015545969E+01
 0.56472858721E+01 0.56291030205E+01 0.56472858721E+01 0.57015545969E+01 0.57979737576E+01
 0.59424062464E+01 0.61478878772E+01 0.64262193101E+01 0.67945113612E+01 0.72616195750E+01
 0.78338813866E+01 0.85090933615E+01 0.94544955750E+01 0.10970553653E+02 0.13296595378E+02
 0.16578101658E+02 0.20828376163E+02 0.25934080413E+02 0.31657145799E+02 0.37673994450E+02
 0.43610181353E+02 0.49085558541E+02 0.53746353959E+02 0.57297810318E+02 0.59518492222E+02
 0.45607401922E+02 0.45044443558E+02 0.43388879289E+02 0.40742418841E+02 0.37271422130E+02
 0.33202975739E+02 0.28809405483E+02 0.24388347524E+02 0.20229058673E+02 0.16578101658E+02
 0.13601431086E+02 0.11366542846E+02 0.98228514187E+01 0.88210353003E+01 0.81284199048E+01
 0.75465233079E+01 0.70517371308E+01 0.66499287699E+01 0.63345623221E+01 0.60938981667E+01
 0.59152879819E+01 0.57871454542E+01 0.57012137131E+01 0.56515671698E+01 0.56354403926E+01
 0.56515671698E+01 0.57012137131E+01 0.57871454542E+01 0.59152879819E+01 0.60938981667E+01
 0.63345623221E+01 0.66499287699E+01 0.70517371308E+01 0.75465233079E+01 0.81284199048E+01
 0.88210353003E+01 0.98228514187E+01 0.11366542846E+02 0.13601431086E+02 0.16578101658E+02
 0.20229058673E+02 0.24388347524E+02 0.28809405483E+02 0.33202975739E+02 0.37271422130E+02
 0.40742418841E+02 0.43388879289E+02 0.45044443558E+02 0.33572342891E+02 0.33168594844E+02
 0.31982458496E+02 0.30089583640E+02 0.27615343151E+02 0.24730964688E+02 0.21642735794E+02
 0.18573022083E+02 0.15733626760E+02 0.13296595378E+02 0.11366542846E+02 0.99575796817E+01
 0.89952542582E+01 0.83217158880E+01 0.77581785932E+01 0.72620932518E+01 0.68468543900E+01
 0.65099273604E+01 0.62449924705E+01 0.60406169952E+01 0.58870340528E+01 0.57749473657E+01
 0.56986975825E+01 0.56540244366E+01 0.56394696057E+01 0.56540244366E+01 0.56986975825E+01
 0.57749473657E+01 0.58870340528E+01 0.60406169952E+01 0.62449924705E+01 0.65099273604E+01
 0.68468543900E+01 0.72620932518E+01 0.77581785932E+01 0.83217158880E+01 0.89952542582E+01
 0.99575796817E+01 0.11366542846E+02 0.13296595378E+02 0.15733626760E+02 0.18573022083E+02
 0.21642735794E+02 0.24730964688E+02 0.27615343151E+02 0.30089583640E+02 0.31982458496E+02
 0.33168594844E+02 0.24229866606E+02 0.23954189957E+02 0.23146109713E+02 0.21861554780E+02
 0.20193699221E+02 0.18268168622E+02 0.16234920601E+02 0.14251381040E+02 0.12461753589E+02
 0.10970553653E+02 0.98228514187E+01 0.89952542582E+01 0.83893631281E+01 0.78708941076E+01
 0.74001438257E+01 0.69935997043E+01 0.66536046123E+01 0.63782918990E+01 0.61593970167E+01
 0.59888796047E+01 0.58579448255E+01 0.57610037311E+01 0.56935548786E+01 0.56539086778E+01
 0.56406252418E+01 0.56539086778E+01 0.56935548786E+01 0.57610037311E+01 0.58579448255E+01
 0.59888796047E+01 0.61593970167E+01 0.63782918990E+01 0.66536046123E+01 0.69935997043E+01
 0.74001438257E+01 0.78708941076E+01 0.83893631281E+01 0.89952542582E+01 0.98228514187E+01
 0.10970553653E+02 0.12461753589E+02 0.14251381040E+02 0.16234920601E+02 0.18268168622E+02
 0.20193699221E+02 0.21861554780E+02 0.23146109713E+02 0.23954189957E+02 0.17426992482E+02
 0.17250928934E+02 0.16736182623E+02 0.15923832399E+02 0.14880367737E+02 0.13694686566E+02
 0.12468430720E+02 0.11303163434E+02 0.10281984800E+02 0.94544955750E+01 0.88210353003E+01
 0.83217158880E+01 0.78708941076E+01 0.74482566918E+01 0.70719712473E+01 0.67478404289E+01
 0.64776753506E+01 0.62568916728E+01 0.60795430074E+01 0.59383761399E+01 0.58282522429E+01
 0.57448528723E+01 0.56862293842E+01 0.56510784697E+01 0.56394696057E+01 0.56510784697E+01
 0.56862293842E+01 0.57448528723E+01 0.58282522429E+01 0.59383761399E+01 0.60795430074E+01
 0.62568916728E+01 0.64776753506E+01 0.67478404289E+01 0.70719712473E+01 0.74482566918E+01
 0.78708941076E+01 0.83217158880E+01 0.88210353003E+01 0.94544955750E+01 0.10281984800E+02
 0.11303163434E+02 0.12468430720E+02 0.13694686566E+02 0.14880367737E+02 0.15923832399E+02
 0.16736182623E+02 0.17250928934E+02 0.12838900659E+02 0.12736511863E+02 0.12439007817E+02
 0.11974122807E+02 0.11386491368E+02 0.10732433198E+02 0.10073386005E+02 0.94644849651E+01
 0.89423420172E+01 0.85090933615E+01 0.81284199048E+01 0.77581785932E+01 0.74001438257E+01
 0.70719712473E+01 0.67806548385E+01 0.65307288236E+01 0.63207685444E+01 0.61472742080E+01
 0.60051063713E+01 0.58900650169E+01 0.57981317648E+01 0.57272744423E+01 0.56764100255E+01
 0.56457713586E+01 0.56354403926E+01 0.56457713586E+01 0.56764100255E+01 0.57272744423E+01
 0.57981317648E+01 0.58900650169E+01 0.60051063713E+01 0.61472742080E+01 0.63207685444E+01
 0.65307288236E+01 0.67806548385E+01 0.70719712473E+01 0.74001438257E+01 0.77581785932E+01
 0.81284199048E+01 0.85090933615E+01 0.89423420172E+01 0.94644849651E+01 0.10073386005E+02
 0.10732433198E+02 0.11386491368E+02 0.11974122807E+02 0.12439007817E+02 0.12736511863E+02
 0.10015680418E+02 0.99637793926E+01 0.98137518205E+01 0.95825799250E+01 0.92957609456E+01
 0.89838106477E+01 0.86745097721E+01 0.83843668317E+01 0.81100665144E+01 0.78338813866E+01
 0.75465233079E+01 0.72620932518E+01 0.69935997043E+01 0.67478404289E+01 0.65307288236E+01
 0.63429890382E+01 0.61834191208E+01 0.60490637308E+01 0.59369720002E+01 0.58436844348E+01
 0.57675072297E+01 0.57076189236E+01 0.56643109253E+01 0.56379187914E+01 0.56291030205E+01
 0.56379187914E+01 0.56643109253E+01 0.57076189236E+01 0.57675072297E+01 0.58436844348E+01
 0.59369720002E+01 0.60490637308E+01 0.61834191208E+01 0.63429890382E+01 0.65307288236E+01
 0.67478404289E+01 0.69935997043E+01 0.72620932518E+01 0.75465233079E+01 0.78338813866E+01
 0.81100665144E+01 0.83843668317E+01 0.86745097721E+01 0.89838106477E+01 0.92957609456E+01
 0.95825799250E+01 0.98137518205E+01 0.99637793926E+01 0.84378939126E+01 0.84159207684E+01
 0.83527256971E+01 0.82552286060E+01 0.81327715296E+01 0.79926998038E+01 0.78376420187E+01
 0.76641667191E+01 0.74699841302E+01 0.72616195750E+01 0.70517371308E+01 0.68468543900E+01
 0.66536046123E+01 0.64776753506E+01 0.63207685444E+01 0.61834191208E+01 0.60643826306E+01
 0.59621383088E+01 0.58740416343E+01 0.57991466649E+01 0.57368990472E+01 0.56875064946E+01
 0.56513093713E+01 0.56292035835E+01 0.56217045998E+01 0.56292035835E+01 0.56513093713E+01
 0.56875064946E+01 0.57368990472E+01 0.57991466649E+01 0.58740416343E+01 0.59621383088E+01
 0.60643826306E+01 0.61834191208E+01 0.63207685444E+01 0.64776753506E+01 0.66536046123E+01
 0.68468543900E+01 0.70517371308E+01 0.72616195750E+01 0.74699841302E+01 0.76641667191E+01
 0.78376420187E+01 0.79926998038E+01 0.81327715296E+01 0.82552286060E+01 0.83527256971E+01
 0.84159207684E+01 0.75622253470E+01 0.75522138331E+01 0.75222615124E+01 0.74725189723E+01
 0.74027877878E+01 0.73124976700E+01 0.72018366603E+01 0.70746700877E+01 0.69371372236E+01
 0.67945113612E+01 0.66499287699E+01 0.65099273604E+01 0.63782918990E+01 0.62568916728E+01
 0.61472742080E+01 0.60490637308E+01 0.59621383088E+01 0.58846719950E+01 0.58165024353E+01
 0.57574431528E+01 0.57076369021E+01 0.56673887442E+01 0.56376897720E+01 0.56193611792E+01
 0.56132068959E+01 0.56193611792E+01 0.56376897720E+01 0.56673887442E+01 0.57076369021E+01
 0.57574431528E+01 0.58165024353E+01 0.58846719950E+01 0.59621383088E+01 0.60490637308E+01
 0.61472742080E+01 0.62568916728E+01 0.63782918990E+01 0.65099273604E+01 0.66499287699E+01
 0.67945113612E+01 0.69371372236E+01 0.70746700877E+01 0.72018366603E+01 0.73124976700E+01
 0.74027877878E+01 0.74725189723E+01 0.75222615124E+01 0.75522138331E+01 0.69379520948E+01
 0.69308056827E+01 0.69093736674E+01 0.68736024388E+01 0.68239560908E+01 0.67617202869E+01
 0.66889591953E+01 0.66073527481E+01 0.65186872749E+01 0.64262193101E+01 0.63345623221E+01
 0.62449924705E+01 0.61593970167E+01 0.60795430074E+01 0.60051063713E+01 0.59369720002E+01
 0.58740416343E+01 0.58165024353E+01 0.57647799942E+01 0.57190736495E+01 0.56796924266E+01
 0.56475846180E+01 0.56237296739E+01 0.56090649710E+01 0.56040919101E+01 0.56090649710E+01
 0.56237296739E+01 0.56475846180E+01 0.56796924266E+01 0.57190736495E+01 0.57647799942E+01
 0.58165024353E+01 0.58740416343E+01 0.59369720002E+01 0.60051063713E+01 0.60795430074E+01
 0.61593970167E+01 0.62449924705E+01 0.63345623221E+01 0.64262193101E+01 0.65186872749E+01
 0.66073527481E+01 0.66889591953E+01 0.67617202869E+01 0.68239560908E+01 0.68736024388E+01
 0.69093736674E+01 0.69308056827E+01 0.64471201385E+01 0.64428306038E+01 0.64300301848E+01
 0.64089591416E+01 0.63799594540E+01 0.63434228155E+01 0.63000909214E+01 0.62516934288E+01
 0.62005365423E+01 0.61478878772E+01 0.60938981667E+01 0.60406169952E+01 0.59888796047E+01
 0.59383761399E+01 0.58900650169E+01 0.58436844348E+01 0.57991466649E+01 0.57574431528E+01
 0.57190736495E+01 0.56842562988E+01 0.56538676383E+01 0.56290053251E+01 0.56106160097E+01
 0.55993214242E+01 0.55955221612E+01 0.55993214242E+01 0.56106160097E+01 0.56290053251E+01
 0.56538676383E+01 0.56842562988E+01 0.57190736495E+01 0.57574431528E+01 0.57991466649E+01
 0.58436844348E+01 0.58900650169E+01 0.59383761399E+01 0.59888796047E+01 0.60406169952E+01
 0.60938981667E+01 0.61478878772E+01 0.62005365423E+01 0.62516934288E+01 0.63000909214E+01
 0.63434228155E+01 0.63799594540E+01 0.64089591416E+01 0.64300301848E+01 0.64428306038E+01
 0.60902337354E+01 0.60879772870E+01 0.60813242713E+01 0.60703805495E+01 0.60555880196E+01
 0.60375578374E+01 0.60170941864E+01 0.59943362895E+01 0.59692459934E+01 0.59424062464E+01
 0.59152879819E+01 0.58870340528E+01 0.58579448255E+01 0.58282522429E+01 0.57981317648E+01
 0.57675072297E+01 0.57368990472E+01 0.57076369021E+01 0.56796924266E+01 0.56538676383E+01
 0.56312279911E+01 0.56128582599E+01 0.55993044023E+01 0.55910614984E+01 0.55882581517E+01
 0.55910614984E+01 0.55993044023E+01 0.56128582599E+01 0.56312279911E+01 0.56538676383E+01
 0.56796924266E+01 0.57076369021E+01 0.57368990472E+01 0.57675072297E+01 0.57981317648E+01
 0.58282522429E+01 0.58579448255E+01 0.58870340528E+01 0.59152879819E+01 0.59424062464E+01
 0.59692459934E+01 0.59943362895E+01 0.60170941864E+01 0.60375578374E+01 0.60555880196E+01
 0.60703805495E+01 0.60813242713E+01 0.60879772870E+01 0.58435065621E+01 0.58428894750E+01
 0.58410068414E+01 0.58380200337E+01 0.58339168832E+01 0.58286763389E+01 0.58221279523E+01
 0.58146754143E+01 0.58067187137E+01 0.57979737576E+01 0.57871454542E+01 0.57749473657E+01
 0.57610037311E+01 0.57448528723E+01 0.57272744423E+01 0.57076189236E+01 0.56875064946E+01
 0.56673887442E+01 0.56475846180E+01 0.56290053251E+01 0.56128582599E+01 0.55997968033E+01
 0.55902909347E+01 0.55844664655E+01 0.55825337089E+01 0.55844664655E+01 0.55902909347E+01
 0.55997968033E+01 0.56128582599E+01 0.56290053251E+01 0.56475846180E+01 0.56673887442E+01
 0.56875064946E+01 0.57076189236E+01 0.57272744423E+01 0.57448528723E+01 0.57610037311E+01
 0.57749473657E+01 0.57871454542E+01 0.57979737576E+01 0.58067187137E+01 0.58146754143E+01
 0.58221279523E+01 0.58286763389E+01 0.58339168832E+01 0.58380200337E+01 0.58410068414E+01
 0.58428894750E+01 0.56877582186E+01 0.56879710090E+01 0.56886103802E+01 0.56896938482E+01
 0.56912666094E+01 0.56934602140E+01 0.56962483955E+01 0.56990603915E+01 0.57009254119E+01
 0.57015545969E+01 0.57012137131E+01 0.56986975825E+01 0.56935548786E+01 0.56862293842E+01
 0.56764100255E+01 0.56643109253E+01 0.56513093713E+01 0.56376897720E+01 0.56237296739E+01
 0.56106160097E+01 0.55993044023E+01 0.55902909347E+01 0.55837176661E+01 0.55797220195E+01
 0.55783754236E+01 0.55797220195E+01 0.55837176661E+01 0.55902909347E+01 0.55993044023E+01
 0.56106160097E+01 0.56237296739E+01 0.56376897720E+01 0.56513093713E+01 0.56643109253E+01
 0.56764100255E+01 0.56862293842E+01 0.56935548786E+01 0.56986975825E+01 0.57012137131E+01
 0.57015545969E+01 0.57009254119E+01 0.56990603915E+01 0.56962483955E+01 0.56934602140E+01
 0.56912666094E+01 0.56896938482E+01 0.56886103802E+01 0.56879710090E+01 0.56016504436E+01
 0.56024472369E+01 0.56047406666E+01 0.56085918964E+01 0.56137540827E+01 0.56199489522E+01
 0.56265930807E+01 0.56335988690E+01 0.56407358372E+01 0.56472858721E+01 0.56515671698E+01
 0.56540244366E+01 0.56539086778E+01 0.56510784697E+01 0.56457713586E+01 0.56379187914E+01
 0.56292035835E+01 0.56193611792E+01 0.56090649710E+01 0.55993214242E+01 0.55910614984E+01
 0.55844664655E+01 0.55797220195E+01 0.55768013248E+01 0.55758530924E+01 0.55768013248E+01
 0.55797220195E+01 0.55844664655E+01 0.55910614984E+01 0.55993214242E+01 0.56090649710E+01
 0.56193611792E+01 0.56292035835E+01 0.56379187914E+01 0.56457713586E+01 0.56510784697E+01
 0.56539086778E+01 0.56540244366E+01 0.56515671698E+01 0.56472858721E+01 0.56407358372E+01
 0.56335988690E+01 0.56265930807E+01 0.56199489522E+01 0.56137540827E+01 0.56085918964E+01
 0.56047406666E+01 0.56024472369E+01 0.55750042250E+01 0.55758530924E+01 0.55783754236E+01
 0.55825337089E+01 0.55882581517E+01 0.55955221612E+01 0.56040919101E+01 0.56132068959E+01
 0.56217045998E+01 0.56291030205E+01 0.56354403926E+01 0.56394696057E+01 0.56406252418E+01
 0.56394696057E+01 0.56354403926E+01 0.56291030205E+01 0.56217045998E+01 0.56132068959E+01
 0.56040919101E+01 0.55955221612E+01 0.55882581517E+01 0.55825337089E+01 0.55783754236E+01
 0.55758530924E+01 0.55750042250E+01 0.55758530924E+01 0.55783754236E+01 0.55825337089E+01
 0.55882581517E+01 0.55955221612E+01 0.56040919101E+01 0.56132068959E+01 0.56217045998E+01
 0.56291030205E+01 0.56354403926E+01 0.56394696057E+01 0.56406252418E+01 0.56394696057E+01
 0.56354403926E+01 0.56291030205E+01 0.56217045998E+01 0.56132068959E+01 0.56040919101E+01
 0.55955221612E+01 0.55882581517E+01 0.55825337089E+01 0.55783754236E+01 0.55758530924E+01
 0.56016504436E+01 0.56024472369E+01 0.56047406666E+01 0.56085918964E+01 0.56137540827E+01
 0.56199489522E+01 0.56265930807E+01 0.56335988690E+01 0.56407358372E+01 0.56472858721E+01
 0.56515671698E+01 0.56540244366E+01 0.56539086778E+01 0.56510784697E+01 0.56457713586E+01
 0.56379187914E+01 0.56292035835E+01 0.56193611792E+01 0.56090649710E+01 0.55993214242E+01
 0.55910614984E+01 0.55844664655E+01 0.55797220195E+01 0.55768013248E+01 0.55758530924E+01
 0.55768013248E+01 0.55797220195E+01 0.55844664655E+01 0.55910614984E+01 0.55993214242E+01
 0.56090649710E+01 0.56193611792E+01 0.56292035835E+01 0.56379187914E+01 0.56457713586E+01
 0.56510784697E+01 0.56539086778E+01 0.56540244366E+01 0.56515671698E+01 0.56472858721E+01
 0.56407358372E+01 0.56335988690E+01 0.56265930807E+01 0.56199489522E+01 0.56137540827E+01
 0.56085918964E+01 0.56047406666E+01 0.56024472369E+01 0.56877582186E+01 0.56879710090E+01
 0.56886103802E+01 0.56896938482E+01 0.56912666094E+01 0.56934602140E+01 0.56962483955E+01
 0.56990603915E+01 0.57009254119E+01 0.57015545969E+01 0.57012137131E+01 0.56986975825E+01
 0.56935548786E+01 0.56862293842E+01 0.56764100255E+01 0.56643109253E+01 0.56513093713E+01
 0.56376897720E+01 0.56237296739E+01 0.56106160097E+01 0.55993044023E+01 0.55902909347E+01
 0.55837176661E+01 0.55797220195E+01 0.55783754236E+01 0.55797220195E+01 0.55837176661E+01
 0.55902909347E+01 0.55993044023E+01 0.56106160097E+01 0.56237296739E+01 0.56376897720E+01
 0.56513093713E+01 0.56643109253E+01 0.56764100255E+01 0.56862293842E+01 0.56935548786E+01
 0.56986975825E+01 0.57012137131E+01 0.57015545969E+01 0.57009254119E+01 0.56990603915E+01
 0.56962483955E+01 0.56934602140E+01 0.56912666094E+01 0.56896938482E+01 0.56886103802E+01
 0.56879710090E+01 0.58435065621E+01 0.58428894750E+01 0.58410068414E+01 0.58380200337E+01
 0.58339168832E+01 0.58286763389E+01 0.58221279523E+01 0.58146754143E+01 0.58067187137E+01
 0.57979737576E+01 0.57871454542E+01 0.57749473657E+01 0.57610037311E+01 0.57448528723E+01
 0.57272744423E+01 0.57076189236E+01 0.56875064946E+01 0.56673887442E+01 0.56475846180E+01
 0.56290053251E+01 0.56128582599E+01 0.55997968033E+01 0.55902909347E+01 0.55844664655E+01
 0.55825337089E+01 0.55844664655E+01 0.55902909347E+01 0.55997968033E+01 0.56128582599E+01
 0.56290053251E+01 0.56475846180E+01 0.56673887442E+01 0.56875064946E+01 0.57076189236E+01
 0.57272744423E+01 0.57448528723E+01 0.57610037311E+01 0.57749473657E+01 0.57871454542E+01
 0.57979737576E+01 0.58067187137E+01 0.58146754143E+01 0.58221279523E+01 0.58286763389E+01
 0.58339168832E+01 0.58380200337E+01 0.58410068414E+01 0.58428894750E+01 0.60902337354E+01
 0.60879772870E+01 0.60813242713E+01 0.60703805495E+01 0.60555880196E+01 0.60375578374E+01
 0.60170941864E+01 0.59943362895E+01 0.59692459934E+01 0.59424062464E+01 0.59152879819E+01
 0.58870340528E+01 0.58579448255E+01 0.58282522429E+01 0.57981317648E+01 0.57675072297E+01
 0.57368990472E+01 0.57076369021E+01 0.56796924266E+01 0.56538676383E+01 0.56312279911E+01
 0.56128582599E+01 0.55993044023E+01 0.55910614984E+01 0.55882581517E+01 0.55910614984E+01
 0.55993044023E+01 0.56128582599E+01 0.56312279911E+01 0.56538676383E+01 0.56796924266E+01
 0.57076369021E+01 0.57368990472E+01 0.57675072297E+01 0.57981317648E+01 0.58282522429E+01
 0.58579448255E+01 0.58870340528E+01 0.59152879819E+01 0.59424062464E+01 0.59692459934E+01
 0.59943362895E+01 0.60170941864E+01 0.60375578374E+01 0.60555880196E+01 0.60703805495E+01
 0.60813242713E+01 0.60879772870E+01 0.64471201385E+01 0.64428306038E+01 0.64300301848E+01
 0.64089591416E+01 0.63799594540E+01 0.63434228155E+01 0.63000909214E+01 0.62516934288E+01
 0.62005365423E+01 0.61478878772E+01 0.60938981667E+01 0.60406169952E+01 0.59888796047E+01
 0.59383761399E+01 0.58900650169E+01 0.58436844348E+01 0.57991466649E+01 0.57574431528E+01
 0.57190736495E+01 0.56842562988E+01 0.56538676383E+01 0.56290053251E+01 0.56106160097E+01
 0.55993214242E+01 0.55955221612E+01 0.55993214242E+01 0.56106160097E+01 0.56290053251E+01
 0.56538676383E+01 0.56842562988E+01 0.57190736495E+01 0.57574431528E+01 0.57991466649E+01
 0.58436844348E+01 0.58900650169E+01 0.59383761399E+01 0.59888796047E+01 0.60406169952E+01
 0.60938981667E+01 0.61478878772E+01 0.62005365423E+01 0.62516934288E+01 0.63000909214E+01
 0.63434228155E+01 0.63799594540E+01 0.64089591416E+01 0.64300301848E+01 0.64428306038E+01
 0.69379520948E+01 0.69308056827E+01 0.69093736674E+01 0.68736024388E+01 0.68239560908E+01
 0.67617202869E+01 0.66889591953E+01 0.66073527481E+01 0.65186872749E+01 0.64262193101E+01
 0.63345623221E+01 0.62449924705E+01 0.61593970167E+01 0.60795430074E+01 0.60051063713E+01
 0.59369720002E+01 0.58740416343E+01 0.58165024353E+01 0.57647799942E+01 0.57190736495E+01
 0.56796924266E+01 0.56475846180E+01 0.56237296739E+01 0.56090649710E+01 0.56040919101E+01
 0.56090649710E+01 0.56237296739E+01 0.56475846180E+01 0.56796924266E+01 0.57190736495E+01
 0.57647799942E+01 0.58165024353E+01 0.58740416343E+01 0.59369720002E+01 0.60051063713E+01
 0.60795430074E+01 0.61593970167E+01 0.62449924705E+01 0.63345623221E+01 0.64262193101E+01
 0.65186872749E+01 0.66073527481E+01 0.66889591953E+01 0.67617202869E+01 0.68239560908E+01
 0.68736024388E+01 0.69093736674E+01 0.69308056827E+01 0.75622253470E+01 0.75522138331E+01
 0.75222615124E+01 0.74725189723E+01 0.74027877878E+01 0.73124976700E+01 0.72018366603E+01
 0.70746700877E+01 0.69371372236E+01 0.67945113612E+01 0.66499287699E+01 0.65099273604E+01
 0.63782918990E+01 0.62568916728E+01 0.61472742080E+01 0.60490637308E+01 0.59621383088E+01
 0.58846719950E+01 0.58165024353E+01 0.57574431528E+01 0.57076369021E+01 0.56673887442E+01
 0.56376897720E+01 0.56193611792E+01 0.56132068959E+01 0.56193611792E+01 0.56376897720E+01
 0.56673887442E+01 0.57076369021E+01 0.57574431528E+01 0.58165024353E+01 0.58846719950E+01
 0.59621383088E+01 0.60490637308E+01 0.61472742080E+01 0.62568916728E+01 0.63782918990E+01
 0.65099273604E+01 0.66499287699E+01 0.67945113612E+01 0.69371372236E+01 0.70746700877E+01
 0.72018366603E+01 0.73124976700E+01 0.74027877878E+01 0.74725189723E+01 0.75222615124E+01
 0.75522138331E+01 0.84378939126E+01 0.84159207684E+01 0.83527256971E+01 0.82552286060E+01
 0.81327715296E+01 0.79926998038E+01 0.78376420187E+01 0.76641667191E+01 0.74699841302E+01
 0.72616195750E+01 0.70517371308E+01 0.68468543900E+01 0.66536046123E+01 0.64776753506E+01
 0.63207685444E+01 0.61834191208E+01 0.60643826306E+01 0.59621383088E+01 0.58740416343E+01
 0.57991466649E+01 0.57368990472E+01 0.56875064946E+01 0.56513093713E+01 0.56292035835E+01
 0.56217045998E+01 0.56292035835E+01 0.56513093713E+01 0.56875064946E+01 0.57368990472E+01
 0.57991466649E+01 0.58740416343E+01 0.59621383088E+01 0.60643826306E+01 0.61834191208E+01
 0.63207685444E+01 0.64776753506E+01 0.66536046123E+01 0.68468543900E+01 0.70517371308E+01
 0.72616195750E+01 0.74699841302E+01 0.76641667191E+01 0.78376420187E+01 0.79926998038E+01
 0.81327715296E+01 0.82552286060E+01 0.83527256971E+01 0.84159207684E+01 0.10015680418E+02
 0.99637793926E+01 0.98137518205E+01 0.95825799250E+01 0.92957609456E+01 0.89838106477E+01
 0.86745097721E+01 0.83843668317E+01 0.81100665144E+01 0.78338813866E+01 0.75465233079E+01
 0.72620932518E+01 0.69935997043E+01 0.67478404289E+01 0.65307288236E+01 0.63429890382E+01
 0.61834191208E+01 0.60490637308E+01 0.59369720002E+01 0.58436844348E+01 0.57675072297E+01
 0.57076189236E+01 0.56643109253E+01 0.56379187914E+01 0.56291030205E+01 0.56379187914E+01
 0.56643109253E+01 0.57076189236E+01 0.57675072297E+01 0.58436844348E+01 0.59369720002E+01
 0.60490637308E+01 0.61834191208E+01 0.63429890382E+01 0.65307288236E+01 0.67478404289E+01
 0.69935997043E+01 0.72620932518E+01 0.75465233079E+01 0.78338813866E+01 0.81100665144E+01
 0.83843668317E+01 0.86745097721E+01 0.89838106477E+01 0.92957609456E+01 0.95825799250E+01