   2   2   1   0
  0.1173411E+02  0.2863036E-09  0.2863036E-09  0.2863036E-09  0.5000000E-15
  1.000000000000000E-004
  CAR 
 unknown system                          
     45.18118561     -4.87347099  301      5.83869461      1.00000000
     -4.873  0.0000E+00  0.0000E+00  0.0000E+00  0.0000E+00
     -4.707  0.0000E+00  0.0000E+00  0.0000E+00  0.0000E+00
     -4.540  0.0000E+00  0.0000E+00  0.0000E+00  0.0000E+00
     -4.373  0.0000E+00  0.0000E+00  0.0000E+00  0.0000E+00
     -4.206 -0.3461E-32  0.0000E+00 -0.5775E-33  0.0000E+00
     -4.039 -0.1038E-26 -0.5666E-32 -0.1732E-27 -0.9454E-33
     -3.872 -0.7666E-22 -0.1613E-26 -0.1279E-22 -0.2691E-27
     -3.706 -0.1353E-17 -0.1131E-21 -0.2257E-18 -0.1886E-22
     -3.539 -0.6021E-14 -0.1893E-17 -0.1005E-14 -0.3158E-18
     -3.372 -0.6677E-11 -0.7995E-14 -0.1115E-11 -0.1334E-14
     -3.205 -0.1878E-08 -0.8414E-11 -0.3145E-09 -0.1405E-11
     -3.038 -0.1373E-06 -0.2247E-08 -0.2322E-07 -0.3763E-09
     -2.871 -0.2535E-05 -0.1559E-06 -0.4462E-06 -0.2639E-07
     -2.704 -0.6098E-05 -0.2722E-05 -0.1464E-05 -0.4806E-06
     -2.538  0.6483E-04 -0.5604E-05  0.9353E-05 -0.1416E-05
     -2.371  0.2307E-03  0.6987E-04  0.4784E-04  0.1024E-04
     -2.204  0.3649E-03  0.2342E-03  0.1087E-03  0.4932E-04
     -2.037  0.5350E-03  0.3660E-03  0.1980E-03  0.1104E-03
     -1.870  0.4672E-03  0.5329E-03  0.2759E-03  0.1993E-03
     -1.703  0.7040E-03  0.4567E-03  0.3934E-03  0.2755E-03
     -1.536  0.7569E-03  0.6943E-03  0.5197E-03  0.3914E-03
     -1.370  0.8088E-03  0.7388E-03  0.6546E-03  0.5146E-03
     -1.203  0.7293E-03  0.7909E-03  0.7763E-03  0.6466E-03
     -1.036  0.1047E-02  0.7055E-03  0.9510E-03  0.7643E-03
     -0.869  0.1232E-02  0.9550E-03  0.1157E-02  0.9237E-03
     -0.702  0.1011E-02  0.1186E-02  0.1325E-02  0.1122E-02
     -0.535  0.1004E-02  0.1043E-02  0.1493E-02  0.1296E-02
     -0.369  0.1518E-02  0.8037E-03  0.1746E-02  0.1430E-02
     -0.202  0.1634E-02  0.1323E-02  0.2019E-02  0.1651E-02
     -0.035  0.1535E-02  0.1500E-02  0.2275E-02  0.1901E-02
      0.132  0.1585E-02  0.1420E-02  0.2539E-02  0.2138E-02
      0.299  0.1933E-02  0.1230E-02  0.2862E-02  0.2343E-02
      0.466  0.2447E-02  0.1589E-02  0.3270E-02  0.2608E-02
      0.633  0.2729E-02  0.1552E-02  0.3725E-02  0.2867E-02
      0.799  0.3161E-02  0.1939E-02  0.4253E-02  0.3191E-02
      0.966  0.5863E-02  0.2181E-02  0.5231E-02  0.3555E-02
      1.133  0.1055E-01  0.1971E-02  0.6992E-02  0.3883E-02
      1.300  0.1158E-01  0.1760E-02  0.8924E-02  0.4177E-02
      1.467  0.1412E-01  0.2712E-02  0.1128E-01  0.4630E-02
      1.634  0.1813E-01  0.3010E-02  0.1431E-01  0.5132E-02
      1.800  0.1806E-01  0.3048E-02  0.1732E-01  0.5640E-02
      1.967  0.1374E-01  0.3652E-02  0.1961E-01  0.6250E-02
      2.134  0.9762E-02  0.4494E-02  0.2124E-01  0.7000E-02
      2.301  0.8617E-02  0.6270E-02  0.2268E-01  0.8046E-02
      2.468  0.1901E-01  0.7828E-02  0.2585E-01  0.9352E-02
      2.635  0.3039E-01  0.6628E-02  0.3092E-01  0.1046E-01
      2.802  0.2407E-01  0.7311E-02  0.3493E-01  0.1168E-01
      2.968  0.2021E-01  0.9194E-02  0.3831E-01  0.1321E-01
      3.135  0.2251E-01  0.1154E-01  0.4206E-01  0.1514E-01
      3.302  0.2839E-01  0.1302E-01  0.4680E-01  0.1731E-01
      3.469  0.2712E-01  0.1126E-01  0.5132E-01  0.1919E-01
      3.636  0.1640E-01  0.8303E-02  0.5406E-01  0.2057E-01
      3.803  0.9394E-02  0.5519E-02  0.5563E-01  0.2149E-01
      3.970  0.8446E-02  0.9583E-02  0.5704E-01  0.2309E-01
      4.136  0.9096E-02  0.2063E-01  0.5856E-01  0.2653E-01
      4.303  0.1209E-01  0.2645E-01  0.6057E-01  0.3095E-01
      4.470  0.1903E-01  0.2464E-01  0.6375E-01  0.3506E-01
      4.637  0.3127E-01  0.2284E-01  0.6896E-01  0.3887E-01
      4.804  0.4361E-01  0.2260E-01  0.7624E-01  0.4264E-01
      4.971  0.5053E-01  0.2428E-01  0.8467E-01  0.4669E-01
      5.137  0.3504E-01  0.2349E-01  0.9052E-01  0.5061E-01
      5.304  0.1855E-01  0.1920E-01  0.9361E-01  0.5381E-01
      5.471  0.1665E-01  0.1327E-01  0.9639E-01  0.5603E-01
      5.638  0.1394E-01  0.6587E-02  0.9872E-01  0.5713E-01
      5.805  0.1510E-01  0.5459E-02  0.1012E+00  0.5804E-01
      5.972  0.1545E-01  0.4747E-02  0.1038E+00  0.5883E-01
      6.139  0.9522E-02  0.5446E-02  0.1054E+00  0.5974E-01
      6.305  0.4379E-02  0.5919E-02  0.1061E+00  0.6072E-01
      6.472  0.2224E-02  0.8655E-02  0.1065E+00  0.6217E-01
      6.639  0.2777E-02  0.1190E-01  0.1070E+00  0.6415E-01
      6.806  0.3554E-02  0.1498E-01  0.1076E+00  0.6665E-01
      6.973  0.3207E-02  0.1778E-01  0.1081E+00  0.6962E-01
      7.140  0.2381E-02  0.2260E-01  0.1085E+00  0.7339E-01
      7.306  0.3114E-02  0.2682E-01  0.1090E+00  0.7787E-01
      7.473  0.3395E-02  0.2536E-01  0.1096E+00  0.8210E-01
      7.640  0.2024E-02  0.3207E-01  0.1099E+00  0.8745E-01
      7.807  0.2219E-02  0.4811E-01  0.1103E+00  0.9548E-01
      7.974  0.3175E-02  0.3287E-01  0.1108E+00  0.1010E+00
      8.141  0.3305E-02  0.1667E-01  0.1114E+00  0.1037E+00
      8.308  0.2825E-02  0.1140E-01  0.1118E+00  0.1056E+00
      8.474  0.2681E-02  0.6121E-02  0.1123E+00  0.1067E+00
      8.641  0.2052E-02  0.4165E-02  0.1126E+00  0.1074E+00
      8.808  0.1895E-02  0.4623E-02  0.1129E+00  0.1081E+00
      8.975  0.2590E-02  0.4405E-02  0.1134E+00  0.1089E+00
      9.142  0.2592E-02  0.3750E-02  0.1138E+00  0.1095E+00
      9.309  0.2368E-02  0.2637E-02  0.1142E+00  0.1099E+00
      9.476  0.2505E-02  0.3331E-02  0.1146E+00  0.1105E+00
      9.642  0.2647E-02  0.4874E-02  0.1151E+00  0.1113E+00
      9.809  0.1946E-02  0.3652E-02  0.1154E+00  0.1119E+00
      9.976  0.1665E-02  0.2225E-02  0.1157E+00  0.1123E+00
     10.143  0.1820E-02  0.2280E-02  0.1160E+00  0.1127E+00
     10.310  0.2118E-02  0.3444E-02  0.1163E+00  0.1132E+00
     10.477  0.1270E-02  0.3473E-02  0.1165E+00  0.1138E+00
     10.643  0.1352E-02  0.2402E-02  0.1168E+00  0.1142E+00
     10.810  0.2504E-02  0.2413E-02  0.1172E+00  0.1146E+00
     10.977  0.2086E-02  0.3194E-02  0.1175E+00  0.1152E+00
     11.144  0.1816E-02  0.2230E-02  0.1178E+00  0.1155E+00
     11.311  0.1136E-02  0.1783E-02  0.1180E+00  0.1158E+00
     11.478  0.1210E-02  0.2384E-02  0.1182E+00  0.1162E+00
     11.645  0.1108E-02  0.1904E-02  0.1184E+00  0.1165E+00
     11.811  0.4178E-03  0.1774E-02  0.1185E+00  0.1168E+00
     11.978  0.1043E-02  0.2536E-02  0.1186E+00  0.1173E+00
     12.145  0.1411E-02  0.2148E-02  0.1189E+00  0.1176E+00
     12.312  0.9950E-03  0.1692E-02  0.1190E+00  0.1179E+00
     12.479  0.9738E-03  0.1162E-02  0.1192E+00  0.1181E+00
     12.646  0.8593E-03  0.1139E-02  0.1194E+00  0.1183E+00
     12.813  0.9012E-03  0.1022E-02  0.1195E+00  0.1185E+00
     12.979  0.5651E-03  0.1176E-02  0.1196E+00  0.1186E+00
     13.146  0.3438E-03  0.1823E-02  0.1197E+00  0.1190E+00
     13.313  0.1626E-02  0.1399E-02  0.1199E+00  0.1192E+00
     13.480  0.3808E-02  0.5574E-03  0.1206E+00  0.1193E+00
     13.647  0.5277E-02  0.5903E-03  0.1214E+00  0.1194E+00
     13.814  0.5514E-02  0.8855E-03  0.1224E+00  0.1195E+00
     13.980  0.4898E-02  0.4969E-03  0.1232E+00  0.1196E+00
     14.147  0.3839E-02  0.2256E-03  0.1238E+00  0.1196E+00
     14.314  0.3641E-02  0.1532E-03  0.1244E+00  0.1197E+00
     14.481  0.3737E-02  0.1444E-02  0.1251E+00  0.1199E+00
     14.648  0.3041E-02  0.4267E-02  0.1256E+00  0.1206E+00
     14.815  0.3082E-02  0.6078E-02  0.1261E+00  0.1216E+00
     14.982  0.3005E-02  0.7075E-02  0.1266E+00  0.1228E+00
     15.148  0.2768E-02  0.5854E-02  0.1270E+00  0.1238E+00
     15.315  0.3673E-02  0.3087E-02  0.1277E+00  0.1243E+00
     15.482  0.3424E-02  0.3325E-02  0.1282E+00  0.1249E+00
     15.649  0.2991E-02  0.4151E-02  0.1287E+00  0.1256E+00
     15.816  0.4383E-02  0.4405E-02  0.1295E+00  0.1263E+00
     15.983  0.4274E-02  0.4171E-02  0.1302E+00  0.1270E+00
     16.149  0.3798E-02  0.2635E-02  0.1308E+00  0.1274E+00
     16.316  0.3372E-02  0.3397E-02  0.1314E+00  0.1280E+00
     16.483  0.3639E-02  0.3799E-02  0.1320E+00  0.1286E+00
     16.650  0.4052E-02  0.4858E-02  0.1326E+00  0.1294E+00
     16.817  0.3735E-02  0.4673E-02  0.1333E+00  0.1302E+00
     16.984  0.3607E-02  0.3899E-02  0.1339E+00  0.1309E+00
     17.151  0.3553E-02  0.4440E-02  0.1345E+00  0.1316E+00
     17.317  0.5015E-02  0.4150E-02  0.1353E+00  0.1323E+00
     17.484  0.4407E-02  0.2743E-02  0.1360E+00  0.1328E+00
     17.651  0.2376E-02  0.3644E-02  0.1364E+00  0.1334E+00
     17.818  0.2459E-02  0.4346E-02  0.1368E+00  0.1341E+00
     17.985  0.3724E-02  0.4185E-02  0.1375E+00  0.1348E+00
     18.152  0.3343E-02  0.5368E-02  0.1380E+00  0.1357E+00
     18.319  0.4073E-02  0.4452E-02  0.1387E+00  0.1364E+00
     18.485  0.5776E-02  0.2165E-02  0.1397E+00  0.1368E+00
     18.652  0.3866E-02  0.2321E-02  0.1403E+00  0.1372E+00
     18.819  0.2565E-02  0.3324E-02  0.1407E+00  0.1377E+00
     18.986  0.3568E-02  0.4817E-02  0.1413E+00  0.1385E+00
     19.153  0.2093E-02  0.5053E-02  0.1417E+00  0.1394E+00
     19.320  0.1416E-02  0.4810E-02  0.1419E+00  0.1402E+00
     19.486  0.4425E-02  0.3572E-02  0.1427E+00  0.1408E+00
     19.653  0.5581E-02  0.2876E-02  0.1436E+00  0.1413E+00
     19.820  0.4537E-02  0.2373E-02  0.1443E+00  0.1417E+00
     19.987  0.4554E-02  0.2180E-02  0.1451E+00  0.1420E+00
     20.154  0.2341E-02  0.4232E-02  0.1455E+00  0.1427E+00
     20.321  0.1543E-02  0.4882E-02  0.1458E+00  0.1435E+00
     20.488  0.2625E-02  0.5198E-02  0.1462E+00  0.1444E+00
     20.654  0.3310E-02  0.4605E-02  0.1467E+00  0.1452E+00
     20.821  0.3073E-02  0.1882E-02  0.1473E+00  0.1455E+00
     20.988  0.3604E-02  0.2597E-02  0.1479E+00  0.1459E+00
     21.155  0.5230E-02  0.3063E-02  0.1487E+00  0.1464E+00
     21.322  0.4777E-02  0.2761E-02  0.1495E+00  0.1469E+00
     21.489  0.3398E-02  0.3358E-02  0.1501E+00  0.1475E+00
     21.655  0.1853E-02  0.4465E-02  0.1504E+00  0.1482E+00
     21.822  0.1482E-02  0.5492E-02  0.1506E+00  0.1491E+00
     21.989  0.3491E-02  0.4090E-02  0.1512E+00  0.1498E+00
     22.156  0.3995E-02  0.2847E-02  0.1519E+00  0.1503E+00
     22.323  0.4000E-02  0.1318E-02  0.1526E+00  0.1505E+00
     22.490  0.4996E-02  0.2578E-02  0.1534E+00  0.1509E+00
     22.657  0.5024E-02  0.3852E-02  0.1542E+00  0.1516E+00
     22.823  0.4882E-02  0.3767E-02  0.1551E+00  0.1522E+00
     22.990  0.4335E-02  0.4195E-02  0.1558E+00  0.1529E+00
     23.157  0.3140E-02  0.5286E-02  0.1563E+00  0.1538E+00
     23.324  0.2998E-02  0.5448E-02  0.1568E+00  0.1547E+00
     23.491  0.4351E-02  0.4247E-02  0.1575E+00  0.1554E+00
     23.658  0.5721E-02  0.3711E-02  0.1585E+00  0.1560E+00
     23.825  0.5023E-02  0.4391E-02  0.1593E+00  0.1567E+00
     23.991  0.5088E-02  0.4325E-02  0.1602E+00  0.1575E+00
     24.158  0.6982E-02  0.4889E-02  0.1613E+00  0.1583E+00
     24.325  0.5423E-02  0.6641E-02  0.1622E+00  0.1594E+00
     24.492  0.4012E-02  0.7086E-02  0.1629E+00  0.1606E+00
     24.659  0.3940E-02  0.5813E-02  0.1636E+00  0.1615E+00
     24.826  0.4201E-02  0.4261E-02  0.1643E+00  0.1623E+00
     24.992  0.4168E-02  0.4396E-02  0.1650E+00  0.1630E+00
     25.159  0.5422E-02  0.4506E-02  0.1659E+00  0.1637E+00
     25.326  0.6033E-02  0.3732E-02  0.1669E+00  0.1644E+00
     25.493  0.6043E-02  0.5178E-02  0.1679E+00  0.1652E+00
     25.660  0.6119E-02  0.5722E-02  0.1689E+00  0.1662E+00
     25.827  0.5620E-02  0.5406E-02  0.1698E+00  0.1671E+00
     25.994  0.3733E-02  0.7085E-02  0.1705E+00  0.1683E+00
     26.160  0.3056E-02  0.6612E-02  0.1710E+00  0.1694E+00
     26.327  0.4506E-02  0.3996E-02  0.1717E+00  0.1700E+00
     26.494  0.6131E-02  0.3265E-02  0.1727E+00  0.1706E+00
     26.661  0.6137E-02  0.4213E-02  0.1738E+00  0.1713E+00
     26.828  0.5741E-02  0.5254E-02  0.1747E+00  0.1722E+00
     26.995  0.4329E-02  0.5879E-02  0.1754E+00  0.1731E+00
     27.162  0.4155E-02  0.5951E-02  0.1761E+00  0.1741E+00
     27.328  0.3258E-02  0.5815E-02  0.1767E+00  0.1751E+00
     27.495  0.2857E-02  0.4702E-02  0.1772E+00  0.1759E+00
     27.662  0.3565E-02  0.2798E-02  0.1778E+00  0.1764E+00
     27.829  0.3326E-02  0.3377E-02  0.1783E+00  0.1769E+00
     27.996  0.3931E-02  0.4088E-02  0.1790E+00  0.1776E+00
     28.163  0.4277E-02  0.2540E-02  0.1797E+00  0.1780E+00
     28.329  0.3981E-02  0.2501E-02  0.1803E+00  0.1784E+00
     28.496  0.3535E-02  0.4626E-02  0.1809E+00  0.1792E+00
     28.663  0.2759E-02  0.5583E-02  0.1814E+00  0.1801E+00
     28.830  0.2885E-02  0.3110E-02  0.1819E+00  0.1807E+00
     28.997  0.2100E-02  0.2338E-02  0.1822E+00  0.1811E+00
     29.164  0.2183E-02  0.3276E-02  0.1826E+00  0.1816E+00
     29.331  0.2260E-02  0.3174E-02  0.1830E+00  0.1821E+00
     29.497  0.3283E-02  0.2304E-02  0.1835E+00  0.1825E+00
     29.664  0.3945E-02  0.2358E-02  0.1842E+00  0.1829E+00
     29.831  0.3177E-02  0.2444E-02  0.1847E+00  0.1833E+00
     29.998  0.3136E-02  0.3791E-02  0.1852E+00  0.1839E+00
     30.165  0.4100E-02  0.4208E-02  0.1859E+00  0.1846E+00
     30.332  0.4575E-02  0.2765E-02  0.1867E+00  0.1851E+00
     30.498  0.5532E-02  0.3702E-02  0.1876E+00  0.1857E+00
     30.665  0.5774E-02  0.5583E-02  0.1886E+00  0.1867E+00
     30.832  0.6752E-02  0.5208E-02  0.1897E+00  0.1875E+00
     30.999  0.6228E-02  0.5931E-02  0.1907E+00  0.1885E+00
     31.166  0.5828E-02  0.6643E-02  0.1917E+00  0.1896E+00
     31.333  0.4855E-02  0.5665E-02  0.1925E+00  0.1906E+00
     31.500  0.4357E-02  0.6157E-02  0.1932E+00  0.1916E+00
     31.666  0.3727E-02  0.5412E-02  0.1939E+00  0.1925E+00
     31.833  0.3046E-02  0.3668E-02  0.1944E+00  0.1931E+00
     32.000  0.3977E-02  0.4789E-02  0.1950E+00  0.1939E+00
     32.167  0.3132E-02  0.4812E-02  0.1956E+00  0.1947E+00
     32.334  0.1651E-02  0.2836E-02  0.1958E+00  0.1952E+00
     32.501  0.1147E-02  0.2264E-02  0.1960E+00  0.1956E+00
     32.668  0.9797E-03  0.1497E-02  0.1962E+00  0.1958E+00
     32.834  0.1915E-02  0.1441E-02  0.1965E+00  0.1961E+00
     33.001  0.1362E-02  0.2451E-02  0.1967E+00  0.1965E+00
     33.168  0.7689E-03  0.1255E-02  0.1969E+00  0.1967E+00
     33.335  0.1164E-02  0.6861E-03  0.1971E+00  0.1968E+00
     33.502  0.1418E-02  0.1590E-02  0.1973E+00  0.1971E+00
     33.669  0.1389E-02  0.2045E-02  0.1975E+00  0.1974E+00
     33.835  0.7731E-03  0.1142E-02  0.1977E+00  0.1976E+00
     34.002  0.7488E-03  0.5647E-03  0.1978E+00  0.1977E+00
     34.169  0.8404E-03  0.7361E-03  0.1979E+00  0.1978E+00
     34.336  0.3218E-03  0.6785E-03  0.1980E+00  0.1979E+00
     34.503  0.6122E-04  0.3367E-03  0.1980E+00  0.1980E+00
     34.670  0.5396E-04  0.6231E-04  0.1980E+00  0.1980E+00
     34.837  0.7979E-03  0.4713E-03  0.1981E+00  0.1981E+00
     35.003  0.1016E-02  0.9773E-03  0.1983E+00  0.1982E+00
     35.170  0.2738E-03  0.5808E-03  0.1983E+00  0.1983E+00
     35.337  0.6340E-04  0.1803E-03  0.1983E+00  0.1984E+00
     35.504  0.9384E-03  0.8088E-03  0.1985E+00  0.1985E+00
     35.671  0.1110E-02  0.1109E-02  0.1987E+00  0.1987E+00
     35.838  0.7805E-03  0.8712E-03  0.1988E+00  0.1988E+00
     36.004  0.5128E-03  0.5462E-03  0.1989E+00  0.1989E+00
     36.171  0.1460E-03  0.1442E-04  0.1989E+00  0.1989E+00
     36.338  0.5072E-03  0.3452E-03  0.1990E+00  0.1990E+00
     36.505  0.2923E-03  0.5575E-03  0.1991E+00  0.1991E+00
     36.672  0.2416E-03  0.3139E-03  0.1991E+00  0.1991E+00
     36.839  0.9923E-04  0.4162E-04  0.1991E+00  0.1991E+00
     37.006  0.8763E-04  0.5877E-04  0.1991E+00  0.1991E+00
     37.172  0.5206E-03  0.5028E-03  0.1992E+00  0.1992E+00
     37.339  0.2802E-03  0.3158E-03  0.1993E+00  0.1993E+00
     37.506 -0.5089E-04 -0.4782E-04  0.1993E+00  0.1993E+00
     37.673  0.5887E-04  0.1526E-03  0.1993E+00  0.1993E+00
     37.840  0.8223E-03  0.8640E-03  0.1994E+00  0.1994E+00
     38.007  0.7979E-03  0.7106E-03  0.1995E+00  0.1995E+00
     38.174  0.2148E-03  0.2747E-03  0.1996E+00  0.1996E+00
     38.340  0.2437E-03  0.1691E-03  0.1996E+00  0.1996E+00
     38.507  0.1996E-03  0.1418E-03  0.1997E+00  0.1996E+00
     38.674  0.1106E-03  0.1329E-03  0.1997E+00  0.1997E+00
     38.841 -0.5898E-05 -0.1677E-05  0.1997E+00  0.1997E+00
     39.008 -0.1365E-04 -0.3673E-05  0.1997E+00  0.1997E+00
     39.175  0.1372E-03  0.1912E-03  0.1997E+00  0.1997E+00
     39.341  0.2638E-03  0.2290E-03  0.1997E+00  0.1997E+00
     39.508  0.4801E-04  0.6385E-05  0.1997E+00  0.1997E+00
     39.675 -0.2209E-04  0.6968E-04  0.1997E+00  0.1998E+00
     39.842  0.1293E-03  0.2719E-03  0.1998E+00  0.1998E+00
     40.009  0.2638E-03  0.9665E-04  0.1998E+00  0.1998E+00
     40.176  0.4439E-04 -0.7464E-05  0.1998E+00  0.1998E+00
     40.343  0.8178E-04  0.1898E-03  0.1998E+00  0.1998E+00
     40.509  0.2596E-03  0.2526E-03  0.1999E+00  0.1999E+00
     40.676  0.1590E-03  0.2612E-03  0.1999E+00  0.1999E+00
     40.843  0.2592E-03  0.1598E-03  0.1999E+00  0.2000E+00
     41.010  0.1093E-03 -0.4961E-05  0.2000E+00  0.2000E+00
     41.177 -0.1175E-04 -0.5553E-05  0.2000E+00  0.2000E+00
     41.344 -0.3177E-05 -0.2359E-06  0.2000E+00  0.2000E+00
     41.511 -0.9066E-07 -0.1962E-08  0.2000E+00  0.2000E+00
     41.677 -0.5339E-09 -0.3689E-11  0.2000E+00  0.2000E+00
     41.844 -0.7207E-12 -0.2238E-13  0.2000E+00  0.2000E+00
     42.011 -0.6964E-12 -0.2772E-10  0.2000E+00  0.2000E+00
     42.178 -0.4792E-09 -0.8668E-08  0.2000E+00  0.2000E+00
     42.345 -0.7536E-07 -0.5949E-06  0.2000E+00  0.2000E+00
     42.512 -0.2420E-05 -0.6914E-05  0.2000E+00  0.2000E+00
     42.678 -0.7192E-05  0.1984E-04  0.2000E+00  0.2000E+00
     42.845  0.8269E-04  0.1635E-03  0.2000E+00  0.2000E+00
     43.012  0.1791E-03  0.1146E-03  0.2000E+00  0.2000E+00
     43.179  0.4137E-04 -0.2330E-05  0.2000E+00  0.2000E+00
     43.346 -0.8228E-05 -0.3821E-05  0.2000E+00  0.2000E+00
     43.513 -0.1105E-05 -0.1680E-06  0.2000E+00  0.2000E+00
     43.680 -0.2170E-07 -0.1441E-08  0.2000E+00  0.2000E+00
     43.846 -0.9124E-10 -0.2797E-11  0.2000E+00  0.2000E+00
     44.013 -0.8887E-13 -0.1283E-14  0.2000E+00  0.2000E+00
     44.180 -0.2063E-16 -0.1577E-18  0.2000E+00  0.2000E+00
     44.347  0.0000E+00  0.0000E+00  0.2000E+00  0.2000E+00
     44.514  0.0000E+00  0.0000E+00  0.2000E+00  0.2000E+00
     44.681  0.0000E+00  0.0000E+00  0.2000E+00  0.2000E+00
     44.847  0.0000E+00  0.0000E+00  0.2000E+00  0.2000E+00
     45.014  0.0000E+00  0.0000E+00  0.2000E+00  0.2000E+00
     45.181  0.0000E+00  0.0000E+00  0.2000E+00  0.2000E+00
     45.18118561     -4.87347099  301      5.83869461      1.00000000
     -4.873  0.0000E+00  0.0000E+00  0.0000E+00  0.0000E+00  0.0000E+00  0.0000E+00  0.0000E+00  0.0000E+00  0.0000E+00  0.0000E+00  0.0000E+00  0.0000E+00  0.0000E+00  0.0000E+00  0.0000E+00  0.0000E+00  0.0000E+00  0.0000E+00
     -4.707  0.0000E+00  0.0000E+00  0.0000E+00  0.0000E+00  0.0000E+00  0.0000E+00  0.0000E+00  0.0000E+00  0.0000E+00  0.0000E+00  0.0000E+00  0.0000E+00  0.0000E+00  0.0000E+00  0.0000E+00  0.0000E+00  0.0000E+00  0.0000E+00
     -4.540  0.0000E+00  0.0000E+00  0.0000E+00  0.0000E+00  0.0000E+00  0.0000E+00  0.0000E+00  0.0000E+00  0.0000E+00  0.0000E+00  0.0000E+00  0.0000E+00  0.0000E+00  0.0000E+00  0.0000E+00  0.0000E+00  0.0000E+00  0.0000E+00
     -4.373  0.0000E+00  0.0000E+00  0.0000E+00  0.0000E+00  0.0000E+00  0.0000E+00  0.0000E+00  0.0000E+00  0.0000E+00  0.0000E+00  0.0000E+00  0.0000E+00  0.0000E+00  0.0000E+00  0.0000E+00  0.0000E+00  0.0000E+00  0.0000E+00
     -4.206 -0.1268E-30  0.0000E+00 -0.1145E-35  0.0000E+00 -0.1145E-35  0.0000E+00 -0.1145E-35  0.0000E+00 -0.2179E-43  0.0000E+00 -0.2179E-43  0.0000E+00 -0.1273E-37  0.0000E+00 -0.2179E-43  0.0000E+00 -0.1273E-37  0.0000E+00
     -4.039 -0.3803E-25 -0.2075E-30 -0.7470E-30 -0.1873E-35 -0.7470E-30 -0.1873E-35 -0.7470E-30 -0.1873E-35 -0.3384E-34 -0.1192E-42 -0.3384E-34 -0.1192E-42 -0.8298E-32 -0.1462E-37 -0.3384E-34 -0.1192E-42 -0.8298E-32 -0.1462E-37
     -3.872 -0.2808E-20 -0.5906E-25 -0.1198E-24 -0.1164E-29 -0.1198E-24 -0.1164E-29 -0.1198E-24 -0.1164E-29 -0.1172E-28 -0.3709E-34 -0.1172E-28 -0.3709E-34 -0.1329E-26 -0.9075E-32 -0.1172E-28 -0.3709E-34 -0.1329E-26 -0.9075E-32
     -3.706 -0.4954E-16 -0.4140E-20 -0.4724E-20 -0.1778E-24 -0.4724E-20 -0.1778E-24 -0.4724E-20 -0.1778E-24 -0.9981E-24 -0.1228E-28 -0.9981E-24 -0.1228E-28 -0.5221E-22 -0.1384E-26 -0.9981E-24 -0.1228E-28 -0.5221E-22 -0.1384E-26
     -3.539 -0.2205E-12 -0.6929E-16 -0.4413E-16 -0.6676E-20 -0.4413E-16 -0.6676E-20 -0.4413E-16 -0.6676E-20 -0.2020E-19 -0.9998E-24 -0.2020E-19 -0.9998E-24 -0.4840E-18 -0.5177E-22 -0.2020E-19 -0.9998E-24 -0.4840E-18 -0.5177E-22
     -3.372 -0.2443E-09 -0.2926E-12 -0.1039E-12 -0.5936E-16 -0.1039E-12 -0.5936E-16 -0.1039E-12 -0.5936E-16 -0.1018E-15 -0.1933E-19 -0.1018E-15 -0.1933E-19 -0.1121E-14 -0.4567E-18 -0.1018E-15 -0.1933E-19 -0.1121E-14 -0.4567E-18
     -3.205 -0.6863E-07 -0.3077E-09 -0.6021E-10 -0.1330E-12 -0.6021E-10 -0.1330E-12 -0.6021E-10 -0.1330E-12 -0.1244E-12 -0.9317E-16 -0.1244E-12 -0.9317E-16 -0.6269E-12 -0.1006E-14 -0.1244E-12 -0.9317E-16 -0.6269E-12 -0.1006E-14
     -3.038 -0.5004E-05 -0.8205E-07 -0.8618E-08 -0.7334E-10 -0.8618E-08 -0.7334E-10 -0.8618E-08 -0.7334E-10 -0.3645E-10 -0.1088E-12 -0.3645E-10 -0.1088E-12 -0.8338E-10 -0.5349E-12 -0.3645E-10 -0.1088E-12 -0.8338E-10 -0.5349E-12
     -2.871 -0.9199E-04 -0.5680E-05 -0.2989E-06 -0.9984E-08 -0.2989E-06 -0.9984E-08 -0.2989E-06 -0.9984E-08 -0.2486E-08 -0.3042E-10 -0.2486E-08 -0.3042E-10 -0.2515E-08 -0.6750E-10 -0.2486E-08 -0.3042E-10 -0.2515E-08 -0.6750E-10
     -2.704 -0.2174E-03 -0.9870E-04 -0.2007E-05 -0.3286E-06 -0.2007E-05 -0.3286E-06 -0.2007E-05 -0.3286E-06 -0.3484E-07 -0.1976E-08 -0.3484E-07 -0.1976E-08 -0.1522E-07 -0.1920E-08 -0.3484E-07 -0.1976E-08 -0.1522E-07 -0.1920E-08
     -2.538  0.2361E-02 -0.1990E-03  0.4899E-05 -0.2047E-05  0.4899E-05 -0.2047E-05  0.4899E-05 -0.2047E-05 -0.2741E-07 -0.2610E-07 -0.2741E-07 -0.2610E-07 -0.4327E-07 -0.1067E-07 -0.2741E-07 -0.2610E-07 -0.4327E-07 -0.1067E-07
     -2.371  0.8327E-02  0.2542E-02  0.4141E-04  0.5710E-05  0.4141E-04  0.5710E-05  0.4141E-04  0.5710E-05  0.4262E-06 -0.1231E-07  0.4262E-06 -0.1231E-07  0.7803E-07 -0.2775E-07  0.4262E-06 -0.1231E-07  0.7803E-07 -0.2775E-07
     -2.204  0.1294E-01  0.8447E-02  0.1426E-03  0.4310E-04  0.1426E-03  0.4310E-04  0.1426E-03  0.4310E-04  0.2906E-05  0.3329E-06  0.2906E-05  0.3329E-06  0.3419E-05  0.7518E-07  0.2906E-05  0.3329E-06  0.3419E-05  0.7518E-07
     -2.037  0.1870E-01  0.1296E-01  0.2941E-03  0.1462E-03  0.2941E-03  0.1462E-03  0.2941E-03  0.1462E-03  0.9854E-05  0.2129E-05  0.9854E-05  0.2129E-05  0.6913E-05  0.2436E-05  0.9854E-05  0.2129E-05  0.6913E-05  0.2436E-05
     -1.870  0.1604E-01  0.1861E-01  0.3429E-03  0.2960E-03  0.3429E-03  0.2960E-03  0.3429E-03  0.2960E-03  0.1972E-04  0.6976E-05  0.1972E-04  0.6976E-05  0.9472E-05  0.4755E-05  0.1972E-04  0.6976E-05  0.9472E-05  0.4755E-05
     -1.703  0.2363E-01  0.1567E-01  0.6788E-03  0.3388E-03  0.6788E-03  0.3388E-03  0.6788E-03  0.3388E-03  0.3781E-04  0.1351E-04  0.3781E-04  0.1351E-04  0.4088E-04  0.6118E-05  0.3781E-04  0.1351E-04  0.4088E-04  0.6118E-05
     -1.536  0.2502E-01  0.2330E-01  0.8350E-03  0.6755E-03  0.8350E-03  0.6755E-03  0.8350E-03  0.6755E-03  0.6017E-04  0.2578E-04  0.6017E-04  0.2578E-04  0.5897E-04  0.2660E-04  0.6017E-04  0.2578E-04  0.5897E-04  0.2660E-04
     -1.370  0.2614E-01  0.2445E-01  0.1045E-02  0.8193E-03  0.1045E-02  0.8193E-03  0.1045E-02  0.8193E-03  0.1275E-03  0.3827E-04  0.1275E-03  0.3827E-04  0.6136E-04  0.3797E-04  0.1275E-03  0.3827E-04  0.6136E-04  0.3797E-04
     -1.203  0.2313E-01  0.2559E-01  0.1059E-02  0.1038E-02  0.1059E-02  0.1038E-02  0.1059E-02  0.1038E-02  0.1231E-03  0.8276E-04  0.1231E-03  0.8276E-04  0.9791E-04  0.3820E-04  0.1231E-03  0.8276E-04  0.9791E-04  0.3820E-04
     -1.036  0.3220E-01  0.2248E-01  0.1759E-02  0.1025E-02  0.1759E-02  0.1025E-02  0.1759E-02  0.1025E-02  0.2228E-03  0.7967E-04  0.2228E-03  0.7967E-04  0.2501E-03  0.5452E-04  0.2228E-03  0.7967E-04  0.2501E-03  0.5452E-04
     -0.869  0.3715E-01  0.2955E-01  0.2202E-02  0.1626E-02  0.2202E-02  0.1626E-02  0.2202E-02  0.1626E-02  0.3774E-03  0.1261E-03  0.3774E-03  0.1261E-03  0.3288E-03  0.1408E-03  0.3774E-03  0.1261E-03  0.3288E-03  0.1408E-03
     -0.702  0.2986E-01  0.3612E-01  0.1940E-02  0.2156E-02  0.1940E-02  0.2156E-02  0.1940E-02  0.2156E-02  0.4227E-03  0.2215E-03  0.4227E-03  0.2215E-03  0.2493E-03  0.1914E-03  0.4227E-03  0.2215E-03  0.2493E-03  0.1914E-03
     -0.535  0.2847E-01  0.3115E-01  0.2110E-02  0.2047E-02  0.2110E-02  0.2047E-02  0.2110E-02  0.2047E-02  0.5959E-03  0.2626E-03  0.5959E-03  0.2626E-03  0.3852E-03  0.1630E-03  0.5959E-03  0.2626E-03  0.3852E-03  0.1630E-03
     -0.369  0.4183E-01  0.2337E-01  0.3416E-02  0.1715E-02  0.3416E-02  0.1715E-02  0.3416E-02  0.1715E-02  0.8709E-03  0.2821E-03  0.8709E-03  0.2821E-03  0.9420E-03  0.1360E-03  0.8709E-03  0.2821E-03  0.9420E-03  0.1360E-03
     -0.202  0.4366E-01  0.3732E-01  0.3900E-02  0.3071E-02  0.3900E-02  0.3071E-02  0.3900E-02  0.3071E-02  0.1127E-02  0.4796E-03  0.1127E-02  0.4796E-03  0.1147E-02  0.4376E-03  0.1127E-02  0.4796E-03  0.1147E-02  0.4376E-03
     -0.035  0.3938E-01  0.4148E-01  0.3697E-02  0.3691E-02  0.3697E-02  0.3691E-02  0.3697E-02  0.3691E-02  0.1605E-02  0.5661E-03  0.1605E-02  0.5661E-03  0.1238E-02  0.5842E-03  0.1605E-02  0.5661E-03  0.1238E-02  0.5842E-03
      0.132  0.3876E-01  0.3827E-01  0.3927E-02  0.3667E-02  0.3927E-02  0.3667E-02  0.3927E-02  0.3667E-02  0.2228E-02  0.6922E-03  0.2228E-02  0.6922E-03  0.1408E-02  0.5981E-03  0.2228E-02  0.6922E-03  0.1408E-02  0.5981E-03
      0.299  0.4498E-01  0.3200E-01  0.5065E-02  0.3279E-02  0.5065E-02  0.3279E-02  0.5065E-02  0.3279E-02  0.2766E-02  0.9086E-03  0.2766E-02  0.9086E-03  0.2511E-02  0.5666E-03  0.2766E-02  0.9086E-03  0.2511E-02  0.5666E-03
      0.466  0.5339E-01  0.4024E-01  0.6467E-02  0.4440E-02  0.6467E-02  0.4440E-02  0.6467E-02  0.4440E-02  0.4002E-02  0.1362E-02  0.4002E-02  0.1362E-02  0.4490E-02  0.7641E-03  0.4002E-02  0.1362E-02  0.4490E-02  0.7641E-03
      0.633  0.5626E-01  0.3807E-01  0.7154E-02  0.4636E-02  0.7154E-02  0.4636E-02  0.7154E-02  0.4636E-02  0.6008E-02  0.1146E-02  0.6008E-02  0.1146E-02  0.4927E-02  0.1179E-02  0.6008E-02  0.1146E-02  0.4927E-02  0.1179E-02
      0.799  0.5714E-01  0.4545E-01  0.7013E-02  0.5932E-02  0.7013E-02  0.5932E-02  0.7013E-02  0.5932E-02  0.1097E-01  0.1795E-02  0.1097E-01  0.1795E-02  0.7136E-02  0.1949E-02  0.1097E-01  0.1795E-02  0.7136E-02  0.1949E-02
      0.966  0.7435E-01  0.4963E-01  0.8756E-02  0.6748E-02  0.8756E-02  0.6748E-02  0.8756E-02  0.6748E-02  0.2879E-01  0.2648E-02  0.2879E-01  0.2648E-02  0.2793E-01  0.2054E-02  0.2879E-01  0.2648E-02  0.2793E-01  0.2054E-02
      1.133  0.1049E+00  0.4322E-01  0.1301E-01  0.6181E-02  0.1301E-01  0.6181E-02  0.1301E-01  0.6181E-02  0.5184E-01  0.2911E-02  0.5184E-01  0.2911E-02  0.7265E-01  0.1945E-02  0.5184E-01  0.2911E-02  0.7265E-01  0.1945E-02
      1.300  0.8519E-01  0.3630E-01  0.1157E-01  0.5401E-02  0.1157E-01  0.5401E-02  0.1157E-01  0.5401E-02  0.5526E-01  0.3330E-02  0.5526E-01  0.3330E-02  0.1051E+00  0.2258E-02  0.5526E-01  0.3330E-02  0.1051E+00  0.2258E-02
      1.467  0.8138E-01  0.5313E-01  0.1537E-01  0.8747E-02  0.1537E-01  0.8747E-02  0.1537E-01  0.8747E-02  0.6050E-01  0.5150E-02  0.6050E-01  0.5150E-02  0.1496E+00  0.4304E-02  0.6050E-01  0.5150E-02  0.1496E+00  0.4304E-02
      1.634  0.7967E-01  0.5601E-01  0.2059E-01  0.9743E-02  0.2059E-01  0.9743E-02  0.2059E-01  0.9743E-02  0.6691E-01  0.6050E-02  0.6691E-01  0.6050E-02  0.2214E+00  0.5971E-02  0.6691E-01  0.6050E-02  0.2214E+00  0.5971E-02
      1.800  0.6240E-01  0.5262E-01  0.2094E-01  0.9267E-02  0.2094E-01  0.9267E-02  0.2094E-01  0.9267E-02  0.6953E-01  0.8012E-02  0.6953E-01  0.8012E-02  0.2267E+00  0.6881E-02  0.6953E-01  0.8012E-02  0.2267E+00  0.6881E-02
      1.967  0.3996E-01  0.5806E-01  0.1449E-01  0.1028E-01  0.1449E-01  0.1028E-01  0.1449E-01  0.1028E-01  0.7354E-01  0.1268E-01  0.7354E-01  0.1268E-01  0.1512E+00  0.8376E-02  0.7354E-01  0.1268E-01  0.1512E+00  0.8376E-02
      2.134  0.1922E-01  0.6185E-01  0.9232E-02  0.1008E-01  0.9232E-02  0.1008E-01  0.9232E-02  0.1008E-01  0.6215E-01  0.1996E-01  0.6215E-01  0.1996E-01  0.1014E+00  0.1445E-01  0.6215E-01  0.1996E-01  0.1014E+00  0.1445E-01
      2.301  0.9948E-02  0.7383E-01  0.8869E-02  0.1251E-01  0.8869E-02  0.1251E-01  0.8869E-02  0.1251E-01  0.5467E-01  0.3103E-01  0.5467E-01  0.3103E-01  0.9320E-01  0.2580E-01  0.5467E-01  0.3103E-01  0.9320E-01  0.2580E-01
      2.468  0.2980E-02  0.8535E-01  0.1588E-01  0.1521E-01  0.1588E-01  0.1521E-01  0.1588E-01  0.1521E-01  0.1958E+00  0.4116E-01  0.1958E+00  0.4116E-01  0.1191E+00  0.3366E-01  0.1958E+00  0.4116E-01  0.1191E+00  0.3366E-01
      2.635  0.3295E-02  0.6454E-01  0.2221E-01  0.1182E-01  0.2221E-01  0.1182E-01  0.2221E-01  0.1182E-01  0.3404E+00  0.3916E-01  0.3404E+00  0.3916E-01  0.1601E+00  0.2906E-01  0.3404E+00  0.3916E-01  0.1601E+00  0.2906E-01
      2.802  0.5914E-02  0.6043E-01  0.1623E-01  0.1385E-01  0.1623E-01  0.1385E-01  0.1623E-01  0.1385E-01  0.2697E+00  0.4123E-01  0.2697E+00  0.4123E-01  0.1283E+00  0.3969E-01  0.2697E+00  0.4123E-01  0.1283E+00  0.3969E-01
      2.968  0.9210E-02  0.5859E-01  0.1779E-01  0.1643E-01  0.1779E-01  0.1643E-01  0.1779E-01  0.1643E-01  0.2234E+00  0.4257E-01  0.2234E+00  0.4257E-01  0.1028E+00  0.7467E-01  0.2234E+00  0.4257E-01  0.1028E+00  0.7467E-01
      3.135  0.1289E-01  0.5050E-01  0.2602E-01  0.1863E-01  0.2602E-01  0.1863E-01  0.2602E-01  0.1863E-01  0.2461E+00  0.4646E-01  0.2461E+00  0.4646E-01  0.1061E+00  0.1206E+00  0.2461E+00  0.4646E-01  0.1061E+00  0.1206E+00
      3.302  0.1890E-01  0.4229E-01  0.3424E-01  0.1957E-01  0.3424E-01  0.1957E-01  0.3424E-01  0.1957E-01  0.3111E+00  0.4860E-01  0.3111E+00  0.4860E-01  0.1304E+00  0.1527E+00  0.3111E+00  0.4860E-01  0.1304E+00  0.1527E+00
      3.469  0.1848E-01  0.2925E-01  0.3056E-01  0.1580E-01  0.3056E-01  0.1580E-01  0.3056E-01  0.1580E-01  0.2997E+00  0.5176E-01  0.2997E+00  0.5176E-01  0.1263E+00  0.1254E+00  0.2997E+00  0.5176E-01  0.1263E+00  0.1254E+00