    2    2  100    2
  0.1173411E+02  0.2863035E-09  0.2863035E-09  0.2863035E-09  0.5000000E-15
  1.000000000000000E-004
  CAR 
 unknown system                          
     16    120     20
 
  0.0000000E+00  0.0000000E+00  0.0000000E+00  0.2962963E-03
    1       -2.598259     -2.437601   1.000000   1.000000
    2        0.986298      2.800815   1.000000   1.000000
    3        0.986299      2.800955   1.000000   1.000000
    4        3.537382      5.437808   1.000000   1.007881
    5        3.537383      5.437941   1.000000   1.007898
    6        3.537383      5.437952   1.000000   1.007899
    7        4.749996      7.496450   1.000000  -0.000000
    8        4.749997      7.496614   1.000000  -0.000000
    9        5.961994      8.136281   0.072721  -0.000000
   10        5.961995      8.136405   0.072717  -0.000000
   11        5.961995      8.136416   0.072717  -0.000000
   12       15.792275     16.056684   0.000000   0.000000
   13       15.792275     16.056684   0.000000   0.000000
   14       15.792275     16.056687   0.000000   0.000000
   15       21.508349     22.558963   0.000000   0.000000
   16       21.508351     22.558976   0.000000   0.000000
   17       26.645038     27.744766   0.000000   0.000000
   18       30.883609     30.625003   0.000000   0.000000
   19       30.883609     30.625003   0.000000   0.000000
   20       30.883609     30.625003   0.000000   0.000000
 
  0.6666667E-01  0.1540744E-32  0.0000000E+00  0.1777778E-02
    1       -2.505743     -2.344694   1.000000   1.000000
    2        1.025771      2.834139   1.000000   1.000000
    3        1.027483      2.847746   1.000000   1.000000
    4        3.536603      5.433572   1.000000   1.007353
    5        3.536604      5.433716   1.000000   1.007371
    6        3.562723      5.465859   1.000000   1.012089
    7        4.708707      7.442625   1.000000  -0.000000
    8        4.766340      7.517241   1.000000  -0.000000
    9        5.883668      8.032820   0.314932  -0.000000
   10        5.883670      8.032954   0.314927  -0.000000
   11        5.934400      8.105386   0.141922  -0.000000
   12       15.121444     15.502601   0.000000   0.000000
   13       15.967717     16.257987   0.000000   0.000000
   14       15.967718     16.257988   0.000000   0.000000
   15       21.534980     22.577430   0.000000   0.000000
   16       22.014899     22.967163   0.000000   0.000000
   17       26.945091     28.029970   0.000000   0.000000
   18       30.249925     30.073881   0.000000   0.000000
   19       30.802578     30.583930   0.000000   0.000000
   20       30.802579     30.583930   0.000000   0.000000
 
  0.1333333E+00  0.0000000E+00  0.0000000E+00  0.1777778E-02
    1       -2.231851     -2.069040   1.000000   1.000000
    2        1.142806      2.921989   1.000000   1.000000
    3        1.143493      2.987076   1.000000   1.000000
    4        3.536926      5.424233   1.000000   1.006285
    5        3.536927      5.424376   1.000000   1.006300
    6        3.637796      5.548602   1.000000   1.029792
    7        4.586408      7.283313   1.000000  -0.000000
    8        4.814233      7.576582   1.000000  -0.000000
    9        5.668193      7.755408   1.002288  -0.000000
   10        5.668195      7.755541   1.002286  -0.000000
   11        5.852986      8.013913   0.439697  -0.000000
   12       13.648539     14.232719   0.000000   0.000000
   13       16.473651     16.827946   0.000000   0.000000
   14       16.473652     16.827949   0.000000   0.000000
   15       21.616586     22.634535   0.000000   0.000000
   16       22.895695     23.716677   0.000000   0.000000
   17       27.953767     28.934959   0.000000   0.000000
   18       28.983679     28.982119   0.000000   0.000000
   19       30.442671     30.368107   0.000000   0.000000
   20       30.442672     30.368110   0.000000   0.000000
 
  0.2000000E+00 -0.6162976E-32  0.0000000E+00  0.1777778E-02
    1       -1.788336     -1.620208   1.000000   1.000000
    2        1.311216      3.027768   1.000000   1.000000
    3        1.333184      3.214577   1.000000   1.000000
    4        3.545682      5.419060   1.000000   1.005748
    5        3.545683      5.419201   1.000000   1.005762
    6        3.759744      5.683122   1.000000   0.984166
    7        4.387851      7.025396   1.000000  -0.000000
    8        4.891355      7.376118   1.000000  -0.000000
    9        5.361971      7.376249   1.001917  -0.000000
   10        5.361973      7.667326   1.001917  -0.000000
   11        5.721657      7.866476   0.913256  -0.000000
   12       11.958830     12.755136   0.000000   0.000000
   13       17.260752     17.691319   0.000000   0.000000
   14       17.260752     17.691323   0.000000   0.000000
   15       21.757612     22.734777   0.000000   0.000000
   16       23.535388     24.276745   0.000000   0.000000
   17       27.658196     27.729327   0.000000   0.000000
   18       29.600964     29.766708   0.000000   0.000000
   19       29.600965     29.766713   0.000000   0.000000
   20       29.729586     30.667095   0.000000   0.000000
 
  0.2666667E+00  0.0000000E+00  0.0000000E+00  0.1777778E-02
    1       -1.197606     -1.015426   1.000000   1.000000
    2        1.490402      3.086796   1.000000   1.000000
    3        1.589869      3.523033   1.000000   1.000000
    4        3.573465      5.431402   1.000000   1.007093
    5        3.573466      5.431542   1.000000   1.007110
    6        3.923863      5.864377   1.000000   0.392317
    7        4.121127      6.680561   1.000000  -0.000000
    8        4.998223      6.964414   1.000000  -0.000000
    9        5.016172      6.964544   1.000000  -0.000000
   10        5.016174      7.670325   1.000000  -0.000000
   11        5.546723      7.780047   1.029399  -0.000000
   12       10.289474     11.333596  -0.000000   0.000000
   13       18.272784     18.773133   0.000000   0.000000
   14       18.272784     18.773137   0.000000   0.000000
   15       21.965986     22.886233   0.000000   0.000000
   16       23.956040     24.630268   0.000000   0.000000
   17       26.441198     26.630892   0.000000   0.000000
   18       28.326512     28.707531   0.000000   0.000000
   19       28.326512     28.707537   0.000000   0.000000
   20       30.131625     30.551737   0.000000   0.000000
 
  0.3333333E+00  0.0000000E+00  0.0000000E+00  0.1777778E-02
    1       -0.498686     -0.282175   1.000000   1.000000
    2        1.620826      3.008147   1.000000   1.000000
    3        1.902973      3.902049   1.000000   1.000000
    4        3.632331      5.476386   1.000000   1.013992
    5        3.632332      5.476524   1.000000   1.014018
    6        3.797818      6.085422   1.000000  -0.035446
    7        4.123705      6.265366   1.000000  -0.005075
    8        4.672585      6.569620   1.000000  -0.000002
    9        4.672586      6.569750   1.000000  -0.000002
   10        5.146766      7.434991   1.000006  -0.000000
   11        5.336509      7.908486   1.001103  -0.000000
   12        8.754258     10.117982  -0.000000  -0.000000
   13       19.460537     20.015811   0.000000   0.000000
   14       19.460538     20.015815   0.000000   0.000000
   15       22.252464     23.100108   0.000000   0.000000
   16       24.335117     24.936942   0.000000   0.000000
   17       25.377283     25.687405   0.000000   0.000000
   18       26.835211     27.347334   0.000000   0.000000
   19       26.835212     27.347340   0.000000   0.000000
   20       28.633883     29.043188   0.000000   0.000000
 
  0.4000000E+00  0.0000000E+00  0.0000000E+00  0.1777778E-02
    1        0.241686      0.536772   1.000000   1.000000
    2        1.620431      2.700432   1.000000   1.000000
    3        2.259831      4.337875   1.000000   1.000000
    4        3.432525      5.568385   1.000000   1.033385
    5        3.733606      5.568522   1.000000   1.033405
    6        3.733607      5.800288   1.000000   0.659235
    7        4.351233      6.221676   1.000000  -0.010422
    8        4.359903      6.221807   1.000000  -0.010401
    9        4.359904      6.337550   1.000000  -0.001188
   10        5.100834      7.171651   1.000001  -0.000000
   11        5.375633      8.059543   1.002539  -0.000000
   12        7.441686      9.205247  -0.000000  -0.000000
   13       20.784885     21.377526   0.000000   0.000000
   14       20.784886     21.377527   0.000000   0.000000
   15       22.630586     23.390861   0.000000   0.000000
   16       24.474166     24.905202   0.000000   0.000000
   17       24.798416     25.328394   0.000000   0.000000
   18       25.275243     25.855437   0.000000   0.000000
   19       25.275244     25.855441   0.000000   0.000000
   20       27.334924     27.744077   0.000000   0.000000
 
  0.4666667E+00 -0.1232595E-31  0.0000000E+00  0.1777778E-02
    1        0.916896      1.374652   1.000000   1.000000
    2        1.399161      2.133625   1.000000   1.000000
    3        2.645299      4.813396   1.000000   1.000000
    4        3.042282      5.308410   1.000000   1.000573
    5        3.886261      5.719195   1.000000   0.918889
    6        3.886262      5.719329   1.000000   0.918585
    7        4.095209      5.936337   1.000000   0.136445
    8        4.095210      5.936470   1.000000   0.136073
    9        4.597040      6.610477   1.000000  -0.000000
   10        4.850614      6.892629   1.000000  -0.000000
   11        5.767327      8.268643   0.781723  -0.000000
   12        6.434556      8.614102  -0.000105  -0.000000
   13       22.214348     22.825657   0.000000   0.000000
   14       22.214349     22.825657   0.000000   0.000000
   15       23.115835     23.775679   0.000000   0.000000
   16       23.721013     24.273768   0.000000   0.000000
   17       23.721014     24.330071   0.000000   0.000000
   18       23.724838     24.330073   0.000000   0.000000
   19       25.425266     25.894577   0.000000   0.000000
   20       26.263741     26.691808   0.000000   0.000000
 
  0.6666667E-01  0.6666667E-01  0.0000000E+00  0.3555556E-02
    1       -2.413939     -2.252397   1.000000   1.000000
    2        1.064455      2.875774   1.000000   1.000000
    3        1.068794      2.885532   1.000000   1.000000
    4        3.487117      5.377359   1.000000   1.002628
    5        3.533372      5.426865   1.000000   1.006573
    6        3.636521      5.545776   1.000000   1.029198
    7        4.700445      7.430385   1.000000  -0.000000
    8        4.754082      7.501130   1.000000  -0.000000
    9        5.744156      7.863632   0.854733  -0.000000
   10        5.805412      7.929785   0.638691  -0.000000
   11        5.973553      8.149302   0.049424  -0.000000
   12       15.139076     15.560240   0.000000   0.000000
   13       15.435411     15.827393   0.000000   0.000000
   14       16.137782     16.450436   0.000000   0.000000
   15       21.796007     22.784682   0.000000   0.000000
   16       22.330339     23.226391   0.000000   0.000000
   17       27.220156     28.294060   0.000000   0.000000
   18       29.688015     29.614044   0.000000   0.000000
   19       30.607250     30.407894   0.000000   0.000000
   20       30.752562     30.562537   0.000000   0.000000
 
  0.1333333E+00  0.6666667E-01  0.0000000E+00  0.7111111E-02
    1       -2.142261     -1.978583   1.000000   1.000000
    2        1.176066      2.967590   1.000000   1.000000
    3        1.188034      3.018423   1.000000   1.000000
    4        3.447671      5.326350   1.000000   1.000875
    5        3.526426      5.410261   1.000000   1.004917
    6        3.750555      5.669739   1.000000   1.000633
    7        4.599922      7.296427   1.000000  -0.000000
    8        4.793247      7.549194   1.000000  -0.000000
    9        5.490778      7.551501   1.016857  -0.000000
   10        5.591032      7.655383   1.035430  -0.000000
   11        5.944367      8.114622   0.114725  -0.000000
   12       13.766481     14.374516   0.000000   0.000000
   13       15.796236     16.265177   0.000000   0.000000
   14       16.629788     16.998818   0.000000   0.000000
   15       21.964836     22.913975   0.000000   0.000000
   16       23.232449     24.003820   0.000000   0.000000
   17       28.160866     28.477289   0.000000   0.000000
   18       28.412414     29.187895   0.000000   0.000000
   19       30.151878     30.074422   0.000000   0.000000
   20       30.471705     30.400669   0.000000   0.000000
 
  0.2000000E+00  0.6666667E-01  0.0000000E+00  0.7111111E-02
    1       -1.702947     -1.533108   1.000000   1.000000
    2        1.345619      3.074233   1.000000   1.000000
    3        1.372172      3.239504   1.000000   1.000000
    4        3.430262      5.294964   1.000000   1.000413
    5        3.522053      5.392906   1.000000   1.003563
    6        3.897138      5.829467   1.000000   0.538999
    7        4.422492      7.058859   1.000000  -0.000000
    8        4.871873      7.166863   1.000000  -0.000000
    9        5.172154      7.286125   1.000013  -0.000000
   10        5.289332      7.642451   1.000358  -0.000000
   11        5.843969      7.998668   0.477692  -0.000000
   12       12.073830     12.887299   0.000000   0.000000
   13       16.517587     17.064514   0.000000   0.000000
   14       17.399050     17.836939   0.000000   0.000000
   15       22.143465     23.046197   0.000000   0.000000
   16       23.962699     24.654515   0.000000   0.000000
   17       27.018424     27.211881   0.000000   0.000000
   18       29.264082     29.379932   0.000000   0.000000
   19       29.687576     29.850771   0.000000   0.000000
   20       29.867558     30.809151   0.000000   0.000000
 
  0.2666667E+00  0.6666667E-01  0.0000000E+00  0.7111111E-02
    1       -1.119152     -0.933512   1.000000   1.000000
    2        1.526261      3.132132   1.000000   1.000000
    3        1.619426      3.538019   1.000000   1.000000
    4        3.440636      5.290596   1.000000   1.000370
    5        3.522137      5.385104   1.000000   1.003064
    6        4.076201      6.025568   1.000000  -0.016907
    7        4.195114      6.744283   1.000000  -0.000000
    8        4.826536      6.761322   1.000000  -0.000000
    9        4.954749      6.897508   1.000000  -0.000000
   10        4.980410      7.758848   1.000000  -0.000000
   11        5.687657      7.820629   0.977679  -0.000000
   12       10.397743     11.449815  -0.000000   0.000000
   13       17.434348     18.051178   0.000000   0.000000
   14       18.393243     18.895711   0.000000   0.000000
   15       22.393904     23.234251   0.000000   0.000000
   16       24.469500     25.099309   0.000000   0.000000
   17       25.678083     26.001755   0.000000   0.000000
   18       28.054989     28.321363   0.000000   0.000000
   19       28.418134     28.802468   0.000000   0.000000
   20       31.194661     31.601212   0.000000   0.000000
 
  0.3333333E+00  0.6666667E-01  0.0000000E+00  0.7111111E-02
    1       -0.430972     -0.207687   1.000000   1.000000
    2        1.654076      3.049567   1.000000   1.000000
    3        1.921712      3.901829   1.000000   1.000000
    4        3.487288      5.324218   1.000000   1.000833
    5        3.493280      5.388081   1.000000   1.003247
    6        3.974934      6.254885   1.000000  -0.006101
    7        4.284582      6.375771   1.000000  -0.000486
    8        4.488268      6.383606   1.000000  -0.000401
    9        4.633483      6.545099   1.000000  -0.000004
   10        5.130829      7.596324   1.000003  -0.000000
   11        5.489036      7.890759   1.016495  -0.000000
   12        8.850987     10.208747  -0.000000  -0.000000
   13       18.486144     19.155011   0.000000   0.000000
   14       19.565357     20.119749   0.000000   0.000000
   15       22.738246     23.500012   0.000000   0.000000
   16       24.413812     24.868738   0.000000   0.000000
   17       24.938139     25.504420   0.000000   0.000000
   18       26.776043     27.126879   0.000000   0.000000
   19       26.918096     27.433371   0.000000   0.000000
   20       29.713386     30.136352   0.000000   0.000000
 
  0.4000000E+00  0.6666667E-01  0.0000000E+00  0.7111111E-02
    1        0.294188      0.601253   1.000000   1.000000
    2        1.648199      2.738648   1.000000   1.000000
    3        2.264526      4.313572   1.000000   1.000000
    4        3.315709      5.356771   1.000000   1.001718
    5        3.579200      5.407545   1.000000   1.004681
    6        3.902845      6.037082   1.000000  -0.024270
    7        4.182632      6.054542   1.000000  -0.031516
    8        4.358605      6.258268   1.000000  -0.005754
    9        4.516245      6.510911   1.000000  -0.000011
   10        5.260722      7.339966   1.000171  -0.000000
   11        5.366536      8.046552   1.002108  -0.000000
   12        7.517830      9.260555  -0.000000  -0.000000
   13       19.623563     20.320775   0.000000   0.000000
   14       20.877120     21.467603   0.000000   0.000000
   15       23.200088     23.772982   0.000000   0.000000
   16       23.200331     23.870126   0.000000   0.000000
   17       25.352992     25.933955   0.000000   0.000000
   18       25.504152     26.007541   0.000000   0.000000
   19       25.597167     26.011713   0.000000   0.000000
   20       28.365499     28.795412   0.000000   0.000000
 
  0.4666667E+00  0.6666667E-01  0.0000000E+00  0.7111111E-02
    1        0.952561      1.427242   1.000000   1.000000
    2        1.425136      2.175674   1.000000   1.000000
    3        2.630216      4.745819   1.000000   1.000000
    4        2.995069      5.139729   1.000000   1.000005
    5        3.723856      5.550694   1.000000   1.030223
    6        3.925309      5.760127   1.000000   0.805713
    7        3.987556      5.937505   1.000000   0.133187
    8        4.144441      6.045126   1.000000  -0.028151
    9        4.762934      6.784592   1.000000  -0.000000
   10        5.014778      7.065031   1.000000  -0.000000
   11        5.778347      8.266202   0.742920  -0.000000
   12        6.478963      8.634373  -0.000029  -0.000000
   13       20.805780     21.501552   0.000000   0.000000
   14       22.002247     22.658513   0.000000   0.000000
   15       22.297533     22.906654   0.000000   0.000000
   16       23.799145     24.382273   0.000000   0.000000
   17       23.810460     24.407015   0.000000   0.000000
   18       24.602246     25.083435   0.000000   0.000000
   19       26.246217     26.710225   0.000000   0.000000
   20       27.200151     27.639962   0.000000   0.000000
 
  0.1333333E+00  0.1333333E+00  0.0000000E+00  0.3555556E-02
    1       -1.877823     -1.710674   1.000000   1.000000
    2        1.271679      3.100678   1.000000   1.000000
    3        1.316085      3.101504   1.000000   1.000000
    4        3.346864      5.208894   1.000000   1.000040
    5        3.500424      5.373739   1.000000   1.002443
    6        3.923364      5.858573   1.000000   0.416345
    7        4.600606      7.189379   1.000000  -0.000000
    8        4.767558      7.282619   1.000000  -0.000000
    9        5.184191      7.394594   1.000019  -0.000000
   10        5.382600      7.516926   1.002917  -0.000000
   11        6.006313      8.185842   0.000839  -0.000000
   12       13.749322     14.420936   0.000000   0.000000
   13       14.723279     15.375169   0.000000   0.000000
   14       17.085119     17.492866   0.000000   0.000000
   15       22.306838     23.190102   0.000000   0.000000
   16       24.232668     24.885309   0.000000   0.000000
   17       27.097408     27.325087   0.000000   0.000000
   18       28.893371     29.588892   0.000000   0.000000
   19       29.633991     29.903608   0.000000   0.000000
   20       30.445692     30.410931   0.000000   0.000000
 
  0.2000000E+00  0.1333333E+00  0.0000000E+00  0.7111111E-02
    1       -1.452129     -1.275740   1.000000   1.000000
    2        1.416700      3.198464   1.000000   1.000000
    3        1.510654      3.313250   1.000000   1.000000
    4        3.273959      5.118335   1.000000   1.000002
    5        3.469476      5.326978   1.000000   1.000888
    6        4.120626      6.074131   1.000000  -0.035086
    7        4.502236      6.782090   1.000000  -0.000000
    8        4.822484      7.060016   1.000000  -0.000000
    9        4.835156      7.134860   1.000000  -0.000000
   10        5.097962      7.581163   1.000001  -0.000000
   11        5.986614      8.161702   0.027059  -0.000000
   12       12.333802     13.179494   0.000000   0.000000
   13       15.075653     15.808070   0.000000   0.000000
   14       17.806065     18.264343   0.000000   0.000000
   15       22.527319     23.355641   0.000000   0.000000
   16       25.230718     25.799033   0.000000   0.000000
   17       25.608813     25.966219   0.000000   0.000000
   18       28.821023     28.877154   0.000000   0.000000
   19       29.924470     30.072986   0.000000   0.000000
   20       30.348411     31.299305   0.000000   0.000000
 
  0.2666667E+00  0.1333333E+00  0.0000000E+00  0.7111111E-02
    1       -0.891206     -0.692611   1.000000   1.000000
    2        1.578484      3.242070   1.000000   1.000000
    3        1.752296      3.592554   1.000000   1.000000
    4        3.237600      5.065266   1.000000   1.000000
    5        3.434834      5.280097   1.000000   1.000283
    6        4.338699      6.312887   1.000000  -0.002021
    7        4.351235      6.374496   1.000000  -0.000502
    8        4.478981      6.740198   1.000000  -0.000000
    9        4.799538      6.897633   1.000000  -0.000000
   10        4.930271      7.700073   1.000000  -0.000000
   11        5.893284      8.052732   0.278279  -0.000000
   12       10.670929     11.732598  -0.000000   0.000000
   13       15.867197     16.649995   0.000000   0.000000
   14       18.750502     19.259557   0.000000   0.000000
   15       22.770056     23.532346   0.000000   0.000000
   16       24.140590     24.613666   0.000000   0.000000
   17       25.970803     26.492833   0.000000   0.000000
   18       27.761189     27.922189   0.000000   0.000000
   19       28.689516     29.083179   0.000000   0.000000
   20       32.455401     33.321065   0.000000   0.000000
 
  0.3333333E+00  0.1333333E+00  0.0000000E+00  0.7111111E-02
    1       -0.239312      0.009115   1.000000   1.000000
    2        1.692608      3.141432   1.000000   1.000000
    3        2.030036      3.923488   1.000000   1.000000
    4        3.246006      5.059833   1.000000   1.000000
    5        3.368049      5.228361   1.000000   1.000070
    6        4.143293      5.998304   1.000000   0.010454
    7        4.220561      6.500373   1.000000  -0.000015
    8        4.542556      6.571409   1.000000  -0.000001
    9        4.573887      6.632368   1.000000  -0.000000
   10        5.083791      7.839434   1.000001  -0.000000
   11        5.740582      7.877092   0.864870  -0.000000
   12        9.102711     10.437305  -0.000000  -0.000000
   13       16.807621     17.617071   0.000000   0.000000
   14       19.877701     20.430235   0.000000   0.000000
   15       22.737731     23.315305   0.000000   0.000000
   16       23.083902     23.766278   0.000000   0.000000
   17       26.619770     26.894193   0.000000   0.000000
   18       26.649236     27.103560   0.000000   0.000000
   19       27.161485     27.686724   0.000000   0.000000
   20       31.615247     32.026980   0.000000   0.000000
 
  0.4000000E+00  0.1333333E+00  0.0000000E+00  0.7111111E-02
    1        0.433250      0.784890   1.000000   1.000000
    2        1.675070      2.823229   1.000000   1.000000
    3        2.336545      4.284278   1.000000   1.000000
    4        3.213460      5.111762   1.000000   1.000002
    5        3.306868      5.135595   1.000000   1.000004
    6        3.848340      5.674848   1.000000   0.994806
    7        4.175232      6.359092   1.000000  -0.000725
    8        4.363962      6.406310   1.000000  -0.000224
    9        4.820611      6.844020   1.000000  -0.000000
   10        5.338806      7.652796   1.001161  -0.000000
   11        5.543392      8.007305   1.028685  -0.000000
   12        7.720666      9.404240  -0.000000  -0.000000
   13       17.846385     18.656243   0.000000   0.000000
   14       21.152462     21.737112   0.000000   0.000000
   15       21.407867     22.074411   0.000000   0.000000
   16       23.500102     24.091933   0.000000   0.000000
   17       25.581683     25.947047   0.000000   0.000000
   18       25.624855     26.165053   0.000000   0.000000
   19       27.328459     27.778517   0.000000   0.000000
   20       30.333931     30.742924   0.000000   0.000000
 
  0.4666667E+00  0.1333333E+00  0.0000000E+00  0.7111111E-02
    1        1.030597      1.570105   1.000000   1.000000
    2        1.459857      2.279610   1.000000   1.000000
    3        2.655948      4.641291   1.000000   1.000000
    4        2.961617      4.942754   1.000000   1.000000
    5        3.426248      5.229103   1.000000   1.000071
    6        3.607140      5.416669   1.000000   1.005512
    7        4.205235      6.290494   1.000000  -0.003173
    8        4.263587      6.291235   1.000000  -0.003128
    9        5.071194      7.122542   1.000000  -0.000000
   10        5.315930      7.396374   1.000686  -0.000000
   11        5.810383      8.256173   0.618478  -0.000000
   12        6.602139      8.687226  -0.000000  -0.000000
   13       18.962907     19.747612   0.000000   0.000000
   14       20.150210     20.886461   0.000000   0.000000
   15       22.545323     23.148248   0.000000   0.000000
   16       24.030528     24.545099   0.000000   0.000000
   17       24.047977     24.634982   0.000000   0.000000
   18       24.752411     25.157984   0.000000   0.000000
   19       28.171654     28.597326   0.000000   0.000000
   20       29.175400     29.588002   0.000000   0.000000
 
  0.2000000E+00  0.2000000E+00  0.0000000E+00  0.3555556E-02
    1       -1.052906     -0.860140   1.000000   1.000000
    2        1.513479      3.310066   1.000000   1.000000
    3        1.727160      3.476366   1.000000   1.000000
    4        3.144905      4.967790   1.000000   1.000000
    5        3.419885      5.247061   1.000000   1.000118
    6        4.365227      6.342993   1.000000  -0.001051
    7        4.467903      6.364216   1.000000  -0.000643
    8        4.556432      6.794294   1.000000  -0.000000
    9        4.792620      7.167465   1.000000  -0.000000
   10        4.850504      7.548423   1.000000  -0.000000
   11        6.054780      8.239929  -0.031586  -0.000000
   12       12.178123     13.060386   0.000000   0.000000
   13       14.086121     14.994267   0.000000   0.000000
   14       18.460393     18.947962   0.000000   0.000000
   15       22.746625     23.513132   0.000000   0.000000
   16       24.037099     24.515403   0.000000   0.000000
   17       26.678351     27.133226   0.000000   0.000000
   18       28.201386     28.263326   0.000000   0.000000
   19       30.104016     30.235620   0.000000   0.000000
   20       31.366430     32.308312   0.000000   0.000000
 
  0.2666667E+00  0.2000000E+00  0.0000000E+00  0.7111111E-02
    1       -0.537783     -0.307957   1.000000   1.000000
    2        1.609296      3.316785   1.000000   1.000000
    3        1.993320      3.739147   1.000000   1.000000
    4        3.057027      4.860290   1.000000   1.000000
    5        3.389907      5.173391   1.000000   1.000013
    6        4.107740      5.959697   1.000000   0.077749
    7        4.511204      6.585070   1.000000  -0.000001
    8        4.616953      6.624727   1.000000  -0.000000
    9        4.620999      7.066124   1.000000  -0.000000
   10        4.862336      7.624910   1.000000  -0.000000
   11        6.041660      8.223357  -0.026599  -0.000000
   12       10.914006     11.960446  -0.000000   0.000000
   13       14.391885     15.349443   0.000000   0.000000
   14       19.332665     19.852982   0.000000   0.000000
   15       22.493225     23.073958   0.000000   0.000000
   16       22.961282     23.655694   0.000000   0.000000
   17       27.357028     27.464502   0.000000   0.000000
   18       27.821834     28.222102   0.000000   0.000000
   19       29.130086     29.537343   0.000000   0.000000
   20       31.395943     31.957809   0.000000   0.000000
 
  0.3333333E+00  0.2000000E+00  0.0000000E+00  0.7111111E-02
    1        0.040043      0.347355   1.000000   1.000000
    2        1.657966      3.181510   1.000000   1.000000
    3        2.282139      4.044586   1.000000   1.000000
    4        3.019952      4.807370   1.000000   1.000000
    5        3.361372      5.108055   1.000000   1.000002
    6        3.779289      5.596404   1.000000   1.035430
    7        4.449425      6.491599   1.000000  -0.000020
    8        4.455333      6.897573   1.000000  -0.000000
    9        4.881609      6.912810   1.000000  -0.000000
   10        5.009206      7.762209   1.000000  -0.000000
   11        5.955189      8.122333   0.088007  -0.000000
   12        9.397290     10.680074  -0.000000  -0.000000
   13       15.181707     16.138866   0.000000   0.000000
   14       20.391259     20.942677   0.000000   0.000000
   15       21.027311     21.700189   0.000000   0.000000
   16       23.234168     23.843210   0.000000   0.000000
   17       26.416515     26.585919   0.000000   0.000000
   18       27.544927     28.090122   0.000000   0.000000
   19       28.706468     29.089244   0.000000   0.000000
   20       32.057523     32.520136   0.000000   0.000000
 
  0.4000000E+00  0.2000000E+00  0.0000000E+00  0.7111111E-02
    1        0.605556      1.057439   1.000000   1.000000
    2        1.606212      2.868569   1.000000   1.000000
    3        2.573636      4.360134   1.000000   1.000000
    4        3.041576      4.818597   1.000000   1.000000
    5        3.275931      5.025714   1.000000   1.000000
    6        3.499905      5.292589   1.000000   1.000389