       N       E                     dE             d eps       ncg     rms          rms(c)
DAV:   1     0.799991702823E+02    0.79999E+02   -0.77047E+03 10480   0.107E+03
DAV:   2    -0.122422511205E+02   -0.92241E+02   -0.81897E+02  9724   0.193E+02
DAV:   3    -0.160537700964E+02   -0.38115E+01   -0.37015E+01 10808   0.498E+01
DAV:   4    -0.160857428195E+02   -0.31973E-01   -0.31961E-01 10568   0.431E+00
DAV:   5    -0.160861043646E+02   -0.36155E-03   -0.36154E-03 10688   0.426E-01    0.196E+01
DAV:   6    -0.165616728419E+02   -0.47557E+00   -0.51944E+00 10656   0.448E+01    0.617E+00
DAV:   7    -0.164983604313E+02    0.63312E-01   -0.39078E-01 11432   0.981E+00    0.443E+00
DAV:   8    -0.164810332181E+02    0.17327E-01   -0.10359E-02 12668   0.112E+00    0.160E+00
DAV:   9    -0.164691903193E+02    0.11843E-01   -0.30959E-03 14268   0.101E+00    0.430E-01
DAV:  10    -0.164687068011E+02    0.48352E-03   -0.18455E-03 11560   0.698E-01    0.645E-02
DAV:  11    -0.164687347396E+02   -0.27938E-04   -0.69298E-05 11796   0.708E-02    0.461E-02
DAV:  12    -0.164687247930E+02    0.99466E-05   -0.25623E-06  9740   0.139E-02    0.182E-02
DAV:  13    -0.164687261330E+02   -0.13400E-05   -0.10760E-06  7796   0.988E-03    0.999E-03
DAV:  14    -0.164687254252E+02    0.70782E-06   -0.28642E-07  5268   0.798E-03
   1 F= -.16468725E+02 E0= -.16467801E+02  d E =-.164687E+02  mag=     4.4684
       N       E                     dE             d eps       ncg     rms          rms(c)
DAV:   1    -0.171342555787E+02   -0.66553E+00   -0.63008E+00 10568   0.419E+01    0.774E+00
DAV:   2    -0.165168374905E+02    0.61742E+00   -0.11727E+00 10516   0.243E+01    0.631E+00
DAV:   3    -0.164829063910E+02    0.33931E-01   -0.89040E-02 11336   0.551E+00    0.221E+00
DAV:   4    -0.164763780376E+02    0.65284E-02   -0.46259E-03 12056   0.768E-01    0.512E-01
DAV:   5    -0.164711500914E+02    0.52279E-02   -0.36010E-03 11872   0.480E-01    0.867E-02
DAV:   6    -0.164712344147E+02   -0.84323E-04   -0.25693E-04 10800   0.178E-01    0.476E-02
DAV:   7    -0.164712405975E+02   -0.61828E-05   -0.12909E-05 10152   0.414E-02    0.221E-02
DAV:   8    -0.164712375440E+02    0.30535E-05   -0.11766E-06  7688   0.151E-02    0.936E-03
DAV:   9    -0.164712365669E+02    0.97712E-06   -0.39917E-07  5004   0.965E-03
   2 F= -.16471237E+02 E0= -.16470343E+02  d E =-.251114E-02  mag=     4.2682
       N       E                     dE             d eps       ncg     rms          rms(c)
DAV:   1    -0.166360425537E+02   -0.16481E+00   -0.14195E+00 10496   0.208E+01    0.381E+00
DAV:   2    -0.165008530537E+02    0.13519E+00   -0.37445E-01 10548   0.123E+01    0.352E+00
DAV:   3    -0.164869659222E+02    0.13887E-01   -0.26327E-02 11232   0.322E+00    0.104E+00
DAV:   4    -0.164853369630E+02    0.16290E-02   -0.17957E-03 12900   0.540E-01    0.302E-01
DAV:   5    -0.164840538970E+02    0.12831E-02   -0.97397E-04 11036   0.276E-01    0.529E-02
DAV:   6    -0.164840743471E+02   -0.20450E-04   -0.32340E-05 10296   0.479E-02    0.229E-02
DAV:   7    -0.164840794789E+02   -0.51318E-05   -0.28563E-06  9784   0.168E-02    0.139E-02
DAV:   8    -0.164840823391E+02   -0.28602E-05   -0.43120E-07  5608   0.714E-03    0.323E-03
DAV:   9    -0.164840824215E+02   -0.82392E-07   -0.92883E-08  4944   0.302E-03
   3 F= -.16484082E+02 E0= -.16483192E+02  d E =-.153570E-01  mag=     4.3595
