PROCAR lm decomposed
# of k-points:  120         # of bands:   20         # of ions:    2

 k-point     1 :    0.00000000 0.00000000 0.00000000     weight = 0.00029630

band     1 # energy   -2.59825933 # occ.  1.00000000
 
ion      s     py     pz     px    dxy    dyz    dz2    dxz  x2-y2    tot
    1  0.366  0.000  0.000  0.000  0.000  0.000  0.000  0.000  0.000  0.366
    2  0.366  0.000  0.000  0.000  0.000  0.000  0.000  0.000  0.000  0.366
tot    0.733  0.000  0.000  0.000  0.000  0.000  0.000  0.000  0.000  0.733
 
band     2 # energy    0.98629845 # occ.  1.00000000
 
ion      s     py     pz     px    dxy    dyz    dz2    dxz  x2-y2    tot
    1  0.000  0.000  0.000  0.000  0.000  0.000  0.107  0.000  0.331  0.438
    2  0.000  0.000  0.000  0.000  0.000  0.000  0.107  0.000  0.331  0.438
tot    0.000  0.000  0.000  0.000  0.000  0.000  0.215  0.000  0.662  0.877
 
band     3 # energy    0.98629863 # occ.  1.00000000
 
ion      s     py     pz     px    dxy    dyz    dz2    dxz  x2-y2    tot
    1  0.000  0.000  0.000  0.000  0.000  0.000  0.331  0.000  0.107  0.438
    2  0.000  0.000  0.000  0.000  0.000  0.000  0.331  0.000  0.107  0.438
tot    0.000  0.000  0.000  0.000  0.000  0.000  0.662  0.000  0.215  0.877
 
band     4 # energy    3.53738208 # occ.  1.00000000
 
ion      s     py     pz     px    dxy    dyz    dz2    dxz  x2-y2    tot
    1  0.000  0.000  0.000  0.000  0.489  0.000  0.000  0.000  0.000  0.489
    2  0.000  0.000  0.000  0.000  0.489  0.000  0.000  0.000  0.000  0.489
tot    0.000  0.000  0.000  0.000  0.979  0.000  0.000  0.000  0.000  0.979
 
band     5 # energy    3.53738292 # occ.  1.00000000
 
ion      s     py     pz     px    dxy    dyz    dz2    dxz  x2-y2    tot
    1  0.000  0.000  0.000  0.000  0.000  0.000  0.000  0.489  0.000  0.489
    2  0.000  0.000  0.000  0.000  0.000  0.000  0.000  0.489  0.000  0.489
tot    0.000  0.000  0.000  0.000  0.000  0.000  0.000  0.979  0.000  0.979
 
band     6 # energy    3.53738294 # occ.  1.00000000
 
ion      s     py     pz     px    dxy    dyz    dz2    dxz  x2-y2    tot
    1  0.000  0.000  0.000  0.000  0.000  0.489  0.000  0.000  0.000  0.489
    2  0.000  0.000  0.000  0.000  0.000  0.489  0.000  0.000  0.000  0.489
tot    0.000  0.000  0.000  0.000  0.000  0.979  0.000  0.000  0.000  0.979
 
band     7 # energy    4.74999645 # occ.  1.00000000
 
ion      s     py     pz     px    dxy    dyz    dz2    dxz  x2-y2    tot
    1  0.000  0.000  0.000  0.000  0.000  0.000  0.481  0.000  0.004  0.485
    2  0.000  0.000  0.000  0.000  0.000  0.000  0.481  0.000  0.004  0.485
tot    0.000  0.000  0.000  0.000  0.000  0.000  0.962  0.000  0.008  0.971
 
band     8 # energy    4.74999738 # occ.  1.00000000
 
ion      s     py     pz     px    dxy    dyz    dz2    dxz  x2-y2    tot
    1  0.000  0.000  0.000  0.000  0.000  0.000  0.004  0.000  0.481  0.485
    2  0.000  0.000  0.000  0.000  0.000  0.000  0.004  0.000  0.481  0.485
tot    0.000  0.000  0.000  0.000  0.000  0.000  0.008  0.000  0.962  0.971
 
band     9 # energy    5.96199384 # occ.  0.07272060
 
ion      s     py     pz     px    dxy    dyz    dz2    dxz  x2-y2    tot
    1  0.000  0.000  0.000  0.000  0.494  0.000  0.000  0.000  0.000  0.494
    2  0.000  0.000  0.000  0.000  0.494  0.000  0.000  0.000  0.000  0.494
tot    0.000  0.000  0.000  0.000  0.988  0.000  0.000  0.000  0.000  0.988
 
band    10 # energy    5.96199540 # occ.  0.07271722
 
ion      s     py     pz     px    dxy    dyz    dz2    dxz  x2-y2    tot
    1  0.000  0.000  0.000  0.000  0.000  0.000  0.000  0.494  0.000  0.494
    2  0.000  0.000  0.000  0.000  0.000  0.000  0.000  0.494  0.000  0.494
tot    0.000  0.000  0.000  0.000  0.000  0.000  0.000  0.988  0.000  0.988
 
band    11 # energy    5.96199542 # occ.  0.07271717
 
ion      s     py     pz     px    dxy    dyz    dz2    dxz  x2-y2    tot
    1  0.000  0.000  0.000  0.000  0.000  0.494  0.000  0.000  0.000  0.494
    2  0.000  0.000  0.000  0.000  0.000  0.494  0.000  0.000  0.000  0.494
tot    0.000  0.000  0.000  0.000  0.000  0.988  0.000  0.000  0.000  0.988
 
band    12 # energy   15.79227520 # occ.  0.00000000
 
ion      s     py     pz     px    dxy    dyz    dz2    dxz  x2-y2    tot
    1  0.000  0.000  0.000  0.376  0.000  0.000  0.000  0.000  0.000  0.376
    2  0.000  0.000  0.000  0.376  0.000  0.000  0.000  0.000  0.000  0.376
tot    0.000  0.000  0.000  0.751  0.000  0.000  0.000  0.000  0.000  0.751
 
band    13 # energy   15.79227530 # occ.  0.00000000
 
ion      s     py     pz     px    dxy    dyz    dz2    dxz  x2-y2    tot
    1  0.000  0.376  0.000  0.000  0.000  0.000  0.000  0.000  0.000  0.376
    2  0.000  0.376  0.000  0.000  0.000  0.000  0.000  0.000  0.000  0.376
tot    0.000  0.751  0.000  0.000  0.000  0.000  0.000  0.000  0.000  0.751
 
band    14 # energy   15.79227540 # occ.  0.00000000
 
ion      s     py     pz     px    dxy    dyz    dz2    dxz  x2-y2    tot
    1  0.000  0.000  0.376  0.000  0.000  0.000  0.000  0.000  0.000  0.376
    2  0.000  0.000  0.376  0.000  0.000  0.000  0.000  0.000  0.000  0.376
tot    0.000  0.000  0.751  0.000  0.000  0.000  0.000  0.000  0.000  0.751
 
band    15 # energy   21.50834949 # occ.  0.00000000
 
ion      s     py     pz     px    dxy    dyz    dz2    dxz  x2-y2    tot
    1  0.000  0.000  0.000  0.000  0.000  0.000  0.475  0.000  0.000  0.475
    2  0.000  0.000  0.000  0.000  0.000  0.000  0.475  0.000  0.000  0.475
tot    0.000  0.000  0.000  0.000  0.000  0.000  0.950  0.000  0.000  0.950
 
band    16 # energy   21.50835120 # occ.  0.00000000
 
ion      s     py     pz     px    dxy    dyz    dz2    dxz  x2-y2    tot
    1  0.000  0.000  0.000  0.000  0.000  0.000  0.000  0.000  0.475  0.475
    2  0.000  0.000  0.000  0.000  0.000  0.000  0.000  0.000  0.475  0.475
tot    0.000  0.000  0.000  0.000  0.000  0.000  0.000  0.000  0.950  0.950
 
band    17 # energy   26.64503837 # occ.  0.00000000
 
ion      s     py     pz     px    dxy    dyz    dz2    dxz  x2-y2    tot
    1  0.391  0.000  0.000  0.000  0.000  0.000  0.000  0.000  0.000  0.391
    2  0.391  0.000  0.000  0.000  0.000  0.000  0.000  0.000  0.000  0.391
tot    0.782  0.000  0.000  0.000  0.000  0.000  0.000  0.000  0.000  0.782
 
band    18 # energy   30.88360865 # occ.  0.00000000
 
ion      s     py     pz     px    dxy    dyz    dz2    dxz  x2-y2    tot
    1  0.000  0.000  0.000  0.000  0.000  0.000  0.000  0.000  0.000  0.000
    2  0.000  0.000  0.000  0.000  0.000  0.000  0.000  0.000  0.000  0.000
tot    0.000  0.000  0.000  0.000  0.000  0.000  0.000  0.000  0.000  0.000
 
band    19 # energy   30.88360865 # occ.  0.00000000
 
ion      s     py     pz     px    dxy    dyz    dz2    dxz  x2-y2    tot
    1  0.000  0.000  0.000  0.000  0.000  0.000  0.000  0.000  0.000  0.000
    2  0.000  0.000  0.000  0.000  0.000  0.000  0.000  0.000  0.000  0.000
tot    0.000  0.000  0.000  0.000  0.000  0.000  0.000  0.000  0.000  0.000
 
band    20 # energy   30.88360865 # occ.  0.00000000
 
ion      s     py     pz     px    dxy    dyz    dz2    dxz  x2-y2    tot
    1  0.000  0.000  0.000  0.000  0.000  0.000  0.000  0.000  0.000  0.000
    2  0.000  0.000  0.000  0.000  0.000  0.000  0.000  0.000  0.000  0.000
tot    0.000  0.000  0.000  0.000  0.000  0.000  0.000  0.000  0.000  0.000
 

 k-point     2 :    0.06666667 0.00000000 0.00000000     weight = 0.00177778

band     1 # energy   -2.50574328 # occ.  1.00000000
 
ion      s     py     pz     px    dxy    dyz    dz2    dxz  x2-y2    tot
    1  0.363  0.000  0.000  0.003  0.000  0.000  0.000  0.000  0.000  0.366
    2  0.363  0.000  0.000  0.003  0.000  0.000  0.000  0.000  0.000  0.366
tot    0.726  0.000  0.000  0.007  0.000  0.000  0.000  0.000  0.000  0.733
 
band     2 # energy    1.02577097 # occ.  1.00000000
 
ion      s     py     pz     px    dxy    dyz    dz2    dxz  x2-y2    tot
    1  0.000  0.000  0.000  0.000  0.000  0.000  0.329  0.000  0.110  0.439
    2  0.000  0.000  0.000  0.000  0.000  0.000  0.329  0.000  0.110  0.439
tot    0.000  0.000  0.000  0.000  0.000  0.000  0.658  0.000  0.219  0.877
 
band     3 # energy    1.02748293 # occ.  1.00000000
 
ion      s     py     pz     px    dxy    dyz    dz2    dxz  x2-y2    tot
    1  0.000  0.000  0.000  0.002  0.000  0.000  0.109  0.000  0.327  0.438
    2  0.000  0.000  0.000  0.002  0.000  0.000  0.109  0.000  0.327  0.438
tot    0.000  0.000  0.000  0.005  0.000  0.000  0.218  0.000  0.654  0.877
 
band     4 # energy    3.53660273 # occ.  1.00000000
 
ion      s     py     pz     px    dxy    dyz    dz2    dxz  x2-y2    tot
    1  0.000  0.000  0.000  0.000  0.489  0.000  0.000  0.000  0.000  0.489
    2  0.000  0.000  0.000  0.000  0.489  0.000  0.000  0.000  0.000  0.489
tot    0.000  0.001  0.000  0.000  0.977  0.000  0.000  0.000  0.000  0.978
 
band     5 # energy    3.53660357 # occ.  1.00000000
 
ion      s     py     pz     px    dxy    dyz    dz2    dxz  x2-y2    tot
    1  0.000  0.000  0.000  0.000  0.000  0.000  0.000  0.489  0.000  0.489
    2  0.000  0.000  0.000  0.000  0.000  0.000  0.000  0.489  0.000  0.489
tot    0.000  0.000  0.001  0.000  0.000  0.000  0.000  0.977  0.000  0.978
 
band     6 # energy    3.56272325 # occ.  1.00000000
 
ion      s     py     pz     px    dxy    dyz    dz2    dxz  x2-y2    tot
    1  0.000  0.000  0.000  0.000  0.000  0.489  0.000  0.000  0.000  0.489
    2  0.000  0.000  0.000  0.000  0.000  0.489  0.000  0.000  0.000  0.489
tot    0.000  0.000  0.000  0.000  0.000  0.979  0.000  0.000  0.000  0.979
 
band     7 # energy    4.70870665 # occ.  1.00000000
 
ion      s     py     pz     px    dxy    dyz    dz2    dxz  x2-y2    tot
    1  0.000  0.000  0.000  0.000  0.000  0.000  0.363  0.000  0.121  0.484
    2  0.000  0.000  0.000  0.000  0.000  0.000  0.363  0.000  0.121  0.484
tot    0.000  0.000  0.000  0.000  0.000  0.000  0.727  0.000  0.242  0.969
 
band     8 # energy    4.76634048 # occ.  1.00000000
 
ion      s     py     pz     px    dxy    dyz    dz2    dxz  x2-y2    tot
    1  0.000  0.000  0.000  0.000  0.000  0.000  0.121  0.000  0.364  0.486
    2  0.000  0.000  0.000  0.000  0.000  0.000  0.121  0.000  0.364  0.486
tot    0.000  0.000  0.000  0.000  0.000  0.000  0.243  0.000  0.728  0.971
 
band     9 # energy    5.88366806 # occ.  0.31493248
 
ion      s     py     pz     px    dxy    dyz    dz2    dxz  x2-y2    tot
    1  0.000  0.002  0.000  0.000  0.491  0.000  0.000  0.000  0.000  0.493
    2  0.000  0.002  0.000  0.000  0.491  0.000  0.000  0.000  0.000  0.493
tot    0.000  0.004  0.000  0.000  0.981  0.000  0.000  0.000  0.000  0.986
 
band    10 # energy    5.88366960 # occ.  0.31492652
 
ion      s     py     pz     px    dxy    dyz    dz2    dxz  x2-y2    tot
    1  0.000  0.000  0.002  0.000  0.000  0.000  0.000  0.491  0.000  0.493
    2  0.000  0.000  0.002  0.000  0.000  0.000  0.000  0.491  0.000  0.493
tot    0.000  0.000  0.004  0.000  0.000  0.000  0.000  0.981  0.000  0.986
 
band    11 # energy    5.93440040 # occ.  0.14192192
 
ion      s     py     pz     px    dxy    dyz    dz2    dxz  x2-y2    tot
    1  0.000  0.000  0.000  0.000  0.000  0.494  0.000  0.000  0.000  0.494
    2  0.000  0.000  0.000  0.000  0.000  0.494  0.000  0.000  0.000  0.494
tot    0.000  0.000  0.000  0.000  0.000  0.988  0.000  0.000  0.000  0.988
 
band    12 # energy   15.12144436 # occ.  0.00000000
 
ion      s     py     pz     px    dxy    dyz    dz2    dxz  x2-y2    tot
    1  0.016  0.000  0.000  0.340  0.000  0.000  0.007  0.000  0.022  0.385
    2  0.016  0.000  0.000  0.340  0.000  0.000  0.007  0.000  0.022  0.385
tot    0.032  0.000  0.000  0.679  0.000  0.000  0.015  0.000  0.045  0.771
 
band    13 # energy   15.96771749 # occ.  0.00000000
 
ion      s     py     pz     px    dxy    dyz    dz2    dxz  x2-y2    tot
    1  0.000  0.372  0.000  0.000  0.007  0.000  0.000  0.000  0.000  0.378
    2  0.000  0.372  0.000  0.000  0.007  0.000  0.000  0.000  0.000  0.378
tot    0.000  0.743  0.000  0.000  0.014  0.000  0.000  0.000  0.000  0.757
 
band    14 # energy   15.96771763 # occ.  0.00000000
 
ion      s     py     pz     px    dxy    dyz    dz2    dxz  x2-y2    tot
    1  0.000  0.000  0.372  0.000  0.000  0.000  0.000  0.007  0.000  0.378
    2  0.000  0.000  0.372  0.000  0.000  0.000  0.000  0.007  0.000  0.378
tot    0.000  0.000  0.743  0.000  0.000  0.000  0.000  0.014  0.000  0.757
 
band    15 # energy   21.53497986 # occ.  0.00000000
 
ion      s     py     pz     px    dxy    dyz    dz2    dxz  x2-y2    tot
    1  0.000  0.000  0.000  0.000  0.000  0.000  0.355  0.000  0.118  0.473
    2  0.000  0.000  0.000  0.000  0.000  0.000  0.355  0.000  0.118  0.473
tot    0.000  0.000  0.000  0.000  0.000  0.000  0.710  0.000  0.237  0.946
 
band    16 # energy   22.01489892 # occ.  0.00000000
 
ion      s     py     pz     px    dxy    dyz    dz2    dxz  x2-y2    tot
    1  0.005  0.000  0.000  0.014  0.000  0.000  0.110  0.000  0.331  0.461
    2  0.005  0.000  0.000  0.014  0.000  0.000  0.110  0.000  0.331  0.461
tot    0.010  0.000  0.000  0.028  0.000  0.000  0.221  0.000  0.662  0.921
 
band    17 # energy   26.94509094 # occ.  0.00000000
 
ion      s     py     pz     px    dxy    dyz    dz2    dxz  x2-y2    tot
    1  0.369  0.000  0.000  0.020  0.000  0.000  0.001  0.000  0.002  0.392
    2  0.369  0.000  0.000  0.020  0.000  0.000  0.001  0.000  0.002  0.392
tot    0.738  0.000  0.000  0.040  0.000  0.000  0.001  0.000  0.004  0.783
 
band    18 # energy   30.24992527 # occ.  0.00000000
 
ion      s     py     pz     px    dxy    dyz    dz2    dxz  x2-y2    tot
    1  0.000  0.000  0.000  0.000  0.000  0.000  0.046  0.000  0.015  0.061
    2  0.000  0.000  0.000  0.000  0.000  0.000  0.046  0.000  0.015  0.061
tot    0.000  0.000  0.000  0.000  0.000  0.000  0.092  0.000  0.031  0.123
 
band    19 # energy   30.80257845 # occ.  0.00000000
 
ion      s     py     pz     px    dxy    dyz    dz2    dxz  x2-y2    tot
    1  0.000  0.001  0.000  0.000  0.037  0.000  0.000  0.000  0.000  0.038
    2  0.000  0.001  0.000  0.000  0.037  0.000  0.000  0.000  0.000  0.038
tot    0.000  0.002  0.000  0.000  0.073  0.000  0.000  0.000  0.000  0.075
 
band    20 # energy   30.80257852 # occ.  0.00000000
 
ion      s     py     pz     px    dxy    dyz    dz2    dxz  x2-y2    tot
    1  0.000  0.000  0.001  0.000  0.000  0.000  0.000  0.037  0.000  0.038
    2  0.000  0.000  0.001  0.000  0.000  0.000  0.000  0.037  0.000  0.038
tot    0.000  0.000  0.002  0.000  0.000  0.000  0.000  0.073  0.000  0.075
 

 k-point     3 :    0.13333333 0.00000000 0.00000000     weight = 0.00177778

band     1 # energy   -2.23185073 # occ.  1.00000000
 
ion      s     py     pz     px    dxy    dyz    dz2    dxz  x2-y2    tot
    1  0.353  0.000  0.000  0.013  0.000  0.000  0.000  0.000  0.000  0.367
    2  0.353  0.000  0.000  0.013  0.000  0.000  0.000  0.000  0.000  0.367
tot    0.706  0.000  0.000  0.026  0.000  0.000  0.000  0.000  0.001  0.733
 
band     2 # energy    1.14280565 # occ.  1.00000000
 
ion      s     py     pz     px    dxy    dyz    dz2    dxz  x2-y2    tot
    1  0.000  0.000  0.000  0.000  0.000  0.000  0.329  0.000  0.110  0.439
    2  0.000  0.000  0.000  0.000  0.000  0.000  0.329  0.000  0.110  0.439
tot    0.000  0.000  0.000  0.000  0.000  0.000  0.659  0.000  0.220  0.878
 
band     3 # energy    1.14349336 # occ.  1.00000000
 
ion      s     py     pz     px    dxy    dyz    dz2    dxz  x2-y2    tot
    1  0.001  0.000  0.000  0.010  0.000  0.000  0.107  0.000  0.321  0.438
    2  0.001  0.000  0.000  0.010  0.000  0.000  0.107  0.000  0.321  0.438
tot    0.001  0.000  0.000  0.019  0.000  0.000  0.214  0.000  0.641  0.875
 
band     4 # energy    3.53692606 # occ.  1.00000000
 
ion      s     py     pz     px    dxy    dyz    dz2    dxz  x2-y2    tot
    1  0.000  0.001  0.000  0.000  0.487  0.000  0.000  0.000  0.000  0.488
    2  0.000  0.001  0.000  0.000  0.487  0.000  0.000  0.000  0.000  0.488
tot    0.000  0.003  0.000  0.000  0.973  0.000  0.000  0.000  0.000  0.976
 
band     5 # energy    3.53692689 # occ.  1.00000000
 
ion      s     py     pz     px    dxy    dyz    dz2    dxz  x2-y2    tot
    1  0.000  0.000  0.001  0.000  0.000  0.000  0.000  0.487  0.000  0.488
    2  0.000  0.000  0.001  0.000  0.000  0.000  0.000  0.487  0.000  0.488
tot    0.000  0.000  0.003  0.000  0.000  0.000  0.000  0.973  0.000  0.976
 
band     6 # energy    3.63779561 # occ.  1.00000000
 
ion      s     py     pz     px    dxy    dyz    dz2    dxz  x2-y2    tot
    1  0.000  0.000  0.000  0.000  0.000  0.489  0.000  0.000  0.000  0.489
    2  0.000  0.000  0.000  0.000  0.000  0.489  0.000  0.000  0.000  0.489
tot    0.000  0.000  0.000  0.000  0.000  0.978  0.000  0.000  0.000  0.978
 
band     7 # energy    4.58640837 # occ.  1.00000000
 
ion      s     py     pz     px    dxy    dyz    dz2    dxz  x2-y2    tot
    1  0.000  0.000  0.000  0.000  0.000  0.000  0.361  0.000  0.120  0.482
    2  0.000  0.000  0.000  0.000  0.000  0.000  0.361  0.000  0.120  0.482
tot    0.000  0.000  0.000  0.000  0.000  0.000  0.723  0.000  0.241  0.964
 
band     8 # energy    4.81423323 # occ.  1.00000000
 
ion      s     py     pz     px    dxy    dyz    dz2    dxz  x2-y2    tot
    1  0.000  0.000  0.000  0.000  0.000  0.000  0.122  0.000  0.365  0.487
    2  0.000  0.000  0.000  0.000  0.000  0.000  0.122  0.000  0.365  0.487
tot    0.001  0.000  0.000  0.000  0.000  0.000  0.243  0.000  0.729  0.973
 
band     9 # energy    5.66819338 # occ.  1.00228752
 
ion      s     py     pz     px    dxy    dyz    dz2    dxz  x2-y2    tot
    1  0.000  0.007  0.000  0.000  0.482  0.000  0.000  0.000  0.000  0.490
    2  0.000  0.007  0.000  0.000  0.482  0.000  0.000  0.000  0.000  0.490
tot    0.000  0.014  0.000  0.000  0.965  0.000  0.000  0.000  0.000  0.979
 
band    10 # energy    5.66819483 # occ.  1.00228599
 
ion      s     py     pz     px    dxy    dyz    dz2    dxz  x2-y2    tot
    1  0.000  0.000  0.007  0.000  0.000  0.000  0.000  0.482  0.000  0.490
    2  0.000  0.000  0.007  0.000  0.000  0.000  0.000  0.482  0.000  0.490
tot    0.000  0.000  0.014  0.000  0.000  0.000  0.000  0.965  0.000  0.979
 
band    11 # energy    5.85298638 # occ.  0.43969668
 
ion      s     py     pz     px    dxy    dyz    dz2    dxz  x2-y2    tot
    1  0.000  0.000  0.000  0.000  0.000  0.493  0.000  0.000  0.000  0.493
    2  0.000  0.000  0.000  0.000  0.000  0.493  0.000  0.000  0.000  0.493
tot    0.000  0.000  0.000  0.000  0.000  0.986  0.000  0.000  0.000  0.986
 
band    12 # energy   13.64853881 # occ.  0.00000000
 
ion      s     py     pz     px    dxy    dyz    dz2    dxz  x2-y2    tot
    1  0.046  0.000  0.000  0.286  0.000  0.000  0.017  0.000  0.050  0.398
    2  0.046  0.000  0.000  0.286  0.000  0.000  0.017  0.000  0.050  0.398
tot    0.091  0.000  0.000  0.572  0.000  0.000  0.033  0.000  0.100  0.797
 
band    13 # energy   16.47365148 # occ.  0.00000000
 
ion      s     py     pz     px    dxy    dyz    dz2    dxz  x2-y2    tot
    1  0.000  0.360  0.000  0.000  0.026  0.000  0.000  0.000  0.000  0.386
    2  0.000  0.360  0.000  0.000  0.026  0.000  0.000  0.000  0.000  0.386
tot    0.000  0.721  0.000  0.000  0.052  0.000  0.000  0.000  0.000  0.773
 
band    14 # energy   16.47365172 # occ.  0.00000000
 
ion      s     py     pz     px    dxy    dyz    dz2    dxz  x2-y2    tot
    1  0.000  0.000  0.360  0.000  0.000  0.000  0.000  0.026  0.000  0.386
    2  0.000  0.000  0.360  0.000  0.000  0.000  0.000  0.026  0.000  0.386
tot    0.000  0.000  0.721  0.000  0.000  0.000  0.000  0.052  0.000  0.773
 
band    15 # energy   21.61658586 # occ.  0.00000000
 
ion      s     py     pz     px    dxy    dyz    dz2    dxz  x2-y2    tot
    1  0.000  0.000  0.000  0.000  0.000  0.000  0.350  0.000  0.117  0.467
    2  0.000  0.000  0.000  0.000  0.000  0.000  0.350  0.000  0.117  0.467
tot    0.000  0.000  0.000  0.000  0.000  0.000  0.701  0.000  0.234  0.935
 
band    16 # energy   22.89569475 # occ.  0.00000000
 
ion      s     py     pz     px    dxy    dyz    dz2    dxz  x2-y2    tot
    1  0.046  0.000  0.000  0.011  0.000  0.000  0.093  0.000  0.280  0.430
    2  0.046  0.000  0.000  0.011  0.000  0.000  0.093  0.000  0.280  0.430
tot    0.091  0.000  0.000  0.022  0.000  0.000  0.187  0.000  0.560  0.859
 
band    17 # energy   27.95376670 # occ.  0.00000000
 
ion      s     py     pz     px    dxy    dyz    dz2    dxz  x2-y2    tot
    1  0.296  0.000  0.000  0.072  0.000  0.000  0.007  0.000  0.022  0.398
    2  0.296  0.000  0.000  0.072  0.000  0.000  0.007  0.000  0.022  0.398
tot    0.592  0.000  0.000  0.144  0.000  0.000  0.015  0.000  0.045  0.796
 
band    18 # energy   28.98367884 # occ.  0.00000000
 
ion      s     py     pz     px    dxy    dyz    dz2    dxz  x2-y2    tot
    1  0.000  0.000  0.000  0.000  0.000  0.000  0.105  0.000  0.035  0.140
    2  0.000  0.000  0.000  0.000  0.000  0.000  0.105  0.000  0.035  0.140
tot    0.000  0.000  0.000  0.000  0.000  0.000  0.210  0.000  0.070  0.281
 
band    19 # energy   30.44267149 # occ.  0.00000000
 
ion      s     py     pz     px    dxy    dyz    dz2    dxz  x2-y2    tot
    1  0.000  0.016  0.000  0.000  0.143  0.000  0.000  0.000  0.000  0.158
    2  0.000  0.016  0.000  0.000  0.143  0.000  0.000  0.000  0.000  0.158
tot    0.000  0.031  0.000  0.000  0.285  0.000  0.000  0.000  0.000  0.316
 
band    20 # energy   30.44267180 # occ.  0.00000000
 
ion      s     py     pz     px    dxy    dyz    dz2    dxz  x2-y2    tot
    1  0.000  0.000  0.016  0.000  0.000  0.000  0.000  0.143  0.000  0.158
    2  0.000  0.000  0.016  0.000  0.000  0.000  0.000  0.143  0.000  0.158
tot    0.000  0.000  0.031  0.000  0.000  0.000  0.000  0.285  0.000  0.316
 

 k-point     4 :    0.20000000-0.00000000 0.00000000     weight = 0.00177778

band     1 # energy   -1.78833633 # occ.  1.00000000
 
ion      s     py     pz     px    dxy    dyz    dz2    dxz  x2-y2    tot
    1  0.336  0.000  0.000  0.028  0.000  0.000  0.001  0.000  0.002  0.367
    2  0.336  0.000  0.000  0.028  0.000  0.000  0.001  0.000  0.002  0.367
tot    0.673  0.000  0.000  0.057  0.000  0.000  0.001  0.000  0.003  0.734
 
band     2 # energy    1.31121588 # occ.  1.00000000
 
ion      s     py     pz     px    dxy    dyz    dz2    dxz  x2-y2    tot
    1  0.003  0.000  0.000  0.021  0.000  0.000  0.103  0.000  0.309  0.436
    2  0.003  0.000  0.000  0.021  0.000  0.000  0.103  0.000  0.309  0.436
tot    0.006  0.000  0.000  0.043  0.000  0.000  0.206  0.000  0.618  0.873
 
band     3 # energy    1.33318403 # occ.  1.00000000
 
ion      s     py     pz     px    dxy    dyz    dz2    dxz  x2-y2    tot
    1  0.000  0.000  0.000  0.000  0.000  0.000  0.330  0.000  0.110  0.440
    2  0.000  0.000  0.000  0.000  0.000  0.000  0.330  0.000  0.110  0.440
tot    0.000  0.000  0.000  0.000  0.000  0.000  0.660  0.000  0.220  0.880
 
band     4 # energy    3.54568228 # occ.  1.00000000
 
ion      s     py     pz     px    dxy    dyz    dz2    dxz  x2-y2    tot
    1  0.000  0.003  0.000  0.000  0.484  0.000  0.000  0.000  0.000  0.487
    2  0.000  0.003  0.000  0.000  0.484  0.000  0.000  0.000  0.000  0.487
tot    0.000  0.006  0.000  0.000  0.967  0.000  0.000  0.000  0.000  0.973
 
band     5 # energy    3.54568311 # occ.  1.00000000
 
ion      s     py     pz     px    dxy    dyz    dz2    dxz  x2-y2    tot
    1  0.000  0.000  0.003  0.000  0.000  0.000  0.000  0.484  0.000  0.487
    2  0.000  0.000  0.003  0.000  0.000  0.000  0.000  0.484  0.000  0.487
tot    0.000  0.000  0.006  0.000  0.000  0.000  0.000  0.967  0.000  0.973
 
band     6 # energy    3.75974408 # occ.  1.00000000
 
ion      s     py     pz     px    dxy    dyz    dz2    dxz  x2-y2    tot
    1  0.000  0.000  0.000  0.000  0.000  0.488  0.000  0.000  0.000  0.488
    2  0.000  0.000  0.000  0.000  0.000  0.488  0.000  0.000  0.000  0.488
tot    0.000  0.000  0.000  0.000  0.000  0.977  0.000  0.000  0.000  0.977
 
band     7 # energy    4.38785119 # occ.  1.00000000
 
ion      s     py     pz     px    dxy    dyz    dz2    dxz  x2-y2    tot
    1  0.000  0.000  0.000  0.000  0.000  0.000  0.358  0.000  0.119  0.478
    2  0.000  0.000  0.000  0.000  0.000  0.000  0.358  0.000  0.119  0.478
tot    0.000  0.000  0.000  0.000  0.000  0.000  0.717  0.000  0.239  0.956
 
band     8 # energy    4.89135482 # occ.  1.00000000
 
ion      s     py     pz     px    dxy    dyz    dz2    dxz  x2-y2    tot
    1  0.001  0.000  0.000  0.000  0.000  0.000  0.122  0.000  0.365  0.488
    2  0.001  0.000  0.000  0.000  0.000  0.000  0.122  0.000  0.365  0.488
tot    0.003  0.000  0.000  0.001  0.000  0.000  0.243  0.000  0.729  0.976
 
band     9 # energy    5.36197144 # occ.  1.00191701
 
ion      s     py     pz     px    dxy    dyz    dz2    dxz  x2-y2    tot
    1  0.000  0.013  0.000  0.000  0.473  0.000  0.000  0.000  0.000  0.486
    2  0.000  0.013  0.000  0.000  0.473  0.000  0.000  0.000  0.000  0.486
tot    0.000  0.025  0.000  0.000  0.947  0.000  0.000  0.000  0.000  0.972
 
band    10 # energy    5.36197277 # occ.  1.00191707
 
ion      s     py     pz     px    dxy    dyz    dz2    dxz  x2-y2    tot
    1  0.000  0.000  0.013  0.000  0.000  0.000  0.000  0.473  0.000  0.486
    2  0.000  0.000  0.013  0.000  0.000  0.000  0.000  0.473  0.000  0.486
tot    0.000  0.000  0.025  0.000  0.000  0.000  0.000  0.947  0.000  0.972
 
band    11 # energy    5.72165730 # occ.  0.91325640
 
ion      s     py     pz     px    dxy    dyz    dz2    dxz  x2-y2    tot
    1  0.000  0.000  0.000  0.000  0.000  0.492  0.000  0.000  0.000  0.492
    2  0.000  0.000  0.000  0.000  0.000  0.492  0.000  0.000  0.000  0.492
tot    0.000  0.000  0.000  0.000  0.000  0.984  0.000  0.000  0.000  0.984
 
band    12 # energy   11.95882969 # occ.  0.00000000
 
ion      s     py     pz     px    dxy    dyz    dz2    dxz  x2-y2    tot
    1  0.075  0.000  0.000  0.240  0.000  0.000  0.023  0.000  0.070  0.408
    2  0.075  0.000  0.000  0.240  0.000  0.000  0.023  0.000  0.070  0.408
tot    0.149  0.000  0.000  0.481  0.000  0.000  0.047  0.000  0.140  0.816
 
band    13 # energy   17.26075175 # occ.  0.00000000
 
ion      s     py     pz     px    dxy    dyz    dz2    dxz  x2-y2    tot
    1  0.000  0.345  0.000  0.000  0.052  0.000  0.000  0.000  0.000  0.398
    2  0.000  0.345  0.000  0.000  0.052  0.000  0.000  0.000  0.000  0.398
tot    0.000  0.690  0.000  0.000  0.105  0.000  0.000  0.000  0.000  0.795
 
band    14 # energy   17.26075211 # occ.  0.00000000
 
ion      s     py     pz     px    dxy    dyz    dz2    dxz  x2-y2    tot
    1  0.000  0.000  0.345  0.000  0.000  0.000  0.000  0.052  0.000  0.398
    2  0.000  0.000  0.345  0.000  0.000  0.000  0.000  0.052  0.000  0.398
tot    0.000  0.000  0.690  0.000  0.000  0.000  0.000  0.105  0.000  0.795
 
band    15 # energy   21.75761232 # occ.  0.00000000
 
ion      s     py     pz     px    dxy    dyz    dz2    dxz  x2-y2    tot
    1  0.000  0.000  0.000  0.000  0.000  0.000  0.343  0.000  0.114  0.458
    2  0.000  0.000  0.000  0.000  0.000  0.000  0.343  0.000  0.114  0.458
tot    0.000  0.000  0.000  0.000  0.000  0.000  0.686  0.000  0.229  0.915
 
band    16 # energy   23.53538814 # occ.  0.00000000
 
ion      s     py     pz     px    dxy    dyz    dz2    dxz  x2-y2    tot
    1  0.105  0.000  0.000  0.000  0.000  0.000  0.072  0.000  0.216  0.392
    2  0.105  0.000  0.000  0.000  0.000  0.000  0.072  0.000  0.216  0.392
tot    0.209  0.000  0.000  0.001  0.000  0.000  0.144  0.000  0.431  0.784
 
band    17 # energy   27.65819576 # occ.  0.00000000
 
ion      s     py     pz     px    dxy    dyz    dz2    dxz  x2-y2    tot
    1  0.000  0.000  0.000  0.000  0.000  0.000  0.149  0.000  0.050  0.199
    2  0.000  0.000  0.000  0.000  0.000  0.000  0.149  0.000  0.050  0.199
tot    0.000  0.000  0.000  0.000  0.000  0.000  0.298  0.000  0.099  0.397
 
band    18 # energy   29.60096392 # occ.  0.00000000
 
ion      s     py     pz     px    dxy    dyz    dz2    dxz  x2-y2    tot
    1  0.000  0.060  0.000  0.000  0.256  0.000  0.000  0.000  0.000  0.316
    2  0.000  0.060  0.000  0.000  0.256  0.000  0.000  0.000  0.000  0.316
tot    0.000  0.120  0.000  0.000  0.511  0.000  0.000  0.000  0.000  0.632
 
band    19 # energy   29.60096451 # occ.  0.00000000
 
ion      s     py     pz     px    dxy    dyz    dz2    dxz  x2-y2    tot
    1  0.000  0.000  0.060  0.000  0.000  0.000  0.000  0.256  0.000  0.316
    2  0.000  0.000  0.060  0.000  0.000  0.000  0.000  0.256  0.000  0.316
tot    0.000  0.000  0.120  0.000  0.000  0.000  0.000  0.511  0.000  0.632
 
band    20 # energy   29.72958642 # occ.  0.00000000
 
ion      s     py     pz     px    dxy    dyz    dz2    dxz  x2-y2    tot
    1  0.202  0.000  0.000  0.120  0.000  0.000  0.022  0.000  0.065  0.409
    2  0.202  0.000  0.000  0.120  0.000  0.000  0.022  0.000  0.065  0.409
tot    0.405  0.000  0.000  0.240  0.000  0.000  0.044  0.000  0.131  0.819
 

 k-point     5 :    0.26666667 0.00000000 0.00000000     weight = 0.00177778

band     1 # energy   -1.19760645 # occ.  1.00000000
 
ion      s     py     pz     px    dxy    dyz    dz2    dxz  x2-y2    tot
    1  0.312  0.000  0.000  0.049  0.000  0.000  0.002  0.000  0.006  0.368
    2  0.312  0.000  0.000  0.049  0.000  0.000  0.002  0.000  0.006  0.368
tot    0.624  0.000  0.000  0.097  0.000  0.000  0.004  0.000  0.012  0.736
 
band     2 # energy    1.49040203 # occ.  1.00000000
 
ion      s     py     pz     px    dxy    dyz    dz2    dxz  x2-y2    tot
    1  0.009  0.000  0.000  0.037  0.000  0.000  0.097  0.000  0.290  0.433
    2  0.009  0.000  0.000  0.037  0.000  0.000  0.097  0.000  0.290  0.433
tot    0.019  0.000  0.000  0.075  0.000  0.000  0.193  0.000  0.580  0.866
 
band     3 # energy    1.58986861 # occ.  1.00000000
 