<?xml version="1.0" encoding="ISO-8859-1"?>
<modeling>
 <generator>
  <i name="program" type="string">vasp </i>
  <i name="version" type="string">6.2.0  </i>
  <i name="subversion" type="string">18Jan21 (build Aug 12 2022 13:00:08) complex                          parallel </i>
  <i name="platform" type="string">LinuxIFC </i>
  <i name="date" type="string">2024 11 04 </i>
  <i name="time" type="string">07:03:39 </i>
 </generator>
 <incar>
  <i type="int" name="ISTART">     0</i>
  <i type="string" name="PREC">Accurate      (Accurate strictly avoids</i>
  <i type="logical" name="ADDGRID"> T  </i>
  <i type="int" name="ISPIN">     2</i>
  <i type="int" name="NELM">    90</i>
  <i type="int" name="NELMIN">     6</i>
  <i type="int" name="IBRION">     2</i>
  <i name="EDIFF">      0.00000100</i>
  <i name="EDIFFG">     -0.00200000</i>
  <i type="int" name="NSW">   100</i>
  <i type="int" name="ISIF">     3</i>
  <i type="int" name="ISYM">     2</i>
  <i name="ENCUT">    500.00000000</i>
  <v name="MAGMOM">      5.00000000      5.00000000</v>
  <i type="logical" name="LREAL"> F  </i>
  <i type="int" name="ISMEAR">     1</i>
  <i name="SIGMA">      0.20000000</i>
  <i type="int" name="LMAXMIX">     4</i>
  <i type="int" name="LORBIT">    11</i>
  <i type="logical" name="LASPH"> T  </i>
  <i type="logical" name="GGA_COMPAT"> F  </i>
  <i type="int" name="VOSKOWN">     1</i>
 </incar>
 <primitive_cell>
  <structure name="primitive_cell" >
   <crystal>
    <varray name="basis" >
     <v>       1.43151775       1.43151775      -1.43151775 </v>
     <v>      -1.43151775       1.43151775       1.43151775 </v>
     <v>       1.43151775      -1.43151775       1.43151775 </v>
    </varray>
    <i name="volume">     11.73411129 </i>
    <varray name="rec_basis" >
     <v>       0.34927964       0.34927964       0.00000000 </v>
     <v>       0.00000000       0.34927964       0.34927964 </v>
     <v>       0.34927964      -0.00000000       0.34927964 </v>
    </varray>
   </crystal>
   <varray name="positions" >
    <v>       0.00000000       0.00000000       0.00000000 </v>
   </varray>
  </structure>
  <varray name="primitive_index" >
   <v type="int" >        1 </v>
  </varray>
 </primitive_cell>
 <kpoints>
  <generation param="Monkhorst-Pack">
   <v type="int" name="divisions">      15       15       15 </v>
   <v name="usershift">      0.00000000       0.00000000       0.00000000 </v>
   <v name="genvec1">      0.06666667       0.00000000       0.00000000 </v>
   <v name="genvec2">      0.00000000       0.06666667       0.00000000 </v>
   <v name="genvec3">      0.00000000       0.00000000       0.06666667 </v>
   <v name="shift">      0.00000000       0.00000000       0.00000000 </v>
  </generation>
  <varray name="kpointlist" >
   <v>       0.00000000       0.00000000       0.00000000 </v>
   <v>       0.06666667       0.00000000       0.00000000 </v>
   <v>       0.13333333       0.00000000       0.00000000 </v>
   <v>       0.20000000      -0.00000000       0.00000000 </v>
   <v>       0.26666667       0.00000000       0.00000000 </v>
   <v>       0.33333333       0.00000000       0.00000000 </v>
   <v>       0.40000000       0.00000000       0.00000000 </v>
   <v>       0.46666667      -0.00000000       0.00000000 </v>
   <v>       0.06666667       0.06666667       0.00000000 </v>
   <v>       0.13333333       0.06666667       0.00000000 </v>
   <v>       0.20000000       0.06666667       0.00000000 </v>
   <v>       0.26666667       0.06666667       0.00000000 </v>
   <v>       0.33333333       0.06666667       0.00000000 </v>
   <v>       0.40000000       0.06666667       0.00000000 </v>
   <v>       0.46666667       0.06666667       0.00000000 </v>
   <v>       0.13333333       0.13333333       0.00000000 </v>
   <v>       0.20000000       0.13333333       0.00000000 </v>
   <v>       0.26666667       0.13333333       0.00000000 </v>
   <v>       0.33333333       0.13333333       0.00000000 </v>
   <v>       0.40000000       0.13333333       0.00000000 </v>
   <v>       0.46666667       0.13333333       0.00000000 </v>
   <v>       0.20000000       0.20000000       0.00000000 </v>
   <v>       0.26666667       0.20000000       0.00000000 </v>
   <v>       0.33333333       0.20000000       0.00000000 </v>
   <v>       0.40000000       0.20000000       0.00000000 </v>
   <v>       0.46666667       0.20000000       0.00000000 </v>
   <v>       0.26666667       0.26666667       0.00000000 </v>
   <v>       0.33333333       0.26666667       0.00000000 </v>
   <v>       0.40000000       0.26666667       0.00000000 </v>
   <v>       0.46666667       0.26666667       0.00000000 </v>
   <v>       0.33333333       0.33333333       0.00000000 </v>
   <v>       0.40000000       0.33333333       0.00000000 </v>
   <v>       0.46666667       0.33333333       0.00000000 </v>
   <v>       0.40000000       0.40000000       0.00000000 </v>
   <v>       0.46666667       0.40000000       0.00000000 </v>
   <v>       0.46666667       0.46666667       0.00000000 </v>
   <v>       0.06666667       0.06666667       0.06666667 </v>
   <v>       0.13333333       0.06666667       0.06666667 </v>
   <v>       0.20000000       0.06666667       0.06666667 </v>
   <v>       0.26666667       0.06666667       0.06666667 </v>
   <v>       0.33333333       0.06666667       0.06666667 </v>
   <v>       0.40000000       0.06666667       0.06666667 </v>
   <v>       0.46666667       0.06666667       0.06666667 </v>
   <v>       0.13333333       0.13333333       0.06666667 </v>
   <v>       0.20000000       0.13333333       0.06666667 </v>
   <v>       0.26666667       0.13333333       0.06666667 </v>
   <v>       0.33333333       0.13333333       0.06666667 </v>
   <v>       0.40000000       0.13333333       0.06666667 </v>
   <v>       0.46666667       0.13333333       0.06666667 </v>
   <v>       0.20000000       0.20000000       0.06666667 </v>
   <v>       0.26666667       0.20000000       0.06666667 </v>
   <v>       0.33333333       0.20000000       0.06666667 </v>
   <v>       0.40000000       0.20000000       0.06666667 </v>
   <v>       0.46666667       0.20000000       0.06666667 </v>
   <v>       0.26666667       0.26666667       0.06666667 </v>
   <v>       0.33333333       0.26666667       0.06666667 </v>
   <v>       0.40000000       0.26666667       0.06666667 </v>
   <v>       0.46666667       0.26666667       0.06666667 </v>
   <v>       0.33333333       0.33333333       0.06666667 </v>
   <v>       0.40000000       0.33333333       0.06666667 </v>
   <v>       0.46666667       0.33333333       0.06666667 </v>
   <v>       0.40000000       0.40000000       0.06666667 </v>
   <v>       0.46666667       0.40000000       0.06666667 </v>
   <v>       0.46666667       0.46666667       0.06666667 </v>
   <v>       0.13333333       0.13333333       0.13333333 </v>
   <v>       0.20000000       0.13333333       0.13333333 </v>
   <v>       0.26666667       0.13333333       0.13333333 </v>
   <v>       0.33333333       0.13333333       0.13333333 </v>
   <v>       0.40000000       0.13333333       0.13333333 </v>
   <v>       0.46666667       0.13333333       0.13333333 </v>
   <v>       0.20000000       0.20000000       0.13333333 </v>
   <v>       0.26666667       0.20000000       0.13333333 </v>
   <v>       0.33333333       0.20000000       0.13333333 </v>
   <v>       0.40000000       0.20000000       0.13333333 </v>
   <v>       0.46666667       0.20000000       0.13333333 </v>
   <v>       0.26666667       0.26666667       0.13333333 </v>
   <v>       0.33333333       0.26666667       0.13333333 </v>
   <v>       0.40000000       0.26666667       0.13333333 </v>
   <v>       0.46666667       0.26666667       0.13333333 </v>
   <v>       0.33333333       0.33333333       0.13333333 </v>
   <v>       0.40000000       0.33333333       0.13333333 </v>
   <v>       0.46666667       0.33333333       0.13333333 </v>
   <v>       0.40000000       0.40000000       0.13333333 </v>
   <v>       0.46666667       0.40000000       0.13333333 </v>
   <v>       0.46666667       0.46666667       0.13333333 </v>
   <v>       0.20000000       0.20000000       0.20000000 </v>
   <v>       0.26666667       0.20000000       0.20000000 </v>
   <v>       0.33333333       0.20000000       0.20000000 </v>
   <v>       0.40000000       0.20000000       0.20000000 </v>
   <v>       0.46666667       0.20000000       0.20000000 </v>
   <v>       0.26666667       0.26666667       0.20000000 </v>
   <v>       0.33333333       0.26666667       0.20000000 </v>
   <v>       0.40000000       0.26666667       0.20000000 </v>
   <v>       0.46666667       0.26666667       0.20000000 </v>
   <v>       0.33333333       0.33333333       0.20000000 </v>
   <v>       0.40000000       0.33333333       0.20000000 </v>
   <v>       0.46666667       0.33333333       0.20000000 </v>
   <v>       0.40000000       0.40000000       0.20000000 </v>
   <v>       0.46666667       0.40000000       0.20000000 </v>
   <v>       0.46666667       0.46666667       0.20000000 </v>
   <v>       0.26666667       0.26666667       0.26666667 </v>
   <v>       0.33333333       0.26666667       0.26666667 </v>
   <v>       0.40000000       0.26666667       0.26666667 </v>
   <v>       0.46666667       0.26666667       0.26666667 </v>
   <v>       0.33333333       0.33333333       0.26666667 </v>
   <v>       0.40000000       0.33333333       0.26666667 </v>
   <v>       0.46666667       0.33333333       0.26666667 </v>
   <v>       0.40000000       0.40000000       0.26666667 </v>
   <v>       0.46666667       0.40000000       0.26666667 </v>
   <v>       0.46666667       0.46666667       0.26666667 </v>
   <v>       0.33333333       0.33333333       0.33333333 </v>
   <v>       0.40000000       0.33333333       0.33333333 </v>
   <v>       0.46666667       0.33333333       0.33333333 </v>
   <v>       0.40000000       0.40000000       0.33333333 </v>
   <v>       0.46666667       0.40000000       0.33333333 </v>
   <v>       0.46666667       0.46666667       0.33333333 </v>
   <v>       0.40000000       0.40000000       0.40000000 </v>
   <v>       0.46666667       0.40000000       0.40000000 </v>
   <v>       0.46666667       0.46666667       0.40000000 </v>
   <v>       0.46666667       0.46666667       0.46666667 </v>
  </varray>
  <varray name="weights" >
   <v>       0.00029630 </v>
   <v>       0.00177778 </v>
   <v>       0.00177778 </v>
   <v>       0.00177778 </v>
   <v>       0.00177778 </v>
   <v>       0.00177778 </v>
   <v>       0.00177778 </v>
   <v>       0.00177778 </v>
   <v>       0.00355556 </v>
   <v>       0.00711111 </v>
   <v>       0.00711111 </v>
   <v>       0.00711111 </v>
   <v>       0.00711111 </v>
   <v>       0.00711111 </v>
   <v>       0.00711111 </v>
   <v>       0.00355556 </v>
   <v>       0.00711111 </v>
   <v>       0.00711111 </v>
   <v>       0.00711111 </v>
   <v>       0.00711111 </v>
   <v>       0.00711111 </v>
   <v>       0.00355556 </v>
   <v>       0.00711111 </v>
   <v>       0.00711111 </v>
   <v>       0.00711111 </v>
   <v>       0.00711111 </v>
   <v>       0.00355556 </v>
   <v>       0.00711111 </v>
   <v>       0.00711111 </v>
   <v>       0.00711111 </v>
   <v>       0.00355556 </v>
   <v>       0.00711111 </v>
   <v>       0.00711111 </v>
   <v>       0.00355556 </v>
   <v>       0.00711111 </v>
   <v>       0.00355556 </v>
   <v>       0.00237037 </v>
   <v>       0.00711111 </v>
   <v>       0.00711111 </v>
   <v>       0.00711111 </v>
   <v>       0.00711111 </v>
   <v>       0.00711111 </v>
   <v>       0.00711111 </v>
   <v>       0.00711111 </v>
   <v>       0.01422222 </v>
   <v>       0.01422222 </v>
   <v>       0.01422222 </v>
   <v>       0.01422222 </v>
   <v>       0.01422222 </v>
   <v>       0.00711111 </v>
   <v>       0.01422222 </v>
   <v>       0.01422222 </v>
   <v>       0.01422222 </v>
   <v>       0.01422222 </v>
   <v>       0.00711111 </v>
   <v>       0.01422222 </v>
   <v>       0.01422222 </v>
   <v>       0.01422222 </v>
   <v>       0.00711111 </v>
   <v>       0.01422222 </v>
   <v>       0.01422222 </v>
   <v>       0.00711111 </v>
   <v>       0.01422222 </v>
   <v>       0.00711111 </v>
   <v>       0.00237037 </v>
   <v>       0.00711111 </v>
   <v>       0.00711111 </v>
   <v>       0.00711111 </v>
   <v>       0.00711111 </v>
   <v>       0.00711111 </v>
   <v>       0.00711111 </v>
   <v>       0.01422222 </v>
   <v>       0.01422222 </v>
   <v>       0.01422222 </v>
   <v>       0.01422222 </v>
   <v>       0.00711111 </v>
   <v>       0.01422222 </v>
   <v>       0.01422222 </v>
   <v>       0.01422222 </v>
   <v>       0.00711111 </v>
   <v>       0.01422222 </v>
   <v>       0.01422222 </v>
   <v>       0.00711111 </v>
   <v>       0.01422222 </v>
   <v>       0.00711111 </v>
   <v>       0.00237037 </v>
   <v>       0.00711111 </v>
   <v>       0.00711111 </v>
   <v>       0.00711111 </v>
   <v>       0.00711111 </v>
   <v>       0.00711111 </v>
   <v>       0.01422222 </v>
   <v>       0.01422222 </v>
   <v>       0.01422222 </v>
   <v>       0.00711111 </v>
   <v>       0.01422222 </v>
   <v>       0.01422222 </v>
   <v>       0.00711111 </v>
   <v>       0.01422222 </v>
   <v>       0.00711111 </v>
   <v>       0.00237037 </v>
   <v>       0.00711111 </v>
   <v>       0.00711111 </v>
   <v>       0.00711111 </v>
   <v>       0.00711111 </v>
   <v>       0.01422222 </v>
   <v>       0.01422222 </v>
   <v>       0.00711111 </v>
   <v>       0.01422222 </v>
   <v>       0.00711111 </v>
   <v>       0.00237037 </v>
   <v>       0.00711111 </v>
   <v>       0.00711111 </v>
   <v>       0.00711111 </v>
   <v>       0.01422222 </v>
   <v>       0.00711111 </v>
   <v>       0.00237037 </v>
   <v>       0.00711111 </v>
   <v>       0.00711111 </v>
   <v>       0.00237037 </v>
  </varray>
 </kpoints>
 <parameters>
  <separator name="general" >
   <i type="string" name="SYSTEM">unknown system</i>
   <i type="logical" name="LCOMPAT"> F  </i>
  </separator>
  <separator name="electronic" >
   <i type="string" name="PREC">accura</i>
   <i name="ENMAX">    500.00000000</i>
   <i name="ENAUG">    511.36800000</i>
   <i name="EDIFF">      0.00000100</i>
   <i type="int" name="IALGO">    38</i>
   <i type="int" name="IWAVPR">    11</i>
   <i type="int" name="NBANDS">    20</i>
   <i type="int" name="NBANDSLOW">    -1</i>
   <i type="int" name="NBANDSHIGH">    -1</i>
   <i name="NELECT">     16.00000000</i>
   <i type="int" name="TURBO">     0</i>
   <i type="int" name="IRESTART">     0</i>
   <i type="int" name="NREBOOT">     0</i>
   <i type="int" name="NMIN">     0</i>
   <i name="EREF">      0.00000000</i>
   <separator name="electronic smearing" >
    <i type="int" name="ISMEAR">     1</i>
    <i name="SIGMA">      0.20000000</i>
    <i name="KSPACING">      0.50000000</i>
    <i type="logical" name="KGAMMA"> T  </i>
    <i type="logical" name="KBLOWUP"> T  </i>
   </separator>
   <separator name="electronic projectors" >
    <i type="logical" name="LREAL"> F  </i>
    <v name="ROPT">      0.00000000</v>
    <i type="int" name="LMAXPAW">  -100</i>
    <i type="int" name="LMAXMIX">     4</i>
    <i type="logical" name="NLSPLINE"> F  </i>
   </separator>
   <separator name="electronic startup" >
    <i type="int" name="ISTART">     0</i>
    <i type="int" name="ICHARG">     2</i>
    <i type="int" name="INIWAV">     1</i>
   </separator>
   <separator name="electronic spin" >
    <i type="int" name="ISPIN">     2</i>
    <i type="logical" name="LNONCOLLINEAR"> F  </i>
    <v name="MAGMOM">      5.00000000      5.00000000</v>
    <i name="NUPDOWN">     -1.00000000</i>
    <i type="logical" name="LSORBIT"> F  </i>
    <v name="SAXIS">      0.00000000      0.00000000      1.00000000</v>
    <i type="logical" name="LSPIRAL"> F  </i>
    <v name="QSPIRAL">      0.00000000      0.00000000      0.00000000</v>
    <i type="logical" name="LZEROZ"> F  </i>
   </separator>
   <separator name="electronic exchange-correlation" >
    <i type="logical" name="LASPH"> T  </i>
    <i type="logical" name="LMETAGGA"> F  </i>
   </separator>
   <separator name="electronic convergence" >
    <i type="int" name="NELM">    90</i>
    <i type="int" name="NELMDL">    -5</i>
    <i type="int" name="NELMIN">     6</i>
    <i name="ENINI">    500.00000000</i>
    <separator name="electronic convergence detail" >
     <i type="logical" name="LDIAG"> T  </i>
     <i type="logical" name="LSUBROT"> F  </i>
     <i name="WEIMIN">      0.00100000</i>
     <i name="EBREAK">      0.00000001</i>
     <i name="DEPER">      0.30000000</i>
     <i type="int" name="NRMM">     4</i>
     <i name="TIME">      0.40000000</i>
    </separator>
   </separator>
   <separator name="electronic mixer" >
    <i name="AMIX">      0.40000000</i>
    <i name="BMIX">      1.00000000</i>
    <i name="AMIN">      0.10000000</i>
    <i name="AMIX_MAG">      1.60000000</i>
    <i name="BMIX_MAG">      1.00000000</i>
    <separator name="electronic mixer details" >
     <i type="int" name="IMIX">     4</i>
     <i type="logical" name="MIXFIRST"> F  </i>
     <i type="int" name="MAXMIX">   -45</i>
     <i name="WC">    100.00000000</i>
     <i type="int" name="INIMIX">     1</i>
     <i type="int" name="MIXPRE">     1</i>
     <i type="int" name="MREMOVE">     5</i>
    </separator>
   </separator>
   <separator name="electronic dipolcorrection" >
    <i type="logical" name="LDIPOL"> F  </i>
    <i type="logical" name="LMONO"> F  </i>
    <i type="int" name="IDIPOL">     0</i>
    <i name="EPSILON">      1.00000000</i>
    <v name="DIPOL">   -100.00000000   -100.00000000   -100.00000000</v>
    <i name="EFIELD">      0.00000000</i>
   </separator>
  </separator>
  <separator name="grids" >
   <i type="int" name="NGX">    24</i>
   <i type="int" name="NGY">    24</i>
   <i type="int" name="NGZ">    24</i>
   <i type="int" name="NGXF">    48</i>
   <i type="int" name="NGYF">    48</i>
   <i type="int" name="NGZF">    48</i>
   <i type="logical" name="ADDGRID"> T  </i>
  </separator>
  <separator name="ionic" >
   <i type="int" name="NSW">   100</i>
   <i type="int" name="IBRION">     2</i>
   <i type="int" name="MDALGO">     0</i>
   <i type="int" name="ISIF">     3</i>
   <i name="PSTRESS">      0.00000000</i>
   <i name="EDIFFG">     -0.00200000</i>
   <i type="int" name="NFREE">     1</i>
   <i name="POTIM">      0.50000000</i>
   <i name="SMASS">     -3.00000000</i>
   <i name="SCALEE">      1.00000000</i>
  </separator>
  <separator name="ionic md" >
   <i name="TEBEG">      0.00010000</i>
   <i name="TEEND">      0.00010000</i>
   <i type="int" name="NBLOCK">     1</i>
   <i type="int" name="KBLOCK">   100</i>
   <i type="int" name="NPACO">   256</i>
   <i name="APACO">     16.00000000</i>
  </separator>
  <separator name="symmetry" >
   <i type="int" name="ISYM">     2</i>
   <i name="SYMPREC">      0.00001000</i>
  </separator>
  <separator name="dos" >
   <i type="int" name="LORBIT">    11</i>
   <v name="RWIGS">     -1.00000000</v>
   <i type="int" name="NEDOS">   301</i>
   <i name="EMIN">     10.00000000</i>
   <i name="EMAX">    -10.00000000</i>
   <i name="EFERMI">      0.00000000</i>
  </separator>
  <separator name="writing" >
   <i type="int" name="NWRITE">     2</i>
   <i type="logical" name="LWAVE"> T  </i>
   <i type="logical" name="LDOWNSAMPLE"> F  </i>
   <i type="logical" name="LCHARG"> T  </i>
   <i type="logical" name="LPARD"> F  </i>
   <i type="logical" name="LVTOT"> F  </i>
   <i type="logical" name="LVHAR"> F  </i>
   <i type="logical" name="LELF"> F  </i>
   <i type="logical" name="LOPTICS"> F  </i>
   <v name="STM">      0.00000000      0.00000000      0.00000000      0.00000000      0.00000000      0.00000000      0.00000000</v>
  </separator>
  <separator name="performance" >
   <i type="int" name="NPAR">     4</i>
   <i type="int" name="NSIM">     4</i>
   <i type="int" name="NBLK">    -1</i>
   <i type="logical" name="LPLANE"> T  </i>
   <i type="logical" name="LSCALAPACK"> T  </i>
   <i type="logical" name="LSCAAWARE"> F  </i>
   <i type="logical" name="LSCALU"> F  </i>
   <i type="logical" name="LASYNC"> F  </i>
   <i type="logical" name="LORBITALREAL"> F  </i>
  </separator>
  <separator name="miscellaneous" >
   <i type="int" name="IDIOT">     3</i>
   <i type="int" name="PHON_NSTRUCT">    -1</i>
   <i type="logical" name="LMUSIC"> F  </i>
   <v name="POMASS">     55.84700000</v>
   <v name="DARWINR">      0.00000000</v>
   <v name="DARWINV">      1.00000000</v>
   <i type="logical" name="LCORR"> T  </i>
  </separator>
  <i type="logical" name="GGA_COMPAT"> F  </i>
  <i type="logical" name="LBERRY"> F  </i>
  <i type="int" name="ICORELEVEL">     0</i>
  <i type="logical" name="LDAU"> F  </i>
  <i type="int" name="I_CONSTRAINED_M">     0</i>
  <separator name="electronic exchange-correlation" >
   <i type="string" name="GGA">--</i>
   <i type="int" name="VOSKOWN">     1</i>
   <i type="logical" name="LHFCALC"> F  </i>
   <i type="string" name="PRECFOCK"></i>
   <i type="logical" name="LSYMGRAD"> F  </i>
   <i type="logical" name="LHFONE"> F  </i>
   <i type="logical" name="LRHFCALC"> F  </i>
   <i type="logical" name="LTHOMAS"> F  </i>
   <i type="logical" name="LMODELHF"> F  </i>
   <i type="logical" name="LFOCKACE"> F  </i>
   <i name="ENCUT4O">     -1.00000000</i>
   <i type="int" name="EXXOEP">     0</i>
   <i type="int" name="FOURORBIT">     0</i>
   <i name="AEXX">      0.00000000</i>
   <i name="HFALPHA">      0.00000000</i>
   <i name="MCALPHA">      0.00000000</i>
   <i name="ALDAX">      1.00000000</i>
   <i name="AGGAX">      1.00000000</i>
   <i name="ALDAC">      1.00000000</i>
   <i name="AGGAC">      1.00000000</i>
   <i type="int" name="NKREDX">     1</i>
   <i type="int" name="NKREDY">     1</i>
   <i type="int" name="NKREDZ">     1</i>
   <i type="logical" name="SHIFTRED"> F  </i>
   <i type="logical" name="ODDONLY"> F  </i>
   <i type="logical" name="EVENONLY"> F  </i>
   <i type="int" name="LMAXFOCK">     0</i>
   <i type="int" name="NMAXFOCKAE">     0</i>
   <i type="logical" name="LFOCKAEDFT"> F  </i>
   <i name="HFSCREEN">      0.00000000</i>
   <i name="HFSCREENC">      0.00000000</i>
   <i type="int" name="NBANDSGWLOW">     0</i>
  </separator>
  <separator name="vdW DFT" >
   <i type="logical" name="LUSE_VDW"> F  </i>
   <i name="Zab_VDW">     -0.84910000</i>
   <i name="PARAM1">      0.12340000</i>
   <i name="PARAM2">      1.00000000</i>
   <i name="PARAM3">      0.00000000</i>
  </separator>
  <separator name="model GW" >
   <i type="int" name="MODEL_GW">     0</i>
   <i name="MODEL_EPS0">      7.04046678</i>
   <i name="MODEL_ALPHA">      1.00000000</i>
  </separator>
  <separator name="linear response parameters" >
   <i type="logical" name="LEPSILON"> F  </i>
   <i type="logical" name="LRPA"> F  </i>
   <i type="logical" name="LNABLA"> F  </i>
   <i type="logical" name="LVEL"> F  </i>
   <i type="int" name="KINTER">     0</i>
   <i name="CSHIFT">      0.10000000</i>
   <i name="OMEGAMAX">     -1.00000000</i>
   <i name="DEG_THRESHOLD">      0.00200000</i>
   <i name="RTIME">     -0.10000000</i>
   <i name="WPLASMAI">      0.00000000</i>
   <v name="DFIELD">      0.00000000      0.00000000      0.00000000</v>
   <v name="WPLASMA">      0.00000000      0.00000000      0.00000000      0.00000000      0.00000000      0.00000000      0.00000000      0.00000000      0.00000000</v>
  </separator>
  <separator name="orbital magnetization" >
   <i type="logical" name="NUCIND"> F  </i>
   <v name="MAGPOS">      0.00000000      0.00000000      0.00000000</v>
   <i type="logical" name="LNICSALL"> T  </i>
   <i type="logical" name="ORBITALMAG"> F  </i>
   <i type="logical" name="LMAGBLOCH"> F  </i>
   <i type="logical" name="LCHIMAG"> F  </i>
   <i type="logical" name="LGAUGE"> T  </i>
   <i type="int" name="MAGATOM">     0</i>
   <v name="MAGDIPOL">      0.00000000      0.00000000      0.00000000</v>
   <v name="AVECCONST">      0.00000000      0.00000000      0.00000000</v>
  </separator>
  <separator name="response functions" >
   <i type="logical" name="LFINITE_TEMPERATURE"> F  </i>
   <i type="logical" name="LADDER"> F  </i>
   <i type="logical" name="LRPAFORCE"> F  </i>
   <i type="logical" name="LFXC"> F  </i>
   <i type="logical" name="LHARTREE"> T  </i>
   <i type="int" name="IBSE">     0</i>
   <v type="int" name="KPOINT">    -1     0     0     0</v>
   <i type="logical" name="LTCTC"> F  </i>
   <i type="logical" name="LTCTE"> F  </i>
   <i type="logical" name="LTETE"> F  </i>
   <i type="logical" name="LTRIPLET"> F  </i>
   <i type="logical" name="LFXCEPS"> F  </i>
   <i type="logical" name="LFXHEG"> F  </i>
   <i type="int" name="NATURALO">     2</i>
   <i type="logical" name="LHOLEGF"> F  </i>
   <i type="logical" name="L2ORDER"> F  </i>
   <i type="logical" name="LDMP1"> F  </i>
   <i type="logical" name="LMP2LT"> F  </i>
   <i type="logical" name="LSMP2LT"> F  </i>
   <i type="logical" name="LGWLF"> F  </i>
   <i name="ENCUTGW">     -2.00000000</i>
   <i name="ENCUTGWSOFT">     -2.00000000</i>
   <i name="ENCUTLF">     -1.00000000</i>
   <i type="logical" name="LESF_SPLINES"> F  </i>
   <i type="int" name="LMAXMP2">    -1</i>
   <i name="SCISSOR">      0.00000000</i>
   <i type="int" name="NOMEGA">     0</i>
   <i type="int" name="NOMEGAR">     0</i>
   <i type="int" name="NBANDSGW">    -1</i>
   <i type="int" name="NBANDSO">    -1</i>
   <i type="int" name="NBANDSV">    -1</i>
   <i type="int" name="NELM">    90</i>
   <i type="int" name="NELMHF">     1</i>
   <i type="int" name="DIM">     3</i>
   <i type="int" name="IESPILON">     4</i>
   <i type="int" name="ANTIRES">     0</i>
   <i name="OMEGAMAX">    -30.00000000</i>
   <i name="OMEGAMIN">    -30.00000000</i>
   <i name="OMEGATL">   -200.00000000</i>
   <i type="int" name="OMEGAGRID">     0</i>
   <i name="CSHIFT">     -0.10000000</i>
   <i type="logical" name="LSELFENERGY"> F  </i>
   <i type="logical" name="LSPECTRAL"> F  </i>
   <i type="logical" name="LSPECTRALGW"> F  </i>
   <i type="logical" name="LSINGLES"> F  </i>
   <i type="logical" name="LFERMIGW"> F  </i>
   <i type="logical" name="ODDONLYGW"> F  </i>
   <i type="logical" name="EVENONLYGW"> F  </i>
   <i type="int" name="NKREDLFX">     1</i>
   <i type="int" name="NKREDLFY">     1</i>
   <i type="int" name="NKREDLFZ">     1</i>
   <i type="int" name="MAXMEM">  2800</i>
   <i type="int" name="TELESCOPE">     0</i>
   <i type="int" name="NTAUPAR">    -1</i>
   <i type="int" name="NOMEGAPAR">    -1</i>
   <i name="DAMP_NEWTON">      0.80000001</i>
   <i name="LAMBDA">      1.00000000</i>
  </separator>
  <separator name="External order field" >
   <i name="OFIELD_KAPPA">      0.00000000</i>
   <v name="OFIELD_K">      0.00000000      0.00000000      0.00000000</v>
   <i name="OFIELD_Q6_NEAR">      0.00000000</i>
   <i name="OFIELD_Q6_FAR">      0.00000000</i>
   <i name="OFIELD_A">      0.00000000</i>
  </separator>
 </parameters>
 <atominfo>
  <atoms>       2 </atoms>
  <types>       1 </types>
  <array name="atoms" >
   <dimension dim="1">ion</dimension>
   <field type="string">element</field>
   <field type="int">atomtype</field>
   <set>
    <rc><c>Fe</c><c>   1</c></rc>
    <rc><c>Fe</c><c>   1</c></rc>
   </set>
  </array>
  <array name="atomtypes" >
   <dimension dim="1">type</dimension>
   <field type="int">atomspertype</field>
   <field type="string">element</field>
   <field>mass</field>
   <field>valence</field>
   <field type="string">pseudopotential</field>
   <set>
    <rc><c>   2</c><c>Fe</c><c>     55.84700000</c><c>      8.00000000</c><c>  PAW_PBE Fe 06Sep2000                  </c></rc>
   </set>
  </array>
 </atominfo>
 <structure name="initialpos" >
  <crystal>
   <varray name="basis" >
    <v>       2.86303550       0.00000000       0.00000000 </v>
    <v>       0.00000000       2.86303550       0.00000000 </v>
    <v>       0.00000000       0.00000000       2.86303550 </v>
   </varray>
   <i name="volume">     23.46822259 </i>
   <varray name="rec_basis" >
    <v>       0.34927964      -0.00000000       0.00000000 </v>
    <v>       0.00000000       0.34927964       0.00000000 </v>
    <v>      -0.00000000      -0.00000000       0.34927964 </v>
   </varray>
  </crystal>
  <varray name="positions" >
   <v>       0.00000000       0.00000000       0.00000000 </v>
   <v>       0.50000000       0.50000000       0.50000000 </v>
  </varray>
 </structure>
 <calculation>
  <scstep>
   <time name="dav">    5.88    5.89</time>
   <time name="total">    7.59    7.60</time>
   <energy>
    <i name="alphaZ">    117.79976220 </i>
    <i name="ewald">  -1171.43779597 </i>
    <i name="hartreedc">   -228.04061712 </i>
    <i name="XCdc">     14.27161833 </i>
    <i name="pawpsdc">   1103.49540010 </i>
    <i name="pawaedc">  -1119.11610375 </i>
    <i name="eentropy">      0.00051093 </i>
    <i name="bandstr">    174.40105467 </i>
    <i name="atom">   1188.62534088 </i>
    <i name="e_fr_energy">     79.99917028 </i>
    <i name="e_wo_entrp">     79.99865935 </i>
    <i name="e_0_energy">     79.99899997 </i>
   </energy>
  </scstep>
  <scstep>
   <time name="dav">    5.56    5.59</time>
   <time name="total">    5.57    5.60</time>
   <energy>
    <i name="e_fr_energy">    -12.24225112 </i>
    <i name="e_wo_entrp">    -12.24275741 </i>
    <i name="e_0_energy">    -12.24241989 </i>
   </energy>
  </scstep>
  <scstep>
   <time name="dav">    5.99    6.01</time>
   <time name="total">    6.00    6.02</time>
   <energy>
    <i name="e_fr_energy">    -16.05377010 </i>
    <i name="e_wo_entrp">    -16.05510036 </i>
    <i name="e_0_energy">    -16.05421352 </i>
   </energy>
  </scstep>
  <scstep>
   <time name="dav">    5.91    5.93</time>
   <time name="total">    5.91    5.94</time>
   <energy>
    <i name="e_fr_energy">    -16.08574282 </i>
    <i name="e_wo_entrp">    -16.08709060 </i>
    <i name="e_0_energy">    -16.08619208 </i>
   </energy>
  </scstep>
  <scstep>
   <time name="dav">    5.94    5.96</time>
   <time name="total">    6.45    6.47</time>
   <energy>
    <i name="e_fr_energy">    -16.08610436 </i>
    <i name="e_wo_entrp">    -16.08745228 </i>
    <i name="e_0_energy">    -16.08655367 </i>
   </energy>
  </scstep>
  <scstep>
   <time name="dav">    5.92    5.92</time>
   <time name="total">    8.10    8.12</time>
   <energy>
    <i name="e_fr_energy">    -16.56167284 </i>
    <i name="e_wo_entrp">    -16.56140236 </i>
    <i name="e_0_energy">    -16.56158268 </i>
   </energy>
  </scstep>
  <scstep>
   <time name="dav">    6.25    6.25</time>
   <time name="total">    8.43    8.45</time>
   <energy>
    <i name="e_fr_energy">    -16.49836043 </i>
    <i name="e_wo_entrp">    -16.49616102 </i>
    <i name="e_0_energy">    -16.49762730 </i>
   </energy>
  </scstep>
  <scstep>
   <time name="dav">    6.78    6.78</time>
   <time name="total">    8.96    8.98</time>
   <energy>
    <i name="e_fr_energy">    -16.48103322 </i>
    <i name="e_wo_entrp">    -16.47852867 </i>
    <i name="e_0_energy">    -16.48019837 </i>
   </energy>
  </scstep>
  <scstep>
   <time name="dav">    7.48    7.49</time>
   <time name="total">    9.66    9.69</time>
   <energy>
    <i name="e_fr_energy">    -16.46919032 </i>
    <i name="e_wo_entrp">    -16.46632842 </i>
    <i name="e_0_energy">    -16.46823635 </i>
   </energy>
  </scstep>
  <scstep>
   <time name="dav">    6.31    6.32</time>
   <time name="total">    8.49    8.52</time>
   <energy>
    <i name="e_fr_energy">    -16.46870680 </i>
    <i name="e_wo_entrp">    -16.46593193 </i>
    <i name="e_0_energy">    -16.46778184 </i>
   </energy>
  </scstep>
  <scstep>
   <time name="dav">    6.43    6.43</time>
   <time name="total">    8.61    8.64</time>
   <energy>
    <i name="e_fr_energy">    -16.46873474 </i>
    <i name="e_wo_entrp">    -16.46595956 </i>
    <i name="e_0_energy">    -16.46780968 </i>
   </energy>
  </scstep>
  <scstep>
   <time name="dav">    5.59    5.59</time>
   <time name="total">    7.77    7.79</time>
   <energy>
    <i name="e_fr_energy">    -16.46872479 </i>
    <i name="e_wo_entrp">    -16.46595439 </i>
    <i name="e_0_energy">    -16.46780133 </i>
   </energy>
  </scstep>
  <scstep>
   <time name="dav">    4.84    4.84</time>
   <time name="total">    7.02    7.05</time>
   <energy>
    <i name="e_fr_energy">    -16.46872613 </i>
    <i name="e_wo_entrp">    -16.46595248 </i>
    <i name="e_0_energy">    -16.46780158 </i>
   </energy>
  </scstep>
  <scstep>
   <time name="dav">    3.95    3.95</time>
   <time name="total">    5.91    5.93</time>
   <energy>
    <i name="alphaZ">    117.79976220 </i>
    <i name="ewald">  -1171.43779597 </i>
    <i name="hartreedc">   -195.17957133 </i>
    <i name="XCdc">      8.52710462 </i>
    <i name="pawpsdc">   1412.11830790 </i>
    <i name="pawaedc">  -1430.02798101 </i>
    <i name="eentropy">     -0.00277415 </i>
    <i name="bandstr">     53.10888142 </i>
    <i name="atom">   1188.62534088 </i>
    <i name="e_fr_energy">    -16.46872543 </i>
    <i name="e_wo_entrp">    -16.46595128 </i>
    <i name="e_0_energy">    -16.46780071 </i>
   </energy>
  </scstep>
  <structure>
   <crystal>
    <varray name="basis" >
     <v>       2.86303550       0.00000000       0.00000000 </v>
     <v>       0.00000000       2.86303550       0.00000000 </v>
     <v>       0.00000000       0.00000000       2.86303550 </v>
    </varray>
    <i name="volume">     23.46822259 </i>
    <varray name="rec_basis" >
     <v>       0.34927964      -0.00000000       0.00000000 </v>
     <v>       0.00000000       0.34927964       0.00000000 </v>
     <v>      -0.00000000      -0.00000000       0.34927964 </v>
    </varray>
   </crystal>
   <varray name="positions" >
    <v>       0.00000000       0.00000000       0.00000000 </v>
    <v>       0.50000000       0.50000000       0.50000000 </v>
   </varray>
  </structure>
  <varray name="forces" >
   <v>       0.00000000      -0.00000000       0.00000000 </v>
   <v>      -0.00000000       0.00000000      -0.00000000 </v>
  </varray>
  <varray name="stress" >
   <v>     -60.13155483      -0.00000000       0.00000000 </v>
   <v>      -0.00000000     -60.13155483      -0.00000000 </v>
   <v>      -0.00000000      -0.00000000     -60.13155483 </v>
  </varray>
  <energy>
   <i name="e_fr_energy">    -16.46872543 </i>
   <i name="e_wo_entrp">    -16.46595128 </i>
   <i name="e_0_energy">    -16.46780071 </i>
  </energy>
  <time name="totalsc">  114.06  116.24</time>
 </calculation>
 <calculation>
  <scstep>
   <time name="dav">    5.89    5.91</time>
   <time name="total">    8.09    8.12</time>
   <energy>
    <i name="alphaZ">    125.63872137 </i>
    <i name="ewald">  -1196.86618482 </i>
    <i name="hartreedc">   -199.41755821 </i>
    <i name="XCdc">      9.78358842 </i>
    <i name="pawpsdc">   1412.09035928 </i>
    <i name="pawaedc">  -1429.99830419 </i>
    <i name="eentropy">     -0.00187784 </i>
    <i name="bandstr">     73.01165952 </i>
    <i name="atom">   1188.62534088 </i>
    <i name="e_fr_energy">    -17.13425558 </i>
    <i name="e_wo_entrp">    -17.13237773 </i>
    <i name="e_0_energy">    -17.13362963 </i>
   </energy>
  </scstep>
  <scstep>
   <time name="dav">    5.92    5.94</time>
   <time name="total">    8.14    8.17</time>
   <energy>
    <i name="e_fr_energy">    -16.51683749 </i>
    <i name="e_wo_entrp">    -16.51292353 </i>
    <i name="e_0_energy">    -16.51553284 </i>
   </energy>
  </scstep>
  <scstep>
   <time name="dav">    6.29    6.30</time>
   <time name="total">    8.51    8.54</time>
   <energy>
    <i name="e_fr_energy">    -16.48290639 </i>
    <i name="e_wo_entrp">    -16.47989814 </i>
    <i name="e_0_energy">    -16.48190364 </i>
   </energy>
  </scstep>
  <scstep>
   <time name="dav">    6.58    6.60</time>
   <time name="total">    8.79    8.83</time>
   <energy>
    <i name="e_fr_energy">    -16.47637804 </i>
    <i name="e_wo_entrp">    -16.47355058 </i>
    <i name="e_0_energy">    -16.47543555 </i>
   </energy>
  </scstep>
  <scstep>
   <time name="dav">    6.49    6.50</time>
   <time name="total">    8.69    8.73</time>
   <energy>
    <i name="e_fr_energy">    -16.47115009 </i>
    <i name="e_wo_entrp">    -16.46849382 </i>
    <i name="e_0_energy">    -16.47026467 </i>
   </energy>
  </scstep>
  <scstep>
   <time name="dav">    6.07    6.07</time>
   <time name="total">    8.28    8.30</time>
   <energy>
    <i name="e_fr_energy">    -16.47123441 </i>
    <i name="e_wo_entrp">    -16.46855858 </i>
    <i name="e_0_energy">    -16.47034247 </i>
   </energy>
  </scstep>
  <scstep>
   <time name="dav">    5.80    5.80</time>
   <time name="total">    8.02    8.04</time>
   <energy>
    <i name="e_fr_energy">    -16.47124060 </i>
    <i name="e_wo_entrp">    -16.46855504 </i>
    <i name="e_0_energy">    -16.47034541 </i>
   </energy>
  </scstep>
  <scstep>
   <time name="dav">    4.86    4.86</time>
   <time name="total">    7.08    7.10</time>
   <energy>
    <i name="e_fr_energy">    -16.47123754 </i>
    <i name="e_wo_entrp">    -16.46855104 </i>
    <i name="e_0_energy">    -16.47034204 </i>
   </energy>
  </scstep>
  <scstep>
   <time name="dav">    3.83    3.83</time>
   <time name="total">    5.56    5.58</time>
   <energy>
    <i name="alphaZ">    125.63872137 </i>
    <i name="ewald">  -1196.86618482 </i>
    <i name="hartreedc">   -185.20641490 </i>
    <i name="XCdc">      8.68287923 </i>
    <i name="pawpsdc">   1470.44731634 </i>
    <i name="pawaedc">  -1488.77621085 </i>
    <i name="eentropy">     -0.00268050 </i>
    <i name="bandstr">     60.98599668 </i>
    <i name="atom">   1188.62534088 </i>
    <i name="e_fr_energy">    -16.47123657 </i>
    <i name="e_wo_entrp">    -16.46855607 </i>
    <i name="e_0_energy">    -16.47034307 </i>
   </energy>
  </scstep>
  <structure>
   <crystal>
    <varray name="basis" >
     <v>       2.80220800      -0.00000000       0.00000000 </v>
     <v>       0.00000000       2.80220800       0.00000000 </v>
     <v>      -0.00000000      -0.00000000       2.80220800 </v>
    </varray>
    <i name="volume">     22.00397306 </i>
    <varray name="rec_basis" >
     <v>       0.35686145      -0.00000000       0.00000000 </v>
     <v>       0.00000000       0.35686145       0.00000000 </v>
     <v>      -0.00000000      -0.00000000       0.35686145 </v>
    </varray>
   </crystal>
   <varray name="positions" >
    <v>       0.00000000      -0.00000000       0.00000000 </v>
    <v>       0.50000000       0.50000000       0.50000000 </v>
   </varray>
  </structure>
  <varray name="forces" >
   <v>       0.00000000      -0.00000000      -0.00000000 </v>
   <v>      -0.00000000       0.00000000       0.00000000 </v>
  </varray>
  <varray name="stress" >
   <v>      62.74065536       0.00000000       0.00000000 </v>
   <v>       0.00000000      62.74065536       0.00000000 </v>
   <v>       0.00000000       0.00000000      62.74065536 </v>
  </varray>
  <energy>
   <i name="e_fr_energy">    -16.47123657 </i>
   <i name="e_wo_entrp">    -16.46855607 </i>
   <i name="e_0_energy">    -16.47034307 </i>
  </energy>
  <time name="totalsc">   79.83   80.49</time>
 </calculation>
 <calculation>
  <scstep>
   <time name="dav">    5.86    5.87</time>
   <time name="total">    8.04    8.06</time>
   <energy>
    <i name="alphaZ">    121.87889770 </i>
    <i name="ewald">  -1184.80606021 </i>
    <i name="hartreedc">   -183.34224777 </i>
    <i name="XCdc">      8.10470595 </i>
    <i name="pawpsdc">   1470.47278820 </i>
    <i name="pawaedc">  -1488.79988544 </i>
    <i name="eentropy">     -0.00150251 </i>
    <i name="bandstr">     51.23192065 </i>
    <i name="atom">   1188.62534088 </i>
    <i name="e_fr_energy">    -16.63604255 </i>
    <i name="e_wo_entrp">    -16.63454004 </i>
    <i name="e_0_energy">    -16.63554172 </i>
   </energy>
  </scstep>
  <scstep>
   <time name="dav">    5.88    5.89</time>
   <time name="total">    8.06    8.08</time>
   <energy>
    <i name="e_fr_energy">    -16.50085305 </i>
    <i name="e_wo_entrp">    -16.49860545 </i>
    <i name="e_0_energy">    -16.50010385 </i>
   </energy>
  </scstep>
  <scstep>
   <time name="dav">    6.17    6.17</time>
   <time name="total">    8.34    8.36</time>
   <energy>
    <i name="e_fr_energy">    -16.48696592 </i>
    <i name="e_wo_entrp">    -16.48426324 </i>
    <i name="e_0_energy">    -16.48606503 </i>
   </energy>
  </scstep>
  <scstep>
   <time name="dav">    6.86    6.87</time>
   <time name="total">    9.04    9.07</time>
   <energy>
    <i name="e_fr_energy">    -16.48533696 </i>
    <i name="e_wo_entrp">    -16.48258259 </i>
    <i name="e_0_energy">    -16.48441884 </i>
   </energy>
  </scstep>
  <scstep>
   <time name="dav">    6.12    6.12</time>
   <time name="total">    8.29    8.31</time>
   <energy>
    <i name="e_fr_energy">    -16.48405390 </i>
    <i name="e_wo_entrp">    -16.48137735 </i>
    <i name="e_0_energy">    -16.48316171 </i>
   </energy>
  </scstep>
  <scstep>
   <time name="dav">    5.78    5.82</time>
   <time name="total">    7.96    8.01</time>
   <energy>
    <i name="e_fr_energy">    -16.48407435 </i>
    <i name="e_wo_entrp">    -16.48140571 </i>
    <i name="e_0_energy">    -16.48318480 </i>
   </energy>
  </scstep>
  <scstep>
   <time name="dav">    5.58    5.60</time>
   <time name="total">    7.76    7.80</time>
   <energy>
    <i name="e_fr_energy">    -16.48407948 </i>
    <i name="e_wo_entrp">    -16.48140810 </i>
    <i name="e_0_energy">    -16.48318902 </i>
   </energy>
  </scstep>
  <scstep>
   <time name="dav">    4.00    4.01</time>
   <time name="total">    6.18    6.20</time>
   <energy>
    <i name="e_fr_energy">    -16.48408234 </i>
    <i name="e_wo_entrp">    -16.48141099 </i>
    <i name="e_0_energy">    -16.48319189 </i>
   </energy>
  </scstep>
  <scstep>
   <time name="dav">    3.75    3.75</time>
   <time name="total">    5.46    5.48</time>
   <energy>
    <i name="alphaZ">    121.87889770 </i>
    <i name="ewald">  -1184.80606021 </i>
    <i name="hartreedc">   -189.85804871 </i>
    <i name="XCdc">      8.60238487 </i>
    <i name="pawpsdc">   1441.60365288 </i>
    <i name="pawaedc">  -1459.72084535 </i>
    <i name="eentropy">     -0.00267154 </i>
    <i name="bandstr">     57.19326706 </i>
    <i name="atom">   1188.62534088 </i>
    <i name="e_fr_energy">    -16.48408242 </i>
    <i name="e_wo_entrp">    -16.48141089 </i>
    <i name="e_0_energy">    -16.48319191 </i>
   </energy>
  </scstep>
  <structure>
   <crystal>
    <varray name="basis" >
     <v>       2.83073163      -0.00000000       0.00000000 </v>
     <v>       0.00000000       2.83073163       0.00000000 </v>
     <v>      -0.00000000      -0.00000000       2.83073163 </v>
    </varray>
    <i name="volume">     22.68277029 </i>
    <varray name="rec_basis" >
     <v>       0.35326556      -0.00000000       0.00000000 </v>
     <v>       0.00000000       0.35326556       0.00000000 </v>
     <v>      -0.00000000      -0.00000000       0.35326556 </v>
    </varray>
   </crystal>
   <varray name="positions" >
    <v>       0.00000000      -0.00000000       0.00000000 </v>
    <v>       0.50000000       0.50000000       0.50000000 </v>
   </varray>
  </structure>
  <varray name="forces" >
   <v>       0.00000000      -0.00000000       0.00000000 </v>
   <v>      -0.00000000       0.00000000      -0.00000000 </v>
  </varray>
  <varray name="stress" >
   <v>      -0.15321313       0.00000000       0.00000000 </v>
   <v>      -0.00000000      -0.15321313       0.00000000 </v>
   <v>      -0.00000000      -0.00000000      -0.15321313 </v>
  </varray>
  <energy>
   <i name="e_fr_energy">    -16.48408242 </i>
   <i name="e_wo_entrp">    -16.48141089 </i>
   <i name="e_0_energy">    -16.48319191 </i>
  </energy>
  <time name="totalsc">   77.98   80.22</time>
  <eigenvalues>
   <array>
    <dimension dim="1">band</dimension>
    <dimension dim="2">kpoint</dimension>
    <dimension dim="3">spin</dimension>
    <field>eigene</field>
    <field>occ</field>
    <set>
     <set comment="spin 1">
      <set comment="kpoint 1">
       <r>   -2.5983    1.0000 </r>
       <r>    0.9863    1.0000 </r>
       <r>    0.9863    1.0000 </r>
       <r>    3.5374    1.0000 </r>
       <r>    3.5374    1.0000 </r>
       <r>    3.5374    1.0000 </r>
       <r>    4.7500    1.0000 </r>
       <r>    4.7500    1.0000 </r>
       <r>    5.9620    0.0727 </r>
       <r>    5.9620    0.0727 </r>
       <r>    5.9620    0.0727 </r>
       <r>   15.7923    0.0000 </r>
       <r>   15.7923    0.0000 </r>
       <r>   15.7923    0.0000 </r>
       <r>   21.5083    0.0000 </r>
       <r>   21.5084    0.0000 </r>
       <r>   26.6450    0.0000 </r>
       <r>   30.8836    0.0000 </r>
       <r>   30.8836    0.0000 </r>
       <r>   30.8836    0.0000 </r>
      </set>
      <set comment="kpoint 2">
       <r>   -2.5057    1.0000 </r>
       <r>    1.0258    1.0000 </r>
       <r>    1.0275    1.0000 </r>
       <r>    3.5366    1.0000 </r>
       <r>    3.5366    1.0000 </r>
       <r>    3.5627    1.0000 </r>
       <r>    4.7087    1.0000 </r>
       <r>    4.7663    1.0000 </r>
       <r>    5.8837    0.3149 </r>
       <r>    5.8837    0.3149 </r>
       <r>    5.9344    0.1419 </r>
       <r>   15.1214    0.0000 </r>
       <r>   15.9677    0.0000 </r>
       <r>   15.9677    0.0000 </r>
       <r>   21.5350    0.0000 </r>
       <r>   22.0149    0.0000 </r>
       <r>   26.9451    0.0000 </r>
       <r>   30.2499    0.0000 </r>
       <r>   30.8026    0.0000 </r>
       <r>   30.8026    0.0000 </r>
      </set>
      <set comment="kpoint 3">
       <r>   -2.2319    1.0000 </r>
       <r>    1.1428    1.0000 </r>
       <r>    1.1435    1.0000 </r>
       <r>    3.5369    1.0000 </r>
       <r>    3.5369    1.0000 </r>
       <r>    3.6378    1.0000 </r>
       <r>    4.5864    1.0000 </r>
       <r>    4.8142    1.0000 </r>
       <r>    5.6682    1.0023 </r>
       <r>    5.6682    1.0023 </r>
       <r>    5.8530    0.4397 </r>
       <r>   13.6485    0.0000 </r>
       <r>   16.4737    0.0000 </r>
       <r>   16.4737    0.0000 </r>
       <r>   21.6166    0.0000 </r>
       <r>   22.8957    0.0000 </r>
       <r>   27.9538    0.0000 </r>
       <r>   28.9837    0.0000 </r>
       <r>   30.4427    0.0000 </r>
       <r>   30.4427    0.0000 </r>
      </set>
      <set comment="kpoint 4">
       <r>   -1.7883    1.0000 </r>
       <r>    1.3112    1.0000 </r>
       <r>    1.3332    1.0000 </r>
       <r>    3.5457    1.0000 </r>
       <r>    3.5457    1.0000 </r>
       <r>    3.7597    1.0000 </r>
       <r>    4.3879    1.0000 </r>
       <r>    4.8914    1.0000 </r>
       <r>    5.3620    1.0019 </r>
       <r>    5.3620    1.0019 </r>
       <r>    5.7217    0.9133 </r>
       <r>   11.9588    0.0000 </r>
       <r>   17.2608    0.0000 </r>
       <r>   17.2608    0.0000 </r>
       <r>   21.7576    0.0000 </r>
       <r>   23.5354    0.0000 </r>
       <r>   27.6582    0.0000 </r>
       <r>   29.6010    0.0000 </r>
       <r>   29.6010    0.0000 </r>
       <r>   29.7296    0.0000 </r>
      </set>
      <set comment="kpoint 5">
       <r>   -1.1976    1.0000 </r>
       <r>    1.4904    1.0000 </r>
       <r>    1.5899    1.0000 </r>
       <r>    3.5735    1.0000 </r>
       <r>    3.5735    1.0000 </r>
       <r>    3.9239    1.0000 </r>
       <r>    4.1211    1.0000 </r>
       <r>    4.9982    1.0000 </r>
       <r>    5.0162    1.0000 </r>
       <r>    5.0162    1.0000 </r>
       <r>    5.5467    1.0294 </r>
       <r>   10.2895   -0.0000 </r>
       <r>   18.2728    0.0000 </r>
       <r>   18.2728    0.0000 </r>
       <r>   21.9660    0.0000 </r>
       <r>   23.9560    0.0000 </r>
       <r>   26.4412    0.0000 </r>
       <r>   28.3265    0.0000 </r>
       <r>   28.3265    0.0000 </r>
       <r>   30.1316    0.0000 </r>
      </set>
      <set comment="kpoint 6">
       <r>   -0.4987    1.0000 </r>
       <r>    1.6208    1.0000 </r>
       <r>    1.9030    1.0000 </r>
       <r>    3.6323    1.0000 </r>
       <r>    3.6323    1.0000 </r>
       <r>    3.7978    1.0000 </r>
       <r>    4.1237    1.0000 </r>
       <r>    4.6726    1.0000 </r>
       <r>    4.6726    1.0000 </r>
       <r>    5.1468    1.0000 </r>
       <r>    5.3365    1.0011 </r>
       <r>    8.7543   -0.0000 </r>
       <r>   19.4605    0.0000 </r>
       <r>   19.4605    0.0000 </r>
       <r>   22.2525    0.0000 </r>
       <r>   24.3351    0.0000 </r>
       <r>   25.3773    0.0000 </r>
       <r>   26.8352    0.0000 </r>
       <r>   26.8352    0.0000 </r>
       <r>   28.6339    0.0000 </r>
      </set>
      <set comment="kpoint 7">
       <r>    0.2417    1.0000 </r>
       <r>    1.6204    1.0000 </r>
       <r>    2.2598    1.0000 </r>
       <r>    3.4325    1.0000 </r>
       <r>    3.7336    1.0000 </r>
       <r>    3.7336    1.0000 </r>
       <r>    4.3512    1.0000 </r>
       <r>    4.3599    1.0000 </r>
       <r>    4.3599    1.0000 </r>
       <r>    5.1008    1.0000 </r>
       <r>    5.3756    1.0025 </r>
       <r>    7.4417   -0.0000 </r>
       <r>   20.7849    0.0000 </r>
       <r>   20.7849    0.0000 </r>
       <r>   22.6306    0.0000 </r>
       <r>   24.4742    0.0000 </r>
       <r>   24.7984    0.0000 </r>
       <r>   25.2752    0.0000 </r>
       <r>   25.2752    0.0000 </r>
       <r>   27.3349    0.0000 </r>
      </set>
      <set comment="kpoint 8">
       <r>    0.9169    1.0000 </r>
       <r>    1.3992    1.0000 </r>
       <r>    2.6453    1.0000 </r>
       <r>    3.0423    1.0000 </r>
       <r>    3.8863    1.0000 </r>
       <r>    3.8863    1.0000 </r>
       <r>    4.0952    1.0000 </r>
       <r>    4.0952    1.0000 </r>
       <r>    4.5970    1.0000 </r>
       <r>    4.8506    1.0000 </r>
       <r>    5.7673    0.7817 </r>
       <r>    6.4346   -0.0001 </r>
       <r>   22.2143    0.0000 </r>
       <r>   22.2143    0.0000 </r>
       <r>   23.1158    0.0000 </r>
       <r>   23.7210    0.0000 </r>
       <r>   23.7210    0.0000 </r>
       <r>   23.7248    0.0000 </r>
       <r>   25.4253    0.0000 </r>
       <r>   26.2637    0.0000 </r>
      </set>
      <set comment="kpoint 9">
       <r>   -2.4139    1.0000 </r>
       <r>    1.0645    1.0000 </r>
       <r>    1.0688    1.0000 </r>
       <r>    3.4871    1.0000 </r>
       <r>    3.5334    1.0000 </r>
       <r>    3.6365    1.0000 </r>
       <r>    4.7004    1.0000 </r>
       <r>    4.7541    1.0000 </r>
       <r>    5.7442    0.8547 </r>
       <r>    5.8054    0.6387 </r>
       <r>    5.9736    0.0494 </r>
       <r>   15.1391    0.0000 </r>
       <r>   15.4354    0.0000 </r>
       <r>   16.1378    0.0000 </r>
       <r>   21.7960    0.0000 </r>
       <r>   22.3303    0.0000 </r>
       <r>   27.2202    0.0000 </r>
       <r>   29.6880    0.0000 </r>
       <r>   30.6073    0.0000 </r>
       <r>   30.7526    0.0000 </r>
      </set>
      <set comment="kpoint 10">
       <r>   -2.1423    1.0000 </r>
       <r>    1.1761    1.0000 </r>
       <r>    1.1880    1.0000 </r>
       <r>    3.4477    1.0000 </r>
       <r>    3.5264    1.0000 </r>
       <r>    3.7506    1.0000 </r>
       <r>    4.5999    1.0000 </r>
       <r>    4.7932    1.0000 </r>
       <r>    5.4908    1.0169 </r>
       <r>    5.5910    1.0354 </r>
       <r>    5.9444    0.1147 </r>
       <r>   13.7665    0.0000 </r>
       <r>   15.7962    0.0000 </r>
       <r>   16.6298    0.0000 </r>
       <r>   21.9648    0.0000 </r>
       <r>   23.2324    0.0000 </r>
       <r>   28.1609    0.0000 </r>
       <r>   28.4124    0.0000 </r>
       <r>   30.1519    0.0000 </r>
       <r>   30.4717    0.0000 </r>
      </set>
      <set comment="kpoint 11">
       <r>   -1.7029    1.0000 </r>
       <r>    1.3456    1.0000 </r>
       <r>    1.3722    1.0000 </r>
       <r>    3.4303    1.0000 </r>
       <r>    3.5221    1.0000 </r>
       <r>    3.8971    1.0000 </r>
       <r>    4.4225    1.0000 </r>
       <r>    4.8719    1.0000 </r>
       <r>    5.1722    1.0000 </r>
       <r>    5.2893    1.0004 </r>
       <r>    5.8440    0.4777 </r>
       <r>   12.0738    0.0000 </r>
       <r>   16.5176    0.0000 </r>
       <r>   17.3990    0.0000 </r>
       <r>   22.1435    0.0000 </r>
       <r>   23.9627    0.0000 </r>
       <r>   27.0184    0.0000 </r>
       <r>   29.2641    0.0000 </r>
       <r>   29.6876    0.0000 </r>
       <r>   29.8676    0.0000 </r>
      </set>
      <set comment="kpoint 12">
       <r>   -1.1192    1.0000 </r>
       <r>    1.5263    1.0000 </r>
       <r>    1.6194    1.0000 </r>
       <r>    3.4406    1.0000 </r>
       <r>    3.5221    1.0000 </r>
       <r>    4.0762    1.0000 </r>
       <r>    4.1951    1.0000 </r>
       <r>    4.8265    1.0000 </r>
       <r>    4.9547    1.0000 </r>
       <r>    4.9804    1.0000 </r>
       <r>    5.6877    0.9777 </r>
       <r>   10.3977   -0.0000 </r>
       <r>   17.4343    0.0000 </r>
       <r>   18.3932    0.0000 </r>
       <r>   22.3939    0.0000 </r>
       <r>   24.4695    0.0000 </r>
       <r>   25.6781    0.0000 </r>
       <r>   28.0550    0.0000 </r>
       <r>   28.4181    0.0000 </r>
       <r>   31.1947    0.0000 </r>
      </set>
      <set comment="kpoint 13">
       <r>   -0.4310    1.0000 </r>
       <r>    1.6541    1.0000 </r>
       <r>    1.9217    1.0000 </r>
       <r>    3.4873    1.0000 </r>
       <r>    3.4933    1.0000 </r>
       <r>    3.9749    1.0000 </r>
       <r>    4.2846    1.0000 </r>
       <r>    4.4883    1.0000 </r>
       <r>    4.6335    1.0000 </r>
       <r>    5.1308    1.0000 </r>
       <r>    5.4890    1.0165 </r>
       <r>    8.8510   -0.0000 </r>
       <r>   18.4861    0.0000 </r>
       <r>   19.5654    0.0000 </r>
       <r>   22.7382    0.0000 </r>
       <r>   24.4138    0.0000 </r>
       <r>   24.9381    0.0000 </r>
       <r>   26.7760    0.0000 </r>
       <r>   26.9181    0.0000 </r>
       <r>   29.7134    0.0000 </r>
      </set>
      <set comment="kpoint 14">
       <r>    0.2942    1.0000 </r>
       <r>    1.6482    1.0000 </r>
       <r>    2.2645    1.0000 </r>
       <r>    3.3157    1.0000 </r>
       <r>    3.5792    1.0000 </r>
       <r>    3.9028    1.0000 </r>
       <r>    4.1826    1.0000 </r>
       <r>    4.3586    1.0000 </r>
       <r>    4.5162    1.0000 </r>
       <r>    5.2607    1.0002 </r>
       <r>    5.3665    1.0021 </r>
       <r>    7.5178   -0.0000 </r>
       <r>   19.6236    0.0000 </r>
       <r>   20.8771    0.0000 </r>
       <r>   23.2001    0.0000 </r>
       <r>   23.2003    0.0000 </r>
       <r>   25.3530    0.0000 </r>
       <r>   25.5042    0.0000 </r>
       <r>   25.5972    0.0000 </r>
       <r>   28.3655    0.0000 </r>
      </set>
      <set comment="kpoint 15">
       <r>    0.9526    1.0000 </r>
       <r>    1.4251    1.0000 </r>
       <r>    2.6302    1.0000 </r>
       <r>    2.9951    1.0000 </r>
       <r>    3.7239    1.0000 </r>
       <r>    3.9253    1.0000 </r>
       <r>    3.9876    1.0000 </r>
       <r>    4.1444    1.0000 </r>
       <r>    4.7629    1.0000 </r>
       <r>    5.0148    1.0000 </r>
       <r>    5.7783    0.7429 </r>
       <r>    6.4790   -0.0000 </r>
       <r>   20.8058    0.0000 </r>
       <r>   22.0022    0.0000 </r>
       <r>   22.2975    0.0000 </r>
       <r>   23.7991    0.0000 </r>
       <r>   23.8105    0.0000 </r>
       <r>   24.6022    0.0000 </r>
       <r>   26.2462    0.0000 </r>
       <r>   27.2002    0.0000 </r>
      </set>
      <set comment="kpoint 16">
       <r>   -1.8778    1.0000 </r>
       <r>    1.2717    1.0000 </r>
       <r>    1.3161    1.0000 </r>
       <r>    3.3469    1.0000 </r>
       <r>    3.5004    1.0000 </r>
       <r>    3.9234    1.0000 </r>
       <r>    4.6006    1.0000 </r>
       <r>    4.7676    1.0000 </r>
       <r>    5.1842    1.0000 </r>
       <r>    5.3826    1.0029 </r>
       <r>    6.0063    0.0008 </r>
       <r>   13.7493    0.0000 </r>
       <r>   14.7233    0.0000 </r>
       <r>   17.0851    0.0000 </r>
       <r>   22.3068    0.0000 </r>
       <r>   24.2327    0.0000 </r>
       <r>   27.0974    0.0000 </r>
       <r>   28.8934    0.0000 </r>
       <r>   29.6340    0.0000 </r>
       <r>   30.4457    0.0000 </r>
      </set>
      <set comment="kpoint 17">
       <r>   -1.4521    1.0000 </r>
       <r>    1.4167    1.0000 </r>
       <r>    1.5107    1.0000 </r>
       <r>    3.2740    1.0000 </r>
       <r>    3.4695    1.0000 </r>
       <r>    4.1206    1.0000 </r>
       <r>    4.5022    1.0000 </r>
       <r>    4.8225    1.0000 </r>
       <r>    4.8352    1.0000 </r>
       <r>    5.0980    1.0000 </r>
       <r>    5.9866    0.0271 </r>
       <r>   12.3338    0.0000 </r>
       <r>   15.0757    0.0000 </r>
       <r>   17.8061    0.0000 </r>
       <r>   22.5273    0.0000 </r>
       <r>   25.2307    0.0000 </r>
       <r>   25.6088    0.0000 </r>
       <r>   28.8210    0.0000 </r>
       <r>   29.9245    0.0000 </r>
       <r>   30.3484    0.0000 </r>
      </set>
      <set comment="kpoint 18">
       <r>   -0.8912    1.0000 </r>
       <r>    1.5785    1.0000 </r>
       <r>    1.7523    1.0000 </r>
       <r>    3.2376    1.0000 </r>
       <r>    3.4348    1.0000 </r>
       <r>    4.3387    1.0000 </r>
       <r>    4.3512    1.0000 </r>
       <r>    4.4790    1.0000 </r>
       <r>    4.7995    1.0000 </r>
       <r>    4.9303    1.0000 </r>
       <r>    5.8933    0.2783 </r>
       <r>   10.6709   -0.0000 </r>
       <r>   15.8672    0.0000 </r>
       <r>   18.7505    0.0000 </r>
       <r>   22.7701    0.0000 </r>
       <r>   24.1406    0.0000 </r>
       <r>   25.9708    0.0000 </r>
       <r>   27.7612    0.0000 </r>
       <r>   28.6895    0.0000 </r>
       <r>   32.4554    0.0000 </r>
      </set>
      <set comment="kpoint 19">
       <r>   -0.2393    1.0000 </r>
       <r>    1.6926    1.0000 </r>
       <r>    2.0300    1.0000 </r>
       <r>    3.2460    1.0000 </r>
       <r>    3.3680    1.0000 </r>
       <r>    4.1433    1.0000 </r>
       <r>    4.2206    1.0000 </r>
       <r>    4.5426    1.0000 </r>
       <r>    4.5739    1.0000 </r>
       <r>    5.0838    1.0000 </r>
       <r>    5.7406    0.8649 </r>
       <r>    9.1027   -0.0000 </r>
       <r>   16.8076    0.0000 </r>
       <r>   19.8777    0.0000 </r>
       <r>   22.7377    0.0000 </r>
       <r>   23.0839    0.0000 </r>
       <r>   26.6198    0.0000 </r>
       <r>   26.6492    0.0000 </r>
       <r>   27.1615    0.0000 </r>
       <r>   31.6152    0.0000 </r>
      </set>
      <set comment="kpoint 20">
       <r>    0.4332    1.0000 </r>
       <r>    1.6751    1.0000 </r>
       <r>    2.3365    1.0000 </r>
       <r>    3.2135    1.0000 </r>
       <r>    3.3069    1.0000 </r>
       <r>    3.8483    1.0000 </r>
       <r>    4.1752    1.0000 </r>
       <r>    4.3640    1.0000 </r>
       <r>    4.8206    1.0000 </r>
       <r>    5.3388    1.0012 </r>
       <r>    5.5434    1.0287 </r>
       <r>    7.7207   -0.0000 </r>
       <r>   17.8464    0.0000 </r>
       <r>   21.1525    0.0000 </r>
       <r>   21.4079    0.0000 </r>
       <r>   23.5001    0.0000 </r>
       <r>   25.5817    0.0000 </r>
       <r>   25.6249    0.0000 </r>
       <r>   27.3285    0.0000 </r>
       <r>   30.3339    0.0000 </r>
      </set>
      <set comment="kpoint 21">
       <r>    1.0306    1.0000 </r>
       <r>    1.4599    1.0000 </r>
       <r>    2.6559    1.0000 </r>
       <r>    2.9616    1.0000 </r>
       <r>    3.4262    1.0000 </r>
       <r>    3.6071    1.0000 </r>
       <r>    4.2052    1.0000 </r>
       <r>    4.2636    1.0000 </r>
       <r>    5.0712    1.0000 </r>
       <r>    5.3159    1.0007 </r>
       <r>    5.8104    0.6185 </r>
       <r>    6.6021   -0.0000 </r>
       <r>   18.9629    0.0000 </r>
       <r>   20.1502    0.0000 </r>
       <r>   22.5453    0.0000 </r>
       <r>   24.0305    0.0000 </r>
       <r>   24.0480    0.0000 </r>
       <r>   24.7524    0.0000 </r>
       <r>   28.1717    0.0000 </r>
       <r>   29.1754    0.0000 </r>
      </set>
      <set comment="kpoint 22">
       <r>   -1.0529    1.0000 </r>
       <r>    1.5135    1.0000 </r>
       <r>    1.7272    1.0000 </r>
       <r>    3.1449    1.0000 </r>
       <r>    3.4199    1.0000 </r>
       <r>    4.3652    1.0000 </r>
       <r>    4.4679    1.0000 </r>
       <r>    4.5564    1.0000 </r>
       <r>    4.7926    1.0000 </r>
       <r>    4.8505    1.0000 </r>
       <r>    6.0548   -0.0316 </r>
       <r>   12.1781    0.0000 </r>
       <r>   14.0861    0.0000 </r>
       <r>   18.4604    0.0000 </r>
       <r>   22.7466    0.0000 </r>
       <r>   24.0371    0.0000 </r>
       <r>   26.6784    0.0000 </r>
       <r>   28.2014    0.0000 </r>
       <r>   30.1040    0.0000 </r>
       <r>   31.3664    0.0000 </r>
      </set>
      <set comment="kpoint 23">
       <r>   -0.5378    1.0000 </r>
       <r>    1.6093    1.0000 </r>
       <r>    1.9933    1.0000 </r>
       <r>    3.0570    1.0000 </r>
       <r>    3.3899    1.0000 </r>
       <r>    4.1077    1.0000 </r>
       <r>    4.5112    1.0000 </r>
       <r>    4.6170    1.0000 </r>
       <r>    4.6210    1.0000 </r>
       <r>    4.8623    1.0000 </r>
       <r>    6.0417   -0.0266 </r>
       <r>   10.9140   -0.0000 </r>
       <r>   14.3919    0.0000 </r>
       <r>   19.3327    0.0000 </r>
       <r>   22.4932    0.0000 </r>
       <r>   22.9613    0.0000 </r>
       <r>   27.3570    0.0000 </r>
       <r>   27.8218    0.0000 </r>
       <r>   29.1301    0.0000 </r>
       <r>   31.3959    0.0000 </r>
      </set>
      <set comment="kpoint 24">
       <r>    0.0400    1.0000 </r>
       <r>    1.6580    1.0000 </r>
       <r>    2.2821    1.0000 </r>
       <r>    3.0200    1.0000 </r>
       <r>    3.3614    1.0000 </r>
       <r>    3.7793    1.0000 </r>
       <r>    4.4494    1.0000 </r>
       <r>    4.4553    1.0000 </r>
       <r>    4.8816    1.0000 </r>
       <r>    5.0092    1.0000 </r>
       <r>    5.9552    0.0880 </r>
       <r>    9.3973   -0.0000 </r>
       <r>   15.1817    0.0000 </r>
       <r>   20.3913    0.0000 </r>
       <r>   21.0273    0.0000 </r>
       <r>   23.2342    0.0000 </r>
       <r>   26.4165    0.0000 </r>
       <r>   27.5449    0.0000 </r>
       <r>   28.7065    0.0000 </r>
       <r>   32.0575    0.0000 </r>
      </set>
      <set comment="kpoint 25">
       <r>    0.6056    1.0000 </r>
       <r>    1.6062    1.0000 </r>
       <r>    2.5736    1.0000 </r>
       <r>    3.0416    1.0000 </r>
       <r>    3.2759    1.0000 </r>
       <r>    3.4999    1.0000 </r>
       <r>    4.3923    1.0000 </r>
       <r>    4.4372    1.0000 </r>
       <r>    5.1401    1.0000 </r>
       <r>    5.2911    1.0004 </r>
       <r>    5.8082    0.6275 </r>
       <r>    7.9807   -0.0000 </r>
       <r>   16.1394    0.0000 </r>
       <r>   19.6553    0.0000 </r>
       <r>   21.6064    0.0000 </r>
       <r>   23.6021    0.0000 </r>
       <r>   25.5154    0.0000 </r>
       <r>   25.9453    0.0000 </r>
       <r>   29.5291    0.0000 </r>
       <r>   32.3303    0.0000 </r>
      </set>
      <set comment="kpoint 26">
       <r>    1.0806    1.0000 </r>
       <r>    1.4177    1.0000 </r>
       <r>    2.8528    1.0000 </r>
       <r>    3.0983    1.0000 </r>
       <r>    3.1276    1.0000 </r>
       <r>    3.2807    1.0000 </r>
       <r>    4.4046    1.0000 </r>
       <r>    4.4336    1.0000 </r>
       <r>    5.3879    1.0032 </r>
       <r>    5.6146    1.0335 </r>
       <r>    5.8584    0.4169 </r>
       <r>    6.7731   -0.0000 </r>
       <r>   17.2101    0.0000 </r>
       <r>   18.3826    0.0000 </r>
       <r>   22.9520    0.0000 </r>
       <r>   24.0945    0.0000 </r>
       <r>   24.4053    0.0000 </r>
       <r>   24.7316    0.0000 </r>
       <r>   30.4012    0.0000 </r>
       <r>   31.3510    0.0000 </r>
      </set>
      <set comment="kpoint 27">
       <r>   -0.1033    1.0000 </r>
       <r>    1.6113    1.0000 </r>
       <r>    2.2990    1.0000 </r>
       <r>    2.9195    1.0000 </r>
       <r>    3.4263    1.0000 </r>
       <r>    3.7534    1.0000 </r>
       <r>    4.4749    1.0000 </r>
       <r>    4.6134    1.0000 </r>
       <r>    4.8293    1.0000 </r>
       <r>    4.9053    1.0000 </r>
       <r>    6.1108   -0.0331 </r>
       <r>   10.6086   -0.0000 </r>
       <r>   13.6523    0.0000 </r>
       <r>   20.1216    0.0000 </r>
       <r>   20.8992    0.0000 </r>
       <r>   23.1382    0.0000 </r>
       <r>   26.7678    0.0000 </r>
       <r>   29.5086    0.0000 </r>
       <r>   29.5905    0.0000 </r>
       <r>   29.8083    0.0000 </r>
      </set>
      <set comment="kpoint 28">
       <r>    0.3471    1.0000 </r>
       <r>    1.5655    1.0000 </r>
       <r>    2.6312    1.0000 </r>
       <r>    2.8366    1.0000 </r>
       <r>    3.4392    1.0000 </r>
       <r>    3.5303    1.0000 </r>
       <r>    4.4180    1.0000 </r>
       <r>    4.6306    1.0000 </r>
       <r>    4.9201    1.0000 </r>
       <r>    5.1818    1.0000 </r>
       <r>    6.0996   -0.0346 </r>
       <r>    9.5129   -0.0000 </r>
       <r>   13.9240    0.0000 </r>
       <r>   19.4030    0.0000 </r>
       <r>   21.0953    0.0000 </r>
       <r>   23.3646    0.0000 </r>
       <r>   26.0506    0.0000 </r>
       <r>   27.9926    0.0000 </r>
       <r>   30.4796    0.0000 </r>
       <r>   30.8080    0.0000 </r>
      </set>
      <set comment="kpoint 29">
       <r>    0.7461    1.0000 </r>
       <r>    1.4601    1.0000 </r>
       <r>    2.8170    1.0000 </r>
       <r>    2.9557    1.0000 </r>
       <r>    3.1808    1.0000 </r>
       <r>    3.5794    1.0000 </r>
       <r>    4.4510    1.0000 </r>
       <r>    4.6501    1.0000 </r>
       <r>    5.2211    1.0001 </r>
       <r>    5.4415    1.0084 </r>
       <r>    6.0157   -0.0087 </r>
       <r>    8.1856   -0.0000 </r>
       <r>   14.6779    0.0000 </r>
       <r>   18.0230    0.0000 </r>
       <r>   22.2309    0.0000 </r>
       <r>   23.6767    0.0000 </r>
       <r>   25.3153    0.0000 </r>
       <r>   26.4036    0.0000 </r>
       <r>   31.3436    0.0000 </r>
       <r>   31.7993    0.0000 </r>
      </set>
      <set comment="kpoint 30">
       <r>    1.0598    1.0000 </r>
       <r>    1.2931    1.0000 </r>
       <r>    2.8666    1.0000 </r>
       <r>    2.9882    1.0000 </r>
       <r>    3.2447    1.0000 </r>
       <r>    3.4697    1.0000 </r>
       <r>    4.5378    1.0000 </r>
       <r>    4.6215    1.0000 </r>
       <r>    5.6745    0.9952 </r>
       <r>    5.8699    0.3699 </r>
       <r>    5.9092    0.2211 </r>
       <r>    6.9384   -0.0000 </r>
       <r>   15.6480    0.0000 </r>
       <r>   16.7687    0.0000 </r>
       <r>   23.5066    0.0000 </r>
       <r>   24.1009    0.0000 </r>
       <r>   24.6503    0.0000 </r>
       <r>   24.9031    0.0000 </r>
       <r>   32.3212    0.0000 </r>
       <r>   32.6055    0.0000 </r>
      </set>
      <set comment="kpoint 31">
       <r>    0.6189    1.0000 </r>
       <r>    1.4379    1.0000 </r>
       <r>    2.7099    1.0000 </r>
       <r>    3.0235    1.0000 </r>
       <r>    3.1454    1.0000 </r>
       <r>    3.8783    1.0000 </r>
       <r>    4.4481    1.0000 </r>
       <r>    4.7415    1.0000 </r>
       <r>    4.8726    1.0000 </r>
       <r>    5.4610    1.0113 </r>
       <r>    6.1646   -0.0217 </r>
       <r>    9.1084   -0.0000 </r>
       <r>   13.3993    0.0000 </r>
       <r>   17.9031    0.0000 </r>
       <r>   21.9752    0.0000 </r>
       <r>   23.5338    0.0000 </r>
       <r>   25.5702    0.0000 </r>
       <r>   27.9764    0.0000 </r>
       <r>   29.5862    0.0000 </r>
       <r>   32.6770    0.0000 </r>
      </set>
      <set comment="kpoint 32">
       <r>    0.8295    1.0000 </r>
       <r>    1.2935    1.0000 </r>
       <r>    2.6497    1.0000 </r>
       <r>    2.9126    1.0000 </r>
       <r>    3.4119    1.0000 </r>
       <r>    4.1291    1.0000 </r>
       <r>    4.5359    1.0000 </r>
       <r>    4.7946    1.0000 </r>
       <r>    5.1285    1.0000 </r>
       <r>    5.7081    0.9423 </r>
       <r>    6.1504   -0.0250 </r>
       <r>    8.1601   -0.0000 </r>
       <r>   13.6550    0.0000 </r>
       <r>   16.5501    0.0000 </r>
       <r>   23.0133    0.0000 </r>
       <r>   23.7738    0.0000 </r>
       <r>   25.0398    0.0000 </r>
       <r>   26.8304    0.0000 </r>
       <r>   30.0437    0.0000 </r>
       <r>   33.1585    0.0000 </r>
      </set>
      <set comment="kpoint 33">
       <r>    0.9960    1.0000 </r>
       <r>    1.1458    1.0000 </r>
       <r>    2.6620    1.0000 </r>
       <r>    2.7498    1.0000 </r>
       <r>    3.7559    1.0000 </r>
       <r>    4.0214    1.0000 </r>
       <r>    4.6509    1.0000 </r>
       <r>    4.7513    1.0000 </r>
       <r>    5.9125    0.2100 </r>
       <r>    5.9435    0.1169 </r>
       <r>    6.0634   -0.0337 </r>
       <r>    7.0203   -0.0000 </r>
       <r>   14.3756    0.0000 </r>
       <r>   15.3643    0.0000 </r>
       <r>   24.1056    0.0000 </r>
       <r>   24.1895    0.0000 </r>
       <r>   24.5344    0.0000 </r>
       <r>   25.4786    0.0000 </r>
       <r>   30.9296    0.0000 </r>
       <r>   31.9810    0.0000 </r>
      </set>
      <set comment="kpoint 34">
       <r>    0.8809    1.0000 </r>
       <r>    1.1412    1.0000 </r>
       <r>    2.5501    1.0000 </r>
       <r>    2.7089    1.0000 </r>
       <r>    3.8772    1.0000 </r>
       <r>    4.6361    1.0000 </r>
       <r>    4.6553    1.0000 </r>
       <r>    4.9123    1.0000 </r>
       <r>    5.1672    1.0000 </r>
       <r>    5.9277    0.1617 </r>
       <r>    6.2068   -0.0129 </r>
       <r>    7.7268   -0.0000 </r>
       <r>   13.2713    0.0000 </r>
       <r>   15.2731    0.0000 </r>
       <r>   23.9196    0.0000 </r>
       <r>   23.9343    0.0000 </r>
       <r>   24.7207    0.0000 </r>
       <r>   26.8002    0.0000 </r>
       <r>   29.4411    0.0000 </r>
       <r>   31.8710    0.0000 </r>
      </set>
      <set comment="kpoint 35">
       <r>    0.9368    1.0000 </r>
       <r>    1.0208    1.0000 </r>
       <r>    2.5253    1.0000 </r>
       <r>    2.5784    1.0000 </r>
       <r>    4.2912    1.0000 </r>
       <r>    4.5935    1.0000 </r>
       <r>    4.7383    1.0000 </r>
       <r>    4.8331    1.0000 </r>
       <r>    5.9769    0.0433 </r>
       <r>    6.0896   -0.0353 </r>
       <r>    6.1851   -0.0172 </r>
       <r>    6.9239   -0.0000 </r>
       <r>   13.5247    0.0000 </r>
       <r>   14.2391    0.0000 </r>
       <r>   24.1296    0.0000 </r>
       <r>   24.4036    0.0000 </r>
       <r>   24.9604    0.0000 </r>
       <r>   26.0100    0.0000 </r>
       <r>   29.8391    0.0000 </r>
       <r>   30.7408    0.0000 </r>
      </set>
      <set comment="kpoint 36">
       <r>    0.9134    1.0000 </r>
       <r>    0.9405    1.0000 </r>
       <r>    2.4641    1.0000 </r>
       <r>    2.4818    1.0000 </r>
       <r>    4.7384    1.0000 </r>
       <r>    4.7957    1.0000 </r>
       <r>    4.8065    1.0000 </r>
       <r>    4.9363    1.0000 </r>
       <r>    6.1784   -0.0186 </r>
       <r>    6.1973   -0.0147 </r>
       <r>    6.2300   -0.0092 </r>
       <r>    6.5988   -0.0000 </r>
       <r>   13.2206    0.0000 </r>
       <r>   13.4869    0.0000 </r>
       <r>   24.1866    0.0000 </r>
       <r>   24.2811    0.0000 </r>
       <r>   25.7169    0.0000 </r>
       <r>   26.1745    0.0000 </r>
       <r>   29.3700    0.0000 </r>
       <r>   29.7774    0.0000 </r>
      </set>
      <set comment="kpoint 37">
       <r>   -2.3228    1.0000 </r>
       <r>    1.1063    1.0000 </r>
       <r>    1.1063    1.0000 </r>
       <r>    3.4824    1.0000 </r>
       <r>    3.4824    1.0000 </r>
       <r>    3.7112    1.0000 </r>
       <r>    4.7189    1.0000 </r>
       <r>    4.7189    1.0000 </r>
       <r>    5.5590    1.0318 </r>
       <r>    5.8953    0.2707 </r>
       <r>    5.8953    0.2707 </r>
       <r>   15.3026    0.0000 </r>
       <r>   15.3026    0.0000 </r>
       <r>   15.7385    0.0000 </r>
       <r>   22.3701    0.0000 </r>
       <r>   22.3701    0.0000 </r>
       <r>   27.4752    0.0000 </r>
       <r>   29.5898    0.0000 </r>
       <r>   29.5898    0.0000 </r>
       <r>   31.1328    0.0000 </r>
      </set>
      <set comment="kpoint 38">
       <r>   -2.0532    1.0000 </r>
       <r>    1.2175    1.0000 </r>
       <r>    1.2241    1.0000 </r>
       <r>    3.4226    1.0000 </r>
       <r>    3.4698    1.0000 </r>
       <r>    3.8450    1.0000 </r>
       <r>    4.6156    1.0000 </r>
       <r>    4.7717    1.0000 </r>
       <r>    5.2694    1.0002 </r>
       <r>    5.6808    0.9873 </r>
       <r>    5.9167    0.1963 </r>
       <r>   13.8888    0.0000 </r>
       <r>   15.7708    0.0000 </r>
       <r>   16.1070    0.0000 </r>
       <r>   22.4925    0.0000 </r>
       <r>   23.4163    0.0000 </r>
       <r>   28.1769    0.0000 </r>
       <r>   28.3574    0.0000 </r>
       <r>   29.1661    0.0000 </r>
       <r>   31.0784    0.0000 </r>
      </set>
      <set comment="kpoint 39">
       <r>   -1.6178    1.0000 </r>
       <r>    1.3936    1.0000 </r>
       <r>    1.3978    1.0000 </r>
       <r>    3.3884    1.0000 </r>
       <r>    3.4526    1.0000 </r>
       <r>    4.0106    1.0000 </r>
       <r>    4.4526    1.0000 </r>
       <r>    4.8540    1.0000 </r>
       <r>    4.9334    1.0000 </r>
       <r>    5.3779    1.0027 </r>
       <r>    5.8559    0.4275 </r>
       <r>   12.1909    0.0000 </r>
       <r>   16.4885    0.0000 </r>
       <r>   16.8006    0.0000 </r>
       <r>   22.7068    0.0000 </r>
       <r>   24.2336    0.0000 </r>
       <r>   26.7383    0.0000 </r>
       <r>   28.2226    0.0000 </r>
       <r>   29.9976    0.0000 </r>
       <r>   30.5300    0.0000 </r>
      </set>
      <set comment="kpoint 40">
       <r>   -1.0405    1.0000 </r>
       <r>    1.5721    1.0000 </r>
       <r>    1.6396    1.0000 </r>
       <r>    3.3905    1.0000 </r>
       <r>    3.4286    1.0000 </r>
       <r>    4.2057    1.0000 </r>
       <r>    4.2500    1.0000 </r>
       <r>    4.5902    1.0000 </r>
       <r>    4.9643    1.0000 </r>
       <r>    5.0389    1.0000 </r>
       <r>    5.7286    0.8965 </r>
       <r>   10.5091   -0.0000 </r>
       <r>   17.3908    0.0000 </r>
       <r>   17.6987    0.0000 </r>
       <r>   23.0287    0.0000 </r>
       <r>   24.7942    0.0000 </r>
       <r>   25.3768    0.0000 </r>
       <r>   26.8858    0.0000 </r>
       <r>   29.5146    0.0000 </r>
       <r>   31.5123    0.0000 </r>
      </set>
      <set comment="kpoint 41">
       <r>   -0.3624    1.0000 </r>
       <r>    1.6961    1.0000 </r>
       <r>    1.9321    1.0000 </r>
       <r>    3.3718    1.0000 </r>
       <r>    3.4377    1.0000 </r>
       <r>    4.0564    1.0000 </r>
       <r>    4.2770    1.0000 </r>
       <r>    4.4250    1.0000 </r>
       <r>    4.7067    1.0000 </r>
       <r>    5.1174    1.0000 </r>
       <r>    5.5516    1.0304 </r>
       <r>    8.9538   -0.0000 </r>
       <r>   18.4166    0.0000 </r>
       <r>   18.7504    0.0000 </r>
       <r>   23.4810    0.0000 </r>
       <r>   24.1093    0.0000 </r>
       <r>   25.2956    0.0000 </r>
       <r>   25.4104    0.0000 </r>
       <r>   28.2753    0.0000 </r>
       <r>   30.0781    0.0000 </r>
      </set>
      <set comment="kpoint 42">
       <r>    0.3486    1.0000 </r>
       <r>    1.6834    1.0000 </r>
       <r>    2.2607    1.0000 </r>
       <r>    3.2151    1.0000 </r>
       <r>    3.5329    1.0000 </r>
       <r>    3.9637    1.0000 </r>
       <r>    4.0210    1.0000 </r>
       <r>    4.4117    1.0000 </r>
       <r>    4.6563    1.0000 </r>
       <r>    5.3413    1.0012 </r>
       <r>    5.3648    1.0020 </r>
       <r>    7.6053   -0.0000 </r>
       <r>   19.5126    0.0000 </r>
       <r>   19.9186    0.0000 </r>
       <r>   22.9181    0.0000 </r>
       <r>   23.9372    0.0000 </r>
       <r>   24.0910    0.0000 </r>
       <r>   25.8822    0.0000 </r>
       <r>   27.0203    0.0000 </r>
       <r>   28.7498    0.0000 </r>
      </set>
      <set comment="kpoint 43">
       <r>    0.9917    1.0000 </r>
       <r>    1.4566    1.0000 </r>
       <r>    2.6060    1.0000 </r>
       <r>    2.9399    1.0000 </r>
       <r>    3.6665    1.0000 </r>
       <r>    3.8253    1.0000 </r>
       <r>    4.0157    1.0000 </r>
       <r>    4.1751    1.0000 </r>
       <r>    4.8862    1.0000 </r>
       <r>    5.1149    1.0000 </r>
       <r>    5.8050    0.6403 </r>
       <r>    6.5404   -0.0000 </r>
       <r>   20.6375    0.0000 </r>
       <r>   21.1794    0.0000 </r>
       <r>   21.7703    0.0000 </r>
       <r>   22.5211    0.0000 </r>
       <r>   24.8840    0.0000 </r>
       <r>   25.8683    0.0000 </r>
       <r>   26.6357    0.0000 </r>
       <r>   27.5919    0.0000 </r>
      </set>
      <set comment="kpoint 44">
       <r>   -1.7903    1.0000 </r>
       <r>    1.3163    1.0000 </r>
       <r>    1.3479    1.0000 </r>
       <r>    3.3344    1.0000 </r>
       <r>    3.4257    1.0000 </r>
       <r>    4.0218    1.0000 </r>
       <r>    4.6219    1.0000 </r>
       <r>    4.7457    1.0000 </r>
       <r>    4.9412    1.0000 </r>
       <r>    5.5556    1.0312 </r>
       <r>    5.9277    0.1615 </r>
       <r>   13.9027    0.0000 </r>
       <r>   14.7712    0.0000 </r>
       <r>   16.4037    0.0000 </r>
       <r>   23.0353    0.0000 </r>
       <r>   24.2871    0.0000 </r>
       <r>   27.0687    0.0000 </r>
       <r>   28.4589    0.0000 </r>
       <r>   29.0534    0.0000 </r>
       <r>   31.2796    0.0000 </r>
      </set>
      <set comment="kpoint 45">
       <r>   -1.3677    1.0000 </r>
       <r>    1.4651    1.0000 </r>
       <r>    1.5360    1.0000 </r>
       <r>    3.2560    1.0000 </r>
       <r>    3.3864    1.0000 </r>
       <r>    4.2298    1.0000 </r>
       <r>    4.5248    1.0000 </r>
       <r>    4.5865    1.0000 </r>
       <r>    4.8085    1.0000 </r>
       <r>    5.2799    1.0003 </r>
       <r>    5.9202    0.1847 </r>
       <r>   12.4626    0.0000 </r>
       <r>   15.1423    0.0000 </r>
       <r>   17.0495    0.0000 </r>
       <r>   23.3315    0.0000 </r>
       <r>   25.3155    0.0000 </r>
       <r>   25.5939    0.0000 </r>
       <r>   27.6398    0.0000 </r>
       <r>   30.4496    0.0000 </r>
       <r>   30.9029    0.0000 </r>
      </set>
      <set comment="kpoint 46">
       <r>   -0.8119    1.0000 </r>
       <r>    1.6344    1.0000 </r>
       <r>    1.7638    1.0000 </r>
       <r>    3.2137    1.0000 </r>
       <r>    3.3436    1.0000 </r>
       <r>    4.2462    1.0000 </r>
       <r>    4.3777    1.0000 </r>
       <r>    4.4638    1.0000 </r>
       <r>    4.9189    1.0000 </r>
       <r>    4.9670    1.0000 </r>
       <r>    5.8453    0.4720 </r>
       <r>   10.7926   -0.0000 </r>
       <r>   15.9313    0.0000 </r>
       <r>   17.8924    0.0000 </r>
       <r>   23.6748    0.0000 </r>
       <r>   24.1341    0.0000 </r>
       <r>   26.0748    0.0000 </r>
       <r>   26.4248    0.0000 </r>
       <r>   29.9281    0.0000 </r>
       <r>   31.4613    0.0000 </r>
      </set>
      <set comment="kpoint 47">
       <r>   -0.1680    1.0000 </r>
       <r>    1.7526    1.0000 </r>
       <r>    2.0234    1.0000 </r>
       <r>    3.1917    1.0000 </r>
       <r>    3.3063    1.0000 </r>
       <r>    3.9565    1.0000 </r>
       <r>    4.2462    1.0000 </r>
       <r>    4.6742    1.0000 </r>
       <r>    4.7029    1.0000 </r>
       <r>    5.0806    1.0000 </r>
       <r>    5.7092    0.9403 </r>
       <r>    9.2215   -0.0000 </r>
       <r>   16.8641    0.0000 </r>
       <r>   18.8823    0.0000 </r>
       <r>   22.7431    0.0000 </r>
       <r>   24.1288    0.0000 </r>
       <r>   25.0557    0.0000 </r>
       <r>   26.7174    0.0000 </r>
       <r>   28.7445    0.0000 </r>
[...]
       </set>
       <set comment="band 16">
        <r>  0.0000  0.0824  0.0000  0.0824  0.0000  0.1081  0.0000  0.1081  0.0014 </r>
        <r>  0.0000  0.0824  0.0000  0.0824  0.0000  0.1081  0.0000  0.1081  0.0014 </r>
       </set>
       <set comment="band 17">
        <r>  0.2234  0.0009  0.1383  0.0009  0.0238  0.0008  0.0076  0.0008  0.0000 </r>
        <r>  0.2234  0.0009  0.1383  0.0009  0.0238  0.0008  0.0076  0.0008  0.0000 </r>
       </set>
       <set comment="band 18">
        <r>  0.1366  0.0310  0.1006  0.0310  0.0239  0.0304  0.0039  0.0304  0.0000 </r>
        <r>  0.1366  0.0310  0.1006  0.0310  0.0239  0.0304  0.0039  0.0304  0.0000 </r>
       </set>
       <set comment="band 19">
        <r>  0.0005  0.0000  0.0046  0.0000  0.0030  0.0712  0.0243  0.0712  0.0000 </r>
        <r>  0.0005  0.0000  0.0046  0.0000  0.0030  0.0712  0.0243  0.0712  0.0000 </r>
       </set>
       <set comment="band 20">
        <r>  0.0000  0.0000  0.0000  0.0000  0.0000  0.0776  0.0000  0.0776  0.0009 </r>
        <r>  0.0000  0.0000  0.0000  0.0000  0.0000  0.0776  0.0000  0.0776  0.0009 </r>
       </set>
      </set>
      <set comment="kpoint 117">
       <set comment="band 1">
        <r>  0.0196  0.0074  0.0074  0.0074  0.1392  0.1392  0.0000  0.1392  0.0000 </r>
        <r>  0.0196  0.0074  0.0074  0.0074  0.1392  0.1392  0.0000  0.1392  0.0000 </r>
       </set>
       <set comment="band 2">
        <r>  0.0479  0.0417  0.0417  0.0417  0.0815  0.0814  0.0000  0.0814  0.0000 </r>
        <r>  0.0479  0.0417  0.0417  0.0417  0.0815  0.0814  0.0000  0.0814  0.0000 </r>
       </set>
       <set comment="band 3">
        <r>  0.0000  0.0070  0.0303  0.0082  0.2634  0.0712  0.0160  0.0608  0.0000 </r>
        <r>  0.0000  0.0070  0.0303  0.0082  0.2634  0.0712  0.0160  0.0608  0.0000 </r>
       </set>
       <set comment="band 4">
        <r>  0.0000  0.0234  0.0000  0.0222  0.0001  0.1925  0.0000  0.2028  0.0160 </r>
        <r>  0.0000  0.0234  0.0000  0.0222  0.0001  0.1925  0.0000  0.2028  0.0160 </r>
       </set>
       <set comment="band 5">
        <r>  0.0000  0.0159  0.0656  0.0169  0.1999  0.0514  0.0392  0.0486  0.0000 </r>
        <r>  0.0000  0.0159  0.0656  0.0169  0.1999  0.0514  0.0392  0.0486  0.0000 </r>
       </set>
       <set comment="band 6">
        <r>  0.0000  0.0497  0.0000  0.0487  0.0000  0.1485  0.0000  0.1514  0.0392 </r>
        <r>  0.0000  0.0497  0.0000  0.0487  0.0000  0.1485  0.0000  0.1514  0.0392 </r>
       </set>
       <set comment="band 7">
        <r>  0.0000  0.0001  0.0003  0.0001  0.0369  0.0069  0.4336  0.0119  0.0027 </r>
        <r>  0.0000  0.0001  0.0003  0.0001  0.0369  0.0069  0.4336  0.0119  0.0027 </r>
       </set>
       <set comment="band 8">
        <r>  0.0000  0.0002  0.0000  0.0003  0.0002  0.0302  0.0027  0.0252  0.4336 </r>
        <r>  0.0000  0.0002  0.0000  0.0003  0.0002  0.0302  0.0027  0.0252  0.4336 </r>
       </set>
       <set comment="band 9">
        <r>  0.0000  0.0000  0.0000  0.0000  0.0141  0.0026  0.4682  0.0046  0.0033 </r>
        <r>  0.0000  0.0000  0.0000  0.0000  0.0141  0.0026  0.4682  0.0046  0.0033 </r>
       </set>
       <set comment="band 10">
        <r>  0.0000  0.0000  0.0000  0.0000  0.0001  0.0116  0.0033  0.0096  0.4682 </r>
        <r>  0.0000  0.0000  0.0000  0.0000  0.0001  0.0116  0.0033  0.0096  0.4682 </r>
       </set>
       <set comment="band 11">
        <r>  0.0387  0.0360  0.0361  0.0360  0.0996  0.0996  0.0000  0.0996  0.0000 </r>
        <r>  0.0387  0.0360  0.0361  0.0360  0.0996  0.0996  0.0000  0.0996  0.0000 </r>
       </set>
       <set comment="band 12">
        <r>  0.0000  0.0295  0.1226  0.0318  0.1407  0.0365  0.0256  0.0339  0.0000 </r>
        <r>  0.0000  0.0295  0.1226  0.0318  0.1407  0.0365  0.0256  0.0339  0.0000 </r>
       </set>
       <set comment="band 13">
        <r>  0.0000  0.0931  0.0000  0.0908  0.0000  0.1043  0.0000  0.1068  0.0256 </r>
        <r>  0.0000  0.0931  0.0000  0.0908  0.0000  0.1043  0.0000  0.1068  0.0256 </r>
       </set>
       <set comment="band 14">
        <r>  0.2771  0.0033  0.0033  0.0033  0.0430  0.0430  0.0000  0.0430  0.0000 </r>
        <r>  0.2771  0.0033  0.0033  0.0033  0.0430  0.0430  0.0000  0.0430  0.0000 </r>
       </set>
       <set comment="band 15">
        <r>  0.0000  0.0254  0.1146  0.0321  0.1410  0.0395  0.0140  0.0313  0.0000 </r>
        <r>  0.0000  0.0254  0.1146  0.0321  0.1410  0.0395  0.0140  0.0313  0.0000 </r>
       </set>
       <set comment="band 16">
        <r>  0.0000  0.0893  0.0001  0.0827  0.0002  0.1017  0.0000  0.1099  0.0140 </r>
        <r>  0.0000  0.0893  0.0001  0.0827  0.0002  0.1017  0.0000  0.1099  0.0140 </r>
       </set>
       <set comment="band 17">
        <r>  0.3108  0.0300  0.0300  0.0300  0.0000  0.0000  0.0000  0.0000  0.0000 </r>
        <r>  0.3108  0.0300  0.0300  0.0300  0.0000  0.0000  0.0000  0.0000  0.0000 </r>
       </set>
       <set comment="band 18">
        <r>  0.0943  0.0585  0.0585  0.0585  0.0381  0.0381  0.0000  0.0381  0.0000 </r>
        <r>  0.0943  0.0585  0.0585  0.0585  0.0381  0.0381  0.0000  0.0381  0.0000 </r>
       </set>
       <set comment="band 19">
        <r>  0.0000  0.0105  0.0002  0.0080  0.0005  0.0225  0.0013  0.0294  0.0945 </r>
        <r>  0.0000  0.0105  0.0002  0.0080  0.0005  0.0225  0.0013  0.0294  0.0945 </r>
       </set>
       <set comment="band 20">
        <r>  0.0000  0.0020  0.0123  0.0044  0.0345  0.0124  0.0945  0.0055  0.0013 </r>
        <r>  0.0000  0.0020  0.0123  0.0044  0.0345  0.0124  0.0945  0.0055  0.0013 </r>
       </set>
      </set>
      <set comment="kpoint 118">
       <set comment="band 1">
        <r>  0.0167  0.0174  0.0175  0.0018  0.1572  0.0840  0.0009  0.1571  0.0027 </r>
        <r>  0.0167  0.0174  0.0175  0.0018  0.1572  0.0840  0.0009  0.1571  0.0027 </r>
       </set>
       <set comment="band 2">
        <r>  0.0189  0.0300  0.0301  0.0000  0.1587  0.0430  0.0019  0.1585  0.0056 </r>
        <r>  0.0189  0.0300  0.0301  0.0000  0.1587  0.0430  0.0019  0.1585  0.0056 </r>
       </set>
       <set comment="band 3">
        <r>  0.0000  0.0307  0.0307  0.0000  0.1839  0.0000  0.0162  0.1840  0.0054 </r>
        <r>  0.0000  0.0307  0.0307  0.0000  0.1839  0.0000  0.0162  0.1840  0.0054 </r>
       </set>
       <set comment="band 4">
        <r>  0.0000  0.0395  0.0395  0.0000  0.1682  0.0000  0.0217  0.1682  0.0072 </r>
        <r>  0.0000  0.0395  0.0395  0.0000  0.1682  0.0000  0.0217  0.1682  0.0072 </r>
       </set>
       <set comment="band 5">
        <r>  0.0099  0.0097  0.0097  0.0803  0.0045  0.3189  0.0000  0.0045  0.0000 </r>
        <r>  0.0099  0.0097  0.0097  0.0803  0.0045  0.3189  0.0000  0.0045  0.0000 </r>
       </set>
       <set comment="band 6">
        <r>  0.0021  0.0138  0.0138  0.0788  0.0199  0.2763  0.0030  0.0199  0.0091 </r>
        <r>  0.0021  0.0138  0.0138  0.0788  0.0199  0.2763  0.0030  0.0199  0.0091 </r>
       </set>
       <set comment="band 7">
        <r>  0.0000  0.0001  0.0001  0.0000  0.0202  0.0000  0.3395  0.0201  0.1126 </r>
        <r>  0.0000  0.0001  0.0001  0.0000  0.0202  0.0000  0.3395  0.0201  0.1126 </r>
       </set>
       <set comment="band 8">
        <r>  0.0000  0.0000  0.0000  0.0000  0.0147  0.0000  0.3479  0.0146  0.1153 </r>
        <r>  0.0000  0.0000  0.0000  0.0000  0.0147  0.0000  0.3479  0.0146  0.1153 </r>
       </set>
       <set comment="band 9">
        <r>  0.0001  0.0000  0.0000  0.0001  0.0073  0.0087  0.1170  0.0073  0.3528 </r>
        <r>  0.0001  0.0000  0.0000  0.0001  0.0073  0.0087  0.1170  0.0073  0.3528 </r>
       </set>
       <set comment="band 10">
        <r>  0.0001  0.0000  0.0000  0.0000  0.0052  0.0003  0.1202  0.0052  0.3625 </r>
        <r>  0.0001  0.0000  0.0000  0.0000  0.0052  0.0003  0.1202  0.0052  0.3625 </r>
       </set>
       <set comment="band 11">
        <r>  0.0346  0.0348  0.0348  0.0607  0.0805  0.1078  0.0006  0.0805  0.0017 </r>
        <r>  0.0346  0.0348  0.0348  0.0607  0.0805  0.1078  0.0006  0.0805  0.0017 </r>
       </set>
       <set comment="band 12">
        <r>  0.0182  0.0337  0.0337  0.0929  0.0605  0.1163  0.0026  0.0605  0.0079 </r>
        <r>  0.0182  0.0337  0.0337  0.0929  0.0605  0.1163  0.0026  0.0605  0.0079 </r>
       </set>
       <set comment="band 13">
        <r>  0.0000  0.0916  0.0916  0.0000  0.1055  0.0000  0.0152  0.1055  0.0051 </r>
        <r>  0.0000  0.0916  0.0916  0.0000  0.1055  0.0000  0.0152  0.1055  0.0051 </r>
       </set>
       <set comment="band 14">
        <r>  0.0000  0.0896  0.0896  0.0000  0.1058  0.0000  0.0124  0.1058  0.0041 </r>
        <r>  0.0000  0.0896  0.0896  0.0000  0.1058  0.0000  0.0124  0.1058  0.0041 </r>
       </set>
       <set comment="band 15">
        <r>  0.2323  0.0008  0.0008  0.0438  0.0307  0.0712  0.0000  0.0307  0.0000 </r>
        <r>  0.2323  0.0008  0.0008  0.0438  0.0307  0.0712  0.0000  0.0307  0.0000 </r>
       </set>
       <set comment="band 16">
        <r>  0.1374  0.0025  0.0025  0.1018  0.0306  0.0945  0.0005  0.0306  0.0016 </r>
        <r>  0.1374  0.0025  0.0025  0.1018  0.0306  0.0945  0.0005  0.0306  0.0016 </r>
       </set>
       <set comment="band 17">
        <r>  0.1979  0.0586  0.0586  0.0105  0.0160  0.0345  0.0006  0.0160  0.0017 </r>
        <r>  0.1979  0.0586  0.0586  0.0105  0.0160  0.0345  0.0006  0.0160  0.0017 </r>
       </set>
       <set comment="band 18">
        <r>  0.1273  0.0606  0.0606  0.0376  0.0299  0.0419  0.0002  0.0299  0.0005 </r>
        <r>  0.1273  0.0606  0.0606  0.0376  0.0299  0.0419  0.0002  0.0299  0.0005 </r>
       </set>
       <set comment="band 19">
        <r>  0.0000  0.0059  0.0059  0.0000  0.0308  0.0000  0.0462  0.0308  0.0154 </r>
        <r>  0.0000  0.0059  0.0059  0.0000  0.0308  0.0000  0.0462  0.0308  0.0154 </r>
       </set>
       <set comment="band 20">
        <r>  0.0000  0.0021  0.0021  0.0000  0.0244  0.0000  0.0172  0.0244  0.0057 </r>
        <r>  0.0000  0.0021  0.0021  0.0000  0.0244  0.0000  0.0172  0.0244  0.0057 </r>
       </set>
      </set>
      <set comment="kpoint 119">
       <set comment="band 1">
        <r>  0.0112  0.0057  0.0385  0.0057  0.2379  0.0731  0.0070  0.0731  0.0000 </r>
        <r>  0.0112  0.0057  0.0385  0.0057  0.2379  0.0731  0.0070  0.0731  0.0000 </r>
       </set>
       <set comment="band 2">
        <r>  0.0118  0.0005  0.0681  0.0005  0.3487  0.0000  0.0153  0.0000  0.0000 </r>
        <r>  0.0118  0.0005  0.0681  0.0005  0.3487  0.0000  0.0153  0.0000  0.0000 </r>
       </set>
       <set comment="band 3">
        <r>  0.0000  0.0244  0.0000  0.0244  0.0000  0.2031  0.0000  0.2031  0.0019 </r>
        <r>  0.0000  0.0244  0.0000  0.0244  0.0000  0.2031  0.0000  0.2031  0.0019 </r>
       </set>
       <set comment="band 4">
        <r>  0.0008  0.0189  0.0301  0.0189  0.1113  0.1290  0.0114  0.1290  0.0000 </r>
        <r>  0.0008  0.0189  0.0301  0.0189  0.1113  0.1290  0.0114  0.1290  0.0000 </r>
       </set>
       <set comment="band 5">
        <r>  0.0036  0.0533  0.0003  0.0533  0.0011  0.1622  0.0008  0.1622  0.0000 </r>
        <r>  0.0036  0.0533  0.0003  0.0533  0.0011  0.1622  0.0008  0.1622  0.0000 </r>
       </set>
       <set comment="band 6">
        <r>  0.0000  0.0537  0.0000  0.0537  0.0000  0.1627  0.0000  0.1627  0.0047 </r>
        <r>  0.0000  0.0537  0.0000  0.0537  0.0000  0.1627  0.0000  0.1627  0.0047 </r>
       </set>
       <set comment="band 7">
        <r>  0.0001  0.0000  0.0001  0.0000  0.0239  0.0010  0.4671  0.0010  0.0000 </r>
        <r>  0.0001  0.0000  0.0001  0.0000  0.0239  0.0010  0.4671  0.0010  0.0000 </r>
       </set>
       <set comment="band 8">
        <r>  0.0001  0.0000  0.0001  0.0000  0.0214  0.0004  0.4709  0.0004  0.0000 </r>
        <r>  0.0001  0.0000  0.0001  0.0000  0.0214  0.0004  0.4709  0.0004  0.0000 </r>
       </set>
       <set comment="band 9">
        <r>  0.0000  0.0000  0.0000  0.0000  0.0000  0.0034  0.0000  0.0034  0.4868 </r>
        <r>  0.0000  0.0000  0.0000  0.0000  0.0000  0.0034  0.0000  0.0034  0.4868 </r>
       </set>
       <set comment="band 10">
        <r>  0.0000  0.0000  0.0000  0.0000  0.0000  0.0013  0.0000  0.0013  0.4913 </r>
        <r>  0.0000  0.0000  0.0000  0.0000  0.0000  0.0013  0.0000  0.0013  0.4913 </r>
       </set>
       <set comment="band 11">
        <r>  0.0236  0.0660  0.0209  0.0660  0.0454  0.1020  0.0006  0.1020  0.0000 </r>
        <r>  0.0236  0.0660  0.0209  0.0660  0.0454  0.1020  0.0006  0.1020  0.0000 </r>
       </set>
       <set comment="band 12">
        <r>  0.0000  0.0901  0.0000  0.0901  0.0000  0.1179  0.0000  0.1179  0.0032 </r>
        <r>  0.0000  0.0901  0.0000  0.0901  0.0000  0.1179  0.0000  0.1179  0.0032 </r>
       </set>
       <set comment="band 13">
        <r>  0.0655  0.0068  0.1182  0.0068  0.2017  0.0047  0.0120  0.0047  0.0000 </r>
        <r>  0.0655  0.0068  0.1182  0.0068  0.2017  0.0047  0.0120  0.0047  0.0000 </r>
       </set>
       <set comment="band 14">
        <r>  0.0622  0.0226  0.0930  0.0226  0.1659  0.0193  0.0099  0.0193  0.0000 </r>
        <r>  0.0622  0.0226  0.0930  0.0226  0.1659  0.0193  0.0099  0.0193  0.0000 </r>
       </set>
       <set comment="band 15">
        <r>  0.1369  0.0495  0.0056  0.0495  0.0010  0.0805  0.0007  0.0805  0.0000 </r>
        <r>  0.1369  0.0495  0.0056  0.0495  0.0010  0.0805  0.0007  0.0805  0.0000 </r>
       </set>
       <set comment="band 16">
        <r>  0.0000  0.0868  0.0000  0.0868  0.0000  0.1109  0.0000  0.1109  0.0016 </r>
        <r>  0.0000  0.0868  0.0000  0.0868  0.0000  0.1109  0.0000  0.1109  0.0016 </r>
       </set>
       <set comment="band 17">
        <r>  0.3003  0.0018  0.0757  0.0018  0.0180  0.0003  0.0018  0.0003  0.0000 </r>
        <r>  0.3003  0.0018  0.0757  0.0018  0.0180  0.0003  0.0018  0.0003  0.0000 </r>
       </set>
       <set comment="band 18">
        <r>  0.1864  0.0312  0.0662  0.0312  0.0245  0.0269  0.0009  0.0269  0.0000 </r>
        <r>  0.1864  0.0312  0.0662  0.0312  0.0245  0.0269  0.0009  0.0269  0.0000 </r>
       </set>
       <set comment="band 19">
        <r>  0.0001  0.0005  0.0043  0.0005  0.0087  0.0379  0.0243  0.0379  0.0000 </r>
        <r>  0.0001  0.0005  0.0043  0.0005  0.0087  0.0379  0.0243  0.0379  0.0000 </r>
       </set>
       <set comment="band 20">
        <r>  0.0000  0.0003  0.0000  0.0003  0.0000  0.0403  0.0000  0.0403  0.0012 </r>
        <r>  0.0000  0.0003  0.0000  0.0003  0.0000  0.0403  0.0000  0.0403  0.0012 </r>
       </set>
      </set>
      <set comment="kpoint 120">
       <set comment="band 1">
        <r>  0.0033  0.0188  0.0188  0.0188  0.1312  0.1311  0.0000  0.1311  0.0000 </r>
        <r>  0.0033  0.0188  0.0188  0.0188  0.1312  0.1311  0.0000  0.1311  0.0000 </r>
       </set>
       <set comment="band 2">
        <r>  0.0000  0.0099  0.0440  0.0121  0.2549  0.0700  0.0025  0.0576  0.0000 </r>
        <r>  0.0000  0.0099  0.0440  0.0121  0.2549  0.0700  0.0025  0.0576  0.0000 </r>
       </set>
       <set comment="band 3">
        <r>  0.0000  0.0340  0.0000  0.0319  0.0002  0.1849  0.0000  0.1973  0.0025 </r>
        <r>  0.0000  0.0340  0.0000  0.0319  0.0002  0.1849  0.0000  0.1973  0.0025 </r>
       </set>
       <set comment="band 4">
        <r>  0.0000  0.0129  0.0569  0.0156  0.2368  0.0650  0.0034  0.0538  0.0000 </r>
        <r>  0.0000  0.0129  0.0569  0.0156  0.2368  0.0650  0.0034  0.0538  0.0000 </r>
       </set>
       <set comment="band 5">
        <r>  0.0000  0.0441  0.0000  0.0414  0.0002  0.1721  0.0000  0.1832  0.0034 </r>
        <r>  0.0000  0.0441  0.0000  0.0414  0.0002  0.1721  0.0000  0.1832  0.0034 </r>
       </set>
       <set comment="band 6">
        <r>  0.0045  0.0318  0.0318  0.0318  0.1132  0.1134  0.0000  0.1135  0.0000 </r>
        <r>  0.0045  0.0318  0.0318  0.0318  0.1132  0.1134  0.0000  0.1135  0.0000 </r>
       </set>
       <set comment="band 7">
        <r>  0.0000  0.0000  0.0000  0.0000  0.0032  0.0006  0.4854  0.0011  0.0036 </r>
        <r>  0.0000  0.0000  0.0000  0.0000  0.0032  0.0006  0.4854  0.0011  0.0036 </r>
       </set>
       <set comment="band 8">
        <r>  0.0000  0.0000  0.0000  0.0000  0.0000  0.0026  0.0036  0.0022  0.4854 </r>
        <r>  0.0000  0.0000  0.0000  0.0000  0.0000  0.0026  0.0036  0.0022  0.4854 </r>
       </set>
       <set comment="band 9">
        <r>  0.0000  0.0000  0.0000  0.0000  0.0023  0.0004  0.4868  0.0008  0.0036 </r>
        <r>  0.0000  0.0000  0.0000  0.0000  0.0023  0.0004  0.4868  0.0008  0.0036 </r>
       </set>
       <set comment="band 10">
        <r>  0.0000  0.0000  0.0000  0.0000  0.0000  0.0019  0.0036  0.0016  0.4868 </r>
        <r>  0.0000  0.0000  0.0000  0.0000  0.0000  0.0019  0.0036  0.0016  0.4868 </r>
       </set>
       <set comment="band 11">
        <r>  0.0207  0.0542  0.0542  0.0542  0.0788  0.0788  0.0000  0.0788  0.0000 </r>
        <r>  0.0207  0.0542  0.0542  0.0542  0.0788  0.0788  0.0000  0.0788  0.0000 </r>
       </set>
       <set comment="band 12">
        <r>  0.0000  0.0256  0.1210  0.0353  0.1523  0.0444  0.0024  0.0323  0.0000 </r>
        <r>  0.0000  0.0256  0.1210  0.0353  0.1523  0.0444  0.0024  0.0323  0.0000 </r>
       </set>
       <set comment="band 13">
        <r>  0.0000  0.0956  0.0003  0.0860  0.0003  0.1083  0.0000  0.1204  0.0024 </r>
        <r>  0.0000  0.0956  0.0003  0.0860  0.0003  0.1083  0.0000  0.1204  0.0024 </r>
       </set>
       <set comment="band 14">
        <r>  0.0000  0.0246  0.1194  0.0355  0.1496  0.0445  0.0019  0.0309  0.0000 </r>
        <r>  0.0000  0.0246  0.1194  0.0355  0.1496  0.0445  0.0019  0.0309  0.0000 </r>
       </set>
       <set comment="band 15">
        <r>  0.0000  0.0951  0.0003  0.0842  0.0004  0.1055  0.0000  0.1191  0.0019 </r>
        <r>  0.0000  0.0951  0.0003  0.0842  0.0004  0.1055  0.0000  0.1191  0.0019 </r>
       </set>
       <set comment="band 16">
        <r>  0.1143  0.0367  0.0367  0.0367  0.0617  0.0617  0.0000  0.0617  0.0000 </r>
        <r>  0.1143  0.0367  0.0367  0.0367  0.0617  0.0617  0.0000  0.0617  0.0000 </r>
       </set>
       <set comment="band 17">
        <r>  0.3797  0.0073  0.0073  0.0073  0.0009  0.0009  0.0000  0.0009  0.0000 </r>
        <r>  0.3797  0.0073  0.0073  0.0073  0.0009  0.0009  0.0000  0.0009  0.0000 </r>
       </set>
       <set comment="band 18">
        <r>  0.2870  0.0233  0.0233  0.0233  0.0145  0.0145  0.0000  0.0145  0.0000 </r>
        <r>  0.2870  0.0233  0.0233  0.0233  0.0145  0.0145  0.0000  0.0145  0.0000 </r>
       </set>
       <set comment="band 19">
        <r>  0.0000  0.0033  0.0032  0.0006  0.0209  0.0040  0.0119  0.0215  0.0057 </r>
        <r>  0.0000  0.0033  0.0032  0.0006  0.0209  0.0040  0.0119  0.0215  0.0057 </r>
       </set>
       <set comment="band 20">
        <r>  0.0000  0.0009  0.0010  0.0026  0.0065  0.0176  0.0037  0.0062  0.0076 </r>
        <r>  0.0000  0.0009  0.0010  0.0026  0.0066  0.0176  0.0036  0.0062  0.0076 </r>
       </set>
      </set>
     </set>
    </set>
   </array>
  </projected>
 </calculation>
 <structure name="finalpos" >
  <crystal>
   <varray name="basis" >
    <v>       2.83073163      -0.00000000       0.00000000 </v>
    <v>       0.00000000       2.83073163       0.00000000 </v>
    <v>      -0.00000000      -0.00000000       2.83073163 </v>
   </varray>
   <i name="volume">     22.68277029 </i>
   <varray name="rec_basis" >
    <v>       0.35326556      -0.00000000       0.00000000 </v>
    <v>       0.00000000       0.35326556       0.00000000 </v>
    <v>      -0.00000000      -0.00000000       0.35326556 </v>
   </varray>
  </crystal>
  <varray name="positions" >
   <v>       0.00000000      -0.00000000       0.00000000 </v>
   <v>       0.50000000       0.50000000       0.50000000 </v>
  </varray>
 </structure>
</modeling>
