unknown system                          
           1
     2.863035    0.000000    0.000000
     0.000000    2.863035    0.000000
     0.000000    0.000000    2.863035
   Fe
     2
Direct configuration=     1
   0.00000000  0.00000000  0.00000000
   0.50000000  0.50000000  0.50000000
unknown system                          
           1
     2.802208   -0.000000    0.000000
     0.000000    2.802208    0.000000
    -0.000000   -0.000000    2.802208
   Fe
     2
Direct configuration=     2
   0.00000000 -0.00000000  0.00000000
   0.50000000  0.50000000  0.50000000
unknown system                          
           1
     2.830732   -0.000000    0.000000
     0.000000    2.830732    0.000000
    -0.000000   -0.000000    2.830732
   Fe
     2
Direct configuration=     3
   0.00000000 -0.00000000  0.00000000
   0.50000000  0.50000000  0.50000000
