    2    2    1    1
  0.1136426E+02  0.2832634E-09  0.2832634E-09  0.2832634E-09  0.5000000E-15
  1.000000000000000E-004
  CAR 
 unknown system                          
     16    512     32
 
  0.6250000E-01  0.6250000E-01  0.6250000E-01  0.1953125E-02
    1       -2.390616   1.000000
    2       -2.176250   1.000000
    3        1.090925   1.000000
    4        1.091604   1.000000
    5        2.921291   1.000000
    6        2.921929   1.000000
    7        3.445068   1.000000
    8        3.473398   1.000000
    9        3.663989   1.000000
   10        4.723049   1.000000
   11        4.734418   1.000000
   12        5.378262   1.003414
   13        5.403501   1.005438
   14        5.567638   1.034800
   15        5.618576   1.028681
   16        5.850762   0.397308
   17        5.886596   0.257237
   18        7.445011  -0.000000
   19        7.449387  -0.000000
   20        7.697053  -0.000000
   21        8.054000  -0.000000
   22        8.089570  -0.000000
   23       15.232538   0.000000
   24       15.327998   0.000000
   25       15.637558   0.000000
   26       15.789734   0.000000
   27       15.826800   0.000000
   28       16.126618   0.000000
   29       22.218581   0.000000
   30       22.228134   0.000000
   31       23.130471   0.000000
   32       23.138066   0.000000
 
  0.1875000E+00  0.6250000E-01  0.6250000E-01  0.1953125E-02
    1       -1.767583   1.000000
    2       -1.545908   1.000000
    3        1.347030   1.000000
    4        1.350793   1.000000
    5        3.105023   1.000000
    6        3.226626   1.000000
    7        3.373923   1.000000
    8        3.438275   1.000000
    9        3.925535   1.000000
   10        4.485161   1.000000
   11        4.849015   1.000000
   12        5.003763   1.000000
   13        5.278659   1.000374
   14        5.351047   1.001977
   15        5.402861   1.005377
   16        5.834555   0.465066
   17        5.902508   0.201997
   18        7.009068  -0.000000
   19        7.123657  -0.000000
   20        7.486211  -0.000000
   21        7.591860  -0.000000
   22        8.037491  -0.000000
   23       12.440901   0.000000
   24       13.253890   0.000000
   25       16.357668   0.000000
   26       16.626805   0.000000
   27       16.981946   0.000000
   28       17.185579   0.000000
   29       22.507031   0.000000
   30       23.356311   0.000000
   31       23.974434   0.000000
   32       24.678503   0.000000
 
  0.3125000E+00  0.6250000E-01  0.6250000E-01  0.1953125E-02
    1       -0.635218   1.000000
    2       -0.371863   1.000000
    3        1.650898   1.000000
    4        1.831810   1.000000
    5        3.145085   1.000000
    6        3.392341   1.000000
    7        3.405030   1.000000
    8        3.794433   1.000000
    9        4.091606   1.000000
   10        4.293539   1.000000
   11        4.377211   1.000000
   12        4.773020   1.000000
   13        5.068981   1.000001
   14        5.275253   1.000344
   15        5.313156   1.000859
   16        5.563692   1.034396
   17        6.297120  -0.002167
   18        6.304515  -0.001857
   19        6.556070  -0.000002
   20        6.752907  -0.000000
   21        7.731032  -0.000000
   22        7.820250  -0.000000
   23        9.364946  -0.000000
   24       10.634034  -0.000000
   25       18.118654   0.000000
   26       18.404941   0.000000
   27       18.865634   0.000000
   28       19.060245   0.000000
   29       23.152273   0.000000
   30       23.885017   0.000000
   31       24.528352   0.000000
   32       24.970353   0.000000
 
  0.4375000E+00  0.6250000E-01  0.6250000E-01  0.1953125E-02
    1        0.683199   1.000000
    2        1.128292   1.000000
    3        1.559069   1.000000
    4        2.456792   1.000000
    5        2.496504   1.000000
    6        3.081376   1.000000
    7        3.592612   1.000000
    8        3.901490   1.000000
    9        3.939285   1.000000
   10        4.233503   1.000000
   11        4.525995   1.000000
   12        4.721064   1.000000
   13        5.155997   1.000011
   14        5.165422   1.000015
   15        5.434139   1.009057
   16        5.587871   1.035286
   17        5.784095   0.674217
   18        6.056268  -0.034504
   19        6.189127  -0.013892
   20        6.792585  -0.000000
   21        6.935710  -0.000000
   22        7.290253  -0.000000
   23        8.137969  -0.000000
   24        8.889509  -0.000000
   25       20.192392   0.000000
   26       20.634000   0.000000
   27       20.982125   0.000000
   28       21.324684   0.000000
   29       22.319280   0.000000
   30       22.987009   0.000000
   31       23.182364   0.000000
   32       23.813201   0.000000
 
 -0.4375000E+00  0.6250000E-01  0.6250000E-01  0.1953125E-02
    1        0.683199   1.000000
    2        1.128291   1.000000
    3        1.559069   1.000000
    4        2.456710   1.000000
    5        2.496589   1.000000
    6        3.081376   1.000000
    7        3.592613   1.000000
    8        3.901490   1.000000
    9        3.939274   1.000000
   10        4.233527   1.000000
   11        4.525972   1.000000
   12        4.721059   1.000000
   13        5.156025   1.000011
   14        5.165411   1.000015
   15        5.434123   1.009054
   16        5.587867   1.035286
   17        5.784100   0.674197
   18        6.056269  -0.034504
   19        6.189147  -0.013889
   20        6.792587  -0.000000
   21        6.935698  -0.000000
   22        7.290254  -0.000000
   23        8.137968  -0.000000
   24        8.889508  -0.000000
   25       20.192377   0.000000
   26       20.634032   0.000000
   27       20.982099   0.000000
   28       21.324678   0.000000
   29       22.319295   0.000000
   30       22.986899   0.000000
   31       23.182478   0.000000
   32       23.813198   0.000000
 
 -0.3125000E+00  0.6250000E-01  0.6250000E-01  0.1953125E-02
    1       -0.635217   1.000000
    2       -0.371865   1.000000
    3        1.650898   1.000000
    4        1.831809   1.000000
    5        3.145088   1.000000
    6        3.392345   1.000000
    7        3.405031   1.000000
    8        3.794437   1.000000
    9        4.091594   1.000000
   10        4.293538   1.000000
   11        4.377206   1.000000
   12        4.773020   1.000000
   13        5.068967   1.000001
   14        5.275254   1.000344
   15        5.313179   1.000860
   16        5.563686   1.034396
   17        6.297125  -0.002167
   18        6.304519  -0.001857
   19        6.556066  -0.000002
   20        6.752915  -0.000000
   21        7.731030  -0.000000
   22        7.820248  -0.000000
   23        9.364946  -0.000000
   24       10.634033  -0.000000
   25       18.118634   0.000000
   26       18.404957   0.000000
   27       18.865626   0.000000
   28       19.060240   0.000000
   29       23.152282   0.000000
   30       23.885013   0.000000
   31       24.528365   0.000000
   32       24.970353   0.000000
 
 -0.1875000E+00  0.6250000E-01  0.6250000E-01  0.1953125E-02
    1       -1.767582   1.000000
    2       -1.545909   1.000000
    3        1.347031   1.000000
    4        1.350793   1.000000
    5        3.105023   1.000000
    6        3.226627   1.000000
    7        3.373925   1.000000
    8        3.438277   1.000000
    9        3.925535   1.000000
   10        4.485152   1.000000
   11        4.849011   1.000000
   12        5.003760   1.000000
   13        5.278659   1.000374
   14        5.351057   1.001978
   15        5.402863   1.005377
   16        5.834552   0.465078
   17        5.902511   0.201987
   18        7.009073  -0.000000
   19        7.123656  -0.000000
   20        7.486215  -0.000000
   21        7.591859  -0.000000
   22        8.037490  -0.000000
   23       12.440906   0.000000
   24       13.253896   0.000000
   25       16.357631   0.000000
   26       16.626835   0.000000
   27       16.981920   0.000000
   28       17.185585   0.000000
   29       22.507038   0.000000
   30       23.356302   0.000000
   31       23.974441   0.000000
   32       24.678499   0.000000
 
 -0.6250000E-01  0.6250000E-01  0.6250000E-01  0.1953125E-02
    1       -2.390616   1.000000
    2       -2.176251   1.000000
    3        1.090925   1.000000
    4        1.091604   1.000000
    5        2.921292   1.000000
    6        2.921929   1.000000
    7        3.445068   1.000000
    8        3.473399   1.000000
    9        3.663988   1.000000
   10        4.723047   1.000000
   11        4.734416   1.000000
   12        5.378264   1.003414
   13        5.403502   1.005438
   14        5.567637   1.034800
   15        5.618578   1.028680
   16        5.850760   0.397318
   17        5.886598   0.257229
   18        7.445011  -0.000000
   19        7.449387  -0.000000
   20        7.697056  -0.000000
   21        8.053997  -0.000000
   22        8.089572  -0.000000
   23       15.232642   0.000000
   24       15.327877   0.000000
   25       15.637813   0.000000
   26       15.789590   0.000000
   27       15.826672   0.000000
   28       16.126642   0.000000
   29       22.218583   0.000000
   30       22.228143   0.000000
   31       23.130461   0.000000
   32       23.138070   0.000000
 
  0.6250000E-01  0.1875000E+00  0.6250000E-01  0.1953125E-02
    1       -1.767585   1.000000
    2       -1.545914   1.000000
    3        1.347105   1.000000
    4        1.350729   1.000000
    5        3.104533   1.000000
    6        3.227176   1.000000
    7        3.371583   1.000000
    8        3.441102   1.000000
    9        3.923341   1.000000
   10        4.492691   1.000000
   11        4.840290   1.000000
   12        5.002554   1.000000
   13        5.278077   1.000369
   14        5.356019   1.002192
   15        5.405344   1.005617
   16        5.833276   0.470467
   17        5.900477   0.208754
   18        7.007760  -0.000000
   19        7.125022  -0.000000
   20        7.487904  -0.000000
   21        7.591033  -0.000000
   22        8.037103  -0.000000
   23       12.441062   0.000000
   24       13.253501   0.000000
   25       16.344883   0.000000
   26       16.664238   0.000000
   27       16.940598   0.000000
   28       17.202445   0.000000
   29       22.507301   0.000000
   30       23.356527   0.000000
   31       23.974000   0.000000
   32       24.678303   0.000000
 
  0.1875000E+00  0.1875000E+00  0.6250000E-01  0.1953125E-02
    1       -1.186739   1.000000
    2       -0.948842   1.000000
    3        1.514536   1.000000
    4        1.656306   1.000000
    5        3.143193   1.000000
    6        3.335157   1.000000
    7        3.338203   1.000000
    8        3.430519   1.000000
    9        4.336867   1.000000
   10        4.351156   1.000000
   11        4.579202   1.000000
   12        4.779056   1.000000
   13        5.014549   1.000000
   14        5.097715   1.000002
   15        5.215768   1.000069
   16        5.935628   0.105348
   17        6.251955  -0.005168
   18        6.351679  -0.000645
   19        7.139798  -0.000000
   20        7.200690  -0.000000
   21        7.512318  -0.000000
   22        8.155065  -0.000000
   23       12.568510   0.000000
   24       13.454052   0.000000
   25       14.178349   0.000000
   26       15.080361   0.000000
   27       17.403565   0.000000
   28       18.010810   0.000000
   29       23.399811   0.000000
   30       24.117246   0.000000
   31       24.571445   0.000000
   32       25.058278   0.000000
 
  0.3125000E+00  0.1875000E+00  0.6250000E-01  0.1953125E-02
    1       -0.174146   1.000000
    2        0.142546   1.000000
    3        1.705179   1.000000
    4        2.131076   1.000000
    5        3.012857   1.000000
    6        3.270158   1.000000
    7        3.308835   1.000000
    8        3.753870   1.000000
    9        3.919004   1.000000
   10        4.426319   1.000000
   11        4.623491   1.000000
   12        4.796970   1.000000
   13        4.861564   1.000000
   14        4.981173   1.000000
   15        5.094795   1.000001
   16        5.605759   1.032763
   17        5.863487   0.345591
   18        6.674192  -0.000000
   19        6.871693  -0.000000
   20        6.944587  -0.000000
   21        7.710718  -0.000000
   22        8.068726  -0.000000
   23        9.906903  -0.000000
   24       11.147747  -0.000000
   25       15.182469   0.000000
   26       16.147559   0.000000
   27       18.950566   0.000000
   28       19.616359   0.000000
   29       21.754823   0.000000
   30       22.428567   0.000000
   31       24.046482   0.000000
   32       24.647306   0.000000
 
  0.4375000E+00  0.1875000E+00  0.6250000E-01  0.1953125E-02
    1        0.896771   1.000000
    2        1.484115   1.000000
    3        1.571931   1.000000
    4        2.614671   1.000000
    5        2.670975   1.000000
    6        2.954577   1.000000
    7        3.227121   1.000000
    8        3.384001   1.000000
    9        4.361038   1.000000
   10        4.385605   1.000000
   11        4.460841   1.000000
   12        4.795477   1.000000
   13        4.985306   1.000000
   14        5.179849   1.000024
   15        5.196737   1.000040
   16        5.567429   1.034781
   17        5.708243   0.915588
   18        6.545714  -0.000002
   19        6.641246  -0.000000
   20        7.342543  -0.000000
   21        7.393363  -0.000000
   22        7.770105  -0.000000
   23        8.104970  -0.000000
   24        9.144246  -0.000000
   25       17.026354   0.000000
   26       17.951856   0.000000
   27       19.224167   0.000000
   28       20.046374   0.000000
   29       20.929079   0.000000
   30       21.600215   0.000000
   31       23.151499   0.000000
   32       23.728245   0.000000
 
 -0.4375000E+00  0.1875000E+00  0.6250000E-01  0.1953125E-02
    1        0.896772   1.000000
    2        1.484114   1.000000
    3        1.571932   1.000000
    4        2.614564   1.000000
    5        2.671086   1.000000
    6        2.954575   1.000000
    7        3.227123   1.000000
    8        3.383999   1.000000
    9        4.361011   1.000000
   10        4.385739   1.000000
   11        4.460709   1.000000
   12        4.795481   1.000000
   13        4.985308   1.000000
   14        5.179877   1.000024
   15        5.196719   1.000040
   16        5.567436   1.034781
   17        5.708230   0.915617
   18        6.545742  -0.000002
   19        6.641246  -0.000000
   20        7.342523  -0.000000
   21        7.393365  -0.000000
   22        7.770109  -0.000000
   23        8.104968  -0.000000
   24        9.144246  -0.000000
   25       17.026338   0.000000
   26       17.951871   0.000000
   27       19.224190   0.000000
   28       20.046347   0.000000
   29       20.929064   0.000000
   30       21.600219   0.000000
   31       23.151528   0.000000
   32       23.728233   0.000000
 
 -0.3125000E+00  0.1875000E+00  0.6250000E-01  0.1953125E-02
    1       -0.174144   1.000000
    2        0.142544   1.000000
    3        1.705179   1.000000
    4        2.131075   1.000000
    5        3.012857   1.000000
    6        3.270164   1.000000
    7        3.308835   1.000000
    8        3.753890   1.000000
    9        3.918995   1.000000
   10        4.426292   1.000000
   11        4.623478   1.000000
   12        4.796977   1.000000
   13        4.861546   1.000000
   14        4.981089   1.000000
   15        5.094915   1.000001
   16        5.605744   1.032766
   17        5.863501   0.345536
   18        6.674206  -0.000000
   19        6.871697  -0.000000
   20        6.944579  -0.000000
   21        7.710715  -0.000000
   22        8.068724  -0.000000
   23        9.906902  -0.000000
   24       11.147749  -0.000000
   25       15.182457   0.000000
   26       16.147562   0.000000
   27       18.950560   0.000000
   28       19.616359   0.000000
   29       21.754852   0.000000
   30       22.428529   0.000000
   31       24.046474   0.000000
   32       24.647315   0.000000
 
 -0.1875000E+00  0.1875000E+00  0.6250000E-01  0.1953125E-02
    1       -1.186738   1.000000
    2       -0.948844   1.000000
    3        1.514536   1.000000
    4        1.656306   1.000000
    5        3.143194   1.000000
    6        3.335155   1.000000
    7        3.338205   1.000000
    8        3.430532   1.000000
    9        4.336867   1.000000
   10        4.351146   1.000000
   11        4.579189   1.000000
   12        4.779029   1.000000
   13        5.014546   1.000000
   14        5.097712   1.000002
   15        5.215808   1.000069
   16        5.935619   0.105369
   17        6.251966  -0.005167
   18        6.351683  -0.000645
   19        7.139807  -0.000000
   20        7.200685  -0.000000
   21        7.512316  -0.000000
   22        8.155064  -0.000000
   23       12.568511   0.000000
   24       13.454074   0.000000
   25       14.178325   0.000000
   26       15.080350   0.000000
   27       17.403564   0.000000
   28       18.010809   0.000000
   29       23.399814   0.000000
   30       24.117241   0.000000
   31       24.571478   0.000000
   32       25.058229   0.000000
 
 -0.6250000E-01  0.1875000E+00  0.6250000E-01  0.1953125E-02
    1       -1.767585   1.000000
    2       -1.545914   1.000000
    3        1.347104   1.000000
    4        1.350729   1.000000
    5        3.104536   1.000000
    6        3.227175   1.000000
    7        3.371584   1.000000
    8        3.441103   1.000000
    9        3.923340   1.000000
   10        4.492689   1.000000
   11        4.840280   1.000000
   12        5.002551   1.000000
   13        5.278087   1.000369
   14        5.356019   1.002192
   15        5.405344   1.005617
   16        5.833275   0.470470
   17        5.900480   0.208743
   18        7.007765  -0.000000
   19        7.125020  -0.000000
   20        7.487905  -0.000000
   21        7.591032  -0.000000
   22        8.037103  -0.000000
   23       12.441060   0.000000
   24       13.253506   0.000000
   25       16.344879   0.000000
   26       16.664236   0.000000
   27       16.940594   0.000000
   28       17.202446   0.000000
   29       22.507308   0.000000
   30       23.356519   0.000000
   31       23.974007   0.000000
   32       24.678298   0.000000
 
  0.6250000E-01  0.3125000E+00  0.6250000E-01  0.1953125E-02
    1       -0.635234   1.000000
    2       -0.371884   1.000000
    3        1.650736   1.000000
    4        1.831980   1.000000
    5        3.144654   1.000000
    6        3.389126   1.000000
    7        3.407590   1.000000
    8        3.795383   1.000000
    9        4.087813   1.000000
   10        4.302916   1.000000
   11        4.375432   1.000000
   12        4.775713   1.000000
   13        5.054794   1.000000
   14        5.279849   1.000386
   15        5.318833   1.000979
   16        5.562221   1.034225
   17        6.295543  -0.002238
   18        6.297715  -0.002141
   19        6.562601  -0.000001
   20        6.754663  -0.000000
   21        7.730933  -0.000000
   22        7.819505  -0.000000
   23        9.365140  -0.000000
   24       10.633716  -0.000000
   25       18.107490   0.000000
   26       18.432526   0.000000
   27       18.832616   0.000000
   28       19.076926   0.000000
   29       23.152476   0.000000
   30       23.885226   0.000000
   31       24.528456   0.000000
   32       24.969923   0.000000
 
  0.1875000E+00  0.3125000E+00  0.6250000E-01  0.1953125E-02
    1       -0.174163   1.000000
    2        0.142531   1.000000
    3        1.705105   1.000000
    4        2.131120   1.000000
    5        3.012752   1.000000
    6        3.269968   1.000000
    7        3.308175   1.000000
    8        3.756200   1.000000
    9        3.917549   1.000000
   10        4.428627   1.000000
   11        4.623451   1.000000
   12        4.801459   1.000000
   13        4.855645   1.000000
   14        4.978815   1.000000
   15        5.096444   1.000002
   16        5.605602   1.032800
   17        5.863459   0.345703
   18        6.674224  -0.000000
   19        6.862126  -0.000000
   20        6.955389  -0.000000
   21        7.709618  -0.000000
   22        8.068722  -0.000000
   23        9.907061  -0.000000
   24       11.147514  -0.000000
   25       15.182407   0.000000
   26       16.147805   0.000000
   27       18.950341   0.000000
   28       19.616474   0.000000
   29       21.754848   0.000000
   30       22.428605   0.000000
   31       24.046510   0.000000
   32       24.647345   0.000000
 
  0.3125000E+00  0.3125000E+00  0.6250000E-01  0.1953125E-02
    1        0.481665   1.000000
    2        1.009619   1.000000
    3        1.558832   1.000000
    4        2.731421   1.000000
    5        2.771485   1.000000
    6        3.102806   1.000000
    7        3.203024   1.000000
    8        3.522847   1.000000
    9        4.429531   1.000000
   10        4.496961   1.000000
   11        4.505462   1.000000
   12        4.691056   1.000000
   13        4.858091   1.000000
   14        5.003199   1.000000
   15        5.030597   1.000000
   16        5.429656   1.008438
   17        6.017835  -0.020165
   18        6.690731  -0.000000
   19        7.208908  -0.000000
   20        7.507784  -0.000000
   21        7.627330  -0.000000
   22        8.255753  -0.000000
   23        9.708393  -0.000000
   24       10.890697  -0.000000
   25       13.428103   0.000000
   26       14.667951   0.000000
   27       18.792148   0.000000
   28       19.636432   0.000000
   29       20.171301   0.000000
   30       20.819660   0.000000
   31       24.549142   0.000000
   32       25.027691   0.000000
 
  0.4375000E+00  0.3125000E+00  0.6250000E-01  0.1953125E-02
    1        0.970519   1.000000
    2        1.297272   1.000000
    3        1.910645   1.000000
    4        2.606474   1.000000
    5        2.654673   1.000000
    6        2.811927   1.000000
    7        3.438691   1.000000
    8        3.823868   1.000000
    9        4.412224   1.000000
   10        4.542758   1.000000
   11        4.613653   1.000000
   12        4.725264   1.000000
   13        5.025930   1.000000
   14        5.163963   1.000015
   15        5.289386   1.000488
   16        5.876402   0.295163
   17        6.119836  -0.029064
   18        6.943841  -0.000000
   19        7.143868  -0.000000
   20        7.739875  -0.000000
   21        7.790371  -0.000000
   22        8.124282  -0.000000
   23        8.177713  -0.000000
   24        9.299567  -0.000000
   25       14.318411   0.000000
   26       15.499637   0.000000
   27       16.268810   0.000000
   28       17.284419   0.000000
   29       21.805473   0.000000
   30       22.382094   0.000000
   31       23.645336   0.000000
   32       24.046050   0.000000
 
 -0.4375000E+00  0.3125000E+00  0.6250000E-01  0.1953125E-02
    1        0.970521   1.000000
    2        1.297270   1.000000
    3        1.910644   1.000000
    4        2.606474   1.000000
    5        2.654673   1.000000
    6        2.811927   1.000000
    7        3.438689   1.000000
    8        3.823866   1.000000
    9        4.412218   1.000000
   10        4.542858   1.000000
   11        4.613570   1.000000
   12        4.725269   1.000000
   13        5.025917   1.000000
   14        5.163838   1.000015
   15        5.289517   1.000490
   16        5.876399   0.295175
   17        6.119831  -0.029065
   18        6.943864  -0.000000
   19        7.143866  -0.000000
   20        7.739852  -0.000000
   21        7.790366  -0.000000
   22        8.124287  -0.000000
   23        8.177715  -0.000000
   24        9.299569  -0.000000
   25       14.318402   0.000000
   26       15.499642   0.000000
   27       16.268826   0.000000
   28       17.284404   0.000000
   29       21.805457   0.000000
   30       22.382102   0.000000
   31       23.645367   0.000000
   32       24.046034   0.000000
 
 -0.3125000E+00  0.3125000E+00  0.6250000E-01  0.1953125E-02
    1        0.481668   1.000000
    2        1.009617   1.000000
    3        1.558831   1.000000
    4        2.731422   1.000000
    5        2.771493   1.000000
    6        3.102795   1.000000
    7        3.203022   1.000000
    8        3.522854   1.000000
    9        4.429749   1.000000
   10        4.496756   1.000000
   11        4.505447   1.000000
   12        4.691073   1.000000
   13        4.857937   1.000000
   14        5.003187   1.000000
   15        5.030745   1.000000
   16        5.429657   1.008438
   17        6.017838  -0.020167
   18        6.690747  -0.000000
   19        7.208904  -0.000000
   20        7.507782  -0.000000
   21        7.627327  -0.000000
   22        8.255751  -0.000000
   23        9.708383  -0.000000
   24       10.890702  -0.000000
   25       13.428098   0.000000
   26       14.667950   0.000000
   27       18.792171   0.000000
   28       19.636406   0.000000
   29       20.171292   0.000000
   30       20.819664   0.000000
   31       24.549129   0.000000
   32       25.027719   0.000000
 
 -0.1875000E+00  0.3125000E+00  0.6250000E-01  0.1953125E-02
    1       -0.174160   1.000000
    2        0.142529   1.000000
    3        1.705103   1.000000
    4        2.131120   1.000000
    5        3.012752   1.000000
    6        3.269973   1.000000
    7        3.308182   1.000000
    8        3.756218   1.000000
    9        3.917528   1.000000
   10        4.428617   1.000000
   11        4.623445   1.000000
   12        4.801496   1.000000
   13        4.855590   1.000000
   14        4.978730   1.000000
   15        5.096557   1.000002
   16        5.605592   1.032802
   17        5.863468   0.345666
   18        6.674237  -0.000000
   19        6.862127  -0.000000
   20        6.955386  -0.000000
   21        7.709615  -0.000000
   22        8.068720  -0.000000
   23        9.907054  -0.000000
   24       11.147517  -0.000000
   25       15.182399   0.000000
   26       16.147809   0.000000
   27       18.950335   0.000000
   28       19.616476   0.000000
   29       21.754879   0.000000
   30       22.428563   0.000000
   31       24.046501   0.000000
   32       24.647356   0.000000
 
 -0.6250000E-01  0.3125000E+00  0.6250000E-01  0.1953125E-02
    1       -0.635233   1.000000
    2       -0.371884   1.000000
    3        1.650735   1.000000
    4        1.831980   1.000000
    5        3.144660   1.000000
    6        3.389127   1.000000
    7        3.407591   1.000000
    8        3.795381   1.000000
    9        4.087811   1.000000
   10        4.302915   1.000000
   11        4.375426   1.000000
   12        4.775714   1.000000
   13        5.054775   1.000000
   14        5.279874   1.000386
   15        5.318830   1.000979
   16        5.562220   1.034225
   17        6.295547  -0.002238
   18        6.297717  -0.002140
   19        6.562598  -0.000001
   20        6.754665  -0.000000
   21        7.730933  -0.000000
   22        7.819504  -0.000000
   23        9.365137  -0.000000
   24       10.633716  -0.000000
   25       18.107488   0.000000
   26       18.432518   0.000000
   27       18.832623   0.000000
   28       19.076925   0.000000
   29       23.152485   0.000000
   30       23.885220   0.000000
   31       24.528468   0.000000
   32       24.969925   0.000000
 
  0.6250000E-01  0.4375000E+00  0.6250000E-01  0.1953125E-02
    1        0.683135   1.000000
    2        1.128237   1.000000
    3        1.558950   1.000000
    4        2.456651   1.000000
    5        2.496499   1.000000
    6        3.081087   1.000000
    7        3.590829   1.000000
    8        3.900269   1.000000
    9        3.942340   1.000000
   10        4.234542   1.000000
   11        4.530243   1.000000
   12        4.726927   1.000000
   13        5.149539   1.000009
   14        5.161845   1.000014
   15        5.427052   1.008093
   16        5.592469   1.034944
   17        5.781781   0.683265
   18        6.057525  -0.034664
   19        6.190486  -0.013638
   20        6.794192  -0.000000
   21        6.935518  -0.000000
   22        7.291665  -0.000000
   23        8.137271  -0.000000
   24        8.888963  -0.000000
   25       20.188055   0.000000
   26       20.650662   0.000000
   27       20.964023   0.000000
   28       21.330556   0.000000
   29       22.318677   0.000000
   30       22.992390   0.000000
   31       23.177155   0.000000
   32       23.813766   0.000000
 
  0.1875000E+00  0.4375000E+00  0.6250000E-01  0.1953125E-02
    1        0.896703   1.000000
    2        1.484058   1.000000
    3        1.571835   1.000000
    4        2.614363   1.000000
    5        2.670851   1.000000
    6        2.953877   1.000000
    7        3.227861   1.000000
    8        3.384864   1.000000
    9        4.361920   1.000000
   10        4.383295   1.000000
   11        4.463676   1.000000
   12        4.797987   1.000000
   13        4.981886   1.000000
   14        5.181554   1.000025
   15        5.196153   1.000039
   16        5.567403   1.034778
   17        5.705737   0.921254
   18        6.545690  -0.000002
   19        6.640809  -0.000000
   20        7.339425  -0.000000
   21        7.396058  -0.000000
   22        7.773621  -0.000000
   23        8.103571  -0.000000
   24        9.143566  -0.000000
   25       17.026330   0.000000
   26       17.952021   0.000000
   27       19.224177   0.000000
   28       20.046465   0.000000
   29       20.928941   0.000000
   30       21.600249   0.000000
   31       23.151458   0.000000
   32       23.728219   0.000000
 
  0.3125000E+00  0.4375000E+00  0.6250000E-01  0.1953125E-02
    1        0.970489   1.000000
    2        1.297241   1.000000
    3        1.910613   1.000000
    4        2.606375   1.000000
    5        2.654535   1.000000
    6        2.811628   1.000000
    7        3.439581   1.000000
    8        3.824731   1.000000
    9        4.410020   1.000000
   10        4.536939   1.000000
   11        4.618946   1.000000
   12        4.726950   1.000000
   13        5.026616   1.000000
   14        5.166992   1.000016
   15        5.287175   1.000462
   16        5.875935   0.296946
   17        6.118173  -0.029418
   18        6.943860  -0.000000
   19        7.143466  -0.000000