       N       E                     dE             d eps       ncg     rms          rms(c)
DAV:   1     0.108124783354E+03    0.10812E+03   -0.64532E+03 34408   0.126E+03
DAV:   2    -0.117905811357E+02   -0.11992E+03   -0.10912E+03 32856   0.267E+02
DAV:   3    -0.184894203589E+02   -0.66988E+01   -0.60339E+01 37088   0.866E+01
DAV:   4    -0.185755967751E+02   -0.86176E-01   -0.85990E-01 37256   0.111E+01
DAV:   5    -0.185764354166E+02   -0.83864E-03   -0.83862E-03 37976   0.869E-01    0.161E+01
DAV:   6    -0.166167795464E+02    0.19597E+01   -0.95220E+00 38112   0.652E+01    0.819E+00
DAV:   7    -0.165100741025E+02    0.10671E+00   -0.95011E-01 37392   0.190E+01    0.488E+00
DAV:   8    -0.164998869266E+02    0.10187E-01   -0.29861E-02 35968   0.180E+00    0.203E+00
DAV:   9    -0.164867633173E+02    0.13124E-01   -0.33334E-02 35112   0.169E+00    0.532E-01
DAV:  10    -0.164841100035E+02    0.26533E-02   -0.47434E-02 33224   0.243E+00    0.466E-01
DAV:  11    -0.164846416815E+02   -0.53168E-03   -0.21387E-03 39968   0.150E+00    0.247E-01
DAV:  12    -0.164857282421E+02   -0.10866E-02   -0.16563E-02 34808   0.118E+00    0.133E-01
DAV:  13    -0.164865418695E+02   -0.81363E-03   -0.22169E-02 35016   0.118E+00    0.140E-01
DAV:  14    -0.164857146528E+02    0.82722E-03   -0.11386E-02 34736   0.864E-01    0.582E-02
DAV:  15    -0.164858747193E+02   -0.16007E-03   -0.76298E-03 34448   0.683E-01    0.753E-02
DAV:  16    -0.164857692025E+02    0.10552E-03   -0.50325E-03 33768   0.591E-01    0.594E-02
DAV:  17    -0.164858355047E+02   -0.66302E-04   -0.48052E-03 34008   0.529E-01    0.495E-02
DAV:  18    -0.164857997953E+02    0.35709E-04   -0.31198E-03 33864   0.453E-01    0.229E-02
DAV:  19    -0.164858114891E+02   -0.11694E-04   -0.17029E-03 33608   0.325E-01    0.201E-02
DAV:  20    -0.164858489916E+02   -0.37503E-04   -0.87773E-04 33984   0.223E-01    0.149E-02
DAV:  21    -0.164859794052E+02   -0.13041E-03   -0.47672E-04 33888   0.171E-01    0.944E-03
DAV:  22    -0.164860395229E+02   -0.60118E-04   -0.26538E-04 33776   0.125E-01    0.842E-03
DAV:  23    -0.164860331583E+02    0.63646E-05   -0.89726E-05 33656   0.749E-02
   1 F= -.16486033E+02 E0= -.16484839E+02  d E =-.358373E-02  mag=    -0.0004     4.4179    -0.0006
