unknown system                          
   1.00000000000000     
     3.348777    0.000000    1.933417
     1.116259    3.157259    1.933417
     0.000000    0.000000    3.866835
   Si
     2
Direct
  0.875000  0.875000  0.875000
  0.125000  0.125000  0.125000
 
   56   56   56
  22.960      22.926      22.820      22.640      22.377      22.007      21.494      20.812      19.968      19.002    
  17.988      17.026      16.232      15.706      15.522      15.706      16.232      17.027      17.988      19.002    
  19.968      20.812      21.494      22.008      22.377      22.640      22.820      22.926      22.960      22.926    
  22.820      22.640      22.377      22.008      21.494      20.812      19.968      19.002      17.988      17.027    
  16.232      15.706      15.522      15.706      16.232      17.026      17.988      19.002      19.968      20.812    
  21.494      22.007      22.377      22.640      22.820      22.926      22.926      22.986      22.966      22.853    
  22.613      22.191      21.550      20.683      19.621      18.438      17.245      16.179      15.373      14.939    
  14.939      15.373      16.178      17.245      18.438      19.621      20.683      21.550      22.191      22.613    
  22.853      22.966      22.986      22.926      22.794      22.595      22.333      22.006      21.611      21.138    
  20.563      19.874      19.085      18.239      17.405      16.667      16.114      15.817      15.817      16.114    
  16.667      17.405      18.239      19.085      19.874      20.563      21.138      21.611      22.006      22.333    
  22.595      22.794      22.820      22.966      23.015      22.923      22.623      22.060      21.211      20.092    
  18.770      17.359      16.010      14.890      14.147      13.887      14.147      14.890      16.010      17.359    
  18.770      20.092      21.211      22.060      22.623      22.923      23.015      22.966      22.820      22.595    
  22.303      21.952      21.549      21.097      20.597      20.047      19.440      18.770      18.057      17.341    
  16.680      16.142      15.789      15.666      15.789      16.142      16.680      17.341      18.057      18.770    
  19.440      20.047      20.597      21.097      21.549      21.952      22.303      22.595      22.640      22.853    
  22.923      22.769      22.321      21.534      20.409      18.996      17.404      15.791      14.345      13.252    
  12.664      12.664      13.252      14.345      15.791      17.404      18.996      20.409      21.534      22.321    
  22.769      22.923      22.853      22.640      22.333      21.952      21.513      21.029      20.508      19.958    
  19.382      18.785      18.169      17.537      16.910      16.320      15.815      15.443      15.245      15.245    
  15.443      15.815      16.320      16.910      17.537      18.168      18.785      19.382      19.958      20.508    
  21.029      21.513      21.952      22.333      22.377      22.613      22.623      22.321      21.644      20.569    
  19.127      17.414      15.583      13.833      12.379      11.416      11.079      11.416      12.379      13.833    
  15.583      17.414      19.127      20.569      21.644      22.321      22.623      22.613      22.377      22.006    
  21.549      21.029      20.464      19.870      19.260      18.641      18.021      17.404      16.799      16.217    
  15.675      15.200      14.826      14.586      14.503      14.586      14.826      15.200      15.675      16.217    
  16.799      17.404      18.021      18.641      19.260      19.870      20.464      21.029      21.549      22.006    
  22.007      22.191      22.060      21.534      20.569      19.170      17.413      15.436      13.437      11.650    
  10.301      9.5753      9.5752      10.301      11.650      13.437      15.436      17.413      19.170      20.568    
  21.534      22.060      22.191      22.007      21.611      21.097      20.508      19.870      19.206      18.531    
  17.860      17.203      16.566      15.957      15.382      14.855      14.392      14.015      13.747      13.607    
  13.607      13.747      14.015      14.392      14.855      15.382      15.956      16.566      17.203      17.860    
  18.531      19.206      19.870      20.508      21.097      21.611      21.494      21.550      21.211      20.409    
  19.127      17.413      15.383      13.223      11.166      9.4631      8.3369      7.9429      8.3369      9.4631    
  11.166      13.223      15.383      17.413      19.127      20.409      21.211      21.550      21.494      21.138    
  20.597      19.958      19.260      18.531      17.793      17.066      16.364      15.696      15.068      14.487    
  13.958      13.493      13.105      12.811      12.628      12.565      12.628      12.811      13.105      13.492    
  13.958      14.487      15.069      15.696      16.364      17.066      17.793      18.531      19.260      19.958    
  20.597      21.138      20.812      20.683      20.092      18.996      17.414      15.436      13.223      10.997    
  9.0139      7.5222      6.7210      6.7210      7.5222      9.0140      10.997      13.223      15.436      17.414    
  18.996      20.092      20.683      20.812      20.563      20.047      19.382      18.642      17.860      17.066    
  16.285      15.534      14.827      14.171      13.572      13.033      12.559      12.160      11.844      11.626    
  11.513      11.513      11.626      11.844      12.160      12.559      13.033      13.572      14.171      14.827    
  15.534      16.285      17.066      17.860      18.641      19.382      20.047      20.563      19.968      19.621    
  18.770      17.404      15.583      13.437      11.166      9.0139      7.2381      6.0668      5.6577      6.0668    
  7.2381      9.0139      11.166      13.437      15.583      17.404      18.770      19.621      19.968      19.874    
  19.440      18.785      18.021      17.203      16.364      15.534      14.736      13.987      13.297      12.672    
  12.115      11.627      11.213      10.879      10.631      10.479      10.427      10.479      10.631      10.879    
  11.213      11.627      12.115      12.672      13.297      13.987      14.736      15.534      16.364      17.203    
  18.021      18.785      19.440      19.874      19.002      18.438      17.359      15.791      13.833      11.650    
  9.4631      7.5222      6.0668      5.2867      5.2867      6.0669      7.5222      9.4631      11.650      13.833    
  15.791      17.359      18.438      19.002      19.085      18.770      18.168      17.404      16.566      15.696    
  14.827      13.987      13.196      12.470      11.814      11.233      10.727      10.296      9.9421      9.6695    
  9.4835      9.3890      9.3890      9.4835      9.6695      9.9421      10.296      10.727      11.233      11.814    
  12.470      13.196      13.987      14.827      15.696      16.566      17.404      18.168      18.770      19.085    
  17.988      17.245      16.010      14.345      12.379      10.301      8.3369      6.7210      5.6577      5.2867    
  5.6577      6.7210      8.3369      10.301      12.379      14.345      16.010      17.245      17.988      18.239    
  18.057      17.537      16.799      15.956      15.069      14.171      13.297      12.470      11.708      11.020    
  10.412      9.8835      9.4325      9.0588      8.7631      8.5481      8.4171      8.3731      8.4171      8.5480    
  8.7630      9.0587      9.4325      9.8834      10.412      11.020      11.707      12.470      13.297      14.171    
  15.069      15.956      16.799      17.537      18.057      18.239      17.026      16.179      14.890      13.252    
  11.416      9.5753      7.9429      6.7210      6.0668      6.0669      6.7210      7.9429      9.5752      11.416    
  13.252      14.890      16.179      17.027      17.405      17.341      16.910      16.217      15.382      14.487    
  13.572      12.672      11.814      11.020      10.303      9.6668      9.1137      8.6413      8.2469      7.9292    
  7.6883      7.5258      7.4439      7.4439      7.5259      7.6883      7.9293      8.2470      8.6413      9.1137    
  9.6668      10.303      11.020      11.814      12.672      13.572      14.487      15.382      16.217      16.910    
  17.341      17.405      16.232      15.373      14.147      12.664      11.079      9.5752      8.3369      7.5222    
  7.2381      7.5222      8.3369      9.5752      11.079      12.664      14.147      15.373      16.232      16.667    
  16.680      16.320      15.675      14.855      13.958      13.033      12.115      11.233      10.412      9.6668    
  9.0045      8.4272      7.9329      7.5178      7.1791      6.9146      6.7245      6.6096      6.5712      6.6096    
  6.7245      6.9146      7.1790      7.5178      7.9329      8.4272      9.0046      9.6668      10.412      11.233    
  12.115      13.033      13.958      14.855      15.675      16.320      16.680      16.667      15.706      14.939    
  13.887      12.664      11.416      10.301      9.4631      9.0140      9.0139      9.4631      10.301      11.416    
  12.664      13.887      14.939      15.706      16.114      16.142      15.815      15.200      14.392      13.492    
  12.559      11.627      10.727      9.8834      9.1137      8.4272      7.8269      7.3112      6.8762      6.5173    
  6.2314      6.0167      5.8731      5.8009      5.8010      5.8731      6.0167      6.2314      6.5173      6.8762    
  7.3113      7.8270      8.4272      9.1137      9.8834      10.727      11.627      12.559      13.492      14.392    
  15.200      15.815      16.142      16.114      15.522      14.939      14.147      13.252      12.379      11.650    
  11.166      10.997      11.166      11.650      12.379      13.252      14.147      14.939      15.522      15.817    
  15.789      15.443      14.826      14.015      13.105      12.160      11.213      10.296      9.4325      8.6413    
  7.9328      7.3113      6.7754      6.3212      5.9435      5.6380      5.4015      5.2326      5.1311      5.0972    
  5.1311      5.2326      5.4014      5.6380      5.9435      6.3212      6.7754      7.3113      7.9329      8.6413    
  9.4325      10.296      11.213      12.160      13.105      14.015      14.826      15.443      15.789      15.817    
  15.706      15.373      14.890      14.345      13.833      13.437      13.223      13.223      13.437      13.833    
  14.345      14.890      15.373      15.706      15.817      15.666      15.245      14.586      13.747      12.811    
  11.844      10.879      9.9421      9.0587      8.2470      7.5178      6.8762      6.3212      5.8488      5.4536    
  5.1300      4.8740      4.6830      4.5558      4.4922      4.4922      4.5558      4.6830      4.8741      5.1301    
  5.4536      5.8489      6.3212      6.8762      7.5178      8.2470      9.0587      9.9421      10.879      11.844    
  12.811      13.747      14.586      15.245      15.666      15.817      16.232      16.178      16.010      15.791    
  15.583      15.436      15.383      15.436      15.583      15.791      16.010      16.179      16.232      16.114    
  15.789      15.245      14.503      13.607      12.628      11.626      10.631      9.6695      8.7630      7.9292    
  7.1790      6.5173      5.9435      5.4536      5.0415      4.7013      4.4276      4.2170      4.0673      3.9777    
  3.9478      3.9778      4.0673      4.2170      4.4276      4.7013      5.0415      5.4536      5.9435      6.5173    
  7.1790      7.9293      8.7630      9.6695      10.631      11.626      12.628      13.607      14.503      15.245    
  15.789      16.114      17.027      17.245      17.359      17.404      17.414      17.413      17.413      17.414    
  17.404      17.359      17.245      17.027      16.667      16.142      15.443      14.586      13.607      12.565    
  11.513      10.479      9.4835      8.5480      7.6883      6.9146      6.2314      5.6380      5.1300      4.7012    
  4.3448      4.0548      3.8266      3.6571      3.5447      3.4887      3.4887      3.5447      3.6571      3.8266    
  4.0548      4.3448      4.7013      5.1301      5.6380      6.2314      6.9146      7.6883      8.5480      9.4835    
  10.479      11.513      12.565      13.607      14.586      15.443      16.142      16.667      17.988      18.438    
  18.770      18.996      19.127      19.170      19.127      18.996      18.770      18.438      17.988      17.405    
  16.680      15.815      14.826      13.747      12.628      11.513      10.427      9.3890      8.4171      7.5259    
  6.7244      6.0167      5.4015      4.8741      4.4276      4.0548      3.7488      3.5042      3.3169      3.1845    
  3.1054      3.0791      3.1054      3.1845      3.3169      3.5042      3.7488      4.0548      4.4276      4.8741    
  5.4014      6.0167      6.7245      7.5259      8.4171      9.3890      10.427      11.513      12.628      13.747    
  14.826      15.815      16.680      17.405      19.002      19.621      20.092      20.409      20.569      20.568    
  20.409      20.092      19.621      19.002      18.239      17.341      16.320      15.200      14.015      12.811    
  11.626      10.479      9.3890      8.3731      7.4439      6.6096      5.8731      5.2326      4.6830      4.2170    
  3.8266      3.5042      3.2435      3.0395      2.8889      2.7895      2.7401      2.7401      2.7895      2.8889    
  3.0395      3.2435      3.5042      3.8266      4.2170      4.6830      5.2326      5.8731      6.6096      7.4439    
  8.3731      9.3890      10.479      11.626      12.811      14.015      15.200      16.320      17.341      18.239    
  19.968      20.683      21.211      21.534      21.644      21.534      21.211      20.683      19.968      19.085    
  18.057      16.910      15.675      14.392      13.105      11.844      10.631      9.4835      8.4171      7.4439    
  6.5711      5.8010      5.1311      4.5558      4.0674      3.6571      3.3169      3.0395      2.8192      2.6516    
  2.5338      2.4638      2.4406      2.4638      2.5338      2.6516      2.8192      3.0395      3.3169      3.6571    
  4.0673      4.5558      5.1311      5.8010      6.5712      7.4439      8.4171      9.4835      10.631      11.844    
  13.105      14.392      15.675      16.910      18.057      19.085      20.812      21.550      22.060      22.321    
  22.321      22.060      21.550      20.812      19.874      18.770      17.537      16.217      14.855      13.492    
  12.160      10.879      9.6695      8.5480      7.5259      6.6096      5.8010      5.0972      4.4922      3.9777    
  3.5447      3.1844      2.8889      2.6516      2.4674      2.3322      2.2436      2.1997      2.1997      2.2436    
  2.3323      2.4674      2.6516      2.8889      3.1845      3.5447      3.9778      4.4922      5.0972      5.8009    
  6.6096      7.5258      8.5481      9.6695      10.879      12.160      13.493      14.855      16.217      17.537    
  18.770      19.874      21.494      22.191      22.623      22.769      22.623      22.191      21.494      20.563    
  19.440      18.168      16.799      15.382      13.958      12.559      11.213      9.9421      8.7630      7.6883    
  6.7244      5.8731      5.1311      4.4922      3.9479      3.4887      3.1054      2.7895      2.5338      2.3323    
  2.1802      2.0740      2.0112      1.9905      2.0112      2.0740      2.1802      2.3323      2.5338      2.7895    
  3.1054      3.4887      3.9478      4.4922      5.1311      5.8731      6.7245      7.6883      8.7631      9.9421    
  11.213      12.559      13.958      15.382      16.799      18.169      19.440      20.563      22.008      22.613    
  22.923      22.923      22.613      22.007      21.138      20.047      18.785      17.404      15.956      14.487    
  13.033      11.627      10.296      9.0587      7.9292      6.9146      6.0167      5.2326      4.5558      3.9777    
  3.4887      3.0791      2.7401      2.4638      2.2436      2.0740      1.9506      1.8702      1.8305      1.8305    
  1.8702      1.9506      2.0740      2.2436      2.4638      2.7401      3.0791      3.4887      3.9777      4.5558    
  5.2326      6.0167      6.9146      7.9292      9.0588      10.296      11.627      13.033      14.487      15.957    
  17.404      18.785      20.047      21.138      22.377      22.853      23.015      22.853      22.377      21.611    
  20.597      19.382      18.021      16.566      15.069      13.572      12.115      10.727      9.4325      8.2470    
  7.1790      6.2314      5.4015      4.6830      4.0674      3.5447      3.1054      2.7401      2.4406      2.1997    
  2.0112      1.8702      1.7724      1.7150      1.6961      1.7150      1.7724      1.8702      2.0112      2.1997    
  2.4406      2.7401      3.1054      3.5447      4.0673      4.6830      5.4015      6.2314      7.1791      8.2469    
  9.4325      10.727      12.115      13.572      15.068      16.566      18.021      19.382      20.597      21.611    
  22.640      22.966      22.966      22.640      22.006      21.097      19.958      18.642      17.203      15.696    
  14.171      12.672      11.233      9.8834      8.6413      7.5178      6.5173      5.6380      4.8741      4.2170    
  3.6571      3.1844      2.7895      2.4638      2.1997      1.9905      1.8305      1.7150      1.6402      1.6035    
  1.6035      1.6402      1.7150      1.8305      1.9905      2.1997      2.4638      2.7895      3.1845      3.6571    
  4.2170      4.8740      5.6380      6.5173      7.5178      8.6413      9.8835      11.233      12.672      14.171    
  15.696      17.203      18.641      19.958      21.097      22.006      22.820      22.986      22.820      22.333    
  21.549      20.508      19.260      17.860      16.364      14.827      13.297      11.814      10.412      9.1137    
  7.9328      6.8762      5.9435      5.1300      4.4276      3.8266      3.3169      2.8889      2.5338      2.2436    
  2.0112      1.8305      1.6961      1.6035      1.5493      1.5315      1.5493      1.6035      1.6961      1.8305    
  2.0112      2.2436      2.5338      2.8889      3.3169      3.8266      4.4276      5.1300      5.9435      6.8762    
  7.9329      9.1137      10.412      11.814      13.297      14.827      16.364      17.860      19.260      20.508    
  21.549      22.333      22.926      22.926      22.595      21.952      21.029      19.870      18.531      17.066    
  15.534      13.987      12.470      11.020      9.6668      8.4272      7.3113      6.3212      5.4536      4.7012    
  4.0548      3.5042      3.0395      2.6516      2.3323      2.0740      1.8702      1.7150      1.6035      1.5315    
  1.4963      1.4963      1.5315      1.6035      1.7150      1.8702      2.0740      2.3322      2.6516      3.0395    
  3.5042      4.0548      4.7013      5.4536      6.3212      7.3112      8.4272      9.6668      11.020      12.470    
  13.987      15.534      17.066      18.531      19.870      21.029      21.952      22.595      22.960      22.794    
  22.303      21.513      20.464      19.206      17.793      16.285      14.736      13.196      11.708      10.303    
  9.0045      7.8269      6.7754      5.8488      5.0415      4.3448      3.7488      3.2435      2.8192      2.4674    
  2.1802      1.9506      1.7724      1.6402      1.5493      1.4963      1.4789      1.4963      1.5493      1.6402    
  1.7724      1.9506      2.1802      2.4674      2.8192      3.2435      3.7488      4.3448      5.0415      5.8488    
  6.7754      7.8269      9.0045      10.303      11.708      13.196      14.736      16.285      17.793      19.206    
  20.464      21.513      22.303      22.794      22.926      22.595      21.952      21.029      19.870      18.531    
  17.066      15.534      13.987      12.470      11.020      9.6668      8.4272      7.3112      6.3212      5.4536    
  4.7013      4.0548      3.5042      3.0395      2.6516      2.3322      2.0740      1.8702      1.7150      1.6035    
  1.5315      1.4963      1.4963      1.5315      1.6035      1.7150      1.8702      2.0740      2.3323      2.6516    
  3.0395      3.5042      4.0548      4.7012      5.4536      6.3212      7.3113      8.4272      9.6668      11.020    
  12.470      13.987      15.534      17.066      18.531      19.870      21.029      21.952      22.595      22.926    
  22.820      22.333      21.549      20.508      19.260      17.860      16.364      14.827      13.297      11.814    
  10.412      9.1137      7.9329      6.8762      5.9435      5.1300      4.4276      3.8266      3.3169      2.8889    
  2.5338      2.2436      2.0112      1.8305      1.6961      1.6035      1.5493      1.5315      1.5493      1.6035    
  1.6961      1.8305      2.0112      2.2436      2.5338      2.8889      3.3169      3.8266      4.4276      5.1300    
  5.9435      6.8762      7.9328      9.1137      10.412      11.814      13.297      14.827      16.364      17.860    
  19.260      20.508      21.549      22.333      22.820      22.986      22.640      22.006      21.097      19.958    
  18.641      17.203      15.696      14.171      12.672      11.233      9.8835      8.6413      7.5178      6.5173    
  5.6380      4.8740      4.2170      3.6571      3.1845      2.7895      2.4638      2.1997      1.9905      1.8305    
  1.7150      1.6402      1.6035      1.6035      1.6402      1.7150      1.8305      1.9905      2.1997      2.4638    
  2.7895      3.1844      3.6571      4.2170      4.8741      5.6380      6.5173      7.5178      8.6413      9.8834    
  11.233      12.672      14.171      15.696      17.203      18.642      19.958      21.097      22.006      22.640    
  22.966      22.966      22.377      21.611      20.597      19.382      18.021      16.566      15.068      13.572    
  12.115      10.727      9.4325      8.2469      7.1791      6.2314      5.4015      4.6830      4.0673      3.5447    
  3.1054      2.7401      2.4406      2.1997      2.0112      1.8702      1.7724      1.7150      1.6961      1.7150    
  1.7724      1.8702      2.0112      2.1997      2.4406      2.7401      3.1054      3.5447      4.0674      4.6830    
  5.4015      6.2314      7.1790      8.2470      9.4325      10.727      12.115      13.572      15.069      16.566    
  18.021      19.382      20.597      21.611      22.377      22.853      23.015      22.853      22.008      21.138    
  20.047      18.785      17.404      15.957      14.487      13.033      11.627      10.296      9.0588      7.9292    
  6.9146      6.0167      5.2326      4.5558      3.9777      3.4887      3.0791      2.7401      2.4638      2.2436    
  2.0740      1.9506      1.8702      1.8305      1.8305      1.8702      1.9506      2.0740      2.2436      2.4638    
  2.7401      3.0791      3.4887      3.9777      4.5558      5.2326      6.0167      6.9146      7.9292      9.0587    
  10.296      11.627      13.033      14.487      15.956      17.404      18.785      20.047      21.138      22.007    
  22.613      22.923      22.923      22.613      21.494      20.563      19.440      18.169      16.799      15.382    
  13.958      12.559      11.213      9.9421      8.7631      7.6883      6.7245      5.8731      5.1311      4.4922    
  3.9478      3.4887      3.1054      2.7895      2.5338      2.3323      2.1802      2.0740      2.0112      1.9905    
  2.0112      2.0740      2.1802      2.3323      2.5338      2.7895      3.1054      3.4887      3.9479      4.4922    
  5.1311      5.8731      6.7244      7.6883      8.7630      9.9421      11.213      12.559      13.958      15.382    
  16.799      18.168      19.440      20.563      21.494      22.191      22.623      22.769      22.623      22.191    
  20.812      19.874      18.770      17.537      16.217      14.855      13.493      12.160      10.879      9.6695    
  8.5481      7.5258      6.6096      5.8009      5.0972      4.4922      3.9778      3.5447      3.1845      2.8889    
  2.6516      2.4674      2.3323      2.2436      2.1997      2.1997      2.2436      2.3322      2.4674      2.6516    
  2.8889      3.1844      3.5447      3.9777      4.4922      5.0972      5.8010      6.6096      7.5259      8.5480    
  9.6695      10.879      12.160      13.492      14.855      16.217      17.537      18.770      19.874      20.812    
  21.550      22.060      22.321      22.321      22.060      21.550      19.968      19.085      18.057      16.910    
  15.675      14.392      13.105      11.844      10.631      9.4835      8.4171      7.4439      6.5712      5.8010    
  5.1311      4.5558      4.0673      3.6571      3.3169      3.0395      2.8192      2.6516      2.5338      2.4638    
  2.4406      2.4638      2.5338      2.6516      2.8192      3.0395      3.3169      3.6571      4.0674      4.5558    
  5.1311      5.8010      6.5711      7.4439      8.4171      9.4835      10.631      11.844      13.105      14.392    
  15.675      16.910      18.057      19.085      19.968      20.683      21.211      21.534      21.644      21.534    
  21.211      20.683      19.002      18.239      17.341      16.320      15.200      14.015      12.811      11.626    
  10.479      9.3890      8.3731      7.4439      6.6096      5.8731      5.2326      4.6830      4.2170      3.8266    
  3.5042      3.2435      3.0395      2.8889      2.7895      2.7401      2.7401      2.7895      2.8889      3.0395    
  3.2435      3.5042      3.8266      4.2170      4.6830      5.2326      5.8731      6.6096      7.4439      8.3731    
  9.3890      10.479      11.626      12.811      14.015      15.200      16.320      17.341      18.239      19.002    
  19.621      20.092      20.409      20.568      20.569      20.409      20.092      19.621      17.988      17.405    
  16.680      15.815      14.826      13.747      12.628      11.513      10.427      9.3890      8.4171      7.5259    
  6.7245      6.0167      5.4014      4.8741      4.4276      4.0548      3.7488      3.5042      3.3169      3.1845    
  3.1054      3.0791      3.1054      3.1845      3.3169      3.5042      3.7488      4.0548      4.4276      4.8741    
  5.4015      6.0167      6.7244      7.5259      8.4171      9.3890      10.427      11.513      12.628      13.747    
  14.826      15.815      16.680      17.405      17.988      18.438      18.770      18.996      19.127      19.170    
  19.127      18.996      18.770      18.438      17.027      16.667      16.142      15.443      14.586      13.607    
  12.565      11.513      10.479      9.4835      8.5480      7.6883      6.9146      6.2314      5.6380      5.1301    
  4.7013      4.3448      4.0548      3.8266      3.6571      3.5447      3.4887      3.4887      3.5447      3.6571    
  3.8266      4.0548      4.3448      4.7012      5.1300      5.6380      6.2314      6.9146      7.6883      8.5480    
  9.4835      10.479      11.513      12.565      13.607      14.586      15.443      16.142      16.667      17.027    
  17.245      17.359      17.404      17.414      17.413      17.413      17.414      17.404      17.359      17.245    
  16.232      16.114      15.789      15.245      14.503      13.607      12.628      11.626      10.631      9.6695    
  8.7630      7.9293      7.1790      6.5173      5.9435      5.4536      5.0415      4.7013      4.4276      4.2170    
  4.0673      3.9778      3.9478      3.9777      4.0673      4.2170      4.4276      4.7013      5.0415      5.4536    
  5.9435      6.5173      7.1790      7.9292      8.7630      9.6695      10.631      11.626      12.628      13.607    
  14.503      15.245      15.789      16.114      16.232      16.179      16.010      15.791      15.583      15.436    
  15.383      15.436      15.583      15.791      16.010      16.178      15.706      15.817      15.666      15.245    
  14.586      13.747      12.811      11.844      10.879      9.9421      9.0587      8.2470      7.5178      6.8762    
  6.3212      5.8489      5.4536      5.1301      4.8741      4.6830      4.5558      4.4922      4.4922      4.5558    
  4.6830      4.8740      5.1300      5.4536      5.8488      6.3212      6.8762      7.5178      8.2470      9.0587    
  9.9421      10.879      11.844      12.811      13.747      14.586      15.245      15.666      15.817      15.706    
  15.373      14.890      14.345      13.833      13.437      13.223      13.223      13.437      13.833      14.345    
  14.890      15.373      15.522      15.817      15.789      15.443      14.826      14.015      13.105      12.160    
  11.213      10.296      9.4325      8.6413      7.9329      7.3113      6.7754      6.3212      5.9435      5.6380    
  5.4014      5.2326      5.1311      5.0972      5.1311      5.2326      5.4015      5.6380      5.9435      6.3212    
  6.7754      7.3113      7.9328      8.6413      9.4325      10.296      11.213      12.160      13.105      14.015    
  14.826      15.443      15.789      15.817      15.522      14.939      14.147      13.252      12.379      11.650    
  11.166      10.997      11.166      11.650      12.379      13.252      14.147      14.939      15.706      16.114    
  16.142      15.815      15.200      14.392      13.492      12.559      11.627      10.727      9.8834      9.1137    
  8.4272      7.8270      7.3113      6.8762      6.5173      6.2314      6.0167      5.8731      5.8010      5.8009    
  5.8731      6.0167      6.2314      6.5173      6.8762      7.3112      7.8269      8.4272      9.1137      9.8834    
  10.727      11.627      12.559      13.492      14.392      15.200      15.815      16.142      16.114      15.706    