unknown system                          
   1.00000000000000     
     3.348777    0.000000    1.933417
     1.116259    3.157259    1.933417
     0.000000    0.000000    3.866835
   Si
     2
Direct
  0.875000  0.875000  0.875000
  0.125000  0.125000  0.125000
 
   56   56   56
 0.22960436971E+02 0.22925703722E+02 0.22820394384E+02 0.22639700062E+02 0.22376745046E+02
 0.22007407591E+02 0.21493712386E+02 0.20812008199E+02 0.19968394895E+02 0.19002174616E+02
 0.17987675228E+02 0.17026478837E+02 0.16231515944E+02 0.15705782530E+02 0.15521921826E+02
 0.15705816906E+02 0.16231598843E+02 0.17026594208E+02 0.17987714209E+02 0.19002126418E+02
 0.19968433842E+02 0.20812114254E+02 0.21493562950E+02 0.22007528410E+02 0.22376726119E+02
 0.22639700772E+02 0.22820427867E+02 0.22925653025E+02 0.22960470818E+02 0.22925653025E+02
 0.22820427867E+02 0.22639700772E+02 0.22376726119E+02 0.22007528410E+02 0.21493562950E+02
 0.20812114254E+02 0.19968433842E+02 0.19002126418E+02 0.17987714209E+02 0.17026594208E+02
 0.16231598843E+02 0.15705816906E+02 0.15521921826E+02 0.15705782530E+02 0.16231515944E+02
 0.17026478837E+02 0.17987675228E+02 0.19002174616E+02 0.19968394895E+02 0.20812008199E+02
 0.21493712386E+02 0.22007407591E+02 0.22376745046E+02 0.22639700062E+02 0.22820394384E+02
 0.22925703722E+02 0.22925703722E+02 0.22985781978E+02 0.22965598926E+02 0.22853020640E+02
 0.22612568176E+02 0.22190744811E+02 0.21550158391E+02 0.20683476944E+02 0.19621399974E+02
 0.18438001412E+02 0.17245428146E+02 0.16178573864E+02 0.15373110917E+02 0.14939419151E+02
 0.14939348083E+02 0.15373016080E+02 0.16178462675E+02 0.17245394387E+02 0.18438053445E+02
 0.19621345832E+02 0.20683391942E+02 0.21550303508E+02 0.22190670328E+02 0.22612586035E+02
 0.22853062935E+02 0.22965556558E+02 0.22985854325E+02 0.22925661971E+02 0.22793924363E+02
 0.22595363168E+02 0.22332947657E+02 0.22005685092E+02 0.21611350701E+02 0.21138450836E+02
 0.20563211713E+02 0.19874173520E+02 0.19085372018E+02 0.18239217283E+02 0.17404561733E+02
 0.16666922905E+02 0.16113902269E+02 0.15817123518E+02 0.15817122111E+02 0.16113877819E+02
 0.16667003876E+02 0.17404669937E+02 0.18239296519E+02 0.19085252383E+02 0.19874197156E+02
 0.20563277238E+02 0.21138306886E+02 0.21611439406E+02 0.22005645193E+02 0.22332938641E+02
 0.22595393003E+02 0.22793864768E+02 0.22820394384E+02 0.22965598926E+02 0.23014743160E+02
 0.22923154873E+02 0.22622753045E+02 0.22060082992E+02 0.21210852027E+02 0.20091772276E+02
 0.18769529403E+02 0.17358791617E+02 0.16010429337E+02 0.14889818089E+02 0.14146945416E+02
 0.13886804693E+02 0.14147009139E+02 0.14889860674E+02 0.16010408326E+02 0.17358777514E+02
 0.18769573539E+02 0.20091823367E+02 0.21210724369E+02 0.22060184787E+02 0.22622717063E+02
 0.22923170694E+02 0.23014771771E+02 0.22965571869E+02 0.22820406643E+02 0.22595372337E+02
 0.22303064965E+02 0.21952117123E+02 0.21548981755E+02 0.21096719514E+02 0.20596626832E+02
 0.20047396524E+02 0.19439630073E+02 0.18770047648E+02 0.18057104201E+02 0.17340740710E+02
 0.16679880632E+02 0.16141582336E+02 0.15788778656E+02 0.15665760735E+02 0.15788844184E+02
 0.16141604572E+02 0.16679830000E+02 0.17340613957E+02 0.18057030704E+02 0.18770208522E+02
 0.19439535625E+02 0.20047335623E+02 0.20596752395E+02 0.21096589628E+02 0.21549057758E+02
 0.21952082678E+02 0.22303081632E+02 0.22595393003E+02 0.22639700062E+02 0.22853020637E+02
 0.22923154860E+02 0.22769154876E+02 0.22320705162E+02 0.21534471883E+02 0.20408771420E+02
 0.18995784922E+02 0.17403963355E+02 0.15791223385E+02 0.14345119600E+02 0.13252333882E+02
 0.12663726876E+02 0.12663783623E+02 0.13252322127E+02 0.14345177711E+02 0.15791195544E+02
 0.17403970050E+02 0.18995785816E+02 0.20408850486E+02 0.21534346501E+02 0.22320765847E+02
 0.22769123923E+02 0.22923166684E+02 0.22853050276E+02 0.22639704567E+02 0.22332960281E+02
 0.21952091334E+02 0.21513324600E+02 0.21028757990E+02 0.20508152988E+02 0.19957788195E+02
 0.19381980556E+02 0.18784538087E+02 0.18168500162E+02 0.17537434192E+02 0.16909712202E+02
 0.16320056214E+02 0.15814806120E+02 0.15442843774E+02 0.15245203616E+02 0.15245174158E+02
 0.15442793046E+02 0.15814790223E+02 0.16320157010E+02 0.16909863509E+02 0.17537396184E+02
 0.18168299171E+02 0.18784727096E+02 0.19381894469E+02 0.19957761585E+02 0.20508220614E+02
 0.21028720359E+02 0.21513357108E+02 0.21952082678E+02 0.22332938640E+02 0.22376745043E+02
 0.22612568143E+02 0.22622752980E+02 0.22320705104E+02 0.21643589301E+02 0.20568503282E+02
 0.19127304630E+02 0.17414039518E+02 0.15582789313E+02 0.13832786960E+02 0.12379172862E+02
 0.11416194274E+02 0.11078988787E+02 0.11416196709E+02 0.12379242252E+02 0.13832816674E+02
 0.15582762040E+02 0.17414006241E+02 0.19127289048E+02 0.20568571039E+02 0.21643528631E+02
 0.22320763648E+02 0.22622717843E+02 0.22612575996E+02 0.22376744856E+02 0.22005635672E+02
 0.21549047975E+02 0.21028727811E+02 0.20464185795E+02 0.19870493986E+02 0.19260071336E+02
 0.18641361085E+02 0.18020833487E+02 0.17404004355E+02 0.16799174865E+02 0.16217306423E+02
 0.15675299299E+02 0.15200297692E+02 0.14826125426E+02 0.14585596586E+02 0.14502542565E+02
 0.14585630964E+02 0.14826197325E+02 0.15200257125E+02 0.15675162430E+02 0.16217195087E+02
 0.16799350190E+02 0.17404013041E+02 0.18020695713E+02 0.18641468909E+02 0.19260054045E+02
 0.19870479825E+02 0.20464217382E+02 0.21028720359E+02 0.21549057758E+02 0.22005645193E+02
 0.22007407550E+02 0.22190744698E+02 0.22060082828E+02 0.21534471721E+02 0.20568503182E+02
 0.19170462496E+02 0.17412837948E+02 0.15435751178E+02 0.13437445540E+02 0.11649677497E+02
 0.10300986653E+02 0.95752527250E+01 0.95752123397E+01 0.10300904352E+02 0.11649627309E+02
 0.13437471774E+02 0.15435745474E+02 0.17412773028E+02 0.19170452907E+02 0.20568496016E+02
 0.21534395053E+02 0.22060133725E+02 0.22190721867E+02 0.22007441923E+02 0.21611447768E+02
 0.21096612148E+02 0.20508208628E+02 0.19870489130E+02 0.19205510697E+02 0.18530694350E+02
 0.17859927511E+02 0.17202783493E+02 0.16566313395E+02 0.15956622703E+02 0.15381923649E+02
 0.14854706344E+02 0.14392287229E+02 0.14015470893E+02 0.13747171627E+02 0.13607178264E+02
 0.13607181341E+02 0.13747112722E+02 0.14015463017E+02 0.14392374574E+02 0.14854877292E+02
 0.15381866983E+02 0.15956498050E+02 0.16566368290E+02 0.17202841049E+02 0.17859853056E+02
 0.18530731122E+02 0.19205526836E+02 0.19870479824E+02 0.20508220614E+02 0.21096589627E+02
 0.21611439405E+02 0.21493712253E+02 0.21550158155E+02 0.21210851730E+02 0.20408771134E+02
 0.19127304418E+02 0.17412837847E+02 0.15382968681E+02 0.13222804091E+02 0.11166338432E+02
 0.94630974637E+01 0.83368532325E+01 0.79429005973E+01 0.83368559402E+01 0.94630614346E+01
 0.11166338488E+02 0.13222852002E+02 0.15383008435E+02 0.17412784913E+02 0.19127341847E+02
 0.20408779941E+02 0.21210801462E+02 0.21550208917E+02 0.21493648312E+02 0.21138342397E+02
 0.20596713692E+02 0.19957795350E+02 0.19260024915E+02 0.18530750281E+02 0.17793199188E+02
 0.17066435366E+02 0.16364202503E+02 0.15696162661E+02 0.15068454780E+02 0.14486724392E+02
 0.13957881733E+02 0.13492530887E+02 0.13104736923E+02 0.12811274072E+02 0.12627544714E+02
 0.12565002482E+02 0.12627579759E+02 0.12811300474E+02 0.13104715762E+02 0.13492375436E+02
 0.13957822170E+02 0.14486817203E+02 0.15068514118E+02 0.15696105203E+02 0.16364191990E+02
 0.17066488231E+02 0.17793185889E+02 0.18530731122E+02 0.19260054046E+02 0.19957761584E+02
 0.20596752396E+02 0.21138306853E+02 0.20812007934E+02 0.20683476559E+02 0.20091771842E+02
 0.18995784524E+02 0.17414039224E+02 0.15435751018E+02 0.13222804044E+02 0.10997236382E+02
 0.90139408134E+01 0.75221646422E+01 0.67209801940E+01 0.67209538427E+01 0.75222031954E+01
 0.90139676117E+01 0.10997200818E+02 0.13222870435E+02 0.15435798785E+02 0.17413973325E+02
 0.18995843828E+02 0.20091731372E+02 0.20683453944E+02 0.20812050498E+02 0.20563260045E+02
 0.20047383667E+02 0.19381868238E+02 0.18641504919E+02 0.17859836748E+02 0.17066476690E+02
 0.16284928107E+02 0.15534235813E+02 0.14826944437E+02 0.14171314030E+02 0.13571884313E+02
 0.13032802776E+02 0.12559261150E+02 0.12159559918E+02 0.11844405361E+02 0.11625557377E+02
 0.11513159821E+02 0.11513139598E+02 0.11625531640E+02 0.11844410514E+02 0.12159638561E+02
 0.12559373974E+02 0.13032791507E+02 0.13571818194E+02 0.14171286282E+02 0.14827005245E+02
 0.15534237316E+02 0.16284900445E+02 0.17066488231E+02 0.17859853056E+02 0.18641468909E+02
 0.19381894470E+02 0.20047335607E+02 0.20563277119E+02 0.19968394484E+02 0.19621399452E+02
 0.18769528866E+02 0.17403962899E+02 0.15582789008E+02 0.13437445404E+02 0.11166338432E+02
 0.90139408696E+01 0.72380634517E+01 0.60667687552E+01 0.56576655320E+01 0.60668108111E+01
 0.72381198955E+01 0.90139300134E+01 0.11166370069E+02 0.13437484442E+02 0.15582840410E+02
 0.17403930842E+02 0.18769617008E+02 0.19621353998E+02 0.19968403947E+02 0.19874191674E+02
 0.19439511115E+02 0.18784753669E+02 0.18020682858E+02 0.17202862541E+02 0.16364212530E+02
 0.15534213295E+02 0.14736040650E+02 0.13986653816E+02 0.13296689227E+02 0.12671734437E+02
 0.12114534587E+02 0.11627156738E+02 0.11213271625E+02 0.10878659715E+02 0.10631127352E+02
 0.10478565577E+02 0.10427014679E+02 0.10478583337E+02 0.10631128922E+02 0.10878603998E+02
 0.11213203662E+02 0.11627089246E+02 0.12114557080E+02 0.12671789620E+02 0.13296703532E+02
 0.13986608941E+02 0.14736048189E+02 0.15534237317E+02 0.16364191990E+02 0.17202841050E+02
 0.18020695713E+02 0.18784727094E+02 0.19439535546E+02 0.19874196912E+02 0.19002174076E+02
 0.18438000801E+02 0.17358791050E+02 0.15791222964E+02 0.13832786747E+02 0.11649677496E+02
 0.94630976287E+01 0.75221648791E+01 0.60667689416E+01 0.52866949943E+01 0.52867201688E+01
 0.60668666539E+01 0.75221761096E+01 0.94631139119E+01 0.11649617390E+02 0.13832833791E+02
 0.15791176616E+02 0.17358792564E+02 0.18438054749E+02 0.19002148593E+02 0.19085285803E+02
 0.18770210376E+02 0.18168315324E+02 0.17404020880E+02 0.16566380329E+02 0.15696086051E+02
 0.14827037033E+02 0.13986620964E+02 0.13196266847E+02 0.12469598136E+02 0.11814385804E+02
 0.11233294732E+02 0.10727016150E+02 0.10295906962E+02 0.99420846138E+01 0.96695009058E+01
 0.94835069622E+01 0.93889834225E+01 0.93889798425E+01 0.94834982567E+01 0.96695313191E+01
 0.99421291514E+01 0.10295949111E+02 0.10727065833E+02 0.11233267864E+02 0.11814343107E+02
 0.12469596070E+02 0.13196300125E+02 0.13986608941E+02 0.14827005245E+02 0.15696105204E+02
 0.16566368289E+02 0.17404013043E+02 0.18168299138E+02 0.18770208341E+02 0.19085252005E+02
 0.17987674615E+02 0.17245427529E+02 0.16010428842E+02 0.14345119329E+02 0.12379172862E+02
 0.10300986915E+02 0.83368536899E+01 0.67209807399E+01 0.56576660328E+01 0.52867204858E+01
 0.56576648885E+01 0.67210131868E+01 0.83368521393E+01 0.10300942210E+02 0.12379220624E+02
 0.14345146351E+02 0.16010377149E+02 0.17245464544E+02 0.17987653005E+02 0.18239290168E+02
 0.18057021369E+02 0.17537394318E+02 0.16799349036E+02 0.15956492786E+02 0.15068544963E+02
 0.14171266004E+02 0.13296704621E+02 0.12469624939E+02 0.11707509900E+02 0.11020395486E+02
 0.10412309070E+02 0.98834776163E+01 0.94325321972E+01 0.90587853849E+01 0.87630608959E+01
 0.85480663294E+01 0.84170749255E+01 0.83730863271E+01 0.84170675100E+01 0.85480433745E+01
 0.87630259423E+01 0.90587496439E+01 0.94324912439E+01 0.98834436355E+01 0.10412333806E+02
 0.11020433784E+02 0.11707499316E+02 0.12469596069E+02 0.13296703533E+02 0.14171286282E+02
 0.15068514119E+02 0.15956498050E+02 0.16799350187E+02 0.17537396087E+02 0.18057030412E+02
 0.18239296032E+02 0.17026478236E+02 0.16178573346E+02 0.14889817784E+02 0.13252333882E+02
 0.11416194611E+02 0.95752533690E+01 0.79429014646E+01 0.67209548127E+01 0.60668117413E+01
 0.60668673981E+01 0.67210136107E+01 0.79429074577E+01 0.95752189239E+01 0.11416134461E+02
 0.13252322997E+02 0.14889799206E+02 0.16178534361E+02 0.17026528829E+02 0.17404643792E+02
 0.17340645451E+02 0.16909829691E+02 0.16217203224E+02 0.15381860709E+02 0.14486797767E+02
 0.13571838636E+02 0.12671806010E+02 0.11814323676E+02 0.11020429403E+02 0.10302566528E+02
 0.96668177337E+01 0.91136844585E+01 0.86412952462E+01 0.82469369073E+01 0.79292241396E+01
 0.76882964870E+01 0.75258481525E+01 0.74439428217E+01 0.74439430429E+01 0.75258771549E+01
 0.76883075102E+01 0.79292508429E+01 0.82469655236E+01 0.86413274289E+01 0.91137114156E+01
 0.96667904308E+01 0.10302533338E+02 0.11020433784E+02 0.11814343107E+02 0.12671789620E+02
 0.13571818194E+02 0.14486817202E+02 0.15381866985E+02 0.16217195059E+02 0.16909863333E+02
 0.17340613577E+02 0.17404669393E+02 0.16231515454E+02 0.15373110607E+02 0.14146945417E+02
 0.12663727260E+02 0.11078989569E+02 0.95752134668E+01 0.83368573126E+01 0.75222046759E+01
 0.72381213337E+01 0.75221773530E+01 0.83368530544E+01 0.95752194066E+01 0.11078944348E+02
 0.12663704567E+02 0.14147021101E+02 0.15373037129E+02 0.16231538256E+02 0.16666976655E+02
 0.16679803087E+02 0.16320156674E+02 0.15675145076E+02 0.14854881845E+02 0.13957831841E+02
 0.13032786531E+02 0.12114537012E+02 0.11233296851E+02 0.10412340886E+02 0.96667720100E+01
 0.90045249790E+01 0.84271779151E+01 0.79328741313E+01 0.75178400988E+01 0.71790605399E+01
 0.69145753816E+01 0.67244873799E+01 0.66095739229E+01 0.65711556204E+01 0.66095515181E+01
 0.67244664982E+01 0.69145621142E+01 0.71790360966E+01 0.75178117386E+01 0.79328515362E+01
 0.84271515710E+01 0.90045558680E+01 0.96667904312E+01 0.10412333805E+02 0.11233267864E+02
 0.12114557080E+02 0.13032791508E+02 0.13957822169E+02 0.14854877293E+02 0.15675162362E+02
 0.16320156768E+02 0.16679829580E+02 0.16667003353E+02 0.15705782245E+02 0.14939419151E+02
 0.13886805093E+02 0.12663784478E+02 0.11416198009E+02 0.10300906024E+02 0.94630633613E+01
 0.90139696440E+01 0.90139319897E+01 0.94631156741E+01 0.10300943621E+02 0.11416135423E+02
 0.12663705037E+02 0.13886827337E+02 0.14939332178E+02 0.15705811755E+02 0.16113890326E+02
 0.16141628499E+02 0.15814800335E+02 0.15200251127E+02 0.14392376589E+02 0.13492342354E+02
 0.12559383161E+02 0.11627099548E+02 0.10727049653E+02 0.98834325543E+01 0.91137324965E+01
 0.84271811147E+01 0.78269466203E+01 0.73112356368E+01 0.68761741524E+01 0.65173045231E+01
 0.62313930845E+01 0.60167045305E+01 0.58730509007E+01 0.58009495778E+01 0.58009649126E+01
 0.58730665966E+01 0.60167225774E+01 0.62314077764E+01 0.65173292593E+01 0.68761998639E+01
 0.73112572000E+01 0.78269664930E+01 0.84271515707E+01 0.91137114157E+01 0.98834436356E+01
 0.10727065833E+02 0.11627089245E+02 0.12559373974E+02 0.13492375436E+02 0.14392374567E+02
 0.15200257019E+02 0.15814789952E+02 0.16141604173E+02 0.16113877401E+02 0.15521921826E+02
 0.14939348463E+02 0.14147009996E+02 0.13252323494E+02 0.12379244096E+02 0.11649629537E+02
 0.11166340964E+02 0.10997203379E+02 0.11166372545E+02 0.11649619618E+02 0.12379222468E+02
 0.13252324365E+02 0.14147021957E+02 0.14939332558E+02 0.15521903530E+02 0.15817103724E+02
 0.15788810918E+02 0.15442789857E+02 0.14826176805E+02 0.14015458233E+02 0.13104732967E+02
 0.12159634920E+02 0.11213182745E+02 0.10295962399E+02 0.94325004954E+01 0.86413114367E+01
 0.79328221341E+01 0.73112739096E+01 0.67753718338E+01 0.63212009408E+01 0.59435249473E+01
 0.56380003689E+01 0.54014642319E+01 0.52326118367E+01 0.51310750211E+01 0.50972207182E+01
 0.51310676834E+01 0.52326027048E+01 0.54014487657E+01 0.56379914309E+01 0.59435034947E+01
 0.63211807583E+01 0.67753535269E+01 0.73112572003E+01 0.79328515362E+01 0.86413274292E+01
 0.94324912437E+01 0.10295949112E+02 0.11213203663E+02 0.12159638561E+02 0.13104715764E+02
 0.14015462999E+02 0.14826197199E+02 0.15442792791E+02 0.15788843872E+02 0.15817121876E+02
 0.15705817235E+02 0.15373016867E+02 0.14889861995E+02 0.14345179576E+02 0.13832819025E+02
 0.13437474499E+02 0.13222854949E+02 0.13222873429E+02 0.13437487304E+02 0.13832836356E+02
 0.14345148486E+02 0.14889800831E+02 0.15373038225E+02 0.15705812368E+02 0.15817103959E+02
 0.15665824794E+02 0.15245156941E+02 0.14585664480E+02 0.13747105527E+02 0.12811298704E+02
 0.11844398289E+02 0.10878625472E+02 0.99421085170E+01 0.90587438178E+01 0.82469678097E+01
 0.75178474691E+01 0.68761780599E+01 0.63211719254E+01 0.58488490179E+01 0.54535817359E+01
 0.51300490347E+01 0.48740399731E+01 0.46830173313E+01 0.45558218983E+01 0.44921926583E+01
 0.44921944368E+01 0.45558231842E+01 0.46830379168E+01 0.48740517408E+01 0.51300683909E+01
 0.54535972566E+01 0.58488749134E+01 0.63211807583E+01 0.68761998637E+01 0.75178117386E+01
 0.82469655234E+01 0.90587496444E+01 0.99421291513E+01 0.10878603998E+02 0.11844410514E+02
 0.12811300476E+02 0.13747112695E+02 0.14585630844E+02 0.15245173964E+02 0.15665760564E+02
 0.15817123519E+02 0.16231599498E+02 0.16178463842E+02 0.16010410057E+02 0.15791197825E+02
 0.15582764792E+02 0.15435748564E+02 0.15383011698E+02 0.15435802035E+02 0.15582843466E+02
 0.15791179317E+02 0.16010379376E+02 0.16178536048E+02 0.16231539402E+02 0.16113890999E+02
 0.15788811230E+02 0.15245157033E+02 0.14502575257E+02 0.13607147526E+02 0.12627622885E+02
 0.11625519173E+02 0.10631133208E+02 0.96695335396E+01 0.87630429989E+01 0.79292338149E+01
 0.71790113078E+01 0.65173351900E+01 0.59435229486E+01 0.54536106938E+01 0.50415020722E+01
 0.47012610307E+01 0.44275853827E+01 0.42170235869E+01 0.40673277972E+01 0.39777426477E+01
 0.39478380652E+01 0.39777509078E+01 0.40673229226E+01 0.42170178081E+01 0.44275692657E+01
 0.47012542196E+01 0.50414772719E+01 0.54535972565E+01 0.59435034949E+01 0.65173292594E+01
 0.71790360970E+01 0.79292508430E+01 0.87630259423E+01 0.96695313189E+01 0.10631128923E+02
 0.11625531639E+02 0.12627579760E+02 0.13607181314E+02 0.14502542476E+02 0.15245203513E+02
 0.15788778656E+02 0.16113902524E+02 0.17026595137E+02 0.17245395851E+02 0.17358779540E+02
 0.17403972599E+02 0.17414009214E+02 0.17412776279E+02 0.17412788265E+02 0.17413976592E+02
 0.17403933846E+02 0.17358795157E+02 0.17245466624E+02 0.17026530359E+02 0.16666977662E+02
 0.16141629066E+02 0.15442790112E+02 0.14585664556E+02 0.13607147534E+02 0.12565033470E+02
 0.11513120647E+02 0.10478625452E+02 0.94834741897E+01 0.85480421620E+01 0.76883031061E+01
 0.69145987904E+01 0.62313884230E+01 0.56379862368E+01 0.51300475646E+01 0.47012426520E+01
 0.43448246123E+01 0.40548007873E+01 0.38265716706E+01 0.36571189463E+01 0.35447389004E+01
 0.34886859518E+01 0.34886799596E+01 0.35447411221E+01 0.36571187305E+01 0.38265877974E+01
 0.40548085337E+01 0.43448395156E+01 0.47012542197E+01 0.51300683909E+01 0.56379914309E+01
 0.62314077763E+01 0.69145621142E+01 0.76883075101E+01 0.85480433750E+01 0.94834982567E+01
 0.10478583337E+02 0.11513139598E+02 0.12565002483E+02 0.13607178246E+02 0.14585596541E+02
 0.15442843775E+02 0.16141582505E+02 0.16666923388E+02 0.17987715312E+02 0.18438055069E+02
 0.18769575687E+02 0.18995788430E+02 0.19127292013E+02 0.19170456068E+02 0.19127345024E+02
 0.18995846840E+02 0.18769619692E+02 0.18438056984E+02 0.17987654721E+02 0.17404644982E+02
 0.16679803808E+02 0.15814800694E+02 0.14826176931E+02 0.13747105546E+02 0.12627622884E+02
 0.11513120647E+02 0.10427037109E+02 0.93889616812E+01 0.84171074621E+01 0.75258596564E+01
 0.67244496077E+01 0.60167171022E+01 0.54014715409E+01 0.48740559021E+01 0.44275983443E+01
 0.40548125893E+01 0.37488186202E+01 0.35041983799E+01 0.33168872717E+01 0.31844514461E+01
 0.31053790895E+01 0.30791186389E+01 0.31053778531E+01 0.31844595575E+01 0.33168801624E+01
 0.35041938195E+01 0.37487978970E+01 0.40548085337E+01 0.44275692657E+01 0.48740517408E+01
 0.54014487660E+01 0.60167225775E+01 0.67244664985E+01 0.75258771550E+01 0.84170675100E+01
 0.93889798425E+01 0.10427014680E+02 0.11513159821E+02 0.12627544714E+02 0.13747171620E+02
 0.14826125426E+02 0.15814806209E+02 0.16679880933E+02 0.17404562380E+02 0.19002127559E+02
 0.19621347444E+02 0.20091825433E+02 0.20408852931E+02 0.20568573740E+02 0.20568498817E+02
 0.20408782672E+02 0.20091733872E+02 0.19621356133E+02 0.19002150274E+02 0.18239291365E+02
 0.17340646198E+02 0.16320157057E+02 0.15200251262E+02 0.14015458252E+02 0.12811298703E+02
 0.11625519173E+02 0.10478625452E+02 0.93889616813E+01 0.83730982415E+01 0.74439239958E+01
 0.66095894337E+01 0.58730508424E+01 0.52325983835E+01 0.46830197820E+01 0.42170062027E+01
 0.38265757039E+01 0.35041878395E+01 0.32434656145E+01 0.30395214282E+01 0.28889291762E+01
 0.27895284669E+01 0.27400892830E+01 0.27400940340E+01 0.27895243453E+01 0.28889276323E+01
 0.30395189703E+01 0.32434761055E+01 0.35041938196E+01 0.38265877975E+01 0.42170178082E+01
 0.46830379168E+01 0.52326027048E+01 0.58730665967E+01 0.66095515182E+01 0.74439430430E+01
 0.83730863276E+01 0.93889834226E+01 0.10478565577E+02 0.11625557377E+02 0.12811274073E+02
 0.14015470893E+02 0.15200297722E+02 0.16320056356E+02 0.17340741078E+02 0.18239217993E+02
 0.19968434874E+02 0.20683393364E+02 0.21210726148E+02 0.21534348554E+02 0.21643530838E+02
 0.21534397269E+02 0.21210803538E+02 0.20683455750E+02 0.19968405390E+02 0.19085286841E+02
 0.18057022017E+02 0.16909830012E+02 0.15675145178E+02 0.14392376598E+02 0.13104732966E+02
 0.11844398290E+02 0.10631133208E+02 0.94834741898E+01 0.84171074620E+01 0.74439239958E+01
 0.65711468871E+01 0.58009571011E+01 0.51310885252E+01 0.45558216171E+01 0.40673502486E+01
 0.36571193831E+01 0.33169001239E+01 0.30395222113E+01 0.28192033186E+01 0.26516374178E+01
 0.25338044489E+01 0.24638071560E+01 0.24405767936E+01 0.24638073377E+01 0.25338008011E+01
 0.26516440715E+01 0.28191949881E+01 0.30395189703E+01 0.33168801624E+01 0.36571187305E+01
 0.40673229227E+01 0.45558231843E+01 0.51310676838E+01 0.58009649127E+01 0.65711556207E+01
 0.74439428219E+01 0.84170749255E+01 0.94835069623E+01 0.10631127352E+02 0.11844405361E+02
 0.13104736923E+02 0.14392287230E+02 0.15675299333E+02 0.16909712347E+02 0.18057104557E+02
 0.19085372679E+02 0.20812115048E+02 0.21550304591E+02 0.22060186118E+02 0.22320767344E+02
 0.22320765202E+02 0.22060135218E+02 0.21550210235E+02 0.20812051558E+02 0.19874192429E+02
 0.18770210828E+02 0.17537394519E+02 0.16217203272E+02 0.14854881844E+02 0.13492342354E+02
 0.12159634920E+02 0.10878625471E+02 0.96695335397E+01 0.85480421619E+01 0.75258596564E+01
 0.66095894337E+01 0.58009571011E+01 0.50971913986E+01 0.44922023710E+01 0.39777171103E+01
 0.35447481409E+01 0.31844328799E+01 0.28889363665E+01 0.26516285193E+01 0.24673728356E+01
 0.23322478634E+01 0.22435976023E+01 0.21996625316E+01 0.21996760890E+01 0.22435824502E+01
 0.23322613704E+01 0.24673519874E+01 0.26516440715E+01 0.28889276324E+01 0.31844595576E+01
 0.35447411222E+01 0.39777509079E+01 0.44921944369E+01 0.50972207182E+01 0.58009495779E+01
 0.66095739229E+01 0.75258481526E+01 0.85480663299E+01 0.96695009059E+01 0.10878659715E+02
 0.12159559918E+02 0.13492530888E+02 0.14854706344E+02 0.16217306442E+02 0.17537434297E+02
 0.18770047919E+02 0.19874174030E+02 0.21493563437E+02 0.22190670995E+02 0.22622717871E+02
 0.22769124806E+02 0.22622718718E+02 0.22190722649E+02 0.21493648932E+02 0.20563260464E+02
 0.19439511337E+02 0.18168315400E+02 0.16799349042E+02 0.15381860706E+02 0.13957831842E+02
 0.12559383161E+02 0.11213182745E+02 0.99421085173E+01 0.87630429988E+01 0.76883031062E+01
 0.67244496077E+01 0.58730508424E+01 0.51310885252E+01 0.44922023710E+01 0.39478535626E+01
 0.34886858568E+01 0.31053877979E+01 0.27895290806E+01 0.25338020489E+01 0.23322571725E+01
 0.21801536768E+01 0.20739771342E+01 0.20112314461E+01 0.19904860612E+01 0.20112307691E+01
 0.20739755442E+01 0.21801516875E+01 0.23322613704E+01 0.25338008011E+01 0.27895243454E+01
 0.31053778531E+01 0.34886799597E+01 0.39478380652E+01 0.44921926584E+01 0.51310750213E+01
 0.58730509009E+01 0.67244873802E+01 0.76882964872E+01 0.87630608957E+01 0.99420846141E+01
 0.11213271625E+02 0.12559261150E+02 0.13957881733E+02 0.15381923649E+02 0.16799174867E+02
 0.18168500203E+02 0.19439630218E+02 0.20563212015E+02 0.22007528600E+02 0.22612586311E+02
 0.22923171028E+02 0.22923167029E+02 0.22612576305E+02 0.22007442154E+02 0.21138342532E+02
 0.20047383718E+02 0.18784753673E+02 0.17404020876E+02 0.15956492787E+02 0.14486797768E+02
 0.13032786530E+02 0.11627099548E+02 0.10295962399E+02 0.90587438176E+01 0.79292338150E+01
 0.69145987904E+01 0.60167171022E+01 0.52325983835E+01 0.45558216171E+01 0.39777171103E+01
 0.34886858568E+01 0.30791008780E+01 0.27400915853E+01 0.24637996973E+01 0.22435911779E+01
 0.20739703600E+01 0.19505980454E+01 0.18701795568E+01 0.18305314173E+01 0.18305265207E+01
 0.18701828917E+01 0.19505925574E+01 0.20739755442E+01 0.22435824502E+01 0.24638073378E+01
 0.27400940341E+01 0.30791186390E+01 0.34886859519E+01 0.39777426478E+01 0.45558218983E+01
 0.52326118366E+01 0.60167045307E+01 0.69145753815E+01 0.79292241398E+01 0.90587853854E+01
 0.10295906962E+02 0.11627156738E+02 0.13032802776E+02 0.14486724393E+02 0.15956622703E+02
 0.17404004355E+02 0.18784538089E+02 0.20047396556E+02 0.21138450937E+02 0.22376726137E+02
 0.22853062970E+02 0.23014771815E+02 0.22853050315E+02 0.22376744879E+02 0.21611447773E+02
 0.20596713687E+02 0.19381868235E+02 0.18020682860E+02 0.16566380331E+02 0.15068544962E+02
 0.13571838636E+02 0.12114537013E+02 0.10727049653E+02 0.94325004955E+01 0.82469678100E+01
 0.71790113078E+01 0.62313884231E+01 0.54014715409E+01 0.46830197820E+01 0.40673502486E+01
 0.35447481409E+01 0.31053877979E+01 0.27400915853E+01 0.24405755793E+01 0.21996692441E+01
 0.20112312599E+01 0.18701831042E+01 0.17724419398E+01 0.17150326383E+01 0.16960979438E+01
 0.17150320079E+01 0.17724411696E+01 0.18701828917E+01 0.20112307691E+01 0.21996760891E+01
 0.24405767936E+01 0.27400892830E+01 0.31053790895E+01 0.35447389005E+01 0.40673277973E+01
 0.46830173314E+01 0.54014642321E+01 0.62313930846E+01 0.71790605402E+01 0.82469369074E+01
 0.94325321970E+01 0.10727016150E+02 0.12114534588E+02 0.13571884313E+02 0.15068454780E+02
 0.16566313395E+02 0.18020833487E+02 0.19381980556E+02 0.20596626830E+02 0.21611350704E+02
 0.22639700771E+02 0.22965556556E+02 0.22965571866E+02 0.22639704564E+02 0.22005635672E+02
 0.21096612150E+02 0.19957795353E+02 0.18641504920E+02 0.17202862540E+02 0.15696086050E+02
 0.14171266005E+02 0.12671806011E+02 0.11233296851E+02 0.98834325546E+01 0.86413114367E+01
 0.75178474690E+01 0.65173351901E+01 0.56379862368E+01 0.48740559021E+01 0.42170062028E+01
 0.36571193832E+01 0.31844328799E+01 0.27895290806E+01 0.24637996973E+01 0.21996692441E+01
 0.19904790683E+01 0.18305302923E+01 0.17150281792E+01 0.16402279426E+01 0.16034953639E+01
 0.16034992999E+01 0.16402232045E+01 0.17150320079E+01 0.18305265208E+01 0.19904860612E+01
 0.21996625317E+01 0.24638071561E+01 0.27895284670E+01 0.31844514462E+01 0.36571189464E+01
 0.42170235870E+01 0.48740399732E+01 0.56380003689E+01 0.65173045233E+01 0.75178400987E+01
 0.86412952463E+01 0.98834776168E+01 0.11233294732E+02 0.12671734436E+02 0.14171314030E+02
 0.15696162662E+02 0.17202783494E+02 0.18641361086E+02 0.19957788195E+02 0.21096719515E+02
 0.22005685092E+02 0.22820427867E+02 0.22985854326E+02 0.22820406644E+02 0.22332960281E+02
 0.21549047975E+02 0.20508208627E+02 0.19260024914E+02 0.17859836748E+02 0.16364212531E+02
 0.14827037034E+02 0.13296704621E+02 0.11814323676E+02 0.10412340886E+02 0.91137324964E+01
 0.79328221343E+01 0.68761780601E+01 0.59435229486E+01 0.51300475647E+01 0.44275983443E+01
 0.38265757040E+01 0.33169001239E+01 0.28889363666E+01 0.25338020489E+01 0.22435911779E+01
 0.20112312599E+01 0.18305302923E+01 0.16960977729E+01 0.16034995249E+01 0.15493477555E+01
 0.15315433894E+01 0.15493474432E+01 0.16034992999E+01 0.16960979438E+01 0.18305314173E+01
 0.20112314461E+01 0.22435976023E+01 0.25338044489E+01 0.28889291763E+01 0.33168872717E+01
 0.38265716708E+01 0.44275853827E+01 0.51300490349E+01 0.59435249476E+01 0.68761741525E+01
 0.79328741317E+01 0.91136844586E+01 0.10412309070E+02 0.11814385804E+02 0.13296689227E+02
 0.14826944437E+02 0.16364202503E+02 0.17859927511E+02 0.19260071336E+02 0.20508152988E+02
 0.21548981754E+02 0.22332947656E+02 0.22925653026E+02 0.22925661971E+02 0.22595372337E+02
 0.21952091334E+02 0.21028727812E+02 0.19870489131E+02 0.18530750282E+02 0.17066476690E+02
 0.15534213294E+02 0.13986620963E+02 0.12469624939E+02 0.11020429403E+02 0.96667720097E+01
 0.84271811148E+01 0.73112739096E+01 0.63211719253E+01 0.54536106939E+01 0.47012426520E+01
 0.40548125894E+01 0.35041878395E+01 0.30395222113E+01 0.26516285193E+01 0.23322571725E+01
 0.20739703600E+01 0.18701831043E+01 0.17150281793E+01 0.16034995249E+01 0.15315393921E+01
 0.14963076350E+01 0.14963034196E+01 0.15315433894E+01 0.16034953639E+01 0.17150326383E+01
 0.18701795568E+01 0.20739771342E+01 0.23322478634E+01 0.26516374179E+01 0.30395214282E+01
 0.35041983800E+01 0.40548007874E+01 0.47012610308E+01 0.54535817359E+01 0.63212009408E+01
 0.73112356370E+01 0.84271779149E+01 0.96668177339E+01 0.11020395486E+02 0.12469598136E+02
 0.13986653816E+02 0.15534235813E+02 0.17066435367E+02 0.18530694351E+02 0.19870493986E+02
 0.21028757990E+02 0.21952117123E+02 0.22595363168E+02 0.22960470819E+02 0.22793924363E+02
 0.22303064965E+02 0.21513324600E+02 0.20464185794E+02 0.19205510696E+02 0.17793199187E+02
 0.16284928106E+02 0.14736040650E+02 0.13196266848E+02 0.11707509900E+02 0.10302566528E+02
 0.90045249794E+01 0.78269466203E+01 0.67753718340E+01 0.58488490181E+01 0.50415020723E+01
 0.43448246124E+01 0.37488186203E+01 0.32434656146E+01 0.28192033186E+01 0.24673728356E+01
 0.21801536768E+01 0.19505980454E+01 0.17724419398E+01 0.16402279426E+01 0.15493477555E+01
 0.14963076350E+01 0.14788750607E+01 0.14963076350E+01 0.15493477555E+01 0.16402279426E+01
 0.17724419398E+01 0.19505980454E+01 0.21801536768E+01 0.24673728356E+01 0.28192033186E+01
 0.32434656146E+01 0.37488186203E+01 0.43448246124E+01 0.50415020723E+01 0.58488490181E+01
 0.67753718340E+01 0.78269466203E+01 0.90045249794E+01 0.10302566528E+02 0.11707509900E+02
 0.13196266848E+02 0.14736040650E+02 0.16284928106E+02 0.17793199187E+02 0.19205510696E+02
 0.20464185794E+02 0.21513324600E+02 0.22303064965E+02 0.22793924363E+02 0.22925653026E+02
 0.22595363168E+02 0.21952117123E+02 0.21028757990E+02 0.19870493986E+02 0.18530694351E+02