   2   2   1   0
  0.2044194E+02  0.3866835E-09  0.3866836E-09  0.3866835E-09  0.5000000E-15
  1.000000000000000E-004
  CAR 
 unknown system                          
     16.52121526     -7.28058148  301      5.81288608      1.00000000
     -7.281  0.0000E+00  0.0000E+00
     -7.201  0.0000E+00  0.0000E+00
     -7.122  0.0000E+00  0.0000E+00
     -7.043  0.0000E+00  0.0000E+00
     -6.963  0.0000E+00  0.0000E+00
     -6.884  0.0000E+00  0.0000E+00
     -6.805  0.0000E+00  0.0000E+00
     -6.725  0.0000E+00  0.0000E+00
     -6.646  0.0000E+00  0.0000E+00
     -6.567  0.0000E+00  0.0000E+00
     -6.487  0.4533E-18  0.3596E-19
     -6.408  0.4673E-11  0.3707E-12
     -6.329  0.4166E-06  0.3305E-07
     -6.249  0.5691E-03  0.4518E-04
     -6.170  0.2243E-01  0.1825E-02
     -6.090  0.8867E-01  0.8860E-02
     -6.011  0.1316E+00  0.1930E-01
     -5.932  0.1722E+00  0.3297E-01
     -5.852  0.1969E+00  0.4859E-01
     -5.773  0.2279E+00  0.6667E-01
     -5.694  0.2263E+00  0.8462E-01
     -5.614  0.3101E+00  0.1092E+00
     -5.535  0.2413E+00  0.1284E+00
     -5.456  0.3254E+00  0.1542E+00
     -5.376  0.3682E+00  0.1834E+00
     -5.297  0.2775E+00  0.2054E+00
     -5.218  0.3852E+00  0.2360E+00
     -5.138  0.4258E+00  0.2698E+00
     -5.059  0.3755E+00  0.2996E+00
     -4.980  0.3446E+00  0.3269E+00
     -4.900  0.5475E+00  0.3703E+00
     -4.821  0.4126E+00  0.4031E+00
     -4.742  0.4721E+00  0.4405E+00
     -4.662  0.4275E+00  0.4744E+00
     -4.583  0.5942E+00  0.5216E+00
     -4.504  0.5661E+00  0.5665E+00
     -4.424  0.4690E+00  0.6037E+00
     -4.345  0.5313E+00  0.6459E+00
     -4.266  0.7006E+00  0.7015E+00
     -4.186  0.6900E+00  0.7562E+00
     -4.107  0.5657E+00  0.8011E+00
     -4.028  0.6252E+00  0.8507E+00
     -3.948  0.8990E+00  0.9220E+00
     -3.869  0.9654E+00  0.9986E+00
     -3.790  0.8023E+00  0.1062E+01
     -3.710  0.7013E+00  0.1118E+01
     -3.631  0.1050E+01  0.1201E+01
     -3.552  0.8163E+00  0.1266E+01
     -3.472  0.6904E+00  0.1321E+01
     -3.393  0.7228E+00  0.1378E+01
     -3.314  0.7862E+00  0.1440E+01
     -3.234  0.7160E+00  0.1497E+01
     -3.155  0.6718E+00  0.1551E+01
     -3.076  0.5143E+00  0.1591E+01
     -2.996  0.7242E+00  0.1649E+01
     -2.917  0.6569E+00  0.1701E+01
     -2.838  0.3635E+00  0.1730E+01
     -2.758  0.5331E+00  0.1772E+01
     -2.679  0.7018E+00  0.1828E+01
     -2.600  0.3309E+00  0.1854E+01
     -2.520  0.2735E+00  0.1876E+01
     -2.441  0.4788E+00  0.1914E+01
     -2.362  0.4937E+00  0.1953E+01
     -2.282  0.1520E+00  0.1965E+01
     -2.203  0.1283E+00  0.1975E+01
     -2.124  0.2520E+00  0.1995E+01
     -2.044  0.1340E+00  0.2006E+01
     -1.965  0.7595E-01  0.2012E+01
     -1.886  0.8352E-01  0.2018E+01
     -1.806  0.1087E+00  0.2027E+01
     -1.727  0.3633E+00  0.2056E+01
     -1.647  0.3948E+00  0.2087E+01
     -1.568  0.2738E+00  0.2109E+01
     -1.489  0.2751E+00  0.2131E+01
     -1.409  0.4247E+00  0.2164E+01
     -1.330  0.8605E+00  0.2233E+01
     -1.251  0.4264E+00  0.2267E+01
     -1.171  0.7637E+00  0.2327E+01
     -1.092  0.1663E+01  0.2459E+01
     -1.013  0.1624E+01  0.2588E+01
     -0.933  0.1091E+01  0.2675E+01
     -0.854  0.9499E+00  0.2750E+01
     -0.775  0.7976E+00  0.2813E+01
     -0.695  0.8382E+00  0.2880E+01
     -0.616  0.6672E+00  0.2933E+01
     -0.537  0.6648E+00  0.2985E+01
     -0.457  0.6939E+00  0.3040E+01
     -0.378  0.5131E+00  0.3081E+01
     -0.299  0.4295E+00  0.3115E+01
     -0.219  0.7481E+00  0.3175E+01
     -0.140  0.3372E+00  0.3201E+01
     -0.061  0.5026E+00  0.3241E+01
      0.019  0.5334E+00  0.3283E+01
      0.098  0.2559E+00  0.3304E+01
      0.177  0.5134E+00  0.3345E+01
      0.257  0.3567E+00  0.3373E+01
      0.336  0.3540E+00  0.3401E+01
      0.415  0.4988E+00  0.3440E+01
      0.495  0.1746E+00  0.3454E+01
      0.574  0.2706E+00  0.3476E+01
      0.653  0.5111E+00  0.3516E+01
      0.733  0.1650E+00  0.3529E+01
      0.812  0.2325E+00  0.3548E+01
      0.891  0.4559E+00  0.3584E+01
      0.971  0.2190E+00  0.3601E+01
      1.050  0.1064E+00  0.3610E+01
      1.129  0.3123E+00  0.3635E+01
      1.209  0.2479E+00  0.3654E+01
      1.288  0.2154E+00  0.3671E+01
      1.367  0.4905E+00  0.3710E+01
      1.447  0.6619E+00  0.3763E+01
      1.526  0.8205E+00  0.3828E+01
      1.605  0.1107E+01  0.3916E+01
      1.685  0.1368E+01  0.4024E+01
      1.764  0.1010E+01  0.4104E+01
      1.843  0.1223E+01  0.4201E+01
      1.923  0.1255E+01  0.4301E+01
      2.002  0.7961E+00  0.4364E+01
      2.081  0.1029E+01  0.4446E+01
      2.161  0.1157E+01  0.4538E+01
      2.240  0.9351E+00  0.4612E+01
      2.319  0.1074E+01  0.4697E+01
      2.399  0.1218E+01  0.4794E+01
      2.478  0.1270E+01  0.4894E+01
      2.557  0.8511E+00  0.4962E+01
      2.637  0.1260E+01  0.5062E+01
      2.716  0.1325E+01  0.5167E+01
      2.796  0.1406E+01  0.5279E+01
      2.875  0.1383E+01  0.5388E+01
      2.954  0.1552E+01  0.5512E+01
      3.034  0.1803E+01  0.5655E+01
      3.113  0.1480E+01  0.5772E+01
      3.192  0.1177E+01  0.5865E+01
      3.272  0.1212E+01  0.5962E+01
      3.351  0.1967E+01  0.6118E+01
      3.430  0.1512E+01  0.6238E+01
      3.510  0.9968E+00  0.6317E+01
      3.589  0.1358E+01  0.6424E+01
      3.668  0.1516E+01  0.6545E+01
      3.748  0.1242E+01  0.6643E+01
      3.827  0.1278E+01  0.6745E+01
      3.906  0.1465E+01  0.6861E+01
      3.986  0.1119E+01  0.6950E+01
      4.065  0.1166E+01  0.7042E+01
      4.144  0.1180E+01  0.7136E+01
      4.224  0.1309E+01  0.7240E+01
      4.303  0.1235E+01  0.7338E+01
      4.382  0.1110E+01  0.7426E+01
      4.462  0.1046E+01  0.7509E+01
      4.541  0.9444E+00  0.7584E+01
      4.620  0.7007E+00  0.7639E+01
      4.700  0.7395E+00  0.7698E+01
      4.779  0.6065E+00  0.7746E+01
      4.858  0.4934E+00  0.7785E+01
      4.938  0.5792E+00  0.7831E+01
      5.017  0.3973E+00  0.7863E+01
      5.096  0.3610E+00  0.7891E+01
      5.176  0.3217E+00  0.7917E+01
      5.255  0.2272E+00  0.7935E+01
      5.334  0.3259E+00  0.7961E+01
      5.414  0.2157E+00  0.7978E+01
      5.493  0.1452E+00  0.7989E+01
      5.572  0.8815E-01  0.7996E+01
      5.652  0.4501E-01  0.8000E+01
      5.731  0.2408E-02  0.8000E+01
      5.810  0.5344E-05  0.8000E+01
      5.890  0.1732E-09  0.8000E+01
      5.969  0.1894E-14  0.8000E+01
      6.048  0.2979E-08  0.8000E+01
      6.128  0.3845E-04  0.8000E+01
      6.207  0.5841E-02  0.8000E+01
      6.286  0.3960E-01  0.8004E+01
      6.366  0.1296E+00  0.8014E+01
      6.445  0.1907E+00  0.8029E+01
      6.524  0.2688E+00  0.8050E+01
      6.604  0.3106E+00  0.8075E+01
      6.683  0.4418E+00  0.8110E+01
      6.762  0.4563E+00  0.8146E+01
      6.842  0.4816E+00  0.8184E+01
      6.921  0.4007E+00  0.8216E+01
      7.000  0.5277E+00  0.8258E+01
      7.080  0.6245E+00  0.8308E+01
      7.159  0.6681E+00  0.8361E+01
      7.239  0.9130E+00  0.8433E+01
      7.318  0.7806E+00  0.8495E+01
      7.397  0.8824E+00  0.8565E+01
      7.477  0.1133E+01  0.8655E+01
      7.556  0.1017E+01  0.8736E+01
      7.635  0.8911E+00  0.8806E+01
      7.715  0.1207E+01  0.8902E+01
      7.794  0.1605E+01  0.9029E+01
      7.873  0.1717E+01  0.9166E+01
      7.953  0.1758E+01  0.9305E+01
      8.032  0.1639E+01  0.9435E+01
      8.111  0.1388E+01  0.9545E+01
      8.191  0.1540E+01  0.9667E+01
      8.270  0.1131E+01  0.9757E+01
      8.349  0.1428E+01  0.9870E+01
      8.429  0.1182E+01  0.9964E+01
      8.508  0.8863E+00  0.1003E+02
      8.587  0.8436E+00  0.1010E+02
      8.667  0.1344E+01  0.1021E+02
      8.746  0.1057E+01  0.1029E+02
      8.825  0.1424E+01  0.1040E+02
      8.905  0.1947E+01  0.1056E+02
      8.984  0.2727E+01  0.1078E+02
      9.063  0.1898E+01  0.1093E+02
      9.143  0.1843E+01  0.1107E+02
      9.222  0.1594E+01  0.1120E+02
      9.301  0.1488E+01  0.1132E+02
      9.381  0.1645E+01  0.1145E+02
      9.460  0.1424E+01  0.1156E+02
      9.539  0.1767E+01  0.1170E+02
      9.619  0.1389E+01  0.1181E+02
      9.698  0.1197E+01  0.1191E+02
      9.777  0.1742E+01  0.1204E+02
      9.857  0.1328E+01  0.1215E+02
      9.936  0.8871E+00  0.1222E+02
     10.015  0.9510E+00  0.1230E+02
     10.095  0.1367E+01  0.1240E+02
     10.174  0.1306E+01  0.1251E+02
     10.253  0.1160E+01  0.1260E+02
     10.333  0.1508E+01  0.1272E+02
     10.412  0.1159E+01  0.1281E+02
     10.491  0.1737E+01  0.1295E+02
     10.571  0.1397E+01  0.1306E+02
     10.650  0.1074E+01  0.1314E+02
     10.729  0.9100E+00  0.1322E+02
     10.809  0.1267E+01  0.1332E+02
     10.888  0.1291E+01  0.1342E+02
     10.967  0.8808E+00  0.1349E+02
     11.047  0.1305E+01  0.1359E+02
     11.126  0.1128E+01  0.1368E+02
     11.205  0.1238E+01  0.1378E+02
     11.285  0.1216E+01  0.1388E+02
     11.364  0.1413E+01  0.1399E+02
     11.443  0.1150E+01  0.1408E+02
     11.523  0.8703E+00  0.1415E+02
     11.602  0.7832E+00  0.1421E+02
     11.682  0.9140E+00  0.1428E+02
     11.761  0.8457E+00  0.1435E+02
     11.840  0.8729E+00  0.1442E+02
     11.920  0.9926E+00  0.1450E+02
     11.999  0.1071E+01  0.1458E+02
     12.078  0.9521E+00  0.1466E+02
     12.158  0.1405E+01  0.1477E+02
     12.237  0.1551E+01  0.1489E+02
     12.316  0.7779E+00  0.1496E+02
     12.396  0.4815E+00  0.1499E+02
     12.475  0.5431E+00  0.1504E+02
     12.554  0.6091E+00  0.1509E+02
     12.634  0.4211E+00  0.1512E+02
     12.713  0.5390E+00  0.1516E+02
     12.792  0.8047E+00  0.1523E+02
     12.872  0.6821E+00  0.1528E+02
     12.951  0.8533E+00  0.1535E+02
     13.030  0.7887E+00  0.1541E+02
     13.110  0.1172E+01  0.1550E+02
     13.189  0.6089E+00  0.1555E+02
     13.268  0.2764E+00  0.1557E+02
     13.348  0.4477E+00  0.1561E+02
     13.427  0.4493E+00  0.1564E+02
     13.506  0.3726E+00  0.1567E+02
     13.586  0.3698E+00  0.1570E+02
     13.665  0.4091E+00  0.1574E+02
     13.744  0.4305E+00  0.1577E+02
     13.824  0.1663E+00  0.1578E+02
     13.903  0.4552E+00  0.1582E+02
     13.982  0.6934E+00  0.1587E+02
     14.062  0.2029E+00  0.1589E+02
     14.141  0.1392E-01  0.1589E+02
     14.220  0.4801E-01  0.1590E+02
     14.300  0.3285E-01  0.1590E+02
     14.379  0.1197E+00  0.1591E+02
     14.458  0.5270E-01  0.1591E+02
     14.538  0.2109E+00  0.1593E+02
     14.617  0.1430E+00  0.1594E+02
     14.696  0.6509E-01  0.1595E+02
     14.776  0.2109E+00  0.1596E+02
     14.855  0.2526E+00  0.1598E+02
     14.934  0.6049E-01  0.1599E+02
     15.014  0.1693E-02  0.1599E+02
     15.093  0.9206E-06  0.1599E+02
     15.172  0.3949E-03  0.1599E+02
     15.252  0.2552E-01  0.1599E+02
     15.331  0.5227E-01  0.1599E+02
     15.410  0.5462E-01  0.1600E+02
     15.490  0.2802E-01  0.1600E+02
     15.569  0.2506E-02  0.1600E+02
     15.648  0.3929E-05  0.1600E+02
     15.728  0.5383E-10  0.1600E+02
     15.807  0.7253E-17  0.1600E+02
     15.887  0.0000E+00  0.1600E+02
     15.966  0.0000E+00  0.1600E+02
     16.045  0.0000E+00  0.1600E+02
     16.125  0.0000E+00  0.1600E+02
     16.204  0.0000E+00  0.1600E+02
     16.283  0.0000E+00  0.1600E+02
     16.363  0.0000E+00  0.1600E+02
     16.442  0.0000E+00  0.1600E+02
     16.521  0.0000E+00  0.1600E+02
     16.52121526     -7.28058148  301      5.81288608      1.00000000
     -7.281  0.0000E+00  0.0000E+00  0.0000E+00  0.0000E+00  0.0000E+00  0.0000E+00  0.0000E+00  0.0000E+00  0.0000E+00
     -7.201  0.0000E+00  0.0000E+00  0.0000E+00  0.0000E+00  0.0000E+00  0.0000E+00  0.0000E+00  0.0000E+00  0.0000E+00
     -7.122  0.0000E+00  0.0000E+00  0.0000E+00  0.0000E+00  0.0000E+00  0.0000E+00  0.0000E+00  0.0000E+00  0.0000E+00
     -7.043  0.0000E+00  0.0000E+00  0.0000E+00  0.0000E+00  0.0000E+00  0.0000E+00  0.0000E+00  0.0000E+00  0.0000E+00
     -6.963  0.0000E+00  0.0000E+00  0.0000E+00  0.0000E+00  0.0000E+00  0.0000E+00  0.0000E+00  0.0000E+00  0.0000E+00
     -6.884  0.0000E+00  0.0000E+00  0.0000E+00  0.0000E+00  0.0000E+00  0.0000E+00  0.0000E+00  0.0000E+00  0.0000E+00
     -6.805  0.0000E+00  0.0000E+00  0.0000E+00  0.0000E+00  0.0000E+00  0.0000E+00  0.0000E+00  0.0000E+00  0.0000E+00
     -6.725  0.0000E+00  0.0000E+00  0.0000E+00  0.0000E+00  0.0000E+00  0.0000E+00  0.0000E+00  0.0000E+00  0.0000E+00
     -6.646  0.0000E+00  0.0000E+00  0.0000E+00  0.0000E+00  0.0000E+00  0.0000E+00  0.0000E+00  0.0000E+00  0.0000E+00
     -6.567  0.0000E+00  0.0000E+00  0.0000E+00  0.0000E+00  0.0000E+00  0.0000E+00  0.0000E+00  0.0000E+00  0.0000E+00
     -6.487  0.9610E-19  0.6427E-32  0.6427E-32  0.6427E-32  0.0000E+00  0.0000E+00  0.0000E+00  0.0000E+00  0.0000E+00
     -6.408  0.9906E-12  0.2041E-16  0.2041E-16  0.2041E-16  0.0000E+00  0.0000E+00  0.0000E+00  0.0000E+00  0.0000E+00
     -6.329  0.8831E-07  0.9934E-11  0.9934E-11  0.9934E-11  0.0000E+00  0.0000E+00  0.0000E+00  0.0000E+00  0.0000E+00
     -6.249  0.1206E-03  0.4221E-07  0.4221E-07  0.4221E-07  0.0000E+00  0.0000E+00  0.0000E+00  0.0000E+00  0.0000E+00
     -6.170  0.4752E-02  0.3142E-05  0.3142E-05  0.3142E-05  0.0000E+00  0.0000E+00  0.0000E+00  0.0000E+00  0.0000E+00
     -6.090  0.1876E-01  0.2707E-04  0.2707E-04  0.2707E-04  0.0000E+00  0.0000E+00  0.0000E+00  0.0000E+00  0.0000E+00
     -6.011  0.2780E-01  0.7376E-04  0.7376E-04  0.7376E-04  0.0000E+00  0.0000E+00  0.0000E+00  0.0000E+00  0.0000E+00
     -5.932  0.3632E-01  0.1388E-03  0.1388E-03  0.1388E-03  0.0000E+00  0.0000E+00  0.0000E+00  0.0000E+00  0.0000E+00
     -5.852  0.4145E-01  0.2220E-03  0.2220E-03  0.2220E-03  0.0000E+00  0.0000E+00  0.0000E+00  0.0000E+00  0.0000E+00
     -5.773  0.4791E-01  0.3065E-03  0.3065E-03  0.3065E-03  0.0000E+00  0.0000E+00  0.0000E+00  0.0000E+00  0.0000E+00
     -5.694  0.4749E-01  0.3783E-03  0.3783E-03  0.3783E-03  0.0000E+00  0.0000E+00  0.0000E+00  0.0000E+00  0.0000E+00
     -5.614  0.6500E-01  0.5880E-03  0.5880E-03  0.5880E-03  0.0000E+00  0.0000E+00  0.0000E+00  0.0000E+00  0.0000E+00
     -5.535  0.5050E-01  0.5283E-03  0.5283E-03  0.5283E-03  0.0000E+00  0.0000E+00  0.0000E+00  0.0000E+00  0.0000E+00
     -5.456  0.6804E-01  0.7953E-03  0.7953E-03  0.7953E-03  0.0000E+00  0.0000E+00  0.0000E+00  0.0000E+00  0.0000E+00
     -5.376  0.7688E-01  0.9952E-03  0.9952E-03  0.9952E-03  0.0000E+00  0.0000E+00  0.0000E+00  0.0000E+00  0.0000E+00
     -5.297  0.5788E-01  0.8180E-03  0.8180E-03  0.8180E-03  0.0000E+00  0.0000E+00  0.0000E+00  0.0000E+00  0.0000E+00
     -5.218  0.8028E-01  0.1245E-02  0.1245E-02  0.1245E-02  0.0000E+00  0.0000E+00  0.0000E+00  0.0000E+00  0.0000E+00
     -5.138  0.8864E-01  0.1469E-02  0.1469E-02  0.1469E-02  0.0000E+00  0.0000E+00  0.0000E+00  0.0000E+00  0.0000E+00
     -5.059  0.7815E-01  0.1384E-02  0.1384E-02  0.1384E-02  0.0000E+00  0.0000E+00  0.0000E+00  0.0000E+00  0.0000E+00
     -4.980  0.7162E-01  0.1376E-02  0.1376E-02  0.1376E-02  0.0000E+00  0.0000E+00  0.0000E+00  0.0000E+00  0.0000E+00
     -4.900  0.1138E+00  0.2290E-02  0.2290E-02  0.2290E-02  0.0000E+00  0.0000E+00  0.0000E+00  0.0000E+00  0.0000E+00
     -4.821  0.8576E-01  0.1807E-02  0.1807E-02  0.1807E-02  0.0000E+00  0.0000E+00  0.0000E+00  0.0000E+00  0.0000E+00
     -4.742  0.9803E-01  0.2202E-02  0.2202E-02  0.2202E-02  0.0000E+00  0.0000E+00  0.0000E+00  0.0000E+00  0.0000E+00
     -4.662  0.8880E-01  0.2091E-02  0.2091E-02  0.2091E-02  0.0000E+00  0.0000E+00  0.0000E+00  0.0000E+00  0.0000E+00
     -4.583  0.1236E+00  0.3004E-02  0.3004E-02  0.3004E-02  0.0000E+00  0.0000E+00  0.0000E+00  0.0000E+00  0.0000E+00
     -4.504  0.1176E+00  0.2999E-02  0.2999E-02  0.2999E-02  0.0000E+00  0.0000E+00  0.0000E+00  0.0000E+00  0.0000E+00
     -4.424  0.9756E-01  0.2571E-02  0.2571E-02  0.2571E-02  0.0000E+00  0.0000E+00  0.0000E+00  0.0000E+00  0.0000E+00
     -4.345  0.1108E+00  0.3002E-02  0.3002E-02  0.3002E-02  0.0000E+00  0.0000E+00  0.0000E+00  0.0000E+00  0.0000E+00
     -4.266  0.1459E+00  0.4145E-02  0.4145E-02  0.4145E-02  0.0000E+00  0.0000E+00  0.0000E+00  0.0000E+00  0.0000E+00
     -4.186  0.1443E+00  0.4132E-02  0.4132E-02  0.4132E-02  0.0000E+00  0.0000E+00  0.0000E+00  0.0000E+00  0.0000E+00
     -4.107  0.1185E+00  0.3459E-02  0.3459E-02  0.3459E-02  0.0000E+00  0.0000E+00  0.0000E+00  0.0000E+00  0.0000E+00
     -4.028  0.1316E+00  0.3907E-02  0.3907E-02  0.3907E-02  0.0000E+00  0.0000E+00  0.0000E+00  0.0000E+00  0.0000E+00
     -3.948  0.1891E+00  0.5837E-02  0.5837E-02  0.5837E-02  0.0000E+00  0.0000E+00  0.0000E+00  0.0000E+00  0.0000E+00
     -3.869  0.2057E+00  0.6027E-02  0.6027E-02  0.6027E-02  0.0000E+00  0.0000E+00  0.0000E+00  0.0000E+00  0.0000E+00
     -3.790  0.1706E+00  0.5239E-02  0.5239E-02  0.5239E-02  0.0000E+00  0.0000E+00  0.0000E+00  0.0000E+00  0.0000E+00
     -3.710  0.1491E+00  0.4783E-02  0.4783E-02  0.4783E-02  0.0000E+00  0.0000E+00  0.0000E+00  0.0000E+00  0.0000E+00
     -3.631  0.2225E+00  0.7553E-02  0.7553E-02  0.7553E-02  0.0000E+00  0.0000E+00  0.0000E+00  0.0000E+00  0.0000E+00
     -3.552  0.1735E+00  0.5928E-02  0.5928E-02  0.5928E-02  0.0000E+00  0.0000E+00  0.0000E+00  0.0000E+00  0.0000E+00
     -3.472  0.1455E+00  0.5412E-02  0.5412E-02  0.5412E-02  0.0000E+00  0.0000E+00  0.0000E+00  0.0000E+00  0.0000E+00
     -3.393  0.1529E+00  0.5734E-02  0.5734E-02  0.5734E-02  0.0000E+00  0.0000E+00  0.0000E+00  0.0000E+00  0.0000E+00
     -3.314  0.1654E+00  0.6589E-02  0.6589E-02  0.6589E-02  0.0000E+00  0.0000E+00  0.0000E+00  0.0000E+00  0.0000E+00
     -3.234  0.1512E+00  0.6071E-02  0.6071E-02  0.6071E-02  0.0000E+00  0.0000E+00  0.0000E+00  0.0000E+00  0.0000E+00
     -3.155  0.1416E+00  0.5905E-02  0.5905E-02  0.5905E-02  0.0000E+00  0.0000E+00  0.0000E+00  0.0000E+00  0.0000E+00
     -3.076  0.1071E+00  0.4847E-02  0.4847E-02  0.4847E-02  0.0000E+00  0.0000E+00  0.0000E+00  0.0000E+00  0.0000E+00
     -2.996  0.1516E+00  0.6912E-02  0.6912E-02  0.6912E-02  0.0000E+00  0.0000E+00  0.0000E+00  0.0000E+00  0.0000E+00
     -2.917  0.1380E+00  0.6289E-02  0.6289E-02  0.6289E-02  0.0000E+00  0.0000E+00  0.0000E+00  0.0000E+00  0.0000E+00
     -2.838  0.7618E-01  0.3639E-02  0.3639E-02  0.3639E-02  0.0000E+00  0.0000E+00  0.0000E+00  0.0000E+00  0.0000E+00
     -2.758  0.1101E+00  0.5700E-02  0.5700E-02  0.5700E-02  0.0000E+00  0.0000E+00  0.0000E+00  0.0000E+00  0.0000E+00
     -2.679  0.1458E+00  0.7542E-02  0.7542E-02  0.7542E-02  0.0000E+00  0.0000E+00  0.0000E+00  0.0000E+00  0.0000E+00
     -2.600  0.6890E-01  0.3583E-02  0.3583E-02  0.3583E-02  0.0000E+00  0.0000E+00  0.0000E+00  0.0000E+00  0.0000E+00
     -2.520  0.5700E-01  0.3060E-02  0.3060E-02  0.3060E-02  0.0000E+00  0.0000E+00  0.0000E+00  0.0000E+00  0.0000E+00
     -2.441  0.9791E-01  0.5747E-02  0.5747E-02  0.5747E-02  0.0000E+00  0.0000E+00  0.0000E+00  0.0000E+00  0.0000E+00
     -2.362  0.1010E+00  0.5999E-02  0.5999E-02  0.5999E-02  0.0000E+00  0.0000E+00  0.0000E+00  0.0000E+00  0.0000E+00
     -2.282  0.3113E-01  0.1882E-02  0.1882E-02  0.1882E-02  0.0000E+00  0.0000E+00  0.0000E+00  0.0000E+00  0.0000E+00
     -2.203  0.2626E-01  0.1633E-02  0.1633E-02  0.1633E-02  0.0000E+00  0.0000E+00  0.0000E+00  0.0000E+00  0.0000E+00
     -2.124  0.5089E-01  0.3366E-02  0.3366E-02  0.3366E-02  0.0000E+00  0.0000E+00  0.0000E+00  0.0000E+00  0.0000E+00
     -2.044  0.2644E-01  0.1893E-02  0.1893E-02  0.1893E-02  0.0000E+00  0.0000E+00  0.0000E+00  0.0000E+00  0.0000E+00
     -1.965  0.1471E-01  0.1140E-02  0.1140E-02  0.1140E-02  0.0000E+00  0.0000E+00  0.0000E+00  0.0000E+00  0.0000E+00
     -1.886  0.1624E-01  0.1265E-02  0.1265E-02  0.1265E-02  0.0000E+00  0.0000E+00  0.0000E+00  0.0000E+00  0.0000E+00
     -1.806  0.2124E-01  0.1670E-02  0.1670E-02  0.1670E-02  0.0000E+00  0.0000E+00  0.0000E+00  0.0000E+00  0.0000E+00
     -1.727  0.7085E-01  0.5671E-02  0.5671E-02  0.5671E-02  0.0000E+00  0.0000E+00  0.0000E+00  0.0000E+00  0.0000E+00
     -1.647  0.7656E-01  0.6291E-02  0.6291E-02  0.6291E-02  0.0000E+00  0.0000E+00  0.0000E+00  0.0000E+00  0.0000E+00
     -1.568  0.5236E-01  0.4547E-02  0.4547E-02  0.4547E-02  0.0000E+00  0.0000E+00  0.0000E+00  0.0000E+00  0.0000E+00
     -1.489  0.5252E-01  0.4665E-02  0.4665E-02  0.4665E-02  0.0000E+00  0.0000E+00  0.0000E+00  0.0000E+00  0.0000E+00
     -1.409  0.8133E-01  0.7288E-02  0.7288E-02  0.7288E-02  0.0000E+00  0.0000E+00  0.0000E+00  0.0000E+00  0.0000E+00
     -1.330  0.1615E+00  0.1535E-01  0.1535E-01  0.1535E-01  0.0000E+00  0.0000E+00  0.0000E+00  0.0000E+00  0.0000E+00
     -1.251  0.7554E-01  0.8356E-02  0.8356E-02  0.8356E-02  0.0000E+00  0.0000E+00  0.0000E+00  0.0000E+00  0.0000E+00
     -1.171  0.1185E+00  0.1761E-01  0.1761E-01  0.1761E-01  0.0000E+00  0.0000E+00  0.0000E+00  0.0000E+00  0.0000E+00
     -1.092  0.2520E+00  0.3948E-01  0.3948E-01  0.3948E-01  0.0000E+00  0.0000E+00  0.0000E+00  0.0000E+00  0.0000E+00
     -1.013  0.2445E+00  0.3905E-01  0.3905E-01  0.3905E-01  0.0000E+00  0.0000E+00  0.0000E+00  0.0000E+00  0.0000E+00
     -0.933  0.1625E+00  0.2674E-01  0.2674E-01  0.2674E-01  0.0000E+00  0.0000E+00  0.0000E+00  0.0000E+00  0.0000E+00
     -0.854  0.1422E+00  0.2342E-01  0.2342E-01  0.2342E-01  0.0000E+00  0.0000E+00  0.0000E+00  0.0000E+00  0.0000E+00
     -0.775  0.1211E+00  0.1960E-01  0.1960E-01  0.1960E-01  0.0000E+00  0.0000E+00  0.0000E+00  0.0000E+00  0.0000E+00
     -0.695  0.1288E+00  0.2057E-01  0.2057E-01  0.2057E-01  0.0000E+00  0.0000E+00  0.0000E+00  0.0000E+00  0.0000E+00
     -0.616  0.1021E+00  0.1658E-01  0.1658E-01  0.1658E-01  0.0000E+00  0.0000E+00  0.0000E+00  0.0000E+00  0.0000E+00
     -0.537  0.1012E+00  0.1675E-01  0.1675E-01  0.1675E-01  0.0000E+00  0.0000E+00  0.0000E+00  0.0000E+00  0.0000E+00
     -0.457  0.1054E+00  0.1770E-01  0.1770E-01  0.1770E-01  0.0000E+00  0.0000E+00  0.0000E+00  0.0000E+00  0.0000E+00
     -0.378  0.7515E-01  0.1355E-01  0.1355E-01  0.1355E-01  0.0000E+00  0.0000E+00  0.0000E+00  0.0000E+00  0.0000E+00
     -0.299  0.6620E-01  0.1102E-01  0.1102E-01  0.1102E-01  0.0000E+00  0.0000E+00  0.0000E+00  0.0000E+00  0.0000E+00
     -0.219  0.1121E+00  0.1978E-01  0.1978E-01  0.1978E-01  0.0000E+00  0.0000E+00  0.0000E+00  0.0000E+00  0.0000E+00
     -0.140  0.5196E-01  0.8784E-02  0.8784E-02  0.8784E-02  0.0000E+00  0.0000E+00  0.0000E+00  0.0000E+00  0.0000E+00
     -0.061  0.7274E-01  0.1391E-01  0.1391E-01  0.1391E-01  0.0000E+00  0.0000E+00  0.0000E+00  0.0000E+00  0.0000E+00
      0.019  0.7818E-01  0.1470E-01  0.1470E-01  0.1470E-01  0.0000E+00  0.0000E+00  0.0000E+00  0.0000E+00  0.0000E+00
      0.098  0.4008E-01  0.6772E-02  0.6772E-02  0.6772E-02  0.0000E+00  0.0000E+00  0.0000E+00  0.0000E+00  0.0000E+00
      0.177  0.7261E-01  0.1475E-01  0.1475E-01  0.1475E-01  0.0000E+00  0.0000E+00  0.0000E+00  0.0000E+00  0.0000E+00
      0.257  0.5245E-01  0.1004E-01  0.1004E-01  0.1004E-01  0.0000E+00  0.0000E+00  0.0000E+00  0.0000E+00  0.0000E+00
      0.336  0.5385E-01  0.9872E-02  0.9872E-02  0.9872E-02  0.0000E+00  0.0000E+00  0.0000E+00  0.0000E+00  0.0000E+00
      0.415  0.6821E-01  0.1499E-01  0.1499E-01  0.1499E-01  0.0000E+00  0.0000E+00  0.0000E+00  0.0000E+00  0.0000E+00
      0.495  0.2482E-01  0.5139E-02  0.5139E-02  0.5139E-02  0.0000E+00  0.0000E+00  0.0000E+00  0.0000E+00  0.0000E+00
      0.574  0.4129E-01  0.7721E-02  0.7721E-02  0.7721E-02  0.0000E+00  0.0000E+00  0.0000E+00  0.0000E+00  0.0000E+00
      0.653  0.6984E-01  0.1571E-01  0.1571E-01  0.1571E-01  0.0000E+00  0.0000E+00  0.0000E+00  0.0000E+00  0.0000E+00
      0.733  0.2281E-01  0.5073E-02  0.5073E-02  0.5073E-02  0.0000E+00  0.0000E+00  0.0000E+00  0.0000E+00  0.0000E+00
      0.812  0.3368E-01  0.7049E-02  0.7049E-02  0.7049E-02  0.0000E+00  0.0000E+00  0.0000E+00  0.0000E+00  0.0000E+00
      0.891  0.6130E-01  0.1448E-01  0.1448E-01  0.1448E-01  0.0000E+00  0.0000E+00  0.0000E+00  0.0000E+00  0.0000E+00
      0.971  0.3032E-01  0.6877E-02  0.6877E-02  0.6877E-02  0.0000E+00  0.0000E+00  0.0000E+00  0.0000E+00  0.0000E+00
      1.050  0.1646E-01  0.3141E-02  0.3141E-02  0.3141E-02  0.0000E+00  0.0000E+00  0.0000E+00  0.0000E+00  0.0000E+00
      1.129  0.3971E-01  0.1046E-01  0.1046E-01  0.1046E-01  0.0000E+00  0.0000E+00  0.0000E+00  0.0000E+00  0.0000E+00
      1.209  0.3228E-01  0.8242E-02  0.8242E-02  0.8242E-02  0.0000E+00  0.0000E+00  0.0000E+00  0.0000E+00  0.0000E+00
      1.288  0.2833E-01  0.7212E-02  0.7212E-02  0.7212E-02  0.0000E+00  0.0000E+00  0.0000E+00  0.0000E+00  0.0000E+00
      1.367  0.3716E-01  0.2010E-01  0.2010E-01  0.2010E-01  0.0000E+00  0.0000E+00  0.0000E+00  0.0000E+00  0.0000E+00
      1.447  0.3102E-01  0.2973E-01  0.2973E-01  0.2973E-01  0.0000E+00  0.0000E+00  0.0000E+00  0.0000E+00  0.0000E+00
      1.526  0.1221E-01  0.4065E-01  0.4065E-01  0.4065E-01  0.0000E+00  0.0000E+00  0.0000E+00  0.0000E+00  0.0000E+00
      1.605  0.3669E-01  0.5251E-01  0.5251E-01  0.5251E-01  0.0000E+00  0.0000E+00  0.0000E+00  0.0000E+00  0.0000E+00
      1.685  0.3738E-01  0.6627E-01  0.6627E-01  0.6627E-01  0.0000E+00  0.0000E+00  0.0000E+00  0.0000E+00  0.0000E+00
      1.764  0.2012E-01  0.5043E-01  0.5043E-01  0.5043E-01  0.0000E+00  0.0000E+00  0.0000E+00  0.0000E+00  0.0000E+00
      1.843  0.4320E-01  0.5893E-01  0.5893E-01  0.5893E-01  0.0000E+00  0.0000E+00  0.0000E+00  0.0000E+00  0.0000E+00
      1.923  0.3913E-01  0.6147E-01  0.6147E-01  0.6147E-01  0.0000E+00  0.0000E+00  0.0000E+00  0.0000E+00  0.0000E+00
      2.002  0.3144E-01  0.3827E-01  0.3827E-01  0.3827E-01  0.0000E+00  0.0000E+00  0.0000E+00  0.0000E+00  0.0000E+00
      2.081  0.1866E-01  0.5321E-01  0.5321E-01  0.5321E-01  0.0000E+00  0.0000E+00  0.0000E+00  0.0000E+00  0.0000E+00
      2.161  0.2681E-01  0.5951E-01  0.5951E-01  0.5951E-01  0.0000E+00  0.0000E+00  0.0000E+00  0.0000E+00  0.0000E+00
      2.240  0.3525E-01  0.4633E-01  0.4633E-01  0.4633E-01  0.0000E+00  0.0000E+00  0.0000E+00  0.0000E+00  0.0000E+00
      2.319  0.3370E-01  0.5458E-01  0.5458E-01  0.5458E-01  0.0000E+00  0.0000E+00  0.0000E+00  0.0000E+00  0.0000E+00
      2.399  0.3340E-01  0.6311E-01  0.6311E-01  0.6311E-01  0.0000E+00  0.0000E+00  0.0000E+00  0.0000E+00  0.0000E+00
      2.478  0.3088E-01  0.6765E-01  0.6765E-01  0.6765E-01  0.0000E+00  0.0000E+00  0.0000E+00  0.0000E+00  0.0000E+00
      2.557  0.2069E-01  0.4566E-01  0.4566E-01  0.4566E-01  0.0000E+00  0.0000E+00  0.0000E+00  0.0000E+00  0.0000E+00
      2.637  0.2739E-01  0.6825E-01  0.6825E-01  0.6825E-01  0.0000E+00  0.0000E+00  0.0000E+00  0.0000E+00  0.0000E+00
      2.716  0.2441E-01  0.7356E-01  0.7356E-01  0.7356E-01  0.0000E+00  0.0000E+00  0.0000E+00  0.0000E+00  0.0000E+00
      2.796  0.2506E-01  0.7970E-01  0.7970E-01  0.7970E-01  0.0000E+00  0.0000E+00  0.0000E+00  0.0000E+00  0.0000E+00
      2.875  0.2306E-01  0.7968E-01  0.7968E-01  0.7968E-01  0.0000E+00  0.0000E+00  0.0000E+00  0.0000E+00  0.0000E+00
      2.954  0.2935E-01  0.8944E-01  0.8944E-01  0.8944E-01  0.0000E+00  0.0000E+00  0.0000E+00  0.0000E+00  0.0000E+00
      3.034  0.2879E-01  0.1048E+00  0.1048E+00  0.1048E+00  0.0000E+00  0.0000E+00  0.0000E+00  0.0000E+00  0.0000E+00
      3.113  0.1952E-01  0.8826E-01  0.8826E-01  0.8826E-01  0.0000E+00  0.0000E+00  0.0000E+00  0.0000E+00  0.0000E+00
      3.192  0.1398E-01  0.7074E-01  0.7074E-01  0.7074E-01  0.0000E+00  0.0000E+00  0.0000E+00  0.0000E+00  0.0000E+00
      3.272  0.1549E-01  0.7294E-01  0.7294E-01  0.7294E-01  0.0000E+00  0.0000E+00  0.0000E+00  0.0000E+00  0.0000E+00
      3.351  0.2497E-01  0.1186E+00  0.1186E+00  0.1186E+00  0.0000E+00  0.0000E+00  0.0000E+00  0.0000E+00  0.0000E+00
      3.430  0.2423E-01  0.9056E-01  0.9056E-01  0.9056E-01  0.0000E+00  0.0000E+00  0.0000E+00  0.0000E+00  0.0000E+00
      3.510  0.9743E-02  0.6181E-01  0.6181E-01  0.6181E-01  0.0000E+00  0.0000E+00  0.0000E+00  0.0000E+00  0.0000E+00
      3.589  0.1457E-01  0.8440E-01  0.8440E-01  0.8440E-01  0.0000E+00  0.0000E+00  0.0000E+00  0.0000E+00  0.0000E+00
      3.668  0.2332E-01  0.9334E-01  0.9334E-01  0.9334E-01  0.0000E+00  0.0000E+00  0.0000E+00  0.0000E+00  0.0000E+00
      3.748  0.1226E-01  0.7801E-01  0.7801E-01  0.7801E-01  0.0000E+00  0.0000E+00  0.0000E+00  0.0000E+00  0.0000E+00
      3.827  0.1205E-01  0.8066E-01  0.8066E-01  0.8066E-01  0.0000E+00  0.0000E+00  0.0000E+00  0.0000E+00  0.0000E+00
      3.906  0.1275E-01  0.9413E-01  0.9413E-01  0.9413E-01  0.0000E+00  0.0000E+00  0.0000E+00  0.0000E+00  0.0000E+00
      3.986  0.1175E-01  0.7186E-01  0.7186E-01  0.7186E-01  0.0000E+00  0.0000E+00  0.0000E+00  0.0000E+00  0.0000E+00
      4.065  0.8956E-02  0.7581E-01  0.7581E-01  0.7581E-01  0.0000E+00  0.0000E+00  0.0000E+00  0.0000E+00  0.0000E+00
      4.144  0.1014E-01  0.7720E-01  0.7720E-01  0.7720E-01  0.0000E+00  0.0000E+00  0.0000E+00  0.0000E+00  0.0000E+00
      4.224  0.1040E-01  0.8636E-01  0.8636E-01  0.8636E-01  0.0000E+00  0.0000E+00  0.0000E+00  0.0000E+00  0.0000E+00
      4.303  0.1105E-01  0.8161E-01  0.8161E-01  0.8161E-01  0.0000E+00  0.0000E+00  0.0000E+00  0.0000E+00  0.0000E+00
      4.382  0.7982E-02  0.7489E-01  0.7489E-01  0.7489E-01  0.0000E+00  0.0000E+00  0.0000E+00  0.0000E+00  0.0000E+00
      4.462  0.5343E-02  0.7111E-01  0.7111E-01  0.7111E-01  0.0000E+00  0.0000E+00  0.0000E+00  0.0000E+00  0.0000E+00
      4.541  0.4558E-02  0.6429E-01  0.6429E-01  0.6429E-01  0.0000E+00  0.0000E+00  0.0000E+00  0.0000E+00  0.0000E+00
      4.620  0.3823E-02  0.4776E-01  0.4776E-01  0.4776E-01  0.0000E+00  0.0000E+00  0.0000E+00  0.0000E+00  0.0000E+00
      4.700  0.4327E-02  0.5019E-01  0.5019E-01  0.5019E-01  0.0000E+00  0.0000E+00  0.0000E+00  0.0000E+00  0.0000E+00
      4.779  0.5363E-02  0.4124E-01  0.4124E-01  0.4124E-01  0.0000E+00  0.0000E+00  0.0000E+00  0.0000E+00  0.0000E+00
      4.858  0.4244E-02  0.3357E-01  0.3357E-01  0.3357E-01  0.0000E+00  0.0000E+00  0.0000E+00  0.0000E+00  0.0000E+00
      4.938  0.3400E-02  0.3970E-01  0.3970E-01  0.3970E-01  0.0000E+00  0.0000E+00  0.0000E+00  0.0000E+00  0.0000E+00
      5.017  0.2397E-02  0.2733E-01  0.2733E-01  0.2733E-01  0.0000E+00  0.0000E+00  0.0000E+00  0.0000E+00  0.0000E+00
      5.096  0.1121E-02  0.2518E-01  0.2518E-01  0.2518E-01  0.0000E+00  0.0000E+00  0.0000E+00  0.0000E+00  0.0000E+00