    2    2    1    1
  0.2044194E+02  0.3866835E-09  0.3866836E-09  0.3866835E-09  0.5000000E-15
  1.000000000000000E-004
  CAR 
 unknown system                          
      8    286      8
 
  0.0000000E+00  0.0000000E+00  0.0000000E+00  0.1079797E-03
    1       -6.198682   1.000000
    2        5.616588   1.000000
    3        5.616588   1.000000
    4        5.616591   1.000000
    5        8.173846   0.000000
    6        8.173853   0.000000
    7        8.173855   0.000000
    8        8.751593   0.000000
 
  0.4761905E-01  0.3469447E-17  0.0000000E+00  0.8638376E-03
    1       -6.169455   1.000000
    2        5.288065   1.000000
    3        5.567515   1.000000
    4        5.567517   1.000000
    5        8.218187   0.000000
    6        8.245829   0.000000
    7        8.245836   0.000000
    8        8.985245   0.000000
 
  0.9523810E-01  0.1387779E-16  0.0000000E+00  0.8638376E-03
    1       -6.082010   1.000000
    2        4.557412   1.000000
    3        5.438660   1.000000
    4        5.438663   1.000000
    5        8.152883   0.000000
    6        8.436221   0.000000
    7        8.436228   0.000000
    8        9.643124   0.000000
 
  0.1428571E+00  0.2081668E-16  0.0000000E+00  0.8638376E-03
    1       -5.937322   1.000000
    2        3.696705   1.000000
    3        5.267179   1.000000
    4        5.267181   1.000000
    5        7.995311   0.000000
    6        8.685042   0.000000
    7        8.685049   0.000000
    8       10.467380   0.000000
 
  0.1904762E+00  0.2775558E-16  0.0000000E+00  0.8638376E-03
    1       -5.737103   1.000000
    2        2.810725   1.000000
    3        5.084876   1.000000
    4        5.084878   1.000000
    5        7.807761   0.000000
    6        8.921608   0.000000
    7        8.921616   0.000000
    8       11.325137   0.000000
 
  0.2380952E+00  0.4163336E-16  0.0000000E+00  0.8638376E-03
    1       -5.484511   1.000000
    2        1.941892   1.000000
    3        4.911888   1.000000
    4        4.911890   1.000000
    5        7.620993   0.000000
    6        9.082928   0.000000
    7        9.082936   0.000000
    8       12.166325   0.000000
 
  0.2857143E+00  0.1387779E-16  0.0000000E+00  0.8638376E-03
    1       -5.184946   1.000000
    2        1.114001   1.000000
    3        4.759608   1.000000
    4        4.759610   1.000000
    5        7.451816   0.000000
    6        9.141938   0.000000
    7        9.141947   0.000000
    8       12.929457   0.000000
 
  0.3333333E+00  0.2775558E-16  0.0000000E+00  0.8638376E-03
    1       -4.848502   1.000000
    2        0.347001   1.000000
    3        4.634137   1.000000
    4        4.634140   1.000000
    5        7.309723   0.000000
    6        9.120399   0.000000
    7        9.120407   0.000000
    8       13.400650   0.000000
 
  0.3809524E+00  0.5551115E-16  0.0000000E+00  0.8638376E-03
    1       -4.495150   1.000000
    2       -0.333180   1.000000
    3        4.538587   1.000000
    4        4.538590   1.000000
    5        7.200138   0.000000
    6        9.062244   0.000000
    7        9.062253   0.000000
    8       13.448508   0.000000
 
  0.4285714E+00  0.5551115E-16  0.0000000E+00  0.8638376E-03
    1       -4.167499   1.000000
    2       -0.880457   1.000000
    3        4.474409   1.000000
    4        4.474412   1.000000
    5        7.125866   0.000000
    6        9.004811   0.000000
    7        9.004820   0.000000
    8       13.376750   0.000000
 
  0.4761905E+00  0.2775558E-16  0.0000000E+00  0.8638376E-03
    1       -3.950805   1.000000
    2       -1.207446   1.000000
    3        4.442221   1.000000
    4        4.442224   1.000000
    5        7.088463   0.000000
    6        8.970921   0.000000
    7        8.970929   0.000000
    8       13.325672   0.000000
 
  0.4761905E-01  0.4761905E-01  0.0000000E+00  0.6478782E-03
    1       -6.159704   1.000000
    2        5.352852   1.000000
    3        5.460651   1.000000
    4        5.460653   1.000000
    5        8.079629   0.000000
    6        8.377826   0.000000
    7        8.377832   0.000000
    8        9.007166   0.000000
 
  0.9523810E-01  0.4761905E-01  0.0000000E+00  0.2591513E-02
    1       -6.091600   1.000000
    2        4.773332   1.000000
    3        5.292080   1.000000
    4        5.410138   1.000000
    5        8.070367   0.000000
    6        8.456446   0.000000
    7        8.613192   0.000000
    8        9.487205   0.000000
 
  0.1428571E+00  0.4761905E-01  0.0000000E+00  0.2591513E-02
    1       -5.965895   1.000000
    2        3.962766   1.000000
    3        5.099038   1.000000
    4        5.296597   1.000000
    5        8.123771   0.000000
    6        8.450062   0.000000
    7        8.894459   0.000000
    8       10.226330   0.000000
 
  0.1904762E+00  0.4761905E-01  0.0000000E+00  0.2591513E-02
    1       -5.783998   1.000000
    2        3.093836   1.000000
    3        4.908629   1.000000
    4        5.128679   1.000000
    5        8.036016   0.000000
    6        8.599448   0.000000
    7        9.157752   0.000000
    8       10.958055   0.000000
 
  0.2380952E+00  0.4761905E-01  0.0000000E+00  0.2591513E-02
    1       -5.548507   1.000000
    2        2.225615   1.000000
    3        4.737258   1.000000
    4        4.941804   1.000000
    5        7.874255   0.000000
    6        8.793219   0.000000
    7        9.341468   0.000000
    8       11.506888   0.000000
 
  0.2857143E+00  0.4761905E-01  0.0000000E+00  0.2591513E-02
    1       -5.263883   1.000000
    2        1.388010   1.000000
    3        4.594129   1.000000
    4        4.758639   1.000000
    5        7.709575   0.000000
    6        8.916840   0.000000
    7        9.411326   0.000000
    8       11.913922   0.000000
 
  0.3333333E+00  0.4761905E-01  0.0000000E+00  0.2591513E-02
    1       -4.938232   1.000000
    2        0.602424   1.000000
    3        4.484096   1.000000
    4        4.591989   1.000000
    5        7.563616   0.000000
    6        8.952601   0.000000
    7        9.381661   0.000000
    8       12.385326   0.000000
 
  0.3809524E+00  0.4761905E-01  0.0000000E+00  0.2591513E-02
    1       -4.587292   1.000000
    2       -0.107782   1.000000
    3        4.409400   1.000000
    4        4.449024   1.000000
    5        7.445749   0.000000
    6        8.936830   0.000000
    7        9.296523   0.000000
    8       12.929735   0.000000
 
  0.4285714E+00  0.4761905E-01  0.0000000E+00  0.2591513E-02
    1       -4.243967   1.000000
    2       -0.705062   1.000000
    3        4.333965   1.000000
    4        4.370645   1.000000
    5        7.360639   0.000000
    6        8.912453   0.000000
    7        9.197992   0.000000
    8       13.325227   0.000000
 
  0.4761905E+00  0.4761905E-01  0.0000000E+00  0.2591513E-02
    1       -3.977539   1.000000
    2       -1.117471   1.000000
    3        4.249577   1.000000
    4        4.367415   1.000000
    5        7.310748   0.000000
    6        8.907837   0.000000
    7        9.114080   0.000000
    8       13.415934   0.000000
 
 -0.4761905E+00  0.4761905E-01  0.0000000E+00  0.2591513E-02
    1       -3.897223   1.000000
    2       -1.234286   1.000000
    3        4.197919   1.000000
    4        4.398641   1.000000
    5        7.297256   0.000000
    6        8.936648   0.000000
    7        9.059677   0.000000
    8       13.428762   0.000000
 
 -0.4285714E+00  0.4761905E-01  0.0000000E+00  0.2591513E-02
    1       -4.051598   1.000000
    2       -1.006696   1.000000
    3        4.180664   1.000000
    4        4.462778   1.000000
    5        7.320466   0.000000
    6        9.001281   0.000000
    7        9.039011   0.000000
    8       13.445228   0.000000
 
 -0.3809524E+00  0.4761905E-01  0.0000000E+00  0.2591513E-02
    1       -4.354532   1.000000
    2       -0.521426   1.000000
    3        4.199184   1.000000
    4        4.557906   1.000000
    5        7.380089   0.000000
    6        9.046332   0.000000
    7        9.094133   0.000000
    8       13.417734   0.000000
 
 -0.3333333E+00  0.4761905E-01  0.0000000E+00  0.2591513E-02
    1       -4.705816   1.000000
    2        0.119350   1.000000
    3        4.254436   1.000000
    4        4.681568   1.000000
    5        7.474901   0.000000
    6        9.063856   0.000000
    7        9.195868   0.000000
    8       13.163606   0.000000
 
 -0.2857143E+00  0.4761905E-01  0.0000000E+00  0.2591513E-02
    1       -5.050801   1.000000
    2        0.857749   1.000000
    3        4.346748   1.000000
    4        4.830351   1.000000
    5        7.602448   0.000000
    6        9.059244   0.000000
    7        9.271565   0.000000
    8       12.662184   0.000000
 
 -0.2380952E+00  0.4761905E-01  0.0000000E+00  0.2591513E-02
    1       -5.364008   1.000000
    2        1.662512   1.000000
    3        4.475470   1.000000
    4        4.998954   1.000000
    5        7.758181   0.000000
    6        8.990765   0.000000
    7        9.270821   0.000000
    8       12.099526   0.000000
 
 -0.1904762E+00  0.4761905E-01  0.0000000E+00  0.2591513E-02
    1       -5.632883   1.000000
    2        2.511492   1.000000
    3        4.638485   1.000000
    4        5.178534   1.000000
    5        7.933713   0.000000
    6        8.833837   0.000000
    7        9.149228   0.000000
    8       11.487537   0.000000
 
 -0.1428571E+00  0.4761905E-01  0.0000000E+00  0.2591513E-02
    1       -5.850865   1.000000
    2        3.379917   1.000000
    3        4.831742   1.000000
    4        5.353820   1.000000
    5        8.114094   0.000000
    6        8.613008   0.000000
    7        8.909937   0.000000
    8       10.782399   0.000000
 
 -0.9523810E-01  0.4761905E-01  0.0000000E+00  0.2591513E-02
    1       -6.014212   1.000000
    2        4.224486   1.000000
    3        5.050271   1.000000
    4        5.499561   1.000000
    5        8.270890   0.000000
    6        8.394710   0.000000
    7        8.611583   0.000000
    8       10.028694   0.000000
 
 -0.4761905E-01  0.4761905E-01  0.0000000E+00  0.1295756E-02
    1       -6.120795   1.000000
    2        4.931662   1.000000
    3        5.304425   1.000000
    4        5.580762   1.000000
    5        8.254179   0.000000
    6        8.318486   0.000000
    7        8.366891   0.000000
    8        9.353335   0.000000
 
  0.9523810E-01  0.9523810E-01  0.0000000E+00  0.6478782E-03
    1       -6.042863   1.000000
    2        4.733275   1.000000
    3        5.096832   1.000000
    4        5.096833   1.000000
    5        7.832397   0.000000
    6        8.885035   0.000000
    7        8.885040   0.000000
    8        9.551974   0.000000
 
  0.1428571E+00  0.9523810E-01  0.0000000E+00  0.2591513E-02
    1       -5.936313   1.000000
    2        4.121251   1.000000
    3        4.887798   1.000000
    4        4.989678   1.000000
    5        7.781395   0.000000
    6        8.973836   0.000000
    7        9.199441   0.000000
    8       10.034355   0.000000
 
  0.1904762E+00  0.9523810E-01  0.0000000E+00  0.2591513E-02
    1       -5.773069   1.000000
    2        3.322992   1.000000
    3        4.688888   1.000000
    4        4.856142   1.000000
    5        7.874836   0.000000
    6        8.903420   0.000000
    7        9.498560   0.000000
    8       10.516687   0.000000
 
  0.2380952E+00  0.9523810E-01  0.0000000E+00  0.2591513E-02
    1       -5.555278   1.000000
    2        2.486832   1.000000
    3        4.514585   1.000000
    4        4.667814   1.000000
    5        7.977568   0.000000
    6        8.871213   0.000000
    7        9.721083   0.000000
    8       10.740904   0.000000
 
  0.2857143E+00  0.9523810E-01  0.0000000E+00  0.2591513E-02
    1       -5.286607   1.000000
    2        1.660097   1.000000
    3        4.373208   1.000000
    4        4.459341   1.000000
    5        7.982231   0.000000
    6        8.909476   0.000000
    7        9.822834   0.000000
    8       10.929400   0.000000
 
  0.3333333E+00  0.9523810E-01  0.0000000E+00  0.2591513E-02
    1       -4.973602   1.000000
    2        0.870655   1.000000
    3        4.254828   1.000000
    4        4.269287   1.000000
    5        7.910079   0.000000
    6        8.941357   0.000000
    7        9.806056   0.000000
    8       11.283843   0.000000
 
  0.3809524E+00  0.9523810E-01  0.0000000E+00  0.2591513E-02
    1       -4.628661   1.000000
    2        0.142709   1.000000
    3        4.068069   1.000000
    4        4.204995   1.000000
    5        7.820339   0.000000
    6        8.931541   0.000000
    7        9.712226   0.000000
    8       11.822899   0.000000
 
  0.4285714E+00  0.9523810E-01  0.0000000E+00  0.2591513E-02
    1       -4.277151   1.000000
    2       -0.491323   1.000000
    3        3.907092   1.000000
    4        4.180908   1.000000
    5        7.745055   0.000000
    6        8.908200   0.000000
    7        9.587876   0.000000
    8       12.479568   0.000000
 
  0.4761905E+00  0.9523810E-01  0.0000000E+00  0.2591513E-02
    1       -3.973670   1.000000
    2       -0.972787   1.000000
    3        3.777051   1.000000
    4        4.196450   1.000000
    5        7.698011   0.000000
    6        8.901761   0.000000
    7        9.466358   0.000000
    8       13.142883   0.000000
 
 -0.4761905E+00  0.9523810E-01  0.0000000E+00  0.2591513E-02
    1       -3.819205   1.000000
    2       -1.198352   1.000000
    3        3.681715   1.000000
    4        4.250142   1.000000
    5        7.684680   0.000000
    6        8.928829   0.000000
    7        9.366808   0.000000
    8       13.585859   0.000000
 
 -0.4285714E+00  0.9523810E-01  0.0000000E+00  0.2591513E-02
    1       -3.900798   1.000000
    2       -1.080255   1.000000
    3        3.624086   1.000000
    4        4.339688   1.000000
    5        7.706531   0.000000
    6        8.994801   0.000000
    7        9.297154   0.000000
    8       13.675312   0.000000
 
 -0.3809524E+00  0.9523810E-01  0.0000000E+00  0.2591513E-02
    1       -4.168598   1.000000
    2       -0.668806   1.000000
    3        3.606739   1.000000
    4        4.461948   1.000000
    5        7.762977   0.000000
    6        9.095851   0.000000
    7        9.255256   0.000000
    8       13.470814   0.000000
 
 -0.3333333E+00  0.9523810E-01  0.0000000E+00  0.2591513E-02
    1       -4.512404   1.000000
    2       -0.076299   1.000000
    3        3.631967   1.000000
    4        4.612748   1.000000
    5        7.852123   0.000000
    6        9.216989   0.000000
    7        9.227345   0.000000
    8       12.982929   0.000000
 
 -0.2857143E+00  0.9523810E-01  0.0000000E+00  0.2591513E-02
    1       -4.863193   1.000000
    2        0.624196   1.000000
    3        3.701981   1.000000
    4        4.786382   1.000000
    5        7.970900   0.000000
    6        9.185019   0.000000
    7        9.325690   0.000000
    8       12.392910   0.000000
 
 -0.2380952E+00  0.9523810E-01  0.0000000E+00  0.2591513E-02
    1       -5.188387   1.000000
    2        1.392446   1.000000
    3        3.819457   1.000000
    4        4.974562   1.000000
    5        8.114266   0.000000
    6        9.088971   0.000000
    7        9.362944   0.000000
    8       11.854284   0.000000
 
 -0.1904762E+00  0.9523810E-01  0.0000000E+00  0.2591513E-02
    1       -5.472481   1.000000
    2        2.198113   1.000000
    3        3.989406   1.000000
    4        5.164519   1.000000
    5        8.273106   0.000000
    6        8.915708   0.000000
    7        9.254992   0.000000
    8       11.427078   0.000000
 
 -0.1428571E+00  0.9523810E-01  0.0000000E+00  0.2591513E-02
    1       -5.707437   1.000000
    2        3.000361   1.000000
    3        4.225778   1.000000
    4        5.336055   1.000000
    5        8.429389   0.000000
    6        8.693585   0.000000
    7        8.984554   0.000000
    8       11.042674   0.000000
 
 -0.9523810E-01  0.9523810E-01  0.0000000E+00  0.1295756E-02
    1       -5.888878   1.000000
    2        3.714779   1.000000
    3        4.570198   1.000000
    4        5.459218   1.000000
    5        8.494831   0.000000
    6        8.515846   0.000000
    7        8.664407   0.000000
    8       10.564058   0.000000
 
  0.1428571E+00  0.1428571E+00  0.0000000E+00  0.6478782E-03
    1       -5.848846   1.000000
    2        3.968380   1.000000
    3        4.667013   1.000000
    4        4.667014   1.000000
    5        7.504643   0.000000
    6        9.551260   0.000000
    7        9.551264   0.000000
    8        9.907256   0.000000
 
  0.1904762E+00  0.1428571E+00  0.0000000E+00  0.2591513E-02
    1       -5.704383   1.000000
    2        3.394701   1.000000
    3        4.459407   1.000000
    4        4.501204   1.000000
    5        7.443119   0.000000
    6        9.565426   0.000000
    7        9.896570   0.000000
    8       10.122870   0.000000
 
  0.2380952E+00  0.1428571E+00  0.0000000E+00  0.2591513E-02
    1       -5.504686   1.000000
    2        2.658924   1.000000
    3        4.278904   1.000000
    4        4.314654   1.000000
    5        7.549445   0.000000
    6        9.455428   0.000000
    7       10.174308   0.000000
    8       10.199591   0.000000
 
  0.2857143E+00  0.1428571E+00  0.0000000E+00  0.2591513E-02
    1       -5.252734   1.000000
    2        1.883820   1.000000
    3        4.085035   1.000000
    4        4.133741   1.000000
    5        7.692537   0.000000
    6        9.444441   0.000000
    7       10.178516   0.000000
    8       10.329585   0.000000
 
  0.3333333E+00  0.1428571E+00  0.0000000E+00  0.2591513E-02
    1       -4.953820   1.000000
    2        1.117787   1.000000
    3        3.843441   1.000000
    4        4.028597   1.000000
    5        7.766669   0.000000
    6        9.488282   0.000000
    7       10.302562   0.000000
    8       10.348119   0.000000
 
  0.3809524E+00  0.1428571E+00  0.0000000E+00  0.2591513E-02
    1       -4.617733   1.000000
    2        0.392278   1.000000
    3        3.612767   1.000000
    4        3.965864   1.000000
    5        7.769064   0.000000
    6        9.462053   0.000000
    7       10.265007   0.000000
    8       10.723695   0.000000
 
  0.4285714E+00  0.1428571E+00  0.0000000E+00  0.2591513E-02
    1       -4.264038   1.000000
    2       -0.260779   1.000000
    3        3.406300   1.000000
    4        3.946393   1.000000
    5        7.749239   0.000000
    6        9.394953   0.000000
    7       10.131074   0.000000
    8       11.363981   0.000000
 
  0.4761905E+00  0.1428571E+00  0.0000000E+00  0.2591513E-02
    1       -3.934959   1.000000
    2       -0.791955   1.000000
    3        3.232043   1.000000
    4        3.969844   1.000000
    5        7.744256   0.000000
    6        9.337364   0.000000
    7        9.986001   0.000000
    8       12.125245   0.000000
 
 -0.4761905E+00  0.1428571E+00  0.0000000E+00  0.2591513E-02
    1       -3.717077   1.000000
    2       -1.110606   1.000000
    3        3.095453   1.000000
    4        4.034842   1.000000
    5        7.771449   0.000000
    6        9.309441   0.000000
    7        9.853632   0.000000
    8       12.943226   0.000000
 
 -0.4285714E+00  0.1428571E+00  0.0000000E+00  0.2591513E-02
    1       -3.719926   1.000000
    2       -1.105541   1.000000
    3        3.000813   1.000000
    4        4.138992   1.000000
    5        7.836034   0.000000
    6        9.318637   0.000000
    7        9.745126   0.000000
    8       13.712824   0.000000
 
 -0.3809524E+00  0.1428571E+00  0.0000000E+00  0.2591513E-02
    1       -3.941507   1.000000
    2       -0.779151   1.000000
    3        2.951991   1.000000
    4        4.278733   1.000000
    5        7.936497   0.000000
    6        9.365750   0.000000
    7        9.660919   0.000000
    8       13.533185   0.000000
 
 -0.3333333E+00  0.1428571E+00  0.0000000E+00  0.2591513E-02
    1       -4.271553   1.000000
    2       -0.244541   1.000000
    3        2.953164   1.000000
    4        4.448978   1.000000
    5        8.067051   0.000000
    6        9.443023   0.000000
    7        9.589165   0.000000
    8       12.859851   0.000000
 
 -0.2857143E+00  0.1428571E+00  0.0000000E+00  0.2591513E-02
    1       -4.624865   1.000000
    2        0.406334   1.000000
    3        3.010029   1.000000
    4        4.642432   1.000000
    5        8.219064   0.000000
    6        9.502238   0.000000
    7        9.525067   0.000000
    8       12.186525   0.000000
 
 -0.2380952E+00  0.1428571E+00  0.0000000E+00  0.2591513E-02
    1       -4.960063   1.000000
    2        1.117863   1.000000
    3        3.132848   1.000000
    4        4.848326   1.000000
    5        8.380622   0.000000
    6        9.360392   0.000000
    7        9.549544   0.000000
    8       11.626791   0.000000
 
 -0.1904762E+00  0.1428571E+00  0.0000000E+00  0.2591513E-02
    1       -5.257929   1.000000
    2        1.839164   1.000000
    3        3.344679   1.000000
    4        5.050363   1.000000
    5        8.531014   0.000000
    6        9.144310   0.000000
    7        9.417887   0.000000
    8       11.286843   0.000000
 
 -0.1428571E+00  0.1428571E+00  0.0000000E+00  0.1295756E-02
    1       -5.508808   1.000000
    2        2.493649   1.000000
    3        3.695476   1.000000
    4        5.224025   1.000000
    5        8.608331   0.000000
    6        8.894887   0.000000
    7        9.141343   0.000000
    8       11.157814   0.000000
 
  0.1904762E+00  0.1904762E+00  0.0000000E+00  0.6478782E-03
    1       -5.578621   1.000000
    2        3.149026   1.000000
    3        4.243180   1.000000
    4        4.243181   1.000000
    5        7.159970   0.000000
    6        9.591314   0.000000
    7       10.301507   0.000000
    8       10.301509   0.000000
 
  0.2380952E+00  0.1904762E+00  0.0000000E+00  0.2591513E-02
    1       -5.397150   1.000000
    2        2.620887   1.000000
    3        4.038891   1.000000
    4        4.054526   1.000000
    5        7.109542   0.000000
    6        9.320310   0.000000
    7       10.553981   0.000000
    8       10.653419   0.000000
 
  0.2857143E+00  0.1904762E+00  0.0000000E+00  0.2591513E-02
    1       -5.162398   1.000000
    2        1.968079   1.000000
    3        3.787239   1.000000
    4        3.902071   1.000000
    5        7.232004   0.000000
    6        9.185591   0.000000
    7       10.565549   0.000000
    8       10.887354   0.000000
 
  0.3333333E+00  0.1904762E+00  0.0000000E+00  0.2591513E-02
    1       -4.878674   1.000000
    2        1.275276   1.000000
    3        3.501178   1.000000
    4        3.790862   1.000000
    5        7.381013   0.000000
    6        9.286250   0.000000
    7       10.470993   0.000000
    8       10.967518   0.000000
 
  0.3809524E+00  0.1904762E+00  0.0000000E+00  0.2591513E-02
    1       -4.553685   1.000000
    2        0.588631   1.000000
    3        3.216133   1.000000
    4        3.723653   1.000000
    5        7.458048   0.000000
    6        9.665006   0.000000
    7       10.347486   0.000000
    8       10.916650   0.000000
 
  0.4285714E+00  0.1904762E+00  0.0000000E+00  0.2591513E-02
    1       -4.202524   1.000000
    2       -0.054851   1.000000
    3        2.954590   1.000000
    4        3.701635   1.000000
    5        7.481434   0.000000
    6       10.225418   0.000000
    7       10.269908   0.000000
    8       10.789386   0.000000
 
  0.4761905E+00  0.1904762E+00  0.0000000E+00  0.2591513E-02
    1       -3.857481   1.000000
    2       -0.609689   1.000000
    3        2.728854   1.000000
    4        3.724795   1.000000
    5        7.503626   0.000000
    6       10.127901   0.000000
    7       10.633629   0.000000
    8       11.016713   0.000000
 
 -0.4761905E+00  0.1904762E+00  0.0000000E+00  0.2591513E-02
    1       -3.589109   1.000000
    2       -0.997692   1.000000
    3        2.546353   1.000000
    4        3.792047   1.000000
    5        7.555541   0.000000
    6       10.055764   0.000000
    7       10.479350   0.000000
    8       11.861666   0.000000
 
 -0.4285714E+00  0.1904762E+00  0.0000000E+00  0.2591513E-02
    1       -3.513371   1.000000
    2       -1.099388   1.000000
    3        2.412693   1.000000
    4        3.901217   1.000000
    5        7.649093   0.000000
    6       10.015389   0.000000
    7       10.341295   0.000000
    8       12.767613   0.000000
 
 -0.3809524E+00  0.1904762E+00  0.0000000E+00  0.2591513E-02
    1       -3.678597   1.000000
    2       -0.866684   1.000000
    3        2.333482   1.000000
    4        4.048796   1.000000
    5        7.785525   0.000000
    6       10.007352   0.000000
    7       10.221297   0.000000
    8       13.535780   0.000000
 
 -0.3333333E+00  0.1904762E+00  0.0000000E+00  0.2591513E-02
    1       -3.988229   1.000000
    2       -0.401145   1.000000
    3        2.316220   1.000000
    4        4.229484   1.000000
    5        7.959146   0.000000
    6       10.025785   0.000000
    7       10.106511   0.000000
    8       12.772928   0.000000
 
 -0.2857143E+00  0.1904762E+00  0.0000000E+00  0.2591513E-02
    1       -4.340333   1.000000
    2        0.182190   1.000000
    3        2.373897   1.000000
    4        4.435376   1.000000
    5        8.157540   0.000000
    6        9.964035   0.000000
    7       10.046677   0.000000
    8       12.046018   0.000000
 
 -0.2380952E+00  0.1904762E+00  0.0000000E+00  0.2591513E-02
    1       -4.683042   1.000000
    2        0.801895   1.000000
    3        2.532854   1.000000
    4        4.654496   1.000000
    5        8.358624   0.000000
    6        9.748359   0.000000
    7        9.994302   0.000000
    8       11.483305   0.000000
 
 -0.1904762E+00  0.1904762E+00  0.0000000E+00  0.1295756E-02
    1       -4.992733   1.000000
    2        1.377403   1.000000
    3        2.842356   1.000000
    4        4.868539   1.000000
    5        8.518662   0.000000
    6        9.452486   0.000000
    7        9.748574   0.000000
    8       11.241067   0.000000
 
  0.2380952E+00  0.2380952E+00  0.0000000E+00  0.6478782E-03
    1       -5.233715   1.000000
    2        2.309439   1.000000
    3        3.856783   1.000000
    4        3.856785   1.000000
    5        6.840778   0.000000
    6        8.927381   0.000000
    7       11.101401   0.000000
    8       11.101402   0.000000
 
  0.2857143E+00  0.2380952E+00  0.0000000E+00  0.2591513E-02
    1       -5.016365   1.000000
    2        1.818960   1.000000
    3        3.634894   1.000000
    4        3.695014   1.000000
    5        6.814336   0.000000
    6        8.648974   0.000000
    7       11.347069   0.000000
    8       11.445767   0.000000
 
  0.3333333E+00  0.2380952E+00  0.0000000E+00  0.2591513E-02
    1       -4.748544   1.000000
    2        1.246846   1.000000
    3        3.326867   1.000000
    4        3.574805   1.000000
    5        6.954010   0.000000
    6        8.564652   0.000000
    7       11.360336   0.000000
    8       11.623894   0.000000
 
  0.3809524E+00  0.2380952E+00  0.0000000E+00  0.2591513E-02
    1       -4.436324   1.000000
    2        0.645988   1.000000
    3        2.981865   1.000000
    4        3.499342   1.000000
    5        7.095299   0.000000
    6        8.761064   0.000000
    7       11.277212   0.000000
    8       11.634407   0.000000
 
  0.4285714E+00  0.2380952E+00  0.0000000E+00  0.2591513E-02
    1       -4.091353   1.000000
    2        0.054110   1.000000
    3        2.648760   1.000000
    4        3.470186   1.000000
    5        7.163586   0.000000
    6        9.245208   0.000000
    7       11.167683   0.000000
    8       11.532947   0.000000
 
  0.4761905E+00  0.2380952E+00  0.0000000E+00  0.2591513E-02
    1       -3.738133   1.000000
    2       -0.486973   1.000000
    3        2.354440   1.000000
    4        3.487660   1.000000
    5        7.204740   0.000000
    6        9.924917   0.000000
    7       11.067125   0.000000
    8       11.379219   0.000000
 
 -0.4761905E+00  0.2380952E+00  0.0000000E+00  0.2591513E-02
    1       -3.432230   1.000000
    2       -0.910200   1.000000
    3        2.112485   1.000000
    4        3.551012   1.000000
    5        7.266762   0.000000
    6       10.665670   0.000000
    7       11.050064   0.000000
    8       11.212230   0.000000
 
 -0.4285714E+00  0.2380952E+00  0.0000000E+00  0.2591513E-02
    1       -3.284273   1.000000
    2       -1.099179   1.000000
    3        1.931374   1.000000
    4        3.658377   1.000000
    5        7.370268   0.000000
    6       10.840474   0.000000
    7       11.051071   0.000000
    8       11.708025   0.000000
 
 -0.3809524E+00  0.2380952E+00  0.0000000E+00  0.2591513E-02
    1       -3.386727   1.000000
    2       -0.961760   1.000000
    3        1.819739   1.000000
    4        3.806531   1.000000
    5        7.520305   0.000000
    6       10.814024   0.000000
    7       10.897587   0.000000
    8       12.639300   0.000000
 
 -0.3333333E+00  0.2380952E+00  0.0000000E+00  0.2591513E-02
    1       -3.670214   1.000000
    2       -0.576829   1.000000
    3        1.791165   1.000000
    4        3.990415   1.000000
    5        7.713285   0.000000
    6       10.732150   0.000000
    7       10.791160   0.000000
    8       12.712835   0.000000
 
 -0.2857143E+00  0.2380952E+00  0.0000000E+00  0.2591513E-02
    1       -4.017328   1.000000
    2       -0.086475   1.000000
    3        1.871330   1.000000
    4        4.202205   1.000000
    5        7.937749   0.000000
    6       10.504851   0.000000
    7       10.737656   0.000000
    8       11.986294   0.000000
 
 -0.2380952E+00  0.2380952E+00  0.0000000E+00  0.1295756E-02
    1       -4.364334   1.000000
    2        0.398624   1.000000
    3        2.104758   1.000000
    4        4.429804   1.000000
    5        8.170083   0.000000
    6       10.164464   0.000000
    7       10.493146   0.000000
    8       11.535797   0.000000
 