PROCAR lm decomposed
# of k-points:  286         # of bands:    8         # of ions:    2

 k-point     1 :    0.00000000 0.00000000 0.00000000     weight = 0.00010798

band     1 # energy   -6.19868163 # occ.  2.00000000
 
ion      s     py     pz     px    dxy    dyz    dz2    dxz  x2-y2    tot
    1  0.212  0.000  0.000  0.000  0.000  0.000  0.000  0.000  0.000  0.212
    2  0.212  0.000  0.000  0.000  0.000  0.000  0.000  0.000  0.000  0.212
tot    0.424  0.000  0.000  0.000  0.000  0.000  0.000  0.000  0.000  0.424
 
band     2 # energy    5.61658788 # occ.  1.99999997
 
ion      s     py     pz     px    dxy    dyz    dz2    dxz  x2-y2    tot
    1  0.000  0.000  0.214  0.000  0.000  0.000  0.000  0.000  0.000  0.214
    2  0.000  0.000  0.214  0.000  0.000  0.000  0.000  0.000  0.000  0.214
tot    0.000  0.000  0.428  0.000  0.000  0.000  0.000  0.000  0.000  0.428
 
band     3 # energy    5.61658805 # occ.  1.99999997
 
ion      s     py     pz     px    dxy    dyz    dz2    dxz  x2-y2    tot
    1  0.000  0.005  0.000  0.209  0.000  0.000  0.000  0.000  0.000  0.214
    2  0.000  0.005  0.000  0.209  0.000  0.000  0.000  0.000  0.000  0.214
tot    0.000  0.010  0.000  0.417  0.000  0.000  0.000  0.000  0.000  0.428
 
band     4 # energy    5.61659086 # occ.  1.99999997
 
ion      s     py     pz     px    dxy    dyz    dz2    dxz  x2-y2    tot
    1  0.000  0.209  0.000  0.005  0.000  0.000  0.000  0.000  0.000  0.214
    2  0.000  0.209  0.000  0.005  0.000  0.000  0.000  0.000  0.000  0.214
tot    0.000  0.417  0.000  0.010  0.000  0.000  0.000  0.000  0.000  0.428
 
band     5 # energy    8.17384627 # occ.  0.00000000
 
ion      s     py     pz     px    dxy    dyz    dz2    dxz  x2-y2    tot
    1  0.000  0.149  0.000  0.001  0.000  0.000  0.000  0.000  0.000  0.151
    2  0.000  0.149  0.000  0.001  0.000  0.000  0.000  0.000  0.000  0.151
tot    0.000  0.299  0.000  0.003  0.000  0.000  0.000  0.000  0.000  0.301
 
band     6 # energy    8.17385336 # occ.  0.00000000
 
ion      s     py     pz     px    dxy    dyz    dz2    dxz  x2-y2    tot
    1  0.000  0.001  0.000  0.149  0.000  0.000  0.000  0.000  0.000  0.151
    2  0.000  0.001  0.000  0.149  0.000  0.000  0.000  0.000  0.000  0.151
tot    0.000  0.003  0.000  0.298  0.000  0.000  0.000  0.000  0.000  0.301
 
band     7 # energy    8.17385464 # occ.  0.00000000
 
ion      s     py     pz     px    dxy    dyz    dz2    dxz  x2-y2    tot
    1  0.000  0.000  0.150  0.000  0.000  0.000  0.000  0.000  0.000  0.151
    2  0.000  0.000  0.150  0.000  0.000  0.000  0.000  0.000  0.000  0.151
tot    0.000  0.000  0.301  0.000  0.000  0.000  0.000  0.000  0.000  0.301
 
band     8 # energy    8.75159283 # occ.  0.00000000
 
ion      s     py     pz     px    dxy    dyz    dz2    dxz  x2-y2    tot
    1  0.359  0.000  0.000  0.000  0.000  0.000  0.000  0.000  0.000  0.359
    2  0.359  0.000  0.000  0.000  0.000  0.000  0.000  0.000  0.000  0.359
tot    0.717  0.000  0.000  0.000  0.000  0.000  0.000  0.000  0.000  0.717
 

 k-point     2 :    0.04761905 0.00000000 0.00000000     weight = 0.00086384

band     1 # energy   -6.16945530 # occ.  2.00000000
 
ion      s     py     pz     px    dxy    dyz    dz2    dxz  x2-y2    tot
    1  0.212  0.000  0.000  0.000  0.000  0.000  0.000  0.000  0.000  0.212
    2  0.212  0.000  0.000  0.000  0.000  0.000  0.000  0.000  0.000  0.212
tot    0.424  0.000  0.000  0.001  0.000  0.000  0.000  0.000  0.000  0.424
 
band     2 # energy    5.28806493 # occ.  2.00000000
 
ion      s     py     pz     px    dxy    dyz    dz2    dxz  x2-y2    tot
    1  0.021  0.022  0.000  0.174  0.000  0.000  0.000  0.000  0.000  0.216
    2  0.021  0.022  0.000  0.174  0.000  0.000  0.000  0.000  0.000  0.216
tot    0.042  0.043  0.000  0.347  0.000  0.000  0.000  0.000  0.000  0.433
 
band     3 # energy    5.56751459 # occ.  2.00000000
 
ion      s     py     pz     px    dxy    dyz    dz2    dxz  x2-y2    tot
    1  0.000  0.000  0.213  0.000  0.000  0.000  0.000  0.000  0.000  0.213
    2  0.000  0.000  0.213  0.000  0.000  0.000  0.000  0.000  0.000  0.213
tot    0.000  0.000  0.426  0.000  0.000  0.000  0.000  0.000  0.000  0.426
 
band     4 # energy    5.56751688 # occ.  2.00000000
 
ion      s     py     pz     px    dxy    dyz    dz2    dxz  x2-y2    tot
    1  0.000  0.189  0.000  0.024  0.000  0.000  0.000  0.000  0.000  0.213
    2  0.000  0.189  0.000  0.024  0.000  0.000  0.000  0.000  0.000  0.213
tot    0.000  0.379  0.000  0.047  0.000  0.000  0.000  0.000  0.000  0.426
 
band     5 # energy    8.21818734 # occ.  0.00000000
 
ion      s     py     pz     px    dxy    dyz    dz2    dxz  x2-y2    tot
    1  0.027  0.015  0.000  0.122  0.000  0.000  0.000  0.000  0.000  0.164
    2  0.027  0.015  0.000  0.122  0.000  0.000  0.000  0.000  0.000  0.164
tot    0.055  0.030  0.000  0.243  0.000  0.000  0.000  0.000  0.000  0.329
 
band     6 # energy    8.24582907 # occ.  0.00000000
 
ion      s     py     pz     px    dxy    dyz    dz2    dxz  x2-y2    tot
    1  0.000  0.135  0.000  0.017  0.000  0.000  0.000  0.000  0.000  0.152
    2  0.000  0.135  0.000  0.017  0.000  0.000  0.000  0.000  0.000  0.152
tot    0.000  0.269  0.000  0.034  0.000  0.000  0.000  0.000  0.000  0.303
 
band     7 # energy    8.24583617 # occ.  0.00000000
 
ion      s     py     pz     px    dxy    dyz    dz2    dxz  x2-y2    tot
    1  0.000  0.000  0.152  0.000  0.000  0.000  0.000  0.000  0.000  0.152
    2  0.000  0.000  0.152  0.000  0.000  0.000  0.000  0.000  0.000  0.152
tot    0.000  0.000  0.303  0.000  0.000  0.000  0.000  0.000  0.000  0.303
 
band     8 # energy    8.98524461 # occ.  0.00000000
 
ion      s     py     pz     px    dxy    dyz    dz2    dxz  x2-y2    tot
    1  0.312  0.003  0.000  0.025  0.000  0.000  0.000  0.000  0.000  0.341
    2  0.312  0.003  0.000  0.025  0.000  0.000  0.000  0.000  0.000  0.341
tot    0.625  0.006  0.000  0.050  0.000  0.000  0.000  0.000  0.000  0.681
 

 k-point     3 :    0.09523810 0.00000000 0.00000000     weight = 0.00086384

band     1 # energy   -6.08201014 # occ.  2.00000000
 
ion      s     py     pz     px    dxy    dyz    dz2    dxz  x2-y2    tot
    1  0.211  0.000  0.000  0.001  0.000  0.000  0.000  0.000  0.000  0.213
    2  0.211  0.000  0.000  0.001  0.000  0.000  0.000  0.000  0.000  0.213
tot    0.423  0.000  0.000  0.002  0.000  0.000  0.000  0.000  0.000  0.425
 
band     2 # energy    4.55741165 # occ.  2.00000000
 
ion      s     py     pz     px    dxy    dyz    dz2    dxz  x2-y2    tot
    1  0.050  0.019  0.000  0.150  0.000  0.000  0.000  0.000  0.000  0.219
    2  0.050  0.019  0.000  0.150  0.000  0.000  0.000  0.000  0.000  0.219
tot    0.101  0.037  0.000  0.300  0.000  0.000  0.000  0.000  0.000  0.438
 
band     3 # energy    5.43866045 # occ.  2.00000000
 
ion      s     py     pz     px    dxy    dyz    dz2    dxz  x2-y2    tot
    1  0.000  0.000  0.212  0.000  0.000  0.000  0.000  0.000  0.000  0.212
    2  0.000  0.000  0.212  0.000  0.000  0.000  0.000  0.000  0.000  0.212
tot    0.000  0.000  0.423  0.000  0.000  0.000  0.000  0.000  0.000  0.423
 
band     4 # energy    5.43866263 # occ.  2.00000000
 
ion      s     py     pz     px    dxy    dyz    dz2    dxz  x2-y2    tot
    1  0.000  0.188  0.000  0.024  0.000  0.000  0.000  0.000  0.000  0.212
    2  0.000  0.188  0.000  0.024  0.000  0.000  0.000  0.000  0.000  0.212
tot    0.000  0.376  0.000  0.047  0.000  0.000  0.000  0.000  0.000  0.423
 
band     5 # energy    8.15288297 # occ.  0.00000000
 
ion      s     py     pz     px    dxy    dyz    dz2    dxz  x2-y2    tot
    1  0.087  0.011  0.000  0.092  0.000  0.000  0.000  0.000  0.000  0.191
    2  0.087  0.011  0.000  0.092  0.000  0.000  0.000  0.000  0.000  0.191
tot    0.175  0.023  0.000  0.184  0.000  0.000  0.000  0.000  0.000  0.382
 
band     6 # energy    8.43622057 # occ.  0.00000000
 
ion      s     py     pz     px    dxy    dyz    dz2    dxz  x2-y2    tot
    1  0.000  0.136  0.000  0.017  0.000  0.000  0.000  0.000  0.000  0.153
    2  0.000  0.136  0.000  0.017  0.000  0.000  0.000  0.000  0.000  0.153
tot    0.000  0.273  0.000  0.034  0.000  0.000  0.000  0.000  0.000  0.307
 
band     7 # energy    8.43622771 # occ.  0.00000000
 
ion      s     py     pz     px    dxy    dyz    dz2    dxz  x2-y2    tot
    1  0.000  0.000  0.153  0.000  0.000  0.000  0.000  0.000  0.000  0.153
    2  0.000  0.000  0.153  0.000  0.000  0.000  0.000  0.000  0.000  0.153
tot    0.000  0.000  0.307  0.000  0.000  0.000  0.000  0.000  0.000  0.307
 
band     8 # energy    9.64312425 # occ.  0.00000000
 
ion      s     py     pz     px    dxy    dyz    dz2    dxz  x2-y2    tot
    1  0.229  0.009  0.000  0.070  0.000  0.000  0.000  0.000  0.000  0.307
    2  0.229  0.009  0.000  0.070  0.000  0.000  0.000  0.000  0.000  0.307
tot    0.457  0.017  0.000  0.139  0.000  0.000  0.000  0.000  0.000  0.614
 

 k-point     4 :    0.14285714 0.00000000 0.00000000     weight = 0.00086384

band     1 # energy   -5.93732194 # occ.  2.00000000
 
ion      s     py     pz     px    dxy    dyz    dz2    dxz  x2-y2    tot
    1  0.211  0.000  0.000  0.002  0.000  0.000  0.000  0.000  0.000  0.214
    2  0.211  0.000  0.000  0.002  0.000  0.000  0.000  0.000  0.000  0.214
tot    0.422  0.001  0.000  0.005  0.000  0.000  0.000  0.000  0.000  0.427
 
band     2 # energy    3.69670483 # occ.  2.00000000
 
ion      s     py     pz     px    dxy    dyz    dz2    dxz  x2-y2    tot
    1  0.071  0.016  0.000  0.132  0.000  0.000  0.000  0.000  0.000  0.219
    2  0.071  0.016  0.000  0.132  0.000  0.000  0.000  0.000  0.000  0.219
tot    0.142  0.033  0.000  0.263  0.000  0.000  0.000  0.000  0.000  0.438
 
band     3 # energy    5.26717915 # occ.  2.00000000
 
ion      s     py     pz     px    dxy    dyz    dz2    dxz  x2-y2    tot
    1  0.000  0.000  0.211  0.000  0.000  0.000  0.000  0.000  0.000  0.211
    2  0.000  0.000  0.211  0.000  0.000  0.000  0.000  0.000  0.000  0.211
tot    0.000  0.000  0.421  0.000  0.000  0.000  0.000  0.000  0.000  0.421
 
band     4 # energy    5.26718129 # occ.  2.00000000
 
ion      s     py     pz     px    dxy    dyz    dz2    dxz  x2-y2    tot
    1  0.000  0.187  0.000  0.023  0.000  0.000  0.000  0.000  0.000  0.211
    2  0.000  0.187  0.000  0.023  0.000  0.000  0.000  0.000  0.000  0.211
tot    0.000  0.375  0.000  0.047  0.000  0.000  0.000  0.000  0.000  0.421
 
band     5 # energy    7.99531073 # occ.  0.00000000
 
ion      s     py     pz     px    dxy    dyz    dz2    dxz  x2-y2    tot
    1  0.119  0.009  0.000  0.072  0.000  0.000  0.000  0.000  0.000  0.200
    2  0.119  0.009  0.000  0.072  0.000  0.000  0.000  0.000  0.000  0.200
tot    0.239  0.018  0.000  0.144  0.000  0.000  0.000  0.000  0.000  0.401
 
band     6 # energy    8.68504181 # occ.  0.00000000
 
ion      s     py     pz     px    dxy    dyz    dz2    dxz  x2-y2    tot
    1  0.000  0.137  0.000  0.017  0.000  0.000  0.000  0.000  0.000  0.154
    2  0.000  0.137  0.000  0.017  0.000  0.000  0.000  0.000  0.000  0.154
tot    0.000  0.274  0.000  0.034  0.000  0.000  0.000  0.000  0.000  0.308
 
band     7 # energy    8.68504914 # occ.  0.00000000
 
ion      s     py     pz     px    dxy    dyz    dz2    dxz  x2-y2    tot
    1  0.000  0.000  0.154  0.000  0.000  0.000  0.000  0.000  0.000  0.154
    2  0.000  0.000  0.154  0.000  0.000  0.000  0.000  0.000  0.000  0.154
tot    0.000  0.000  0.308  0.000  0.000  0.000  0.000  0.000  0.000  0.308
 
band     8 # energy   10.46738036 # occ.  0.00000000
 
ion      s     py     pz     px    dxy    dyz    dz2    dxz  x2-y2    tot
    1  0.182  0.012  0.000  0.096  0.000  0.000  0.000  0.000  0.000  0.290
    2  0.182  0.012  0.000  0.096  0.000  0.000  0.000  0.000  0.000  0.290
tot    0.363  0.024  0.000  0.193  0.000  0.000  0.000  0.000  0.000  0.580
 

 k-point     5 :    0.19047619 0.00000000 0.00000000     weight = 0.00086384

band     1 # energy   -5.73710307 # occ.  2.00000000
 
ion      s     py     pz     px    dxy    dyz    dz2    dxz  x2-y2    tot
    1  0.210  0.001  0.000  0.004  0.000  0.000  0.000  0.000  0.000  0.215
    2  0.210  0.001  0.000  0.004  0.000  0.000  0.000  0.000  0.000  0.215
tot    0.420  0.001  0.000  0.009  0.000  0.000  0.000  0.000  0.000  0.430
 
band     2 # energy    2.81072469 # occ.  2.00000000
 
ion      s     py     pz     px    dxy    dyz    dz2    dxz  x2-y2    tot
    1  0.085  0.015  0.000  0.118  0.000  0.000  0.000  0.000  0.000  0.217
    2  0.085  0.015  0.000  0.118  0.000  0.000  0.000  0.000  0.000  0.217
tot    0.170  0.029  0.000  0.235  0.000  0.000  0.000  0.000  0.000  0.435
 
band     3 # energy    5.08487577 # occ.  2.00000000
 
ion      s     py     pz     px    dxy    dyz    dz2    dxz  x2-y2    tot
    1  0.000  0.000  0.211  0.000  0.000  0.000  0.000  0.000  0.000  0.211
    2  0.000  0.000  0.211  0.000  0.000  0.000  0.000  0.000  0.000  0.211
tot    0.000  0.000  0.421  0.000  0.000  0.000  0.000  0.000  0.000  0.421
 
band     4 # energy    5.08487796 # occ.  2.00000000
 
ion      s     py     pz     px    dxy    dyz    dz2    dxz  x2-y2    tot
    1  0.000  0.187  0.000  0.023  0.000  0.000  0.000  0.000  0.000  0.211
    2  0.000  0.187  0.000  0.023  0.000  0.000  0.000  0.000  0.000  0.211
tot    0.000  0.374  0.000  0.047  0.000  0.000  0.000  0.000  0.000  0.421
 
band     5 # energy    7.80776108 # occ.  0.00000000
 
ion      s     py     pz     px    dxy    dyz    dz2    dxz  x2-y2    tot
    1  0.139  0.007  0.000  0.057  0.000  0.000  0.000  0.000  0.000  0.203
    2  0.139  0.007  0.000  0.057  0.000  0.000  0.000  0.000  0.000  0.203
tot    0.278  0.014  0.000  0.115  0.000  0.000  0.000  0.000  0.000  0.407
 
band     6 # energy    8.92160805 # occ.  0.00000000
 
ion      s     py     pz     px    dxy    dyz    dz2    dxz  x2-y2    tot
    1  0.000  0.134  0.000  0.017  0.000  0.000  0.000  0.000  0.000  0.151
    2  0.000  0.134  0.000  0.017  0.000  0.000  0.000  0.000  0.000  0.151
tot    0.000  0.268  0.000  0.034  0.000  0.000  0.000  0.000  0.000  0.302
 
band     7 # energy    8.92161572 # occ.  0.00000000
 
ion      s     py     pz     px    dxy    dyz    dz2    dxz  x2-y2    tot
    1  0.000  0.000  0.151  0.000  0.000  0.000  0.000  0.000  0.000  0.151
    2  0.000  0.000  0.151  0.000  0.000  0.000  0.000  0.000  0.000  0.151
tot    0.000  0.000  0.302  0.000  0.000  0.000  0.000  0.000  0.000  0.302
 
band     8 # energy   11.32513710 # occ.  0.00000000
 
ion      s     py     pz     px    dxy    dyz    dz2    dxz  x2-y2    tot
    1  0.150  0.014  0.000  0.115  0.000  0.000  0.000  0.000  0.000  0.279
    2  0.150  0.014  0.000  0.115  0.000  0.000  0.000  0.000  0.000  0.279
tot    0.300  0.029  0.000  0.229  0.000  0.000  0.000  0.000  0.000  0.558
 

 k-point     6 :    0.23809524 0.00000000 0.00000000     weight = 0.00086384

band     1 # energy   -5.48451090 # occ.  2.00000000
 
ion      s     py     pz     px    dxy    dyz    dz2    dxz  x2-y2    tot
    1  0.209  0.001  0.000  0.006  0.000  0.000  0.000  0.000  0.000  0.217
    2  0.209  0.001  0.000  0.006  0.000  0.000  0.000  0.000  0.000  0.217
tot    0.419  0.002  0.000  0.013  0.000  0.000  0.000  0.000  0.000  0.433
 
band     2 # energy    1.94189153 # occ.  2.00000000
 
ion      s     py     pz     px    dxy    dyz    dz2    dxz  x2-y2    tot
    1  0.095  0.013  0.000  0.107  0.000  0.000  0.000  0.000  0.000  0.215
    2  0.095  0.013  0.000  0.107  0.000  0.000  0.000  0.000  0.000  0.215
tot    0.190  0.027  0.000  0.213  0.000  0.000  0.000  0.000  0.000  0.430
 
band     3 # energy    4.91188761 # occ.  2.00000000
 
ion      s     py     pz     px    dxy    dyz    dz2    dxz  x2-y2    tot
    1  0.000  0.000  0.211  0.000  0.000  0.000  0.000  0.000  0.000  0.211
    2  0.000  0.000  0.211  0.000  0.000  0.000  0.000  0.000  0.000  0.211
tot    0.000  0.000  0.422  0.000  0.000  0.000  0.000  0.000  0.000  0.422
 
band     4 # energy    4.91188993 # occ.  2.00000000
 
ion      s     py     pz     px    dxy    dyz    dz2    dxz  x2-y2    tot
    1  0.000  0.188  0.000  0.023  0.000  0.000  0.000  0.000  0.000  0.211
    2  0.000  0.188  0.000  0.023  0.000  0.000  0.000  0.000  0.000  0.211
tot    0.000  0.375  0.000  0.047  0.000  0.000  0.000  0.000  0.000  0.422
 
band     5 # energy    7.62099324 # occ.  0.00000000
 
ion      s     py     pz     px    dxy    dyz    dz2    dxz  x2-y2    tot
    1  0.153  0.006  0.000  0.046  0.000  0.000  0.000  0.000  0.000  0.204
    2  0.153  0.006  0.000  0.046  0.000  0.000  0.000  0.000  0.000  0.204
tot    0.306  0.011  0.000  0.091  0.000  0.000  0.000  0.000  0.000  0.409
 
band     6 # energy    9.08292844 # occ.  0.00000000
 
ion      s     py     pz     px    dxy    dyz    dz2    dxz  x2-y2    tot
    1  0.000  0.126  0.000  0.016  0.000  0.000  0.000  0.000  0.000  0.142
    2  0.000  0.126  0.000  0.016  0.000  0.000  0.000  0.000  0.000  0.142
tot    0.000  0.252  0.000  0.032  0.000  0.000  0.000  0.000  0.000  0.284
 
band     7 # energy    9.08293648 # occ.  0.00000000
 
ion      s     py     pz     px    dxy    dyz    dz2    dxz  x2-y2    tot
    1  0.000  0.000  0.142  0.000  0.000  0.000  0.000  0.000  0.000  0.142
    2  0.000  0.000  0.142  0.000  0.000  0.000  0.000  0.000  0.000  0.142
tot    0.000  0.000  0.284  0.000  0.000  0.000  0.000  0.000  0.000  0.284
 
band     8 # energy   12.16632469 # occ.  0.00000000
 
ion      s     py     pz     px    dxy    dyz    dz2    dxz  x2-y2    tot
    1  0.120  0.016  0.000  0.130  0.000  0.000  0.000  0.000  0.000  0.266
    2  0.120  0.016  0.000  0.130  0.000  0.000  0.000  0.000  0.000  0.266
tot    0.239  0.033  0.000  0.261  0.000  0.000  0.000  0.000  0.000  0.533
 

 k-point     7 :    0.28571429 0.00000000 0.00000000     weight = 0.00086384

band     1 # energy   -5.18494588 # occ.  2.00000000
 
ion      s     py     pz     px    dxy    dyz    dz2    dxz  x2-y2    tot
    1  0.209  0.001  0.000  0.009  0.000  0.000  0.000  0.000  0.000  0.219
    2  0.209  0.001  0.000  0.009  0.000  0.000  0.000  0.000  0.000  0.219
tot    0.418  0.002  0.000  0.017  0.000  0.000  0.000  0.000  0.000  0.438
 
band     2 # energy    1.11400142 # occ.  2.00000000
 
ion      s     py     pz     px    dxy    dyz    dz2    dxz  x2-y2    tot
    1  0.102  0.012  0.000  0.097  0.000  0.000  0.000  0.000  0.000  0.212
    2  0.102  0.012  0.000  0.097  0.000  0.000  0.000  0.000  0.000  0.212
tot    0.204  0.024  0.000  0.195  0.000  0.000  0.000  0.000  0.000  0.423
 
band     3 # energy    4.75960753 # occ.  2.00000000
 
ion      s     py     pz     px    dxy    dyz    dz2    dxz  x2-y2    tot
    1  0.000  0.000  0.212  0.000  0.000  0.000  0.000  0.000  0.000  0.212
    2  0.000  0.000  0.212  0.000  0.000  0.000  0.000  0.000  0.000  0.212
tot    0.000  0.000  0.424  0.000  0.000  0.000  0.000  0.000  0.000  0.424
 
band     4 # energy    4.75961001 # occ.  2.00000000
 
ion      s     py     pz     px    dxy    dyz    dz2    dxz  x2-y2    tot
    1  0.000  0.188  0.000  0.024  0.000  0.000  0.000  0.000  0.000  0.212
    2  0.000  0.188  0.000  0.024  0.000  0.000  0.000  0.000  0.000  0.212
tot    0.000  0.377  0.000  0.047  0.000  0.000  0.000  0.000  0.000  0.424
 
band     5 # energy    7.45181636 # occ.  0.00000000
 
ion      s     py     pz     px    dxy    dyz    dz2    dxz  x2-y2    tot
    1  0.164  0.005  0.000  0.036  0.000  0.000  0.000  0.000  0.000  0.205
    2  0.164  0.005  0.000  0.036  0.000  0.000  0.000  0.000  0.000  0.205
tot    0.328  0.009  0.000  0.073  0.000  0.000  0.000  0.000  0.000  0.410
 
band     6 # energy    9.14193841 # occ.  0.00000000
 
ion      s     py     pz     px    dxy    dyz    dz2    dxz  x2-y2    tot
    1  0.000  0.114  0.000  0.014  0.000  0.000  0.000  0.000  0.000  0.128
    2  0.000  0.114  0.000  0.014  0.000  0.000  0.000  0.000  0.000  0.128
tot    0.000  0.228  0.000  0.029  0.000  0.000  0.000  0.000  0.000  0.257
 
band     7 # energy    9.14194673 # occ.  0.00000000
 
ion      s     py     pz     px    dxy    dyz    dz2    dxz  x2-y2    tot
    1  0.000  0.000  0.128  0.000  0.000  0.000  0.000  0.000  0.000  0.128
    2  0.000  0.000  0.128  0.000  0.000  0.000  0.000  0.000  0.000  0.128
tot    0.000  0.000  0.257  0.000  0.000  0.000  0.000  0.000  0.000  0.257
 
band     8 # energy   12.92945679 # occ.  0.00000000
 
ion      s     py     pz     px    dxy    dyz    dz2    dxz  x2-y2    tot
    1  0.078  0.018  0.000  0.143  0.000  0.000  0.000  0.000  0.000  0.239
    2  0.078  0.018  0.000  0.143  0.000  0.000  0.000  0.000  0.000  0.239
tot    0.157  0.035  0.000  0.285  0.000  0.000  0.000  0.000  0.000  0.478
 

 k-point     8 :    0.33333333 0.00000000 0.00000000     weight = 0.00086384

band     1 # energy   -4.84850170 # occ.  2.00000000
 
ion      s     py     pz     px    dxy    dyz    dz2    dxz  x2-y2    tot
    1  0.210  0.001  0.000  0.011  0.000  0.000  0.000  0.000  0.000  0.222
    2  0.210  0.001  0.000  0.011  0.000  0.000  0.000  0.000  0.000  0.222
tot    0.420  0.003  0.000  0.022  0.000  0.000  0.000  0.000  0.000  0.444
 
band     2 # energy    0.34700056 # occ.  2.00000000
 
ion      s     py     pz     px    dxy    dyz    dz2    dxz  x2-y2    tot
    1  0.106  0.011  0.000  0.090  0.000  0.000  0.000  0.000  0.000  0.208
    2  0.106  0.011  0.000  0.090  0.000  0.000  0.000  0.000  0.000  0.208
tot    0.213  0.023  0.000  0.180  0.000  0.000  0.000  0.000  0.000  0.416
 
band     3 # energy    4.63413743 # occ.  2.00000000
 
ion      s     py     pz     px    dxy    dyz    dz2    dxz  x2-y2    tot
    1  0.000  0.000  0.213  0.000  0.000  0.000  0.000  0.000  0.000  0.213
    2  0.000  0.000  0.213  0.000  0.000  0.000  0.000  0.000  0.000  0.213
tot    0.000  0.000  0.426  0.000  0.000  0.000  0.000  0.000  0.000  0.426
 
band     4 # energy    4.63414008 # occ.  2.00000000
 
ion      s     py     pz     px    dxy    dyz    dz2    dxz  x2-y2    tot
    1  0.000  0.189  0.000  0.024  0.000  0.000  0.000  0.000  0.000  0.213
    2  0.000  0.189  0.000  0.024  0.000  0.000  0.000  0.000  0.000  0.213
tot    0.000  0.379  0.000  0.047  0.000  0.000  0.000  0.000  0.000  0.426
 
band     5 # energy    7.30972261 # occ.  0.00000000
 
ion      s     py     pz     px    dxy    dyz    dz2    dxz  x2-y2    tot
    1  0.172  0.004  0.000  0.029  0.000  0.000  0.000  0.000  0.000  0.205
    2  0.172  0.004  0.000  0.029  0.000  0.000  0.000  0.000  0.000  0.205
tot    0.344  0.007  0.000  0.058  0.000  0.000  0.000  0.000  0.000  0.410
 
band     6 # energy    9.12039892 # occ.  0.00000000
 
ion      s     py     pz     px    dxy    dyz    dz2    dxz  x2-y2    tot
    1  0.000  0.102  0.000  0.013  0.000  0.000  0.000  0.000  0.000  0.115
    2  0.000  0.102  0.000  0.013  0.000  0.000  0.000  0.000  0.000  0.115
tot    0.000  0.205  0.000  0.026  0.000  0.000  0.000  0.000  0.000  0.231
 
band     7 # energy    9.12040742 # occ.  0.00000000
 
ion      s     py     pz     px    dxy    dyz    dz2    dxz  x2-y2    tot
    1  0.000  0.000  0.115  0.000  0.000  0.000  0.000  0.000  0.000  0.115
    2  0.000  0.000  0.115  0.000  0.000  0.000  0.000  0.000  0.000  0.115
tot    0.000  0.000  0.231  0.000  0.000  0.000  0.000  0.000  0.000  0.231
 
band     8 # energy   13.40064974 # occ.  0.00000000
 
ion      s     py     pz     px    dxy    dyz    dz2    dxz  x2-y2    tot
    1  0.021  0.015  0.000  0.118  0.000  0.000  0.000  0.000  0.000  0.154
    2  0.021  0.015  0.000  0.118  0.000  0.000  0.000  0.000  0.000  0.154
tot    0.042  0.030  0.000  0.237  0.000  0.000  0.000  0.000  0.000  0.308
 

 k-point     9 :    0.38095238 0.00000000 0.00000000     weight = 0.00086384

band     1 # energy   -4.49514977 # occ.  2.00000000
 
ion      s     py     pz     px    dxy    dyz    dz2    dxz  x2-y2    tot
    1  0.212  0.002  0.000  0.012  0.000  0.000  0.000  0.000  0.000  0.226
    2  0.212  0.002  0.000  0.012  0.000  0.000  0.000  0.000  0.000  0.226
tot    0.425  0.003  0.000  0.025  0.000  0.000  0.000  0.000  0.000  0.452
 
band     2 # energy   -0.33318028 # occ.  2.00000000
 
ion      s     py     pz     px    dxy    dyz    dz2    dxz  x2-y2    tot
    1  0.108  0.011  0.000  0.085  0.000  0.000  0.000  0.000  0.000  0.203
    2  0.108  0.011  0.000  0.085  0.000  0.000  0.000  0.000  0.000  0.203
tot    0.215  0.021  0.000  0.170  0.000  0.000  0.000  0.000  0.000  0.406
 
band     3 # energy    4.53858681 # occ.  2.00000000
 
ion      s     py     pz     px    dxy    dyz    dz2    dxz  x2-y2    tot
    1  0.000  0.000  0.214  0.000  0.000  0.000  0.000  0.000  0.000  0.214
    2  0.000  0.000  0.214  0.000  0.000  0.000  0.000  0.000  0.000  0.214
tot    0.000  0.000  0.428  0.000  0.000  0.000  0.000  0.000  0.000  0.428
 
band     4 # energy    4.53858962 # occ.  2.00000000
 
ion      s     py     pz     px    dxy    dyz    dz2    dxz  x2-y2    tot
    1  0.000  0.190  0.000  0.024  0.000  0.000  0.000  0.000  0.000  0.214
    2  0.000  0.190  0.000  0.024  0.000  0.000  0.000  0.000  0.000  0.214
tot    0.000  0.381  0.000  0.048  0.000  0.000  0.000  0.000  0.000  0.428
 
band     5 # energy    7.20013819 # occ.  0.00000000
 
ion      s     py     pz     px    dxy    dyz    dz2    dxz  x2-y2    tot
    1  0.178  0.003  0.000  0.024  0.000  0.000  0.000  0.000  0.000  0.205
    2  0.178  0.003  0.000  0.024  0.000  0.000  0.000  0.000  0.000  0.205
tot    0.357  0.006  0.000  0.048  0.000  0.000  0.000  0.000  0.000  0.411
 
band     6 # energy    9.06224386 # occ.  0.00000000
 
ion      s     py     pz     px    dxy    dyz    dz2    dxz  x2-y2    tot
    1  0.000  0.093  0.000  0.012  0.000  0.000  0.000  0.000  0.000  0.105
    2  0.000  0.093  0.000  0.012  0.000  0.000  0.000  0.000  0.000  0.105
tot    0.000  0.187  0.000  0.023  0.000  0.000  0.000  0.000  0.000  0.210
 
band     7 # energy    9.06225250 # occ.  0.00000000
 
ion      s     py     pz     px    dxy    dyz    dz2    dxz  x2-y2    tot
    1  0.000  0.000  0.105  0.000  0.000  0.000  0.000  0.000  0.000  0.105
    2  0.000  0.000  0.105  0.000  0.000  0.000  0.000  0.000  0.000  0.105
tot    0.000  0.000  0.210  0.000  0.000  0.000  0.000  0.000  0.000  0.210
 
band     8 # energy   13.44850776 # occ.  0.00000000
 
ion      s     py     pz     px    dxy    dyz    dz2    dxz  x2-y2    tot
    1  0.004  0.009  0.000  0.074  0.000  0.000  0.000  0.000  0.000  0.087
    2  0.004  0.009  0.000  0.074  0.000  0.000  0.000  0.000  0.000  0.087
tot    0.007  0.018  0.000  0.147  0.000  0.000  0.000  0.000  0.000  0.173
 

 k-point    10 :    0.42857143 0.00000000 0.00000000     weight = 0.00086384

band     1 # energy   -4.16749910 # occ.  2.00000000
 
ion      s     py     pz     px    dxy    dyz    dz2    dxz  x2-y2    tot
    1  0.217  0.002  0.000  0.013  0.000  0.000  0.000  0.000  0.000  0.231
    2  0.217  0.002  0.000  0.013  0.000  0.000  0.000  0.000  0.000  0.231
tot    0.434  0.003  0.000  0.025  0.000  0.000  0.000  0.000  0.000  0.463
 
band     2 # energy   -0.88045696 # occ.  2.00000000
 
ion      s     py     pz     px    dxy    dyz    dz2    dxz  x2-y2    tot
    1  0.105  0.010  0.000  0.082  0.000  0.000  0.000  0.000  0.000  0.197
    2  0.105  0.010  0.000  0.082  0.000  0.000  0.000  0.000  0.000  0.197
tot    0.210  0.021  0.000  0.164  0.000  0.000  0.000  0.000  0.000  0.395
 
band     3 # energy    4.47440921 # occ.  2.00000000
 
ion      s     py     pz     px    dxy    dyz    dz2    dxz  x2-y2    tot
    1  0.000  0.000  0.215  0.000  0.000  0.000  0.000  0.000  0.000  0.215
    2  0.000  0.000  0.215  0.000  0.000  0.000  0.000  0.000  0.000  0.215
tot    0.000  0.000  0.430  0.000  0.000  0.000  0.000  0.000  0.000  0.430
 
band     4 # energy    4.47441212 # occ.  2.00000000
 
ion      s     py     pz     px    dxy    dyz    dz2    dxz  x2-y2    tot
    1  0.000  0.191  0.000  0.024  0.000  0.000  0.000  0.000  0.000  0.215
    2  0.000  0.191  0.000  0.024  0.000  0.000  0.000  0.000  0.000  0.215
tot    0.000  0.382  0.000  0.048  0.000  0.000  0.000  0.000  0.000  0.430
 
band     5 # energy    7.12586552 # occ.  0.00000000
 
ion      s     py     pz     px    dxy    dyz    dz2    dxz  x2-y2    tot
    1  0.183  0.003  0.000  0.020  0.000  0.000  0.000  0.000  0.000  0.205
    2  0.183  0.003  0.000  0.020  0.000  0.000  0.000  0.000  0.000  0.205
tot    0.365  0.005  0.000  0.041  0.000  0.000  0.000  0.000  0.000  0.411
 
band     6 # energy    9.00481125 # occ.  0.00000000
 
ion      s     py     pz     px    dxy    dyz    dz2    dxz  x2-y2    tot
    1  0.000  0.088  0.000  0.011  0.000  0.000  0.000  0.000  0.000  0.099
    2  0.000  0.088  0.000  0.011  0.000  0.000  0.000  0.000  0.000  0.099
tot    0.000  0.175  0.000  0.022  0.000  0.000  0.000  0.000  0.000  0.197
 
band     7 # energy    9.00481998 # occ.  0.00000000
 
ion      s     py     pz     px    dxy    dyz    dz2    dxz  x2-y2    tot
    1  0.000  0.000  0.099  0.000  0.000  0.000  0.000  0.000  0.000  0.099
    2  0.000  0.000  0.099  0.000  0.000  0.000  0.000  0.000  0.000  0.099
tot    0.000  0.000  0.197  0.000  0.000  0.000  0.000  0.000  0.000  0.197
 
band     8 # energy   13.37674954 # occ.  0.00000000
 
ion      s     py     pz     px    dxy    dyz    dz2    dxz  x2-y2    tot
    1  0.004  0.007  0.000  0.055  0.000  0.000  0.000  0.000  0.000  0.066
    2  0.004  0.007  0.000  0.055  0.000  0.000  0.000  0.000  0.000  0.066
tot    0.009  0.014  0.000  0.111  0.000  0.000  0.000  0.000  0.000  0.133
 

 k-point    11 :    0.47619048 0.00000000 0.00000000     weight = 0.00086384

band     1 # energy   -3.95080527 # occ.  2.00000000
 
ion      s     py     pz     px    dxy    dyz    dz2    dxz  x2-y2    tot
    1  0.223  0.001  0.000  0.012  0.000  0.000  0.000  0.000  0.000  0.236
    2  0.223  0.001  0.000  0.012  0.000  0.000  0.000  0.000  0.000  0.236