unknown system                          
           1
     3.348777    0.000000    1.933417
     1.116259    3.157259    1.933417
     0.000000    0.000000    3.866835
   Si
     2
Direct configuration=     1
   0.87500000  0.87500000  0.87500000
   0.12500000  0.12500000  0.12500000
