   2   2   0   0
  0.1982335E+02  0.3827430E-09  0.3827431E-09  0.3827430E-09  0.5000000E-15
  1.000000000000000E-004
  CAR 
 unknown system                          
     16.93874715     -7.17269987  301      6.09110760      1.00000000
     -7.173  0.0000E+00  0.0000E+00
     -7.092  0.0000E+00  0.0000E+00
     -7.012  0.0000E+00  0.0000E+00
     -6.932  0.0000E+00  0.0000E+00
     -6.851  0.0000E+00  0.0000E+00
     -6.771  0.0000E+00  0.0000E+00
     -6.690  0.0000E+00  0.0000E+00
     -6.610  0.0000E+00  0.0000E+00
     -6.530  0.0000E+00  0.0000E+00
     -6.449  0.0000E+00  0.0000E+00
     -6.369  0.1599E-19  0.1285E-20
     -6.289  0.2965E-12  0.2383E-13
     -6.208  0.2873E-07  0.2309E-08
     -6.128  0.2192E-04  0.1764E-05
     -6.047  0.3687E-03  0.3140E-04
     -5.967  0.1020E-02  0.1134E-03
     -5.887  0.1353E-02  0.2221E-03
     -5.806  0.1884E-02  0.3736E-03
     -5.726  0.1660E-02  0.5070E-03
     -5.646  0.2647E-02  0.7198E-03
     -5.565  0.2137E-02  0.8916E-03
     -5.485  0.2634E-02  0.1103E-02
     -5.405  0.2919E-02  0.1338E-02
     -5.324  0.3240E-02  0.1598E-02
     -5.244  0.3153E-02  0.1852E-02
     -5.163  0.2621E-02  0.2062E-02
     -5.083  0.4532E-02  0.2427E-02
     -5.003  0.3676E-02  0.2722E-02
     -4.922  0.3792E-02  0.3027E-02
     -4.842  0.3087E-02  0.3275E-02
     -4.762  0.5396E-02  0.3709E-02
     -4.681  0.4079E-02  0.4036E-02
     -4.601  0.4771E-02  0.4420E-02
     -4.520  0.4770E-02  0.4803E-02
     -4.440  0.4719E-02  0.5183E-02
     -4.360  0.4110E-02  0.5513E-02
     -4.279  0.6579E-02  0.6042E-02
     -4.199  0.6470E-02  0.6562E-02
     -4.119  0.4988E-02  0.6963E-02
     -4.038  0.5359E-02  0.7393E-02
     -3.958  0.6264E-02  0.7897E-02
     -3.877  0.7300E-02  0.8483E-02
     -3.797  0.7830E-02  0.9113E-02
     -3.717  0.7438E-02  0.9711E-02
     -3.636  0.1018E-01  0.1053E-01
     -3.556  0.8604E-02  0.1122E-01
     -3.476  0.4677E-02  0.1160E-01
     -3.395  0.1025E-01  0.1242E-01
     -3.315  0.7791E-02  0.1305E-01
     -3.234  0.7603E-02  0.1366E-01
     -3.154  0.6588E-02  0.1419E-01
     -3.074  0.8297E-02  0.1485E-01
     -2.993  0.7266E-02  0.1544E-01
     -2.913  0.3081E-02  0.1569E-01
     -2.833  0.4573E-02  0.1605E-01
     -2.752  0.7630E-02  0.1667E-01
     -2.672  0.8193E-02  0.1732E-01
     -2.592  0.5453E-02  0.1776E-01
     -2.511  0.4791E-02  0.1815E-01
     -2.431  0.2242E-02  0.1833E-01
     -2.350  0.2559E-02  0.1853E-01
     -2.270  0.2949E-02  0.1877E-01
     -2.190  0.6656E-02  0.1931E-01
     -2.109  0.4408E-02  0.1966E-01
     -2.029  0.3043E-02  0.1990E-01
     -1.949  0.1164E-02  0.2000E-01
     -1.868  0.2016E-04  0.2000E-01
     -1.788  0.4335E-08  0.2000E-01
     -1.707  0.3655E-06  0.2000E-01
     -1.627  0.2422E-03  0.2002E-01
     -1.547  0.3964E-02  0.2034E-01
     -1.466  0.7000E-02  0.2090E-01
     -1.386  0.3235E-02  0.2116E-01
     -1.306  0.2115E-02  0.2133E-01
     -1.225  0.2460E-02  0.2153E-01
     -1.145  0.1843E-02  0.2168E-01
     -1.064  0.4999E-02  0.2208E-01
     -0.984  0.1147E-01  0.2300E-01
     -0.904  0.1922E-01  0.2454E-01
     -0.823  0.1488E-01  0.2574E-01
     -0.743  0.1049E-01  0.2658E-01
     -0.663  0.7112E-02  0.2716E-01
     -0.582  0.8869E-02  0.2787E-01
     -0.502  0.9102E-02  0.2860E-01
     -0.421  0.3656E-02  0.2889E-01
     -0.341  0.7272E-02  0.2948E-01
     -0.261  0.1144E-01  0.3040E-01
     -0.180  0.5363E-02  0.3083E-01
     -0.100  0.1849E-02  0.3098E-01
     -0.020  0.4481E-02  0.3134E-01
      0.061  0.7883E-02  0.3197E-01
      0.141  0.5109E-02  0.3238E-01
      0.221  0.1836E-02  0.3253E-01
      0.302  0.1633E-02  0.3266E-01
      0.382  0.6280E-02  0.3316E-01
      0.463  0.8550E-02  0.3385E-01
      0.543  0.2529E-02  0.3405E-01
      0.623  0.9799E-03  0.3413E-01
      0.704  0.1808E-02  0.3428E-01
      0.784  0.3700E-02  0.3458E-01
      0.864  0.6262E-02  0.3508E-01
      0.945  0.2854E-02  0.3531E-01
      1.025  0.9763E-03  0.3539E-01
      1.106  0.8705E-03  0.3546E-01
      1.186  0.3423E-02  0.3573E-01
      1.266  0.5248E-02  0.3615E-01
      1.347  0.3650E-02  0.3645E-01
      1.427  0.2005E-03  0.3646E-01
      1.507  0.2271E-02  0.3665E-01
      1.588  0.5503E-02  0.3709E-01
      1.668  0.7434E-02  0.3769E-01
      1.749  0.1075E-01  0.3855E-01
      1.829  0.1621E-01  0.3985E-01
      1.909  0.8932E-02  0.4057E-01
      1.990  0.9527E-02  0.4134E-01
      2.070  0.8689E-02  0.4203E-01
      2.150  0.1268E-01  0.4305E-01
      2.231  0.1195E-01  0.4401E-01
      2.311  0.1031E-01  0.4484E-01
      2.392  0.7902E-02  0.4548E-01
      2.472  0.9346E-02  0.4623E-01
      2.552  0.8836E-02  0.4694E-01
      2.633  0.1526E-01  0.4817E-01
      2.713  0.1052E-01  0.4901E-01
      2.793  0.1017E-01  0.4983E-01
      2.874  0.1314E-01  0.5088E-01
      2.954  0.1118E-01  0.5178E-01
      3.034  0.1256E-01  0.5279E-01
      3.115  0.1425E-01  0.5394E-01
      3.195  0.1669E-01  0.5528E-01
      3.276  0.1625E-01  0.5659E-01
      3.356  0.1394E-01  0.5771E-01
      3.436  0.1408E-01  0.5884E-01
      3.517  0.1204E-01  0.5980E-01
      3.597  0.1374E-01  0.6091E-01
      3.677  0.1511E-01  0.6212E-01
      3.758  0.1558E-01  0.6338E-01
      3.838  0.1227E-01  0.6436E-01
      3.919  0.1015E-01  0.6518E-01
      3.999  0.1440E-01  0.6634E-01
      4.079  0.1310E-01  0.6739E-01
      4.160  0.1288E-01  0.6842E-01
      4.240  0.1032E-01  0.6925E-01
      4.320  0.1374E-01  0.7036E-01
      4.401  0.1122E-01  0.7126E-01
      4.481  0.1151E-01  0.7218E-01
      4.562  0.1322E-01  0.7325E-01
      4.642  0.9018E-02  0.7397E-01
      4.722  0.9136E-02  0.7471E-01
      4.803  0.1159E-01  0.7564E-01
      4.883  0.9788E-02  0.7642E-01
      4.963  0.5419E-02  0.7686E-01
      5.044  0.4951E-02  0.7726E-01
      5.124  0.5442E-02  0.7770E-01
      5.205  0.5041E-02  0.7810E-01
      5.285  0.5421E-02  0.7854E-01
      5.365  0.3682E-02  0.7883E-01
      5.446  0.2848E-02  0.7906E-01
      5.526  0.3187E-02  0.7932E-01
      5.606  0.2091E-02  0.7948E-01
      5.687  0.2819E-02  0.7971E-01
      5.767  0.1691E-02  0.7985E-01
      5.847  0.1067E-02  0.7993E-01
      5.928  0.7531E-03  0.7999E-01
      6.008  0.7737E-04  0.8000E-01
      6.089  0.1875E-06  0.8000E-01
      6.169  0.3804E-11  0.8000E-01
      6.249  0.5116E-18  0.8000E-01
      6.330  0.1107E-13  0.8000E-01
      6.410  0.5156E-08  0.8000E-01
      6.490  0.1888E-04  0.8000E-01
      6.571  0.8958E-03  0.8007E-01
      6.651  0.1825E-02  0.8022E-01
      6.732  0.9691E-03  0.8030E-01
      6.812  0.3031E-02  0.8054E-01
      6.892  0.4895E-02  0.8094E-01
      6.973  0.2921E-02  0.8117E-01
      7.053  0.5314E-02  0.8160E-01
      7.133  0.3464E-02  0.8188E-01
      7.214  0.3673E-02  0.8217E-01
      7.294  0.5390E-02  0.8260E-01
      7.375  0.9772E-02  0.8339E-01
      7.455  0.5594E-02  0.8384E-01
      7.535  0.5128E-02  0.8425E-01
      7.616  0.7242E-02  0.8483E-01
      7.696  0.9768E-02  0.8562E-01
      7.776  0.8425E-02  0.8630E-01
      7.857  0.7969E-02  0.8694E-01
      7.937  0.1361E-01  0.8803E-01
      8.018  0.1113E-01  0.8892E-01
      8.098  0.1217E-01  0.8990E-01
      8.178  0.1539E-01  0.9114E-01
      8.259  0.2003E-01  0.9275E-01
      8.339  0.1252E-01  0.9375E-01
      8.419  0.1244E-01  0.9475E-01
      8.500  0.1531E-01  0.9598E-01
      8.580  0.1595E-01  0.9727E-01
      8.660  0.1356E-01  0.9836E-01
      8.741  0.1056E-01  0.9920E-01
      8.821  0.1184E-01  0.1002E+00
      8.902  0.1014E-01  0.1010E+00
      8.982  0.1167E-01  0.1019E+00
      9.062  0.1116E-01  0.1028E+00
      9.143  0.1170E-01  0.1037E+00
      9.223  0.2068E-01  0.1054E+00
      9.303  0.2210E-01  0.1072E+00
      9.384  0.1694E-01  0.1085E+00
      9.464  0.2193E-01  0.1103E+00
      9.545  0.1796E-01  0.1118E+00
      9.625  0.1549E-01  0.1130E+00
      9.705  0.1604E-01  0.1143E+00
      9.786  0.1175E-01  0.1152E+00
      9.866  0.1583E-01  0.1165E+00
      9.946  0.1563E-01  0.1178E+00
     10.027  0.1181E-01  0.1187E+00
     10.107  0.1475E-01  0.1199E+00
     10.188  0.1090E-01  0.1208E+00
     10.268  0.1256E-01  0.1218E+00
     10.348  0.1264E-01  0.1228E+00
     10.429  0.1193E-01  0.1238E+00
     10.509  0.1153E-01  0.1247E+00
     10.589  0.1439E-01  0.1258E+00
     10.670  0.1116E-01  0.1267E+00
     10.750  0.1337E-01  0.1278E+00
     10.831  0.1029E-01  0.1286E+00
     10.911  0.1175E-01  0.1296E+00
     10.991  0.1599E-01  0.1309E+00
     11.072  0.1210E-01  0.1318E+00
     11.152  0.8811E-02  0.1325E+00
     11.232  0.1167E-01  0.1335E+00
     11.313  0.1697E-01  0.1348E+00
     11.393  0.1050E-01  0.1357E+00
     11.473  0.1003E-01  0.1365E+00
     11.554  0.5739E-02  0.1370E+00
     11.634  0.1240E-01  0.1380E+00
     11.715  0.1487E-01  0.1391E+00
     11.795  0.8364E-02  0.1398E+00
     11.875  0.9239E-02  0.1406E+00
     11.956  0.1427E-01  0.1417E+00
     12.036  0.1195E-01  0.1427E+00
     12.116  0.8218E-02  0.1433E+00
     12.197  0.9442E-02  0.1441E+00
     12.277  0.1034E-01  0.1449E+00
     12.358  0.8052E-02  0.1456E+00
     12.438  0.5283E-02  0.1460E+00
     12.518  0.7703E-02  0.1466E+00
     12.599  0.1173E-01  0.1476E+00
     12.679  0.1220E-01  0.1485E+00
     12.759  0.9359E-02  0.1493E+00
     12.840  0.9642E-02  0.1501E+00
     12.920  0.8393E-02  0.1507E+00
     13.001  0.8085E-02  0.1514E+00
     13.081  0.2874E-02  0.1516E+00
     13.161  0.3115E-02  0.1519E+00
     13.242  0.7408E-02  0.1525E+00
     13.322  0.6446E-02  0.1530E+00
     13.402  0.8849E-02  0.1537E+00
     13.483  0.6924E-02  0.1542E+00
     13.563  0.9359E-02  0.1550E+00
     13.644  0.5822E-02  0.1555E+00
     13.724  0.4654E-02  0.1558E+00
     13.804  0.3631E-02  0.1561E+00
     13.885  0.4094E-02  0.1565E+00
     13.965  0.3652E-02  0.1568E+00
     14.045  0.5360E-02  0.1572E+00
     14.126  0.4496E-03  0.1572E+00
     14.206  0.1783E-02  0.1574E+00
     14.286  0.8890E-02  0.1581E+00
     14.367  0.6193E-02  0.1586E+00
     14.447  0.1386E-02  0.1587E+00
     14.528  0.7049E-03  0.1587E+00
     14.608  0.1102E-04  0.1588E+00
     14.688  0.1080E-03  0.1588E+00
     14.769  0.2169E-02  0.1589E+00
     14.849  0.1258E-02  0.1590E+00
     14.929  0.6579E-03  0.1591E+00
     15.010  0.9755E-03  0.1592E+00
     15.090  0.4630E-02  0.1595E+00
     15.171  0.2034E-02  0.1597E+00
     15.251  0.2613E-03  0.1597E+00
     15.331  0.1952E-05  0.1597E+00
     15.412  0.1379E-09  0.1597E+00
     15.492  0.1203E-06  0.1597E+00
     15.572  0.1074E-03  0.1597E+00
     15.653  0.1222E-02  0.1598E+00
     15.733  0.4654E-03  0.1599E+00
     15.814  0.8058E-03  0.1599E+00
     15.894  0.7906E-03  0.1600E+00
     15.974  0.6460E-04  0.1600E+00
     16.055  0.8614E-07  0.1600E+00
     16.135  0.8894E-12  0.1600E+00
     16.215  0.0000E+00  0.1600E+00
     16.296  0.0000E+00  0.1600E+00
     16.376  0.0000E+00  0.1600E+00
     16.457  0.0000E+00  0.1600E+00
     16.537  0.0000E+00  0.1600E+00
     16.617  0.0000E+00  0.1600E+00
     16.698  0.0000E+00  0.1600E+00
     16.778  0.0000E+00  0.1600E+00
     16.858  0.0000E+00  0.1600E+00
     16.939  0.0000E+00  0.1600E+00
