    2    2  100    1
  0.1982335E+02  0.3827430E-09  0.3827431E-09  0.3827430E-09  0.5000000E-15
  1.000000000000000E-004
  CAR 
 unknown system                          
      8    182      8
 
  0.4166667E-01  0.4166667E-01  0.4166667E-01  0.1157407E-02
    1       -6.076725   1.000000
    2        5.671409   1.000000
    3        5.887657   1.000000
    4        5.887659   1.000000
    5        8.552328   0.000000
    6        8.555166   0.000000
    7        8.555173   0.000000
    8        9.575014   0.000000
 
  0.1250000E+00  0.4166667E-01  0.4166667E-01  0.3472222E-02
    1       -5.954493   1.000000
    2        4.784745   1.000000
    3        5.460672   1.000000
    4        5.835678   1.000000
    5        8.648686   0.000000
    6        8.673773   0.000000
    7        8.884822   0.000000
    8       10.368618   0.000000
 
  0.2083333E+00  0.4166667E-01  0.4166667E-01  0.3472222E-02
    1       -5.652716   1.000000
    2        3.268668   1.000000
    3        5.089050   1.000000
    4        5.564345   1.000000
    5        8.403371   0.000000
    6        9.065842   0.000000
    7        9.373490   0.000000
    8       11.674430   0.000000
 
  0.2916667E+00  0.4166667E-01  0.4166667E-01  0.3472222E-02
    1       -5.184140   1.000000
    2        1.739067   1.000000
    3        4.791909   1.000000
    4        5.245725   1.000000
    5        8.098133   0.000000
    6        9.347638   0.000000
    7        9.604977   0.000000
    8       12.748143   0.000000
 
  0.3750000E+00  0.4166667E-01  0.4166667E-01  0.3472222E-02
    1       -4.584147   1.000000
    2        0.360329   1.000000
    3        4.598958   1.000000
    4        4.970790   1.000000
    5        7.853454   0.000000
    6        9.372506   0.000000
    7        9.509505   0.000000
    8       13.613558   0.000000
 
  0.4583333E+00  0.4166667E-01  0.4166667E-01  0.3472222E-02
    1       -3.970615   1.000000
    2       -0.707958   1.000000
    3        4.518734   1.000000
    4        4.774797   1.000000
    5        7.707467   0.000000
    6        9.325958   0.000000
    7        9.328974   0.000000
    8       13.797516   0.000000
 
 -0.4583333E+00  0.4166667E-01  0.4166667E-01  0.3472222E-02
    1       -3.733942   1.000000
    2       -1.059283   1.000000
    3        4.548814   1.000000
    4        4.673186   1.000000
    5        7.671537   0.000000
    6        9.224410   0.000000
    7        9.357324   0.000000
    8       13.760912   0.000000
 
 -0.3750000E+00  0.4166667E-01  0.4166667E-01  0.3472222E-02
    1       -4.160780   1.000000
    2       -0.403699   1.000000
    3        4.675331   1.000000
    4        4.682167   1.000000
    5        7.747368   0.000000
    6        9.234062   0.000000
    7        9.495325   0.000000
    8       13.704121   0.000000
 
 -0.2916667E+00  0.4166667E-01  0.4166667E-01  0.3472222E-02
    1       -4.794388   1.000000
    2        0.795188   1.000000
    3        4.787105   1.000000
    4        4.908730   1.000000
    5        7.929469   0.000000
    6        9.291858   0.000000
    7        9.666766   0.000000
    8       12.910358   0.000000
 
 -0.2083333E+00  0.4166667E-01  0.4166667E-01  0.3472222E-02
    1       -5.357338   1.000000
    2        2.238178   1.000000
    3        5.007229   1.000000
    4        5.210026   1.000000
    5        8.196800   0.000000
    6        9.203501   0.000000
    7        9.675590   0.000000
    8       12.147526   0.000000
 
 -0.1250000E+00  0.4166667E-01  0.4166667E-01  0.3472222E-02
    1       -5.772668   1.000000
    2        3.792661   1.000000
    3        5.317466   1.000000
    4        5.538015   1.000000
    5        8.465239   0.000000
    6        8.878169   0.000000
    7        9.346974   0.000000
    8       11.200755   0.000000
 
 -0.4166667E-01  0.4166667E-01  0.4166667E-01  0.3472222E-02
    1       -6.015482   1.000000
    2        5.253390   1.000000
    3        5.658945   1.000000
    4        5.766136   1.000000
    5        8.415648   0.000000
    6        8.771910   0.000000
    7        8.857069   0.000000
    8        9.949545   0.000000
 
  0.1250000E+00  0.1250000E+00  0.4166667E-01  0.3472222E-02
    1       -5.893245   1.000000
    2        4.707429   1.000000
    3        5.308079   1.000000
    4        5.418334   1.000000
    5        8.172373   0.000000
    6        9.212791   0.000000
    7        9.352622   0.000000
    8       10.426348   0.000000
 
  0.2083333E+00  0.1250000E+00  0.4166667E-01  0.6944444E-02
    1       -5.650860   1.000000
    2        3.663122   1.000000
    3        4.711431   1.000000
    4        5.273568   1.000000
    5        8.186699   0.000000
    6        9.418348   0.000000
    7        9.862245   0.000000
    8       10.920740   0.000000
 
  0.2916667E+00  0.1250000E+00  0.4166667E-01  0.6944444E-02
    1       -5.236325   1.000000
    2        2.225797   1.000000
    3        4.329436   1.000000
    4        4.978978   1.000000
    5        8.397257   0.000000
    6        9.363343   0.000000
    7       10.238481   0.000000
    8       11.063477   0.000000
 
  0.3750000E+00  0.1250000E+00  0.4166667E-01  0.6944444E-02
    1       -4.674145   1.000000
    2        0.829277   1.000000
    3        4.070504   1.000000
    4        4.670802   1.000000
    5        8.360576   0.000000
    6        9.329693   0.000000
    7       10.227339   0.000000
    8       11.670881   0.000000
 
  0.4583333E+00  0.1250000E+00  0.4166667E-01  0.6944444E-02
    1       -4.040272   1.000000
    2       -0.349152   1.000000
    3        3.891862   1.000000
    4        4.474164   1.000000
    5        8.257895   0.000000
    6        9.219533   0.000000
    7       10.045386   0.000000
    8       12.820236   0.000000
 
 -0.4583333E+00  0.1250000E+00  0.4166667E-01  0.6944444E-02
    1       -3.611785   1.000000
    2       -0.998814   1.000000
    3        3.767548   1.000000
    4        4.449108   1.000000
    5        8.228706   0.000000
    6        9.158670   0.000000
    7        9.903502   0.000000
    8       13.974991   0.000000
 
 -0.3750000E+00  0.1250000E+00  0.4166667E-01  0.6944444E-02
    1       -3.850897   1.000000
    2       -0.647539   1.000000
    3        3.716539   1.000000
    4        4.586773   1.000000
    5        8.296979   0.000000
    6        9.197639   0.000000
    7        9.884381   0.000000
    8       13.662786   0.000000
 
 -0.2916667E+00  0.1250000E+00  0.4166667E-01  0.6944444E-02
    1       -4.465548   1.000000
    2        0.407013   1.000000
    3        3.774780   1.000000
    4        4.846229   1.000000
    5        8.453144   0.000000
    6        9.291087   0.000000
    7        9.969894   0.000000
    8       12.476758   0.000000
 
 -0.2083333E+00  0.1250000E+00  0.4166667E-01  0.6944444E-02
    1       -5.064621   1.000000
    2        1.745720   1.000000
    3        3.971089   1.000000
    4        5.177602   1.000000
    5        8.659483   0.000000
    6        9.263077   0.000000
    7       10.003054   0.000000
    8       11.625815   0.000000
 
 -0.1250000E+00  0.1250000E+00  0.4166667E-01  0.6944444E-02
    1       -5.531964   1.000000
    2        3.156501   1.000000
    3        4.353492   1.000000
    4        5.498328   1.000000
    5        8.688960   0.000000
    6        9.118768   0.000000
    7        9.683229   0.000000
    8       11.329341   0.000000
 
 -0.4166667E-01  0.1250000E+00  0.4166667E-01  0.6944444E-02
    1       -5.832796   1.000000
    2        4.239078   1.000000
    3        5.106999   1.000000
    4        5.653710   1.000000
    5        8.464670   0.000000
    6        8.964588   0.000000
    7        9.274389   0.000000
    8       10.855562   0.000000
 
  0.2083333E+00  0.2083333E+00  0.4166667E-01  0.3472222E-02
    1       -5.467941   1.000000
    2        3.416191   1.000000
    3        4.541767   1.000000
    4        4.559055   1.000000
    5        7.566723   0.000000
    6       10.015363   0.000000
    7       10.574313   0.000000
    8       10.614327   0.000000
 
  0.2916667E+00  0.2083333E+00  0.4166667E-01  0.6944444E-02
    1       -5.109874   1.000000
    2        2.445610   1.000000
    3        3.950101   1.000000
    4        4.377295   1.000000
    5        7.601531   0.000000
    6        9.620027   0.000000
    7       10.789415   0.000000
    8       11.227001   0.000000
 
  0.3750000E+00  0.2083333E+00  0.4166667E-01  0.6944444E-02
    1       -4.593615   1.000000
    2        1.222283   1.000000
    3        3.495504   1.000000
    4        4.108170   1.000000
    5        7.862540   0.000000
    6        9.838152   0.000000
    7       10.592709   0.000000
    8       11.422145   0.000000
 
  0.4583333E+00  0.2083333E+00  0.4166667E-01  0.6944444E-02
    1       -3.968321   1.000000
    2        0.051526   1.000000
    3        3.101106   1.000000
    4        3.967556   1.000000
    5        7.932445   0.000000
    6       10.318372   0.000000
    7       10.849853   0.000000
    8       11.283948   0.000000
 
 -0.4583333E+00  0.2083333E+00  0.4166667E-01  0.6944444E-02
    1       -3.414180   1.000000
    2       -0.787616   1.000000
    3        2.787896   1.000000
    4        4.004716   1.000000
    5        8.011177   0.000000
    6       10.088766   0.000000
    7       11.091157   0.000000
    8       12.289696   0.000000
 
 -0.3750000E+00  0.2083333E+00  0.4166667E-01  0.6944444E-02
    1       -3.424796   1.000000
    2       -0.768989   1.000000
    3        2.602323   1.000000
    4        4.197988   1.000000
    5        8.214517   0.000000
    6        9.937057   0.000000
    7       10.962115   0.000000
    8       13.623084   0.000000
 
 -0.2916667E+00  0.2083333E+00  0.4166667E-01  0.6944444E-02
    1       -3.984981   1.000000
    2        0.083154   1.000000
    3        2.588786   1.000000
    4        4.513682   1.000000
    5        8.539206   0.000000
    6        9.847565   0.000000
    7       10.886603   0.000000
    8       12.255855   0.000000
 
 -0.2083333E+00  0.2083333E+00  0.4166667E-01  0.6944444E-02
    1       -4.607438   1.000000
    2        1.196887   1.000000
    3        2.833838   1.000000
    4        4.897951   1.000000
    5        8.912590   0.000000
    6        9.625225   0.000000
    7       10.706942   0.000000
    8       11.327247   0.000000
 
 -0.1250000E+00  0.2083333E+00  0.4166667E-01  0.6944444E-02
    1       -5.119564   1.000000
    2        2.129263   1.000000
    3        3.567595   1.000000
    4        5.244748   1.000000
    5        9.008012   0.000000
    6        9.210188   0.000000
    7       10.148644   0.000000
    8       11.251323   0.000000
 
 -0.4166667E-01  0.2083333E+00  0.4166667E-01  0.6944444E-02
    1       -5.473601   1.000000
    2        2.741361   1.000000
    3        4.723237   1.000000
    4        5.371356   1.000000
    5        8.488296   0.000000
    6        9.074403   0.000000
    7        9.736111   0.000000
    8       11.634580   0.000000
 
  0.2916667E+00  0.2916667E+00  0.4166667E-01  0.3472222E-02
    1       -4.807997   1.000000
    2        1.987228   1.000000
    3        3.825886   1.000000
    4        3.879720   1.000000
    5        7.020182   0.000000
    6        8.802697   0.000000
    7       11.964070   0.000000
    8       12.031454   0.000000
 
  0.3750000E+00  0.2916667E+00  0.4166667E-01  0.6944444E-02
    1       -4.342074   1.000000
    2        1.133045   1.000000
    3        3.325654   1.000000
    4        3.648412   1.000000
    5        7.136111   0.000000
    6        8.483077   0.000000
    7       12.112810   0.000000
    8       12.719192   0.000000
 
  0.4583333E+00  0.2916667E+00  0.4166667E-01  0.6944444E-02
    1       -3.743918   1.000000
    2        0.182631   1.000000
    3        2.684400   1.000000
    4        3.517619   1.000000
    5        7.371743   0.000000
    6        9.028572   0.000000
    7       11.890964   0.000000
    8       12.801836   0.000000
 
 -0.4583333E+00  0.2916667E+00  0.4166667E-01  0.6944444E-02
    1       -3.125298   1.000000
    2       -0.653302   1.000000
    3        2.129723   1.000000
    4        3.558528   1.000000
    5        7.486050   0.000000
    6       10.292942   0.000000
    7       11.624973   0.000000
    8       12.636864   0.000000
 
 -0.3750000E+00  0.2916667E+00  0.4166667E-01  0.6944444E-02
    1       -2.915602   1.000000
    2       -0.900486   1.000000
    3        1.785502   1.000000
    4        3.755925   1.000000
    5        7.707800   0.000000
    6       11.242834   0.000000
    7       11.977458   0.000000
    8       12.503187   0.000000
 
 -0.2916667E+00  0.2916667E+00  0.4166667E-01  0.6944444E-02
    1       -3.389843   1.000000
    2       -0.318249   1.000000
    3        1.746394   1.000000
    4        4.084437   1.000000
    5        8.075092   0.000000
    6       11.015671   0.000000
    7       12.108434   0.000000
    8       12.290119   0.000000
 
 -0.2083333E+00  0.2916667E+00  0.4166667E-01  0.6944444E-02
    1       -4.017227   1.000000
    2        0.377267   1.000000
    3        2.208701   1.000000
    4        4.495272   1.000000
    5        8.530230   0.000000
    6       10.260424   0.000000
    7       11.366763   0.000000
    8       11.694563   0.000000
 
 -0.1250000E+00  0.2916667E+00  0.4166667E-01  0.6944444E-02
    1       -4.559477   1.000000
    2        0.850207   1.000000
    3        3.236210   1.000000
    4        4.882373   1.000000
    5        8.778443   0.000000
    6        9.424225   0.000000
    7       10.345881   0.000000
    8       11.811533   0.000000
 
 -0.4166667E-01  0.2916667E+00  0.4166667E-01  0.6944444E-02
    1       -4.955600   1.000000
    2        1.267064   1.000000
    3        4.455288   1.000000
    4        5.048025   1.000000
    5        8.252884   0.000000
    6        9.258898   0.000000
    7        9.839742   0.000000
    8       12.210065   0.000000
 
  0.3750000E+00  0.3750000E+00  0.4166667E-01  0.3472222E-02
    1       -3.925995   1.000000
    2        0.521360   1.000000
    3        3.306072   1.000000
    4        3.398738   1.000000
    5        6.665831   0.000000
    6        7.738156   0.000000
    7       13.500972   0.000000
    8       13.522922   0.000000
 
  0.4583333E+00  0.3750000E+00  0.4166667E-01  0.6944444E-02
    1       -3.365279   1.000000
    2       -0.234568   1.000000
    3        2.898970   1.000000
    4        3.195043   1.000000
    5        6.877002   0.000000
    6        7.646115   0.000000
    7       13.539991   0.000000
    8       14.286073   0.000000
 
 -0.4583333E+00  0.3750000E+00  0.4166667E-01  0.6944444E-02
    1       -2.726389   1.000000
    2       -0.947326   1.000000
    3        2.172663   1.000000
    4        3.211997   1.000000
    5        7.067058   0.000000
    6        8.581151   0.000000
    7       13.277063   0.000000
    8       14.310005   0.000000
 
 -0.3750000E+00  0.3750000E+00  0.4166667E-01  0.6944444E-02
    1       -2.371973   1.000000
    2       -1.282011   1.000000
    3        1.617055   1.000000
    4        3.389159   1.000000
    5        7.276735   0.000000
    6       10.084152   0.000000
    7       12.940706   0.000000
    8       13.814927   0.000000
 
 -0.2916667E+00  0.3750000E+00  0.4166667E-01  0.6944444E-02
    1       -2.801701   1.000000
    2       -0.878008   1.000000
    3        1.519163   1.000000
    4        3.706145   1.000000
    5        7.641622   0.000000
    6       11.616855   0.000000
    7       12.157934   0.000000
    8       12.933647   0.000000
 
 -0.2083333E+00  0.3750000E+00  0.4166667E-01  0.6944444E-02
    1       -3.397418   1.000000
    2       -0.521032   1.000000
    3        2.082740   1.000000
    4        4.122832   1.000000
    5        8.126060   0.000000
    6       10.499684   0.000000
    7       11.585124   0.000000
    8       12.882734   0.000000
 
 -0.1250000E+00  0.3750000E+00  0.4166667E-01  0.6944444E-02
    1       -3.925729   1.000000
    2       -0.296824   1.000000
    3        3.135031   1.000000
    4        4.546585   1.000000
    5        8.503956   0.000000
    6        9.421907   0.000000
    7       10.348506   0.000000
    8       12.972140   0.000000
 
 -0.4166667E-01  0.3750000E+00  0.4166667E-01  0.6944444E-02
    1       -4.330038   1.000000
    2       -0.024080   1.000000
    3        4.299052   1.000000
    4        4.781509   1.000000
    5        8.051382   0.000000
    6        9.235772   0.000000
    7        9.690012   0.000000
    8       13.194559   0.000000
 
  0.4583333E+00  0.4583333E+00  0.4166667E-01  0.3472222E-02
    1       -2.841968   1.000000
    2       -0.906480   1.000000
    3        3.014544   1.000000
    4        3.125499   1.000000
    5        6.565736   0.000000
    6        7.023778   0.000000
    7       15.061922   0.000000
    8       15.088832   0.000000
 
 -0.4583333E+00  0.4583333E+00  0.4166667E-01  0.6944444E-02
    1       -2.209177   1.000000
    2       -1.571787   1.000000
    3        2.710083   1.000000
    4        3.005945   1.000000
    5        6.826940   0.000000
    6        7.219015   0.000000
    7       15.030235   0.000000
    8       15.626749   0.000000
 
 -0.3750000E+00  0.4583333E+00  0.4166667E-01  0.6944444E-02
    1       -2.198497   1.000000
    2       -1.501390   1.000000
    3        2.069138   1.000000
    4        3.152016   1.000000
    5        7.003427   0.000000
    6        8.493241   0.000000
    7       13.983823   0.000000
    8       14.755549   0.000000
 
 -0.2916667E+00  0.4583333E+00  0.4166667E-01  0.6944444E-02
    1       -2.701088   1.000000
    2       -0.999228   1.000000
    3        1.794490   1.000000
    4        3.445414   1.000000
    5        7.347373   0.000000
    6       10.153901   0.000000
    7       12.286887   0.000000
    8       13.366758   0.000000
 
 -0.2083333E+00  0.4583333E+00  0.4166667E-01  0.6944444E-02
    1       -3.130409   1.000000
    2       -0.883897   1.000000
    3        2.237382   1.000000
    4        3.855308   1.000000
    5        7.835562   0.000000
    6       10.667580   0.000000
    7       11.708067   0.000000
    8       12.160178   0.000000
 
 -0.1250000E+00  0.4583333E+00  0.4166667E-01  0.6944444E-02
    1       -3.491679   1.000000
    2       -0.946525   1.000000
    3        3.190563   1.000000
    4        4.307221   1.000000
    5        8.295206   0.000000
    6        9.442421   0.000000
    7       10.384729   0.000000
    8       13.995289   0.000000
 
 -0.4166667E-01  0.4583333E+00  0.4166667E-01  0.6944444E-02
    1       -3.779106   1.000000
    2       -0.914178   1.000000
    3        4.236960   1.000000
    4        4.626373   1.000000
    5        7.943851   0.000000
    6        9.180230   0.000000
    7        9.547475   0.000000
    8       13.876417   0.000000
 
 -0.4583333E+00 -0.4583333E+00  0.4166667E-01  0.3472222E-02
    1       -2.233216   1.000000
    2       -1.585736   1.000000
    3        2.956047   1.000000
    4        3.070441   1.000000
    5        6.612800   0.000000
    6        6.812797   0.000000
    7       15.783042   0.000000
    8       15.842772   0.000000
 
 -0.3750000E+00 -0.4583333E+00  0.4166667E-01  0.6944444E-02
    1       -2.806972   1.000000
    2       -0.912663   1.000000
    3        2.773367   1.000000
    4        3.068625   1.000000
    5        6.831642   0.000000
    6        7.373645   0.000000
    7       14.281698   0.000000
    8       15.075461   0.000000
 
 -0.2916667E+00 -0.4583333E+00  0.4166667E-01  0.6944444E-02
    1       -3.252055   1.000000
    2       -0.373765   1.000000
    3        2.379465   1.000000
    4        3.332949   1.000000
    5        7.191665   0.000000
    6        8.758614   0.000000
    7       12.573191   0.000000
    8       13.549603   0.000000
 
 -0.2083333E+00 -0.4583333E+00  0.4166667E-01  0.6944444E-02
    1       -3.557590   1.000000
    2       -0.303854   1.000000
    3        2.583398   1.000000
    4        3.730566   1.000000
    5        7.685716   0.000000
    6       10.489542   0.000000
    7       11.003287   0.000000
    8       11.931056   0.000000
 
 -0.1250000E+00 -0.4583333E+00  0.4166667E-01  0.6944444E-02
    1       -3.727988   1.000000
    2       -0.606683   1.000000
    3        3.364866   1.000000
    4        4.207801   1.000000
    5        8.195614   0.000000
    6        9.562663   0.000000
    7       10.518923   0.000000
    8       12.519163   0.000000
 
 -0.3750000E+00 -0.3750000E+00  0.4166667E-01  0.3472222E-02
    1       -3.407633   1.000000
    2       -0.201523   1.000000
    3        3.131379   1.000000
    4        3.235234   1.000000
    5        6.581602   0.000000
    6        7.335155   0.000000
    7       14.288754   0.000000
    8       14.291577   0.000000
 
 -0.2916667E+00 -0.3750000E+00  0.4166667E-01  0.6944444E-02
    1       -3.878314   1.000000
    2        0.451108   1.000000
    3        3.084476   1.000000
    4        3.387299   1.000000
    5        6.978103   0.000000
    6        8.018418   0.000000
    7       12.817025   0.000000
    8       13.495832   0.000000
 
 -0.2083333E+00 -0.3750000E+00  0.4166667E-01  0.6944444E-02
    1       -4.192880   1.000000
    2        0.713238   1.000000
    3        3.068980   1.000000
    4        3.772477   1.000000
    5        7.599435   0.000000
    6        9.392514   0.000000
    7       11.228409   0.000000
    8       12.088491   0.000000
 
 -0.1250000E+00 -0.3750000E+00  0.4166667E-01  0.6944444E-02
    1       -4.343270   1.000000
    2        0.425815   1.000000
    3        3.616910   1.000000
    4        4.281857   1.000000
    5        8.191772   0.000000
    6        9.760708   0.000000
    7       10.706834   0.000000
    8       11.213654   0.000000
 
 -0.2916667E+00 -0.2916667E+00  0.4166667E-01  0.3472222E-02
    1       -4.393707   1.000000
    2        1.253916   1.000000
    3        3.537987   1.000000
    4        3.614373   1.000000
    5        6.814131   0.000000
    6        8.230009   0.000000
    7       12.723856   0.000000
    8       12.769877   0.000000
 
 -0.2083333E+00 -0.2916667E+00  0.4166667E-01  0.6944444E-02
    1       -4.753418   1.000000
    2        1.800483   1.000000
    3        3.616521   1.000000
    4        3.979989   1.000000
    5        7.346599   0.000000
    6        9.029584   0.000000
    7       11.429449   0.000000
    8       11.961354   0.000000
 
 -0.1250000E+00 -0.2916667E+00  0.4166667E-01  0.6944444E-02
    1       -4.942317   1.000000
    2        1.722155   1.000000
    3        3.921094   1.000000
    4        4.525117   1.000000
    5        8.142255   0.000000
    6        9.886594   0.000000
    7       10.461836   0.000000
    8       10.814069   0.000000
 
 -0.2083333E+00 -0.2083333E+00  0.4166667E-01  0.3472222E-02
    1       -5.166661   1.000000
    2        2.711715   1.000000
    3        4.167807   1.000000
    4        4.190983   1.000000
    5        7.275320   0.000000
    6        9.432081   0.000000
    7       11.230454   0.000000
    8       11.311155   0.000000
 
 -0.1250000E+00 -0.2083333E+00  0.4166667E-01  0.6944444E-02
    1       -5.409523   1.000000
    2        3.065798   1.000000
    3        4.318776   1.000000
    4        4.821990   1.000000
    5        7.888142   0.000000
    6        9.889874   0.000000
    7       10.515601   0.000000
    8       10.531263   0.000000
 
 -0.1250000E+00 -0.1250000E+00  0.4166667E-01  0.3472222E-02
    1       -5.710483   1.000000
    2        4.087058   1.000000
    3        4.921137   1.000000
    4        4.987397   1.000000
    5        7.875378   0.000000
    6        9.779018   0.000000
    7        9.953683   0.000000
    8       10.582324   0.000000
 
  0.1250000E+00  0.1250000E+00  0.1250000E+00  0.1157407E-02
    1       -5.893801   1.000000
    2        4.326563   1.000000
    3        5.635599   1.000000
    4        5.635601   1.000000
    5        8.460450   0.000000
    6        8.926117   0.000000
    7        8.926124   0.000000
    8       10.734016   0.000000
 
  0.2083333E+00  0.1250000E+00  0.1250000E+00  0.3472222E-02
    1       -5.712171   1.000000
    2        3.703766   1.000000
    3        4.750671   1.000000
    4        5.713205   1.000000
    5        8.812252   0.000000
    6        8.910989   0.000000
    7        9.208062   0.000000
    8       11.330224   0.000000
 
  0.2916667E+00  0.1250000E+00  0.1250000E+00  0.3472222E-02
    1       -5.354502   1.000000
    2        2.639710   1.000000
    3        3.956560   1.000000
    4        5.497373   1.000000
    5        8.948182   0.000000
    6        9.267814   0.000000
    7        9.566282   0.000000
    8       11.678572   0.000000
 
  0.3750000E+00  0.1250000E+00  0.1250000E+00  0.3472222E-02
    1       -4.838184   1.000000
    2        1.284158   1.000000
    3        3.598648   1.000000
    4        5.148736   1.000000
    5        8.680272   0.000000
    6        9.615559   0.000000
    7        9.795231   0.000000
    8       12.271643   0.000000
 
  0.4583333E+00  0.1250000E+00  0.1250000E+00  0.3472222E-02
    1       -4.213400   1.000000
    2        0.028442   1.000000
    3        3.458420   1.000000
    4        4.802451   1.000000
    5        8.420251   0.000000
    6        9.648379   0.000000
    7        9.756437   0.000000
    8       13.351081   0.000000
 
 -0.4583333E+00  0.1250000E+00  0.1250000E+00  0.3472222E-02
    1       -3.659635   1.000000
    2       -0.854367   1.000000
    3        3.477489   1.000000
    4        4.525808   1.000000
    5        8.228379   0.000000
    6        9.495744   0.000000
    7        9.856346   0.000000
    8       14.221106   0.000000
 
 -0.3750000E+00  0.1250000E+00  0.1250000E+00  0.3472222E-02
    1       -3.656644   1.000000
    2       -0.859898   1.000000
    3        3.634349   1.000000
    4        4.353116   1.000000
    5        8.137981   0.000000
    6        9.458227   0.000000
    7       10.033515   0.000000
    8       13.331733   0.000000
 
 -0.2916667E+00  0.1250000E+00  0.1250000E+00  0.3472222E-02
    1       -4.208583   1.000000
    2        0.017404   1.000000
    3        3.909615   1.000000
    4        4.303197   1.000000
    5        8.154285   0.000000
    6        9.535140   0.000000
    7       10.283278   0.000000
    8       11.983513   0.000000
 
 -0.2083333E+00  0.1250000E+00  0.1250000E+00  0.3472222E-02
    1       -4.834126   1.000000
    2        1.279345   1.000000
    3        4.276211   1.000000
    4        4.384810   1.000000
    5        8.204419   0.000000
    6        9.646642   0.000000
    7       10.490598   0.000000
    8       10.978128   0.000000
 
 -0.1250000E+00  0.1250000E+00  0.1250000E+00  0.3472222E-02
    1       -5.351628   1.000000
    2        2.697229   1.000000
    3        4.596610   1.000000
    4        4.678861   1.000000
    5        8.079358   0.000000
    6        9.679762   0.000000
    7       10.417395   0.000000
    8       10.684773   0.000000
 
  0.2083333E+00  0.2083333E+00  0.1250000E+00  0.3472222E-02
    1       -5.591638   1.000000
    2        3.245928   1.000000
    3        4.956745   1.000000
    4        5.172793   1.000000
    5        8.347018   0.000000
    6        9.150623   0.000000
    7        9.858751   0.000000
    8       11.194915   0.000000
 
  0.2916667E+00  0.2083333E+00  0.1250000E+00  0.6944444E-02
    1       -5.293104   1.000000
    2        2.607753   1.000000
    3        3.961858   1.000000
    4        5.097629   1.000000
    5        8.424086   0.000000
    6        9.510485   0.000000
    7       10.357067   0.000000
    8       10.781900   0.000000
 
  0.3750000E+00  0.2083333E+00  0.1250000E+00  0.6944444E-02
    1       -4.828753   1.000000
    2        1.627833   1.000000
    3        3.210092   1.000000
    4        4.818481   1.000000
    5        8.833136   0.000000
    6        9.446051   0.000000
    7       10.626314   0.000000
    8       10.927686   0.000000
 
  0.4583333E+00  0.2083333E+00  0.1250000E+00  0.6944444E-02
    1       -4.232060   1.000000
    2        0.444998   1.000000
    3        2.895158   1.000000
    4        4.458697   1.000000
    5        8.951220   0.000000
    6        9.235144   0.000000
    7       11.047755   0.000000
    8       11.390919   0.000000
 
 -0.4583333E+00  0.2083333E+00  0.1250000E+00  0.6944444E-02
    1       -3.615088   1.000000
    2       -0.561214   1.000000
    3        2.805803   1.000000
    4        4.167036   1.000000
    5        8.754360   0.000000
    6        9.175166   0.000000
    7       11.085234   0.000000
    8       12.653377   0.000000
 
 -0.3750000E+00  0.2083333E+00  0.1250000E+00  0.6944444E-02
    1       -3.370044   1.000000
    2       -0.909831   1.000000
    3        2.850721   1.000000
    4        4.024160   1.000000
    5        8.544069   0.000000
    6        9.294256   0.000000
    7       11.108778   0.000000
    8       13.218020   0.000000
 
 -0.2916667E+00  0.2083333E+00  0.1250000E+00  0.6944444E-02
    1       -3.802356   1.000000
    2       -0.279241   1.000000
    3        2.985222   1.000000
    4        4.074106   1.000000
    5        8.436582   0.000000
    6        9.536449   0.000000
    7       11.190050   0.000000
    8       11.717229   0.000000
 
 -0.2083333E+00  0.2083333E+00  0.1250000E+00  0.6944444E-02
    1       -4.436611   1.000000
    2        0.832070   1.000000
    3        3.209862   1.000000
    4        4.305344   1.000000
    5        8.379917   0.000000
    6        9.845213   0.000000
    7       10.523781   0.000000
    8       11.281774   0.000000
 
 -0.1250000E+00  0.2083333E+00  0.1250000E+00  0.6944444E-02
    1       -4.996850   1.000000
    2        2.055830   1.000000
    3        3.598255   1.000000
    4        4.622281   1.000000
    5        8.151955   0.000000
    6        9.875515   0.000000
    7       10.283440   0.000000
    8       11.094126   0.000000
 