       N       E                     dE             d eps       ncg     rms          rms(c)
DAV:   1     0.194742611032E+01    0.19474E+01   -0.25972E+03  2920   0.583E+02
DAV:   2    -0.108759552978E+02   -0.12823E+02   -0.12264E+02  4568   0.668E+01
DAV:   3    -0.110220052865E+02   -0.14605E+00   -0.14605E+00  3672   0.914E+00
DAV:   4    -0.110226065285E+02   -0.60124E-03   -0.60124E-03  4720   0.609E-01
DAV:   5    -0.110226070100E+02   -0.48145E-06   -0.48145E-06  3856   0.136E-02    0.497E+00
DAV:   6    -0.108937369897E+02    0.12887E+00   -0.85875E-02  3384   0.153E+00    0.304E+00
DAV:   7    -0.108355639976E+02    0.58173E-01   -0.16097E-01  3784   0.222E+00    0.202E-01
DAV:   8    -0.108365963824E+02   -0.10324E-02   -0.39906E-03  3272   0.473E-01    0.741E-02
DAV:   9    -0.108367824843E+02   -0.18610E-03   -0.18185E-04  4464   0.106E-01    0.588E-02
DAV:  10    -0.108368079709E+02   -0.25487E-04   -0.30855E-05  3360   0.415E-02    0.113E-02
DAV:  11    -0.108368075400E+02    0.43093E-06   -0.57219E-07  4160   0.520E-03
   1 F= -.10836808E+02 E0= -.10836808E+02  d E =-.108368E+02
