unknown system                          
           1
     3.314652    0.000000    1.913715
     1.104884    3.125085    1.913715
     0.000000    0.000000    3.827430
   Si
     2
Direct configuration=     1
   0.87500000  0.87500000  0.87500000
   0.12500000  0.12500000  0.12500000
