   1   1   0   0
  0.1408159E+02  0.2710538E-09  0.2710538E-09  0.2710538E-09  0.5000000E-15
  1.000000000000000E-004
  CAR 
 unknown system                          
     38.12807023     -6.25552632  301     10.15119881      1.00000000
     -6.256  0.0000E+00  0.0000E+00
     -6.108  0.0000E+00  0.0000E+00
     -5.960  0.0000E+00  0.0000E+00
     -5.812  0.0000E+00  0.0000E+00
     -5.664  0.0000E+00  0.0000E+00
     -5.516  0.0000E+00  0.0000E+00
     -5.368  0.0000E+00  0.0000E+00
     -5.220  0.0000E+00  0.0000E+00
     -5.072  0.0000E+00  0.0000E+00
     -4.924  0.0000E+00  0.0000E+00
     -4.776  0.0000E+00  0.0000E+00
     -4.628  0.0000E+00  0.0000E+00
     -4.480  0.5883E-15  0.8704E-16
     -4.332  0.6061E-06  0.8967E-07
     -4.184  0.1510E-03  0.2243E-04
     -4.036  0.4737E-03  0.9252E-04
     -3.888  0.5037E-03  0.1670E-03
     -3.740  0.7067E-03  0.2716E-03
     -3.593  0.9272E-03  0.4088E-03
     -3.445  0.6964E-03  0.5118E-03
     -3.297  0.1318E-02  0.7068E-03
     -3.149  0.1007E-02  0.8558E-03
     -3.001  0.1025E-02  0.1008E-02
     -2.853  0.1480E-02  0.1226E-02
     -2.705  0.1066E-02  0.1384E-02
     -2.557  0.1461E-02  0.1600E-02
     -2.409  0.1456E-02  0.1816E-02
     -2.261  0.1025E-02  0.1967E-02
     -2.113  0.1462E-02  0.2184E-02
     -1.965  0.2297E-02  0.2523E-02
     -1.817  0.1448E-02  0.2738E-02
     -1.669  0.1857E-02  0.3012E-02
     -1.521  0.8672E-03  0.3141E-02
     -1.373  0.2287E-02  0.3479E-02
     -1.225  0.2437E-02  0.3840E-02
     -1.077  0.1121E-02  0.4005E-02
     -0.929  0.2053E-02  0.4309E-02
     -0.782  0.2007E-02  0.4606E-02
     -0.634  0.1868E-02  0.4882E-02
     -0.486  0.2514E-02  0.5254E-02
     -0.338  0.1534E-02  0.5481E-02
     -0.190  0.2064E-02  0.5787E-02
     -0.042  0.3370E-02  0.6285E-02
      0.106  0.1999E-02  0.6581E-02
      0.254  0.1247E-02  0.6766E-02
      0.402  0.2414E-02  0.7123E-02
      0.550  0.1864E-02  0.7398E-02
      0.698  0.3456E-02  0.7910E-02
      0.846  0.2417E-02  0.8267E-02
      0.994  0.2870E-02  0.8692E-02
      1.142  0.2112E-02  0.9004E-02
      1.290  0.1658E-02  0.9250E-02
      1.438  0.2976E-02  0.9690E-02
      1.586  0.2664E-02  0.1008E-01
      1.734  0.2295E-02  0.1042E-01
      1.881  0.3758E-02  0.1098E-01
      2.029  0.2116E-02  0.1129E-01
      2.177  0.2549E-02  0.1167E-01
      2.325  0.3751E-02  0.1222E-01
      2.473  0.1684E-02  0.1247E-01
      2.621  0.4039E-02  0.1307E-01
      2.769  0.3175E-02  0.1354E-01
      2.917  0.1685E-02  0.1379E-01
      3.065  0.2521E-02  0.1416E-01
      3.213  0.3339E-02  0.1466E-01
      3.361  0.3045E-02  0.1511E-01
      3.509  0.3614E-02  0.1564E-01
      3.657  0.2657E-02  0.1604E-01
      3.805  0.3785E-02  0.1660E-01
      3.953  0.2363E-02  0.1695E-01
      4.101  0.1822E-02  0.1721E-01
      4.249  0.3666E-02  0.1776E-01
      4.397  0.2775E-02  0.1817E-01
      4.544  0.4990E-02  0.1891E-01
      4.692  0.3938E-02  0.1949E-01
      4.840  0.1766E-02  0.1975E-01
      4.988  0.2953E-02  0.2019E-01
      5.136  0.3946E-02  0.2077E-01
      5.284  0.4483E-02  0.2143E-01
      5.432  0.2209E-02  0.2176E-01
      5.580  0.3256E-02  0.2224E-01
      5.728  0.4056E-02  0.2284E-01
      5.876  0.3539E-02  0.2337E-01
      6.024  0.2009E-02  0.2366E-01
      6.172  0.3590E-02  0.2419E-01
      6.320  0.4210E-02  0.2482E-01
      6.468  0.3219E-02  0.2529E-01
      6.616  0.5341E-02  0.2608E-01
      6.764  0.3316E-02  0.2657E-01
      6.912  0.3523E-02  0.2710E-01
      7.060  0.4264E-02  0.2773E-01
      7.207  0.3530E-02  0.2825E-01
      7.355  0.2661E-02  0.2864E-01
      7.503  0.2750E-02  0.2905E-01
      7.651  0.2164E-02  0.2937E-01
      7.799  0.4929E-02  0.3010E-01
      7.947  0.5594E-02  0.3093E-01
      8.095  0.5265E-02  0.3171E-01
      8.243  0.3418E-02  0.3221E-01
      8.391  0.4551E-02  0.3288E-01
      8.539  0.3093E-02  0.3334E-01
      8.687  0.1471E-02  0.3356E-01
      8.835  0.3549E-02  0.3408E-01
      8.983  0.5957E-02  0.3497E-01
      9.131  0.4913E-02  0.3569E-01
      9.279  0.4460E-02  0.3635E-01
      9.427  0.3608E-02  0.3689E-01
      9.575  0.3102E-02  0.3734E-01
      9.723  0.3930E-02  0.3793E-01
      9.871  0.4165E-02  0.3854E-01
     10.018  0.4486E-02  0.3921E-01
     10.166  0.5862E-02  0.4007E-01
     10.314  0.4887E-02  0.4080E-01
     10.462  0.3376E-02  0.4130E-01
     10.610  0.3193E-02  0.4177E-01
     10.758  0.5598E-02  0.4260E-01
     10.906  0.4384E-02  0.4325E-01
     11.054  0.3987E-02  0.4384E-01
     11.202  0.2954E-02  0.4427E-01
     11.350  0.5030E-02  0.4502E-01
     11.498  0.6085E-02  0.4592E-01
     11.646  0.5262E-02  0.4669E-01
     11.794  0.4318E-02  0.4733E-01
     11.942  0.5152E-02  0.4810E-01
     12.090  0.2786E-02  0.4851E-01
     12.238  0.5669E-02  0.4935E-01
     12.386  0.5459E-02  0.5015E-01
     12.534  0.4621E-02  0.5084E-01
     12.681  0.5337E-02  0.5163E-01
     12.829  0.4555E-02  0.5230E-01
     12.977  0.4793E-02  0.5301E-01
     13.125  0.3829E-02  0.5358E-01
     13.273  0.7213E-02  0.5464E-01
     13.421  0.6878E-02  0.5566E-01
     13.569  0.4854E-02  0.5638E-01
     13.717  0.2978E-02  0.5682E-01
     13.865  0.7169E-02  0.5788E-01
     14.013  0.6841E-02  0.5889E-01
     14.161  0.5461E-02  0.5970E-01
     14.309  0.3851E-02  0.6027E-01
     14.457  0.4724E-02  0.6097E-01
     14.605  0.5528E-02  0.6179E-01
     14.753  0.6235E-02  0.6271E-01
     14.901  0.3930E-02  0.6329E-01
     15.049  0.4239E-02  0.6392E-01
     15.197  0.5220E-02  0.6469E-01
     15.344  0.4170E-02  0.6531E-01
     15.492  0.4026E-02  0.6590E-01
     15.640  0.5982E-02  0.6679E-01
     15.788  0.3560E-02  0.6731E-01
     15.936  0.5910E-02  0.6819E-01
     16.084  0.5091E-02  0.6894E-01
     16.232  0.4949E-02  0.6967E-01
     16.380  0.3801E-02  0.7024E-01
     16.528  0.4849E-02  0.7095E-01
     16.676  0.3835E-02  0.7152E-01
     16.824  0.3452E-02  0.7203E-01
     16.972  0.7002E-02  0.7307E-01
     17.120  0.6088E-02  0.7397E-01
     17.268  0.4096E-02  0.7458E-01
     17.416  0.5884E-02  0.7545E-01
     17.564  0.2795E-02  0.7586E-01
     17.712  0.4911E-02  0.7659E-01
     17.860  0.4673E-02  0.7728E-01
     18.008  0.5483E-02  0.7809E-01
     18.155  0.6653E-02  0.7907E-01
     18.303  0.4959E-02  0.7981E-01
     18.451  0.5631E-02  0.8064E-01
     18.599  0.5520E-02  0.8146E-01
     18.747  0.6907E-02  0.8248E-01
     18.895  0.4772E-02  0.8318E-01
     19.043  0.5357E-02  0.8398E-01
     19.191  0.3846E-02  0.8455E-01
     19.339  0.3646E-02  0.8508E-01
     19.487  0.4400E-02  0.8574E-01
     19.635  0.6090E-02  0.8664E-01
     19.783  0.8993E-02  0.8797E-01
     19.931  0.4490E-02  0.8863E-01
     20.079  0.7000E-02  0.8967E-01
     20.227  0.4347E-02  0.9031E-01
     20.375  0.6371E-02  0.9125E-01
     20.523  0.5649E-02  0.9209E-01
     20.671  0.4875E-02  0.9281E-01
     20.818  0.3121E-02  0.9327E-01
     20.966  0.6855E-02  0.9429E-01
     21.114  0.8015E-02  0.9547E-01
     21.262  0.6852E-02  0.9648E-01
     21.410  0.3962E-02  0.9707E-01
     21.558  0.9527E-02  0.9848E-01
     21.706  0.6445E-02  0.9943E-01
     21.854  0.4236E-02  0.1001E+00
     22.002  0.3749E-02  0.1006E+00
     22.150  0.5384E-02  0.1014E+00
     22.298  0.6881E-02  0.1024E+00
     22.446  0.5511E-02  0.1032E+00
     22.594  0.5863E-02  0.1041E+00
     22.742  0.4346E-02  0.1048E+00
     22.890  0.5615E-02  0.1056E+00
     23.038  0.7462E-02  0.1067E+00
     23.186  0.5777E-02  0.1075E+00
     23.334  0.6134E-02  0.1085E+00
     23.481  0.7050E-02  0.1095E+00
     23.629  0.6558E-02  0.1105E+00
     23.777  0.6153E-02  0.1114E+00
     23.925  0.7550E-02  0.1125E+00
     24.073  0.5650E-02  0.1133E+00
     24.221  0.6499E-02  0.1143E+00
     24.369  0.8417E-02  0.1155E+00
     24.517  0.6107E-02  0.1164E+00
     24.665  0.6239E-02  0.1174E+00
     24.813  0.5717E-02  0.1182E+00
     24.961  0.6282E-02  0.1191E+00
     25.109  0.4675E-02  0.1198E+00
     25.257  0.8011E-02  0.1210E+00
     25.405  0.5997E-02  0.1219E+00
     25.553  0.6731E-02  0.1229E+00
     25.701  0.6552E-02  0.1239E+00
     25.849  0.4708E-02  0.1246E+00
     25.997  0.7378E-02  0.1257E+00
     26.144  0.7540E-02  0.1268E+00
     26.292  0.8316E-02  0.1280E+00
     26.440  0.7535E-02  0.1291E+00
     26.588  0.5153E-02  0.1299E+00
     26.736  0.4881E-02  0.1306E+00
     26.884  0.4760E-02  0.1313E+00
     27.032  0.8002E-02  0.1325E+00
     27.180  0.5387E-02  0.1333E+00
     27.328  0.5769E-02  0.1341E+00
     27.476  0.8644E-02  0.1354E+00
     27.624  0.3199E-02  0.1359E+00
     27.772  0.4945E-02  0.1366E+00
     27.920  0.5021E-02  0.1374E+00
     28.068  0.7674E-02  0.1385E+00
     28.216  0.5903E-02  0.1394E+00
     28.364  0.6460E-02  0.1403E+00
     28.512  0.5252E-02  0.1411E+00
     28.660  0.6081E-02  0.1420E+00
     28.808  0.2366E-02  0.1424E+00
     28.955  0.4133E-02  0.1430E+00
     29.103  0.6249E-02  0.1439E+00
     29.251  0.5045E-02  0.1446E+00
     29.399  0.4705E-02  0.1453E+00
     29.547  0.2367E-02  0.1457E+00
     29.695  0.8726E-02  0.1470E+00
     29.843  0.6191E-02  0.1479E+00
     29.991  0.4157E-02  0.1485E+00
     30.139  0.4847E-02  0.1492E+00
     30.287  0.6572E-02  0.1502E+00
     30.435  0.4362E-02  0.1508E+00
     30.583  0.4776E-02  0.1515E+00
     30.731  0.1974E-02  0.1518E+00
     30.879  0.5226E-02  0.1526E+00
     31.027  0.3907E-02  0.1532E+00
     31.175  0.2154E-02  0.1535E+00
     31.323  0.1796E-02  0.1538E+00
     31.471  0.5622E-02  0.1546E+00
     31.618  0.1645E-02  0.1549E+00
     31.766  0.9568E-03  0.1550E+00
     31.914  0.3349E-02  0.1555E+00
     32.062  0.2464E-02  0.1559E+00
     32.210  0.1687E-02  0.1561E+00
     32.358  0.2556E-02  0.1565E+00
     32.506  0.1809E-02  0.1567E+00
     32.654  0.1834E-02  0.1570E+00
     32.802  0.4489E-03  0.1571E+00
     32.950  0.1762E-02  0.1573E+00
     33.098  0.1040E-02  0.1575E+00
     33.246  0.2822E-02  0.1579E+00
     33.394  0.2778E-02  0.1583E+00
     33.542  0.8701E-03  0.1585E+00
     33.690  0.1663E-02  0.1587E+00
     33.838  0.7887E-03  0.1588E+00
     33.986  0.1491E-03  0.1588E+00
     34.134  0.1293E-02  0.1590E+00
     34.281  0.9042E-03  0.1592E+00
     34.429  0.5298E-03  0.1592E+00
     34.577  0.1330E-02  0.1594E+00
     34.725  0.3814E-03  0.1595E+00
     34.873  0.2318E-03  0.1595E+00
     35.021  0.1243E-02  0.1597E+00
     35.169  0.9560E-03  0.1599E+00
     35.317  0.2330E-04  0.1599E+00
     35.465  0.1558E-06  0.1599E+00
     35.613  0.3671E-03  0.1599E+00
     35.761  0.1021E-03  0.1599E+00
     35.909  0.1639E-09  0.1599E+00
     36.057  0.3006E-04  0.1599E+00
     36.205  0.4375E-03  0.1600E+00
     36.353  0.1818E-05  0.1600E+00
     36.501  0.1765E-14  0.1600E+00
     36.649  0.0000E+00  0.1600E+00
     36.797  0.0000E+00  0.1600E+00
     36.945  0.0000E+00  0.1600E+00
     37.092  0.0000E+00  0.1600E+00
     37.240  0.0000E+00  0.1600E+00
     37.388  0.0000E+00  0.1600E+00
     37.536  0.0000E+00  0.1600E+00
     37.684  0.0000E+00  0.1600E+00
     37.832  0.0000E+00  0.1600E+00
     37.980  0.0000E+00  0.1600E+00
     38.128  0.0000E+00  0.1600E+00
