    1    1  100    1
  0.1408159E+02  0.2710538E-09  0.2710538E-09  0.2710538E-09  0.5000000E-15
  1.000000000000000E-004
  CAR 
 unknown system                          
      4    182      8
 
  0.4166667E-01  0.4166667E-01  0.4166667E-01  0.1157407E-02
    1       -4.238090   1.000000
    2       20.141555   0.000000
    3       20.935349   0.000000
    4       20.935356   0.000000
    5       22.519856   0.000000
    6       22.519865   0.000000
    7       22.800509   0.000000
    8       27.843618   0.000000
 
  0.1250000E+00  0.4166667E-01  0.4166667E-01  0.3472222E-02
    1       -3.968751   1.000000
    2       17.887746   0.000000
    3       19.084066   0.000000
    4       21.054363   0.000000
    5       22.709757   0.000000
    6       23.453510   0.000000
    7       24.251613   0.000000
    8       27.163600   0.000000
 
  0.2083333E+00  0.4166667E-01  0.4166667E-01  0.3472222E-02
    1       -3.297047   1.000000
    2       14.348481   0.000000
    3       18.271869   0.000000
    4       20.253105   0.000000
    5       23.635181   0.000000
    6       23.637519   0.000000
    7       24.928156   0.000000
    8       26.230381   0.000000
 
  0.2916667E+00  0.4166667E-01  0.4166667E-01  0.3472222E-02
    1       -2.227322   1.000000
    2       10.950271   0.000000
    3       17.785541   0.000000
    4       19.658115   0.000000
    5       22.766242   0.000000
    6       23.554806   0.000000
    7       23.838335   0.000000
    8       27.738975   0.000000
 
  0.3750000E+00  0.4166667E-01  0.4166667E-01  0.3472222E-02
    1       -0.767177   1.000000
    2        7.823636   1.000000
    3       17.626858   0.000000
    4       19.226928   0.000000
    5       21.714931   0.000000
    6       22.508004   0.000000
    7       23.566183   0.000000
    8       27.719192   0.000000
 
  0.4583333E+00  0.4166667E-01  0.4166667E-01  0.3472222E-02
    1        1.066730   1.000000
    2        5.027428   1.000000
    3       17.772807   0.000000
    4       18.790197   0.000000
    5       21.249602   0.000000
    6       21.461371   0.000000
    7       23.701055   0.000000
    8       26.759196   0.000000
 
 -0.4583333E+00  0.4166667E-01  0.4166667E-01  0.3472222E-02
    1        2.414361   1.000000
    2        3.438316   1.000000
    3       18.156999   0.000000
    4       18.328413   0.000000
    5       20.846903   0.000000
    6       21.480031   0.000000
    7       23.804647   0.000000
    8       26.448902   0.000000
 
 -0.3750000E+00  0.4166667E-01  0.4166667E-01  0.3472222E-02
    1        0.416203   1.000000
    2        5.919397   1.000000
    3       18.016357   0.000000
    4       18.608397   0.000000
    5       20.846765   0.000000
    6       22.232782   0.000000
    7       23.740259   0.000000
    8       26.958247   0.000000
 
 -0.2916667E+00  0.4166667E-01  0.4166667E-01  0.3472222E-02
    1       -1.296607   1.000000
    2        8.831700   1.000000
    3       17.972316   0.000000
    4       18.980661   0.000000
    5       21.580203   0.000000
    6       23.357614   0.000000
    7       23.680970   0.000000
    8       27.988160   0.000000
 
 -0.2083333E+00  0.4166667E-01  0.4166667E-01  0.3472222E-02
    1       -2.627733   1.000000
    2       12.057046   0.000000
    3       18.242575   0.000000
    4       19.414291   0.000000
    5       22.715987   0.000000
    6       23.802235   0.000000
    7       24.646636   0.000000
    8       26.778465   0.000000
 
 -0.1250000E+00  0.4166667E-01  0.4166667E-01  0.3472222E-02
    1       -3.565432   1.000000
    2       15.524319   0.000000
    3       18.841722   0.000000
    4       20.062880   0.000000
    5       22.983868   0.000000
    6       24.121020   0.000000
    7       25.089781   0.000000
    8       25.953167   0.000000
 
 -0.4166667E-01  0.4166667E-01  0.4166667E-01  0.3472222E-02
    1       -4.103361   1.000000
    2       19.023750   0.000000
    3       19.765457   0.000000
    4       20.904903   0.000000
    5       21.870686   0.000000
    6       23.731333   0.000000
    7       23.845131   0.000000
    8       27.389811   0.000000
 
  0.1250000E+00  0.1250000E+00  0.4166667E-01  0.3472222E-02
    1       -3.834181   1.000000
    2       17.907217   0.000000
    3       18.634734   0.000000
    4       20.300518   0.000000
    5       20.976585   0.000000
    6       25.090068   0.000000
    7       25.284602   0.000000
    8       25.448901   0.000000
 
  0.2083333E+00  0.1250000E+00  0.4166667E-01  0.6944444E-02
    1       -3.296915   1.000000
    2       15.697607   0.000000
    3       17.019104   0.000000
    4       20.037433   0.000000
    5       21.125974   0.000000
    6       23.723757   0.000000
    7       26.012609   0.000000
    8       26.376947   0.000000
 
  0.2916667E+00  0.1250000E+00  0.4166667E-01  0.6944444E-02
    1       -2.360361   1.000000
    2       12.286169   0.000000
    3       16.417389   0.000000
    4       19.150438   0.000000
    5       20.997925   0.000000
    6       24.121988   0.000000
    7       25.844425   0.000000
    8       26.321601   0.000000
 
  0.3750000E+00  0.1250000E+00  0.4166667E-01  0.6944444E-02
    1       -1.030855   1.000000
    2        9.077173   1.000000
    3       16.159626   0.000000
    4       18.139255   0.000000
    5       20.343472   0.000000
    6       24.346551   0.000000
    7       25.424138   0.000000
    8       27.425097   0.000000
 
  0.4583333E+00  0.1250000E+00  0.4166667E-01  0.6944444E-02
    1        0.679995   1.000000
    2        6.172366   1.000000
    3       16.208922   0.000000
    4       17.136100   0.000000
    5       20.248255   0.000000
    6       23.262971   0.000000
    7       25.593165   0.000000
    8       28.959609   0.000000
 
 -0.4583333E+00  0.1250000E+00  0.4166667E-01  0.6944444E-02
    1        2.678262   1.000000
    2        3.692892   1.000000
    3       16.066722   0.000000
    4       16.858955   0.000000
    5       20.605291   0.000000
    6       22.438254   0.000000
    7       25.571001   0.000000
    8       28.716223   0.000000
 
 -0.3750000E+00  0.1250000E+00  0.4166667E-01  0.6944444E-02
    1        1.329846   1.000000
    2        5.281820   1.000000
    3       15.582119   0.000000
    4       17.541197   0.000000
    5       21.223460   0.000000
    6       22.105227   0.000000
    7       25.401428   0.000000
    8       29.036386   0.000000
 
 -0.2916667E+00  0.1250000E+00  0.4166667E-01  0.6944444E-02
    1       -0.502135   1.000000
    2        8.071269   1.000000
    3       15.375949   0.000000
    4       18.539760   0.000000
    5       21.587148   0.000000
    6       22.772031   0.000000
    7       25.220647   0.000000
    8       28.553406   0.000000
 
 -0.2083333E+00  0.1250000E+00  0.4166667E-01  0.6944444E-02
    1       -1.960499   1.000000
    2       11.183251   0.000000
    3       15.512678   0.000000
    4       19.668072   0.000000
    5       22.046670   0.000000
    6       23.995083   0.000000
    7       25.078365   0.000000
    8       26.305837   0.000000
 
 -0.1250000E+00  0.1250000E+00  0.4166667E-01  0.6944444E-02
    1       -3.028897   1.000000
    2       14.531527   0.000000
    3       16.016886   0.000000
    4       20.692700   0.000000
    5       22.427831   0.000000
    6       24.283275   0.000000
    7       25.292471   0.000000
    8       25.532592   0.000000
 
 -0.4166667E-01  0.1250000E+00  0.4166667E-01  0.6944444E-02
    1       -3.699743   1.000000
    2       16.754260   0.000000
    3       18.032534   0.000000
    4       20.791024   0.000000
    5       22.102622   0.000000
    6       24.522031   0.000000
    7       25.201004   0.000000
    8       25.643691   0.000000
 
  0.2083333E+00  0.2083333E+00  0.4166667E-01  0.3472222E-02
    1       -2.894707   1.000000
    2       15.923125   0.000000
    3       16.670680   0.000000
    4       18.405352   0.000000
    5       18.946167   0.000000
    6       21.554423   0.000000
    7       28.110321   0.000000
    8       28.156033   0.000000
 
  0.2916667E+00  0.2083333E+00  0.4166667E-01  0.6944444E-02
    1       -2.092993   1.000000
    2       13.888547   0.000000
    3       15.261071   0.000000
    4       17.370756   0.000000
    5       19.000910   0.000000
    6       21.027241   0.000000
    7       28.265032   0.000000
    8       29.216091   0.000000
 
  0.3750000E+00  0.2083333E+00  0.4166667E-01  0.6944444E-02
    1       -0.897035   1.000000
    2       10.673377   0.000000
    3       14.845842   0.000000
    4       15.866441   0.000000
    5       18.880984   0.000000
    6       22.842976   0.000000
    7       27.171843   0.000000
    8       29.384861   0.000000
 
  0.4583333E+00  0.2083333E+00  0.4166667E-01  0.6944444E-02
    1        0.684089   1.000000
    2        7.686343   1.000000
    3       14.283730   0.000000
    4       15.048577   0.000000
    5       18.877261   0.000000
    6       25.116306   0.000000
    7       26.170280   0.000000
    8       29.369311   0.000000
 
 -0.4583333E+00  0.2083333E+00  0.4166667E-01  0.6944444E-02
    1        2.622292   1.000000
    2        5.034362   1.000000
    3       13.296848   0.000000
    4       15.315554   0.000000
    5       19.234208   0.000000
    6       24.909862   0.000000
    7       27.381321   0.000000
    8       29.802872   0.000000
 
 -0.3750000E+00  0.2083333E+00  0.4166667E-01  0.6944444E-02
    1        2.622444   1.000000
    2        5.032065   1.000000
    3       12.591038   0.000000
    4       15.995993   0.000000
    5       19.954976   0.000000
    6       24.295045   0.000000
    7       27.604728   0.000000
    8       30.769337   0.000000
 
 -0.2916667E+00  0.2083333E+00  0.4166667E-01  0.6944444E-02
    1        0.683547   1.000000
    2        7.676199   1.000000
    3       12.244227   0.000000
    4       17.016888   0.000000
    5       21.013586   0.000000
    6       24.004880   0.000000
    7       27.077735   0.000000
    8       28.547392   0.000000
 
 -0.2083333E+00  0.2083333E+00  0.4166667E-01  0.6944444E-02
    1       -0.897675   1.000000
    2       10.610085   0.000000
    3       12.312768   0.000000
    4       18.328617   0.000000
    5       22.340122   0.000000
    6       24.025393   0.000000
    7       25.367819   0.000000
    8       27.222669   0.000000
 
 -0.1250000E+00  0.2083333E+00  0.4166667E-01  0.6944444E-02
    1       -2.093561   1.000000
    2       12.467909   0.000000
    3       14.085744   0.000000
    4       19.755667   0.000000
    5       22.934829   0.000000
    6       23.790583   0.000000
    7       24.840096   0.000000
    8       26.159879   0.000000
 
 -0.4166667E-01  0.2083333E+00  0.4166667E-01  0.6944444E-02
    1       -2.895087   1.000000
    2       13.264370   0.000000
    3       17.324741   0.000000
    4       20.024567   0.000000
    5       22.513967   0.000000
    6       24.342444   0.000000
    7       25.222776   0.000000
    8       25.668561   0.000000
 
  0.2916667E+00  0.2916667E+00  0.4166667E-01  0.3472222E-02
    1       -1.426982   1.000000
    2       14.341652   0.000000
    3       15.150891   0.000000
    4       15.247588   0.000000
    5       17.071291   0.000000
    6       19.261686   0.000000
    7       30.474768   0.000000
    8       31.039859   0.000000
 
  0.3750000E+00  0.2916667E+00  0.4166667E-01  0.6944444E-02
    1       -0.366674   1.000000
    2       12.501407   0.000000
    3       13.363766   0.000000
    4       14.127284   0.000000
    5       17.563723   0.000000
    6       19.596461   0.000000
    7       30.021660   0.000000
    8       32.131753   0.000000
 
  0.4583333E+00  0.2916667E+00  0.4166667E-01  0.6944444E-02
    1        1.080210   1.000000
    2        9.531264   1.000000
    3       11.869563   0.000000
    4       13.901520   0.000000
    5       17.714722   0.000000
    6       21.875989   0.000000
    7       28.927656   0.000000
    8       32.013910   0.000000
 
 -0.4583333E+00  0.2916667E+00  0.4166667E-01  0.6944444E-02
    1        2.896956   1.000000
    2        6.792362   1.000000
    3       10.648195   0.000000
    4       14.121399   0.000000
    5       18.012410   0.000000
    6       24.693460   0.000000
    7       27.958827   0.000000
    8       31.348118   0.000000
 
 -0.3750000E+00  0.2916667E+00  0.4166667E-01  0.6944444E-02
    1        4.249320   1.000000
    2        5.197165   1.000000
    3        9.792641   1.000000
    4       14.707608   0.000000
    5       18.647133   0.000000
    6       26.901525   0.000000
    7       27.923157   0.000000
    8       30.177788   0.000000
 
 -0.2916667E+00  0.2916667E+00  0.4166667E-01  0.6944444E-02
    1        2.251353   1.000000
    2        7.593604   1.000000
    3        9.373295   1.000000
    4       15.644512   0.000000
    5       19.632154   0.000000
    6       26.648002   0.000000
    7       27.890138   0.000000
    8       29.742789   0.000000
 
 -0.2083333E+00  0.2916667E+00  0.4166667E-01  0.6944444E-02
    1        0.553322   1.000000
    2        8.981105   1.000000
    3       10.734041   0.000000
    4       16.906934   0.000000
    5       20.929535   0.000000
    6       25.215239   0.000000
    7       26.483670   0.000000
    8       28.477110   0.000000
 
 -0.1250000E+00  0.2916667E+00  0.4166667E-01  0.6944444E-02
    1       -0.765706   1.000000
    2        9.314411   1.000000
    3       13.792231   0.000000
    4       18.408797   0.000000
    5       22.219480   0.000000
    6       23.067450   0.000000
    7       25.930138   0.000000
    8       27.320241   0.000000
 
 -0.4166667E-01  0.2916667E+00  0.4166667E-01  0.6944444E-02
    1       -1.694670   1.000000
    2        9.955018   1.000000
    3       16.954642   0.000000
    4       19.351001   0.000000
    5       21.552130   0.000000
    6       23.890686   0.000000
    7       24.357631   0.000000
    8       27.534618   0.000000
 
  0.3750000E+00  0.3750000E+00  0.4166667E-01  0.3472222E-02
    1        0.556661   1.000000
    2       11.325802   0.000000
    3       13.314260   0.000000
    4       14.093652   0.000000
    5       15.897250   0.000000
    6       18.065624   0.000000
    7       32.330752   0.000000
    8       33.606140   0.000000
 
  0.4583333E+00  0.3750000E+00  0.4166667E-01  0.6944444E-02
    1        1.865143   1.000000
    2        9.593975   1.000000
    3       11.718453   0.000000
    4       13.189235   0.000000
    5       16.672029   0.000000
    6       18.749956   0.000000
    7       31.936977   0.000000
    8       34.471235   0.000000
 
 -0.4583333E+00  0.3750000E+00  0.4166667E-01  0.6944444E-02
    1        3.542614   1.000000
    2        8.152986   1.000000
    3        9.045009   1.000000
    4       13.282048   0.000000
    5       17.080830   0.000000
    6       21.320953   0.000000
    7       31.009502   0.000000
    8       33.586094   0.000000
 
 -0.3750000E+00  0.3750000E+00  0.4166667E-01  0.6944444E-02
    1        5.496693   1.000000
    2        6.339196   1.000000
    3        7.445991   1.000000
    4       13.756027   0.000000
    5       17.639982   0.000000
    6       24.425138   0.000000
    7       30.181441   0.000000
    8       31.348598   0.000000
 
 -0.2916667E+00  0.3750000E+00  0.4166667E-01  0.6944444E-02
    1        4.176405   1.000000
    2        6.460272   1.000000
    3        8.251284   1.000000
    4       14.587414   0.000000
    5       18.528120   0.000000
    6       27.458464   0.000000
    7       28.525967   0.000000
    8       29.554174   0.000000
 
 -0.2083333E+00  0.3750000E+00  0.4166667E-01  0.6944444E-02
    1        2.376974   1.000000
    2        6.282798   1.000000
    3       10.904016   0.000000
    4       15.761657   0.000000
    5       19.742509   0.000000
    6       25.425504   0.000000
    7       28.392515   0.000000
    8       29.685294   0.000000
 
 -0.1250000E+00  0.3750000E+00  0.4166667E-01  0.6944444E-02
    1        0.943154   1.000000
    2        6.422916   1.000000
    3       13.893589   0.000000
    4       17.231863   0.000000
    5       21.153094   0.000000
    6       22.923828   0.000000
    7       26.353120   0.000000
    8       29.766491   0.000000
 
 -0.4166667E-01  0.3750000E+00  0.4166667E-01  0.6944444E-02
    1       -0.107718   1.000000
    2        6.935999   1.000000
    3       16.917797   0.000000
    4       18.627217   0.000000
    5       20.945338   0.000000
    6       22.691476   0.000000
    7       24.358661   0.000000
    8       28.078374   0.000000
 
  0.4583333E+00  0.4583333E+00  0.4166667E-01  0.3472222E-02
    1        3.028574   1.000000
    2        7.736707   1.000000
    3       12.696503   0.000000
    4       13.504629   0.000000
    5       15.243975   0.000000
    6       17.433885   0.000000
    7       34.003632   0.000000
    8       35.585404   0.000000
 
 -0.4583333E+00  0.4583333E+00  0.4166667E-01  0.6944444E-02
    1        4.516588   1.000000
    2        6.272097   1.000000
    3       11.335560   0.000000
    4       12.820973   0.000000
    5       16.290480   0.000000
    6       18.388218   0.000000
    7       33.724088   0.000000
    8       34.965083   0.000000
 
 -0.3750000E+00  0.4583333E+00  0.4166667E-01  0.6944444E-02
    1        4.896738   1.000000
    2        6.630392   1.000000
    3        8.859209   1.000000
    4       13.159924   0.000000
    5       16.954376   0.000000
    6       21.208241   0.000000
    7       32.044456   0.000000
    8       33.230388   0.000000
 
 -0.2916667E+00  0.4583333E+00  0.4166667E-01  0.6944444E-02
    1        4.171991   1.000000
    2        6.529281   1.000000
    3        8.934399   1.000000
    4       13.877486   0.000000
    5       17.763722   0.000000
    6       24.517528   0.000000
    7       29.051394   0.000000
    8       31.837621   0.000000
 
 -0.2083333E+00  0.4583333E+00  0.4166667E-01  0.6944444E-02
    1        3.726973   1.000000
    2        4.705367   1.000000
    3       11.502120   0.000000
    4       14.948692   0.000000
    5       18.885186   0.000000
    6       25.901589   0.000000
    7       27.731416   0.000000
    8       30.042583   0.000000
 
 -0.1250000E+00  0.4583333E+00  0.4166667E-01  0.6944444E-02
    1        2.941700   1.000000
    2        3.946670   1.000000
    3       14.347353   0.000000
    4       16.350031   0.000000
    5       20.254776   0.000000
    6       23.288243   0.000000
    7       26.630636   0.000000
    8       30.520557   0.000000
 
 -0.4166667E-01  0.4583333E+00  0.4166667E-01  0.6944444E-02
    1        1.836356   1.000000
    2        4.269628   1.000000
    3       17.167522   0.000000
    4       17.916379   0.000000
    5       20.932719   0.000000
    6       21.812579   0.000000
    7       24.458589   0.000000
    8       27.400088   0.000000
 
 -0.4583333E+00 -0.4583333E+00  0.4166667E-01  0.3472222E-02
    1        4.389181   1.000000
    2        6.147182   1.000000
    3       12.573604   0.000000
    4       13.386763   0.000000
    5       15.113401   0.000000
    6       17.307857   0.000000
    7       34.514838   0.000000
    8       36.110634   0.000000
 
 -0.3750000E+00 -0.4583333E+00  0.4166667E-01  0.6944444E-02
    1        3.157503   1.000000
    2        7.857423   1.000000
    3       11.462101   0.000000
    4       12.943326   0.000000
    5       16.417316   0.000000
    6       18.508524   0.000000
    7       32.907812   0.000000
    8       35.099756   0.000000
 
 -0.2916667E+00 -0.4583333E+00  0.4166667E-01  0.6944444E-02
    1        2.254390   1.000000
    2        9.101325   1.000000
    3       10.088285   0.962420
    4       13.527311   0.000000
    5       17.333694   0.000000
    6       21.544656   0.000000
    7       29.939279   0.000000
    8       33.014686   0.000000
 
 -0.2083333E+00 -0.4583333E+00  0.4166667E-01  0.6944444E-02
    1        1.730418   1.000000
    2        7.176856   1.000000
    3       12.462845   0.000000
    4       14.493159   0.000000
    5       18.382298   0.000000
    6       24.925548   0.000000
    7       26.967419   0.000000
    8       30.449108   0.000000
 
 -0.1250000E+00 -0.4583333E+00  0.4166667E-01  0.6944444E-02
    1        1.592502   1.000000
    2        5.536388   1.000000
    3       15.082037   0.000000
    4       15.859746   0.000000
    5       19.690349   0.000000
    6       24.018276   0.000000
    7       26.670670   0.000000
    8       29.733988   0.000000
 
 -0.3750000E+00 -0.3750000E+00  0.4166667E-01  0.3472222E-02
    1        1.735001   1.000000
    2        9.483099   1.000000
    3       12.942565   0.000000
    4       13.740463   0.000000
    5       15.506064   0.000000
    6       17.685583   0.000000
    7       33.218328   0.000000
    8       34.699000   0.000000
 
 -0.2916667E+00 -0.3750000E+00  0.4166667E-01  0.6944444E-02
    1        0.687790   1.000000
    2       11.386245   0.000000
    3       12.136198   0.000000
    4       13.564835   0.000000
    5       17.054768   0.000000
    6       19.111886   0.000000
    7       30.960145   0.000000
    8       33.396729   0.000000
 
 -0.2083333E+00 -0.3750000E+00  0.4166667E-01  0.6944444E-02
    1        0.028456   1.000000
    2       10.044405   0.998739
    3       13.702509   0.000000
    4       14.461483   0.000000
    5       18.225899   0.000000
    6       22.310726   0.000000
    7       28.000697   0.000000
    8       30.794091   0.000000
 
 -0.1250000E+00 -0.3750000E+00  0.4166667E-01  0.6944444E-02
    1       -0.237321   1.000000
    2        8.320212   1.000000
    3       15.421170   0.000000
    4       16.415137   0.000000
    5       19.508425   0.000000
    6       24.893903   0.000000
    7       25.833384   0.000000
    8       28.184690   0.000000
 
 -0.2916667E+00 -0.2916667E+00  0.4166667E-01  0.3472222E-02
    1       -0.498624   1.000000
    2       13.204148   0.000000
    3       13.842110   0.000000
    4       14.563984   0.000000
    5       16.417576   0.000000
    6       18.580496   0.000000
    7       31.417046   0.000000
    8       32.376896   0.000000
 
 -0.2083333E+00 -0.2916667E+00  0.4166667E-01  0.6944444E-02
    1       -1.294329   1.000000
    2       13.148584   0.000000
    3       14.503665   0.000000
    4       15.521169   0.000000
    5       18.205124   0.000000
    6       20.219872   0.000000
    7       29.131579   0.000000
    8       30.728074   0.000000
 
 -0.1250000E+00 -0.2916667E+00  0.4166667E-01  0.6944444E-02
    1       -1.693885   1.000000
    2       11.421195   0.000000
    3       15.595919   0.000000
    4       17.687231   0.000000
    5       19.747547   0.000000
    6       23.461388   0.000000
    7       26.448869   0.000000
    8       27.843861   0.000000
 
 -0.2083333E+00 -0.2083333E+00  0.4166667E-01  0.3472222E-02
    1       -2.226245   1.000000
    2       15.084657   0.000000
    3       15.853957   0.000000
    4       17.039981   0.000000
    5       17.885377   0.000000
    6       20.196397   0.000000
    7       29.418382   0.000000
    8       29.609516   0.000000
 
 -0.1250000E+00 -0.2083333E+00  0.4166667E-01  0.6944444E-02
    1       -2.760979   1.000000
    2       14.739064   0.000000
    3       16.091761   0.000000
    4       18.940849   0.000000
    5       20.011460   0.000000
    6       22.144311   0.000000
    7       27.338858   0.000000
    8       27.659474   0.000000
 
 -0.1250000E+00 -0.1250000E+00  0.4166667E-01  0.3472222E-02
    1       -3.431045   1.000000
    2       16.866990   0.000000
    3       17.598382   0.000000
    4       19.417172   0.000000
    5       20.029053   0.000000
    6       23.385688   0.000000
    7       26.587991   0.000000
    8       26.742419   0.000000
 
  0.1250000E+00  0.1250000E+00  0.1250000E+00  0.1157407E-02
    1       -3.834223   1.000000
    2       16.681551   0.000000
    3       19.950286   0.000000
    4       19.950293   0.000000
    5       23.408486   0.000000
    6       23.893132   0.000000
    7       23.893140   0.000000
    8       27.403242   0.000000
 
  0.2083333E+00  0.1250000E+00  0.1250000E+00  0.3472222E-02
    1       -3.431168   1.000000
    2       15.603493   0.000000
    3       17.018624   0.000000
    4       21.140727   0.000000
    5       23.052921   0.000000
    6       24.072903   0.000000
    7       25.186654   0.000000
    8       25.595346   0.000000
 
  0.2916667E+00  0.1250000E+00  0.1250000E+00  0.3472222E-02
    1       -2.627540   1.000000
    2       13.447470   0.000000
    3       15.014941   0.000000
    4       20.706743   0.000000
    5       23.485345   0.000000
    6       24.270014   0.000000
    7       24.815316   0.000000
    8       24.987464   0.000000
 
  0.3750000E+00  0.1250000E+00  0.1250000E+00  0.3472222E-02
    1       -1.428608   1.000000
    2       10.190499   0.133160
    3       14.613596   0.000000
    4       19.554421   0.000000
    5       22.707765   0.000000
    6       23.007027   0.000000
    7       25.098590   0.000000
    8       26.969012   0.000000
 
  0.4583333E+00  0.1250000E+00  0.1250000E+00  0.3472222E-02
    1        0.156505   1.000000
    2        7.185344   1.000000
    3       14.596804   0.000000
    4       18.415474   0.000000
    5       21.318280   0.000000
    6       22.806201   0.000000
    7       25.304955   0.000000
    8       29.606297   0.000000
 
 -0.4583333E+00  0.1250000E+00  0.1250000E+00  0.3472222E-02
    1        2.098950   1.000000
    2        4.524814   1.000000
    3       14.935671   0.000000
    4       17.484533   0.000000
    5       20.250531   0.000000
    6       23.037736   0.000000
    7       25.582990   0.000000
    8       29.576562   0.000000
 
 -0.3750000E+00  0.1250000E+00  0.1250000E+00  0.3472222E-02
    1        2.098892   1.000000
    2        4.525159   1.000000
    3       15.606385   0.000000
    4       16.841220   0.000000
    5       19.555449   0.000000
    6       23.654757   0.000000
    7       25.833894   0.000000
    8       29.336176   0.000000
 
 -0.2916667E+00  0.1250000E+00  0.1250000E+00  0.3472222E-02
    1        0.156677   1.000000
    2        7.187435   1.000000
    3       16.520645   0.000000
    4       16.556742   0.000000
    5       19.293661   0.000000
    6       24.610826   0.000000
    7       25.771651   0.000000
    8       28.560126   0.000000
 
 -0.2083333E+00  0.1250000E+00  0.1250000E+00  0.3472222E-02
    1       -1.428400   1.000000
    2       10.197575   0.094807
    3       16.536949   0.000000
    4       17.629115   0.000000
    5       19.573804   0.000000
    6       24.691995   0.000000
    7       25.820678   0.000000
    8       27.188390   0.000000
 
 -0.1250000E+00  0.1250000E+00  0.1250000E+00  0.3472222E-02
    1       -2.627359   1.000000
    2       13.485544   0.000000
    3       16.895828   0.000000
    4       18.569373   0.000000
    5       20.373763   0.000000
    6       23.013655   0.000000
    7       26.916442   0.000000
    8       26.976140   0.000000
 
  0.2083333E+00  0.2083333E+00  0.1250000E+00  0.3472222E-02
    1       -3.162886   1.000000
    2       14.453825   0.000000
    3       17.818878   0.000000
    4       19.491107   0.000000
    5       21.872372   0.000000
    6       24.196868   0.000000
    7       25.482107   0.000000
    8       26.124072   0.000000
 
  0.2916667E+00  0.2083333E+00  0.1250000E+00  0.6944444E-02
    1       -2.493765   1.000000
    2       13.561059   0.000000
    3       15.090801   0.000000
    4       19.480250   0.000000
    5       21.416565   0.000000
    6       23.131440   0.000000
    7       25.994556   0.000000
    8       26.918560   0.000000
 
  0.3750000E+00  0.2083333E+00  0.1250000E+00  0.6944444E-02
    1       -1.428066   1.000000
    2       11.601777   0.000000
    3       13.251136   0.000000
    4       18.061306   0.000000
    5       22.172955   0.000000
    6       23.420570   0.000000
    7       24.964791   0.000000
    8       27.901128   0.000000
 
  0.4583333E+00  0.2083333E+00  0.1250000E+00  0.6944444E-02
    1        0.026694   1.000000
    2        8.558773   1.000000
    3       13.068384   0.000000
    4       16.634705   0.000000
    5       21.948326   0.000000
    6       23.215596   0.000000
    7       26.164394   0.000000
    8       28.440782   0.000000
 
 -0.4583333E+00  0.2083333E+00  0.1250000E+00  0.6944444E-02
    1        1.854545   1.000000
    2        5.787649   1.000000
    3       13.280668   0.000000
    4       15.495473   0.000000
    5       21.544404   0.000000
    6       22.759431   0.000000
    7       27.633812   0.000000
    8       29.759519   0.000000
 
 -0.3750000E+00  0.2083333E+00  0.1250000E+00  0.6944444E-02
    1        3.204277   1.000000
    2        4.200388   1.000000
    3       13.791676   0.000000
    4       14.756805   0.000000
    5       20.916487   0.000000
    6       23.133349   0.000000
    7       27.889961   0.000000
    8       30.553359   0.000000
 
 -0.2916667E+00  0.2083333E+00  0.1250000E+00  0.6944444E-02
    1        1.206094   1.000000
    2        6.675403   1.000000
    3       13.998727   0.000000
    4       15.026473   0.000000
    5       20.500513   0.000000
    6       23.925657   0.000000
    7       26.920002   0.000000
    8       29.273440   0.000000
 
 -0.2083333E+00  0.2083333E+00  0.1250000E+00  0.6944444E-02
    1       -0.500572   1.000000
    2        9.560081   1.000000
    3       13.963948   0.000000
    4       16.225835   0.000000
    5       20.406224   0.000000
    6       24.138032   0.000000
    7       25.565105   0.000000
    8       28.889535   0.000000
 
 -0.1250000E+00  0.2083333E+00  0.1250000E+00  0.6944444E-02
    1       -1.826761   1.000000
    2       12.701805   0.000000
    3       14.258915   0.000000
    4       17.728608   0.000000
    5       20.521516   0.000000
    6       22.263441   0.000000
    7       26.605114   0.000000
    8       28.611881   0.000000
 