 running on    4 total cores
 distrk:  each k-point on    4 cores,    1 groups
 distr:  one band on    1 cores,    4 groups
 vasp.6.2.0 18Jan21 (build Aug 12 2022 13:00:08) complex                        
  
 POSCAR found type information on POSCAR Si
 POSCAR found :  1 types and       1 ions
 scaLAPACK will be used
 LDA part: xc-table for Pade appr. of Perdew
 POSCAR, INCAR and KPOINTS ok, starting setup
 FFT: planning ...
 WAVECAR not read
 entering main loop
       N       E                     dE             d eps       ncg     rms          rms(c)
DAV:   1    -0.318575400127E+01   -0.31858E+01   -0.14757E+03  3184   0.273E+02
DAV:   2    -0.489305120486E+01   -0.17073E+01   -0.16264E+01  4336   0.238E+01
DAV:   3    -0.490098780942E+01   -0.79366E-02   -0.79337E-02  3240   0.166E+00
DAV:   4    -0.490099386630E+01   -0.60569E-05   -0.60573E-05  4976   0.476E-02
DAV:   5    -0.490099386746E+01   -0.11535E-08   -0.44986E-09  3264   0.253E-04    0.280E+00
DAV:   6    -0.488756394725E+01    0.13430E-01   -0.38785E-03  3360   0.272E-01    0.155E+00
DAV:   7    -0.487983640610E+01    0.77275E-02   -0.78510E-03  3416   0.387E-01    0.132E-01
DAV:   8    -0.487979832169E+01    0.38084E-04   -0.25227E-05  4352   0.399E-02    0.150E-02
DAV:   9    -0.487979866047E+01   -0.33877E-06   -0.33464E-07  3656   0.329E-03
   1 F= -.48797987E+01 E0= -.48795045E+01  d E =-.487980E+01
 curvature:   0.00 expect dE= 0.000E+00 dE for cont linesearch  0.000E+00
 trial: gam= 0.00000 g(F)=  0.573E-66 g(S)=  0.714E-02 ort = 0.000E+00 (trialstep = 0.100E+01)
 search vector abs. value=  0.714E-02
 bond charge predicted
       N       E                     dE             d eps       ncg     rms          rms(c)
DAV:   1    -0.488476468120E+01   -0.49664E-02   -0.11132E-01  3160   0.131E+00    0.315E-01
DAV:   2    -0.488356830137E+01    0.11964E-02   -0.59714E-04  4080   0.178E-01    0.177E-01
DAV:   3    -0.488286816564E+01    0.70014E-03   -0.79442E-04  3208   0.118E-01    0.526E-02
DAV:   4    -0.488286715222E+01    0.10134E-05   -0.14546E-06  4384   0.104E-02    0.441E-02
DAV:   5    -0.488286313140E+01    0.40208E-05   -0.27994E-07  2384   0.364E-03    0.853E-03
DAV:   6    -0.488286338221E+01   -0.25081E-06   -0.83747E-09  1608   0.772E-04
   2 F= -.48828634E+01 E0= -.48825557E+01  d E =-.306472E-02
 trial-energy change:   -0.003065  1 .order   -0.003140   -0.007144    0.000864
 step:   0.8864(harm=  0.8921)  dis= 0.00000  next Energy=    -4.882913 (dE=-0.311E-02)
 bond charge predicted
       N       E                     dE             d eps       ncg     rms          rms(c)
DAV:   1    -0.488293633146E+01   -0.73200E-04   -0.14456E-03  3224   0.151E-01    0.352E-02
DAV:   2    -0.488292072607E+01    0.15605E-04   -0.76867E-06  4040   0.201E-02    0.197E-02
DAV:   3    -0.488291199520E+01    0.87309E-05   -0.10424E-05  3216   0.136E-02    0.622E-03
DAV:   4    -0.488291203555E+01   -0.40342E-07   -0.18077E-08  1584   0.117E-03    0.523E-03
DAV:   5    -0.488291227702E+01   -0.24147E-06   -0.50102E-09  1512   0.534E-04    0.727E-04
DAV:   6    -0.488291224911E+01    0.27911E-07   -0.15740E-10  1528   0.103E-04
   3 F= -.48829122E+01 E0= -.48826109E+01  d E =-.311359E-02
 curvature:  -0.44 expect dE=-0.597E-08 dE for cont linesearch -0.597E-08
 trial: gam=-0.00137 g(F)=  0.102E-64 g(S)=  0.134E-07 ort = 0.979E-05 (trialstep = 0.977E+00)
 search vector abs. value=  0.100E-09
 reached required accuracy - stopping structural energy minimisation
