unknown system                          
           1
     2.347395    0.000000    1.355268
     0.782465    2.213145    1.355268
     0.000000    0.000000    2.710538
   Si
     1
Direct configuration=     1
   0.00000000  0.00000000  0.00000000
unknown system                          
           1
     2.372554   -0.000000    1.369794
     0.790851    2.236866    1.369794
    -0.000000   -0.000000    2.739590
   Si
     1
Direct configuration=     2
   0.00000000  0.00000000  0.00000000
unknown system                          
           1
     2.369697   -0.000000    1.368144
     0.789899    2.234171    1.368144
    -0.000000   -0.000000    2.736290
   Si
     1
Direct configuration=     3
   0.00000000 -0.00000000  0.00000000
