   1   1   0   0
  0.1386300E+02  0.2621157E-09  0.2621157E-09  0.2621157E-09  0.5000000E-15
  1.000000000000000E-004
  CAR 
 unknown system                          
     36.28658525     -6.20118670  301      9.91723796      1.00000000
     -6.201  0.0000E+00  0.0000E+00
     -6.060  0.0000E+00  0.0000E+00
     -5.918  0.0000E+00  0.0000E+00
     -5.776  0.0000E+00  0.0000E+00
     -5.635  0.0000E+00  0.0000E+00
     -5.493  0.0000E+00  0.0000E+00
     -5.351  0.0000E+00  0.0000E+00
     -5.210  0.0000E+00  0.0000E+00
     -5.068  0.0000E+00  0.0000E+00
     -4.927  0.0000E+00  0.0000E+00
     -4.785  0.0000E+00  0.0000E+00
     -4.643  0.0000E+00  0.0000E+00
     -4.502  0.4044E-14  0.5727E-15
     -4.360  0.7845E-06  0.1111E-06
     -4.218  0.1557E-03  0.2216E-04
     -4.077  0.5003E-03  0.9301E-04
     -3.935  0.3453E-03  0.1419E-03
     -3.794  0.9656E-03  0.2787E-03
     -3.652  0.7998E-03  0.3919E-03
     -3.510  0.6925E-03  0.4900E-03
     -3.369  0.1192E-02  0.6589E-03
     -3.227  0.1064E-02  0.8096E-03
     -3.085  0.7767E-03  0.9196E-03
     -2.944  0.1740E-02  0.1166E-02
     -2.802  0.8869E-03  0.1292E-02
     -2.661  0.1707E-02  0.1533E-02
     -2.519  0.1008E-02  0.1676E-02
     -2.377  0.1495E-02  0.1888E-02
     -2.236  0.1707E-02  0.2130E-02
     -2.094  0.1491E-02  0.2341E-02
     -1.952  0.1461E-02  0.2548E-02
     -1.811  0.2187E-02  0.2857E-02
     -1.669  0.8004E-03  0.2971E-02
     -1.528  0.2197E-02  0.3282E-02
     -1.386  0.2159E-02  0.3588E-02
     -1.244  0.1807E-02  0.3844E-02
     -1.103  0.1783E-02  0.4096E-02
     -0.961  0.1722E-02  0.4340E-02
     -0.819  0.1552E-02  0.4560E-02
     -0.678  0.2838E-02  0.4962E-02
     -0.536  0.1344E-02  0.5152E-02
     -0.395  0.3101E-02  0.5592E-02
     -0.253  0.1345E-02  0.5782E-02
     -0.111  0.3190E-02  0.6234E-02
      0.030  0.2031E-02  0.6522E-02
      0.172  0.7145E-03  0.6623E-02
      0.314  0.2047E-02  0.6913E-02
      0.455  0.4558E-02  0.7558E-02
      0.597  0.1729E-02  0.7803E-02
      0.738  0.2852E-02  0.8207E-02
      0.880  0.1519E-02  0.8422E-02
      1.022  0.2518E-02  0.8779E-02
      1.163  0.3189E-02  0.9230E-02
      1.305  0.1269E-02  0.9410E-02
      1.447  0.2400E-02  0.9750E-02
      1.588  0.3489E-02  0.1024E-01
      1.730  0.3380E-02  0.1072E-01
      1.871  0.3616E-02  0.1123E-01
      2.013  0.9128E-03  0.1136E-01
      2.155  0.3110E-02  0.1180E-01
      2.296  0.2849E-02  0.1221E-01
      2.438  0.1873E-02  0.1247E-01
      2.580  0.3207E-02  0.1293E-01
      2.721  0.2957E-02  0.1335E-01
      2.863  0.4178E-02  0.1394E-01
      3.004  0.3027E-02  0.1437E-01
      3.146  0.3396E-02  0.1485E-01
      3.288  0.2513E-02  0.1520E-01
      3.429  0.1597E-02  0.1543E-01
      3.571  0.3615E-02  0.1594E-01
      3.713  0.3452E-02  0.1643E-01
      3.854  0.2478E-02  0.1678E-01
      3.996  0.3425E-02  0.1727E-01
      4.138  0.2102E-02  0.1756E-01
      4.279  0.5966E-02  0.1841E-01
      4.421  0.2727E-02  0.1880E-01
      4.562  0.2900E-02  0.1921E-01
      4.704  0.2174E-02  0.1951E-01
      4.846  0.2852E-02  0.1992E-01
      4.987  0.4672E-02  0.2058E-01
      5.129  0.2739E-02  0.2097E-01
      5.271  0.2201E-02  0.2128E-01
      5.412  0.7239E-02  0.2230E-01
      5.554  0.1327E-02  0.2249E-01
      5.695  0.2381E-02  0.2283E-01
      5.837  0.3488E-02  0.2332E-01
      5.979  0.3908E-02  0.2388E-01
      6.120  0.5508E-02  0.2466E-01
      6.262  0.3704E-02  0.2518E-01
      6.404  0.3136E-02  0.2563E-01
      6.545  0.2724E-02  0.2601E-01
      6.687  0.3025E-02  0.2644E-01
      6.828  0.4697E-02  0.2711E-01
      6.970  0.3564E-02  0.2761E-01
      7.112  0.3470E-02  0.2810E-01
      7.253  0.5188E-02  0.2884E-01
      7.395  0.2395E-02  0.2918E-01
      7.537  0.6071E-02  0.3004E-01
      7.678  0.3729E-02  0.3056E-01
      7.820  0.3333E-02  0.3104E-01
      7.961  0.2914E-02  0.3145E-01
      8.103  0.6364E-02  0.3235E-01
      8.245  0.2946E-02  0.3277E-01
      8.386  0.2474E-02  0.3312E-01
      8.528  0.4963E-02  0.3382E-01
      8.670  0.4253E-02  0.3442E-01
      8.811  0.3992E-02  0.3499E-01
      8.953  0.4513E-02  0.3563E-01
      9.094  0.4885E-02  0.3632E-01
      9.236  0.4724E-02  0.3699E-01
      9.378  0.6689E-02  0.3793E-01
      9.519  0.2652E-02  0.3831E-01
      9.661  0.6343E-02  0.3921E-01
      9.803  0.2755E-02  0.3960E-01
      9.944  0.3637E-02  0.4011E-01
     10.086  0.3727E-02  0.4064E-01
     10.227  0.6178E-02  0.4152E-01
     10.369  0.4368E-02  0.4214E-01
     10.511  0.4630E-02  0.4279E-01
     10.652  0.5667E-02  0.4359E-01
     10.794  0.3799E-02  0.4413E-01
     10.936  0.3381E-02  0.4461E-01
     11.077  0.3830E-02  0.4515E-01
     11.219  0.6799E-02  0.4612E-01
     11.360  0.4099E-02  0.4670E-01
     11.502  0.3660E-02  0.4721E-01
     11.644  0.3862E-02  0.4776E-01
     11.785  0.5098E-02  0.4848E-01
     11.927  0.2565E-02  0.4885E-01
     12.069  0.2538E-02  0.4921E-01
     12.210  0.5149E-02  0.4994E-01
     12.352  0.5171E-02  0.5067E-01
     12.493  0.6756E-02  0.5162E-01
     12.635  0.3877E-02  0.5217E-01
     12.777  0.2951E-02  0.5259E-01
     12.918  0.5162E-02  0.5332E-01
     13.060  0.5905E-02  0.5416E-01
     13.202  0.4962E-02  0.5486E-01
     13.343  0.3686E-02  0.5538E-01
     13.485  0.4730E-02  0.5605E-01
     13.626  0.6573E-02  0.5698E-01
     13.768  0.3760E-02  0.5752E-01
     13.910  0.2381E-02  0.5785E-01
     14.051  0.4011E-02  0.5842E-01
     14.193  0.6535E-02  0.5935E-01
     14.335  0.5913E-02  0.6019E-01
     14.476  0.4594E-02  0.6084E-01
     14.618  0.7101E-02  0.6184E-01
     14.759  0.3938E-02  0.6240E-01
     14.901  0.5363E-02  0.6316E-01
     15.043  0.6126E-02  0.6403E-01
     15.184  0.5707E-02  0.6483E-01
     15.326  0.3654E-02  0.6535E-01
     15.468  0.5180E-02  0.6609E-01
     15.609  0.3958E-02  0.6665E-01
     15.751  0.5192E-02  0.6738E-01
     15.892  0.5373E-02  0.6814E-01
     16.034  0.5182E-02  0.6888E-01
     16.176  0.7670E-02  0.6996E-01
     16.317  0.3854E-02  0.7051E-01
     16.459  0.4964E-02  0.7121E-01
     16.601  0.3639E-02  0.7173E-01
     16.742  0.6579E-02  0.7266E-01
     16.884  0.9011E-02  0.7393E-01
     17.025  0.7239E-02  0.7496E-01
     17.167  0.7546E-02  0.7603E-01
     17.309  0.3366E-02  0.7651E-01
     17.450  0.3803E-02  0.7704E-01
     17.592  0.5530E-02  0.7783E-01
     17.734  0.8164E-02  0.7898E-01
     17.875  0.7362E-02  0.8003E-01
     18.017  0.4779E-02  0.8070E-01
     18.158  0.4947E-02  0.8140E-01
     18.300  0.4658E-02  0.8206E-01
     18.442  0.3195E-02  0.8252E-01
     18.583  0.2484E-02  0.8287E-01
     18.725  0.3235E-02  0.8333E-01
     18.867  0.6922E-02  0.8431E-01
     19.008  0.3313E-02  0.8478E-01
     19.150  0.2843E-02  0.8518E-01
     19.291  0.2169E-02  0.8549E-01
     19.433  0.3489E-02  0.8598E-01
     19.575  0.8730E-02  0.8722E-01
     19.716  0.5922E-02  0.8805E-01
     19.858  0.4411E-02  0.8868E-01
     20.000  0.5755E-02  0.8949E-01
     20.141  0.7424E-02  0.9055E-01
     20.283  0.5036E-02  0.9126E-01
     20.424  0.4722E-02  0.9193E-01
     20.566  0.7158E-02  0.9294E-01
     20.708  0.6539E-02  0.9387E-01
     20.849  0.3870E-02  0.9442E-01
     20.991  0.5224E-02  0.9516E-01
     21.133  0.5684E-02  0.9596E-01
     21.274  0.5556E-02  0.9675E-01
     21.416  0.7105E-02  0.9775E-01
     21.557  0.7991E-02  0.9888E-01
     21.699  0.9017E-02  0.1002E+00
     21.841  0.5079E-02  0.1009E+00
     21.982  0.8068E-02  0.1020E+00
     22.124  0.9100E-02  0.1033E+00
     22.266  0.9655E-02  0.1047E+00
     22.407  0.7244E-02  0.1057E+00
     22.549  0.4217E-02  0.1063E+00
     22.690  0.8808E-02  0.1076E+00
     22.832  0.2343E-02  0.1079E+00
     22.974  0.5497E-02  0.1087E+00
     23.115  0.8136E-02  0.1098E+00
     23.257  0.5337E-02  0.1106E+00
     23.399  0.3590E-02  0.1111E+00
     23.540  0.4376E-02  0.1117E+00
     23.682  0.5332E-02  0.1125E+00
     23.824  0.8073E-02  0.1136E+00
     23.965  0.6747E-02  0.1146E+00
     24.107  0.6214E-02  0.1154E+00
     24.248  0.4378E-02  0.1161E+00
     24.390  0.5735E-02  0.1169E+00
     24.532  0.5226E-02  0.1176E+00
     24.673  0.4213E-02  0.1182E+00
     24.815  0.4328E-02  0.1188E+00
     24.957  0.7770E-02  0.1199E+00
     25.098  0.1047E-01  0.1214E+00
     25.240  0.4732E-02  0.1221E+00
     25.381  0.5126E-02  0.1228E+00
     25.523  0.4694E-02  0.1235E+00
     25.665  0.6068E-02  0.1243E+00
     25.806  0.8211E-02  0.1255E+00
     25.948  0.1051E-01  0.1270E+00
     26.090  0.5169E-02  0.1277E+00
     26.231  0.5519E-02  0.1285E+00
     26.373  0.5750E-02  0.1293E+00
     26.514  0.5130E-02  0.1300E+00
     26.656  0.8667E-02  0.1313E+00
     26.798  0.4698E-02  0.1319E+00
     26.939  0.4504E-02  0.1326E+00
     27.081  0.5313E-02  0.1333E+00
     27.223  0.4639E-02  0.1340E+00
     27.364  0.7301E-02  0.1350E+00
     27.506  0.4822E-02  0.1357E+00
     27.647  0.5020E-02  0.1364E+00
     27.789  0.7173E-02  0.1374E+00
     27.931  0.7582E-02  0.1385E+00
     28.072  0.4126E-02  0.1391E+00
     28.214  0.1206E-01  0.1408E+00
     28.356  0.6691E-02  0.1417E+00
     28.497  0.8653E-02  0.1429E+00
     28.639  0.5462E-02  0.1437E+00
     28.780  0.6812E-02  0.1447E+00
     28.922  0.4379E-02  0.1453E+00
     29.064  0.7576E-02  0.1464E+00
     29.205  0.4947E-02  0.1471E+00
     29.347  0.3328E-02  0.1476E+00
     29.489  0.6923E-02  0.1485E+00
     29.630  0.9037E-02  0.1498E+00
     29.772  0.7202E-02  0.1508E+00
     29.913  0.4828E-02  0.1515E+00
     30.055  0.8913E-02  0.1528E+00
     30.197  0.4835E-02  0.1535E+00
     30.338  0.5471E-02  0.1542E+00
     30.480  0.9391E-02  0.1556E+00
     30.622  0.7289E-02  0.1566E+00
     30.763  0.1524E-02  0.1568E+00
     30.905  0.2644E-02  0.1572E+00
     31.046  0.3740E-02  0.1577E+00
     31.188  0.2462E-02  0.1581E+00
     31.330  0.8320E-03  0.1582E+00
     31.471  0.8218E-03  0.1583E+00
     31.613  0.2774E-02  0.1587E+00
     31.755  0.2287E-02  0.1590E+00
     31.896  0.1074E-02  0.1592E+00
     32.038  0.3167E-03  0.1592E+00
     32.179  0.1073E-02  0.1594E+00
     32.321  0.1974E-03  0.1594E+00
     32.463  0.6292E-03  0.1595E+00
     32.604  0.1014E-03  0.1595E+00
     32.746  0.3377E-03  0.1595E+00
     32.888  0.6865E-03  0.1596E+00
     33.029  0.1807E-03  0.1597E+00
     33.171  0.4898E-03  0.1597E+00
     33.312  0.5110E-03  0.1598E+00
     33.454  0.7915E-03  0.1599E+00
     33.596  0.5329E-04  0.1599E+00
     33.737  0.1431E-09  0.1599E+00
     33.879  0.8065E-20  0.1599E+00
     34.021  0.9404E-09  0.1599E+00
     34.162  0.5255E-04  0.1599E+00
     34.304  0.2178E-03  0.1600E+00
     34.445  0.2129E-03  0.1600E+00
     34.587  0.1046E-05  0.1600E+00
     34.729  0.5392E-14  0.1600E+00
     34.870  0.0000E+00  0.1600E+00
     35.012  0.0000E+00  0.1600E+00
     35.154  0.0000E+00  0.1600E+00
     35.295  0.0000E+00  0.1600E+00
     35.437  0.0000E+00  0.1600E+00
     35.578  0.0000E+00  0.1600E+00
     35.720  0.0000E+00  0.1600E+00
     35.862  0.0000E+00  0.1600E+00
     36.003  0.0000E+00  0.1600E+00
     36.145  0.0000E+00  0.1600E+00
     36.287  0.0000E+00  0.1600E+00
