    1    1  100    1
  0.1386300E+02  0.2621157E-09  0.2621157E-09  0.2621157E-09  0.5000000E-15
  1.000000000000000E-004
  CAR 
 unknown system                          
      4    190      8
 
  0.2777778E-01  0.2777778E-01  0.2777778E-01  0.1371742E-02
    1       -4.175442   1.000000
    2       19.661076   0.000000
    3       20.440446   0.000000
    4       20.440446   0.000000
    5       22.709835   0.000000
    6       22.709835   0.000000
    7       23.972381   0.000000
    8       25.609586   0.000000
 
  0.8333333E-01  0.2777778E-01  0.2777778E-01  0.4115226E-02
    1       -3.892317   1.000000
    2       17.938754   0.000000
    3       18.949050   0.000000
    4       19.809619   0.000000
    5       22.247621   0.000000
    6       23.336027   0.000000
    7       24.935860   0.000000
    8       25.379447   0.000000
 
  0.1388889E+00  0.2777778E-01  0.2777778E-01  0.4115226E-02
    1       -3.421292   1.000000
    2       15.690884   0.000000
    3       17.841080   0.000000
    4       19.020430   0.000000
    5       21.676762   0.000000
    6       22.885008   0.000000
    7       25.485893   0.000000
    8       26.025387   0.000000
 
  0.1944444E+00  0.2777778E-01  0.2777778E-01  0.4115226E-02
    1       -2.763670   1.000000
    2       13.351175   0.000000
    3       16.947082   0.000000
    4       18.237461   0.000000
    5       21.069212   0.000000
    6       22.162139   0.000000
    7       26.346357   0.000000
    8       26.416280   0.000000
 
  0.2500000E+00  0.2777778E-01  0.2777778E-01  0.4115226E-02
    1       -1.921276   1.000000
    2       11.068277   0.000000
    3       16.221080   0.000000
    4       17.543433   0.000000
    5       20.495352   0.000000
    6       21.506847   0.000000
    7       27.004839   0.000000
    8       27.299424   0.000000
 
  0.3055556E+00  0.2777778E-01  0.2777778E-01  0.4115226E-02
    1       -0.896544   1.000000
    2        8.897216   1.000000
    3       15.657741   0.000000
    4       16.982237   0.000000
    5       20.012359   0.000000
    6       20.974653   0.000000
    7       27.782574   0.000000
    8       28.336281   0.000000
 
  0.3611111E+00  0.2777778E-01  0.2777778E-01  0.4115226E-02
    1        0.307036   1.000000
    2        6.862860   1.000000
    3       15.255421   0.000000
    4       16.572144   0.000000
    5       19.651023   0.000000
    6       20.581125   0.000000
    7       28.695385   0.000000
    8       29.404946   0.000000
 
  0.4166667E+00  0.2777778E-01  0.2777778E-01  0.4115226E-02
    1        1.683170   1.000000
    2        4.985399   1.000000
    3       15.014068   0.000000
    4       16.322941   0.000000
    5       19.429070   0.000000
    6       20.341029   0.000000
    7       29.647075   0.000000
    8       30.365899   0.000000
 
  0.4722222E+00  0.2777778E-01  0.2777778E-01  0.2057613E-02
    1        3.048542   1.000000
    2        3.452440   1.000000
    3       14.933599   0.000000
    4       16.238910   0.000000
    5       19.354044   0.000000
    6       20.261037   0.000000
    7       30.204939   0.000000
    8       30.818047   0.000000
 
 -0.2777778E-01  0.2777778E-01  0.2777778E-01  0.1028807E-02
    1       -4.269924   1.000000
    2       20.688224   0.000000
    3       20.688224   0.000000
    4       21.073922   0.000000
    5       22.509132   0.000000
    6       22.920149   0.000000
    7       22.920150   0.000000
    8       25.467732   0.000000
 
  0.8333333E-01  0.8333333E-01  0.2777778E-01  0.4115226E-02
    1       -3.515406   1.000000
    2       16.659621   0.000000
    3       17.330234   0.000000
    4       18.573488   0.000000
    5       22.597905   0.000000
    6       23.662988   0.000000
    7       24.860753   0.000000
    8       25.898782   0.000000
 
  0.1388889E+00  0.8333333E-01  0.2777778E-01  0.8230453E-02
    1       -2.951331   1.000000
    2       14.624755   0.000000
    3       16.087285   0.000000
    4       17.675247   0.000000
    5       22.354605   0.000000
    6       23.476886   0.000000
    7       25.297610   0.000000
    8       26.627347   0.000000
 
  0.1944444E+00  0.8333333E-01  0.2777778E-01  0.8230453E-02
    1       -2.201672   1.000000
    2       12.339178   0.000000
    3       15.235012   0.000000
    4       16.900348   0.000000
    5       21.887142   0.000000
    6       23.050054   0.000000
    7       25.878968   0.000000
    8       27.635638   0.000000
 
  0.2500000E+00  0.8333333E-01  0.2777778E-01  0.8230453E-02
    1       -1.268498   1.000000
    2       10.116916   0.000000
    3       14.565769   0.000000
    4       16.260575   0.000000
    5       21.390999   0.000000
    6       22.635929   0.000000
    7       26.584987   0.000000
    8       28.675306   0.000000
 
  0.3055556E+00  0.8333333E-01  0.2777778E-01  0.8230453E-02
    1       -0.154654   1.000000
    2        8.015831   1.000000
    3       14.064430   0.000000
    4       15.771390   0.000000
    5       20.973958   0.000000
    6       22.282965   0.000000
    7       27.466397   0.000000
    8       29.683741   0.000000
 
  0.3611111E+00  0.8333333E-01  0.2777778E-01  0.8230453E-02
    1        1.135565   1.000000
    2        6.060037   1.000000
    3       13.729561   0.000000
    4       15.441696   0.000000
    5       20.681134   0.000000
    6       22.028367   0.000000
    7       28.480937   0.000000
    8       30.475844   0.000000
 
  0.4166667E+00  0.8333333E-01  0.2777778E-01  0.8230453E-02
    1        2.587673   1.000000
    2        4.273642   1.000000
    3       13.561890   0.000000
    4       15.275604   0.000000
    5       20.530863   0.000000
    6       21.896689   0.000000
    7       29.529977   0.000000
    8       30.493612   0.000000
 
 -0.8333333E-01  0.8333333E-01  0.2777778E-01  0.4115226E-02
    1       -4.081032   1.000000
    2       19.044658   0.000000
    3       19.589575   0.000000
    4       20.777002   0.000000
    5       22.029767   0.000000
    6       23.444115   0.000000
    7       24.223784   0.000000
    8       24.488773   0.000000
 
  0.1388889E+00  0.1388889E+00  0.2777778E-01  0.4115226E-02
    1       -2.295218   1.000000
    2       13.528100   0.000000
    3       14.005449   0.000000
    4       16.787679   0.000000
    5       22.601901   0.000000
    6       23.689310   0.000000
    7       25.831451   0.000000
    8       27.094148   0.000000
 
  0.1944444E+00  0.1388889E+00  0.2777778E-01  0.8230453E-02
    1       -1.454708   1.000000
    2       11.475699   0.000000
    3       13.036392   0.000000
    4       16.069321   0.000000
    5       22.449616   0.000000
    6       23.765157   0.000000
    7       26.267320   0.000000
    8       28.187108   0.000000
 
  0.2500000E+00  0.1388889E+00  0.2777778E-01  0.8230453E-02
    1       -0.432246   1.000000
    2        9.329454   1.000000
    3       12.425452   0.000000
    4       15.502338   0.000000
    5       22.086536   0.000000
    6       23.921184   0.000000
    7       26.613878   0.000000
    8       29.528173   0.000000
 
  0.3055556E+00  0.1388889E+00  0.2777778E-01  0.8230453E-02
    1        0.768776   1.000000
    2        7.306038   1.000000
    3       11.993414   0.000000
    4       15.092441   0.000000
    5       21.760385   0.000000
    6       23.961391   0.000000
    7       27.266490   0.000000
    8       30.407497   0.000000
 
  0.3611111E+00  0.1388889E+00  0.2777778E-01  0.8230453E-02
    1        2.142060   1.000000
    2        5.434383   1.000000
    3       11.734529   0.000000
    4       14.844599   0.000000
    5       21.549071   0.000000
    6       23.931388   0.000000
    7       28.198796   0.000000
    8       30.259416   0.000000
 
  0.4166667E+00  0.1388889E+00  0.2777778E-01  0.4115226E-02
    1        3.509187   1.000000
    2        3.900466   1.000000
    3       11.647706   0.000000
    4       14.761581   0.000000
    5       21.476823   0.000000
    6       23.910383   0.000000
    7       29.057380   0.000000
    8       29.536876   0.000000
 
 -0.1388889E+00  0.1388889E+00  0.2777778E-01  0.4115226E-02
    1       -3.703755   1.000000
    2       16.841875   0.000000
    3       18.508243   0.000000
    4       20.342252   0.000000
    5       21.188224   0.000000
    6       22.924907   0.000000
    7       24.590165   0.000000
    8       25.928305   0.000000
 
 -0.8333333E-01  0.1388889E+00  0.2777778E-01  0.4115226E-02
    1       -3.798007   1.000000
    2       17.792368   0.000000
    3       18.180011   0.000000
    4       20.128826   0.000000
    5       21.941216   0.000000
    6       23.205878   0.000000
    7       24.253095   0.000000
    8       25.070764   0.000000
 
  0.1944444E+00  0.1944444E+00  0.2777778E-01  0.4115226E-02
    1       -0.524871   1.000000
    2       10.630276   0.000000
    3       10.995570   0.000000
    4       15.423214   0.000000
    5       22.884459   0.000000
    6       23.863459   0.000000
    7       27.449185   0.000000
    8       28.440234   0.000000
 
  0.2500000E+00  0.1944444E+00  0.2777778E-01  0.8230453E-02
    1        0.584961   1.000000
    2        8.707442   1.000000
    3       10.309776   0.000000
    4       14.934147   0.000000
    5       22.861198   0.000000
    6       24.326387   0.000000
    7       27.759732   0.000000
    8       29.471712   0.000000
 
  0.3055556E+00  0.1944444E+00  0.2777778E-01  0.8230453E-02
    1        1.870540   1.000000
    2        6.770468   1.000000
    3        9.951461   0.166526
    4       14.605048   0.000000
    5       22.671777   0.000000
    6       24.974125   0.000000
    7       27.818271   0.000000
    8       29.933505   0.000000
 
  0.3611111E+00  0.1944444E+00  0.2777778E-01  0.8230453E-02
    1        3.318115   1.000000
    2        4.992952   1.000000
    3        9.774507   0.999973
    4       14.439346   0.000000
    5       22.552773   0.000000
    6       25.407885   0.000000
    7       28.055757   0.000000
    8       29.520701   0.000000
 
 -0.1944444E+00  0.1944444E+00  0.2777778E-01  0.4115226E-02
    1       -3.139176   1.000000
    2       14.499371   0.000000
    3       17.559978   0.000000
    4       19.773293   0.000000
    5       20.312616   0.000000
    6       22.168086   0.000000
    7       25.032352   0.000000
    8       27.107760   0.000000
 
 -0.1388889E+00  0.1944444E+00  0.2777778E-01  0.8230453E-02
    1       -3.327193   1.000000
    2       15.727209   0.000000
    3       17.011638   0.000000
    4       19.503935   0.000000
    5       21.402783   0.000000
    6       22.622747   0.000000
    7       24.567585   0.000000
    8       26.386156   0.000000
 
  0.2500000E+00  0.2500000E+00  0.2777778E-01  0.4115226E-02
    1        1.779673   1.000000
    2        8.124636   1.000000
    3        8.444070   1.000000
    4       14.525740   0.000000
    5       23.512512   0.000000
    6       24.505680   0.000000
    7       28.709329   0.000000
    8       29.428793   0.000000
 
  0.3055556E+00  0.2500000E+00  0.2777778E-01  0.8230453E-02
    1        3.145596   1.000000
    2        6.408917   1.000000
    3        8.035581   1.000000
    4       14.278779   0.000000
    5       23.652997   0.000000
    6       25.243012   0.000000
    7       27.868621   0.000000
    8       30.289047   0.000000
 
  0.3611111E+00  0.2500000E+00  0.2777778E-01  0.4115226E-02
    1        4.510176   1.000000
    2        4.884427   1.000000
    3        7.941811   1.000000
    4       14.196221   0.000000
    5       23.642057   0.000000
    6       25.874637   0.000000
    7       27.207578   0.000000
    8       30.484589   0.000000
 
 -0.2500000E+00  0.2500000E+00  0.2777778E-01  0.4115226E-02
    1       -2.388843   1.000000
    2       12.175546   0.000000
    3       16.763103   0.000000
    4       19.180602   0.000000
    5       19.516358   0.000000
    6       21.495419   0.000000
    7       25.605357   0.000000
    8       27.861469   0.000000
 
 -0.1944444E+00  0.2500000E+00  0.2777778E-01  0.8230453E-02
    1       -2.669868   1.000000
    2       13.419179   0.000000
    3       16.109229   0.000000
    4       18.834906   0.000000
    5       20.696863   0.000000
    6       22.306414   0.000000
    7       24.709856   0.000000
    8       27.911193   0.000000
 
 -0.1388889E+00  0.2500000E+00  0.2777778E-01  0.4115226E-02
    1       -2.763622   1.000000
    2       14.575373   0.000000
    3       14.998773   0.000000
    4       18.818557   0.000000
    5       21.374387   0.000000
    6       22.201960   0.000000
    7       25.432109   0.000000
    8       26.664974   0.000000
 
  0.3055556E+00  0.3055556E+00  0.2777778E-01  0.4115226E-02
    1        4.575348   1.000000
    2        6.107874   1.000000
    3        6.401240   1.000000
    4       14.114847   0.000000
    5       24.374933   0.000000
    6       25.632808   0.000000
    7       26.761175   0.000000
    8       31.714474   0.000000
 
 -0.3055556E+00  0.3055556E+00  0.2777778E-01  0.4115226E-02
    1       -1.454821   1.000000
    2        9.944142   0.223342
    3       16.123476   0.000000
    4       18.648577   0.000000
    5       18.850035   0.000000
    6       20.930672   0.000000
    7       26.351326   0.000000
    8       28.745214   0.000000
 
 -0.2500000E+00  0.3055556E+00  0.2777778E-01  0.8230453E-02
    1       -1.827830   1.000000
    2       11.147620   0.000000
    3       15.370276   0.000000
    4       18.210465   0.000000
    5       20.022200   0.000000
    6       22.018025   0.000000
    7       25.081014   0.000000
    8       29.113527   0.000000
 
 -0.1944444E+00  0.3055556E+00  0.2777778E-01  0.8230453E-02
    1       -2.014592   1.000000
    2       12.480019   0.000000
    3       13.981644   0.000000
    4       18.169180   0.000000
    5       20.972444   0.000000
    6       22.235515   0.000000
    7       25.594548   0.000000
    8       27.911392   0.000000
 
 -0.3611111E+00  0.3611111E+00  0.2777778E-01  0.4115226E-02
    1       -0.340036   1.000000
    2        7.838318   1.000000
    3       15.643047   0.000000
    4       18.224548   0.000000
    5       18.339980   0.000000
    6       20.487084   0.000000
    7       27.263831   0.000000
    8       29.676549   0.000000
 
 -0.3055556E+00  0.3611111E+00  0.2777778E-01  0.8230453E-02
    1       -0.803583   1.000000
    2        8.981787   1.000000
    3       14.793316   0.000000
    4       17.693124   0.000000
    5       19.463829   0.000000
    6       21.710190   0.000000
    7       25.754268   0.000000
    8       30.045300   0.000000
 
 -0.2500000E+00  0.3611111E+00  0.2777778E-01  0.8230453E-02
    1       -1.082266   1.000000
    2       10.279955   0.000000
    3       13.294769   0.000000
    4       17.599321   0.000000
    5       20.421607   0.000000
    6       22.584509   0.000000
    7       25.529450   0.000000
    8       29.412715   0.000000
 
 -0.1944444E+00  0.3611111E+00  0.2777778E-01  0.4115226E-02
    1       -1.175211   1.000000
    2       11.558983   0.000000
    3       11.913338   0.000000
    4       17.575192   0.000000
    5       21.272819   0.000000
    6       21.971518   0.000000
    7       26.921057   0.000000
    8       27.924372   0.000000
 
 -0.4166667E+00  0.4166667E+00  0.2777778E-01  0.4115226E-02
    1        0.951219   1.000000
    2        5.880736   1.000000
    3       15.322379   0.000000
    4       17.931924   0.000000
    5       17.994828   0.000000
    6       20.182532   0.000000
    7       28.304838   0.000000
    8       30.424406   0.000000
 
 -0.3611111E+00  0.4166667E+00  0.2777778E-01  0.8230453E-02
    1        0.399454   1.000000
    2        6.950280   1.000000
    3       14.379471   0.000000
    4       17.311190   0.000000
    5       19.050436   0.000000
    6       21.440867   0.000000
    7       26.666895   0.000000
    8       30.527566   0.000000
 
 -0.3055556E+00  0.4166667E+00  0.2777778E-01  0.8230453E-02
    1        0.030536   1.000000
    2        8.187107   1.000000
    3       12.782642   0.000000
    4       17.150545   0.000000
    5       19.958568   0.000000
    6       22.881020   0.000000
    7       25.755671   0.000000
    8       30.197822   0.000000
 
 -0.2500000E+00  0.4166667E+00  0.2777778E-01  0.8230453E-02
    1       -0.154239   1.000000
    2        9.574733   1.000000
    3       11.150284   0.000000
    4       17.073234   0.000000
    5       21.039571   0.000000
    6       22.436663   0.000000
    7       27.021685   0.000000
    8       29.002580   0.000000
 
 -0.4722222E+00  0.4722222E+00  0.2777778E-01  0.4115226E-02
    1        2.404267   1.000000
    2        4.092878   1.000000
    3       15.162098   0.000000
    4       17.783110   0.000000
    5       17.822140   0.000000
    6       20.028212   0.000000
    7       29.393139   0.000000
    8       30.389129   0.000000
 
 -0.4166667E+00  0.4722222E+00  0.2777778E-01  0.8230453E-02
    1        1.774976   1.000000
    2        5.074631   1.000000
    3       14.130767   0.000000
    4       17.078312   0.000000
    5       18.799608   0.000000
    6       21.263966   0.000000
    7       27.759738   0.000000
    8       30.061711   0.000000
 
 -0.3611111E+00  0.4722222E+00  0.2777778E-01  0.8230453E-02
    1        1.319519   1.000000
    2        6.236447   1.000000
    3       12.440446   0.000000
    4       16.843749   0.000000
    5       19.637701   0.000000
    6       23.002564   0.000000
    7       26.411798   0.000000
    8       29.739425   0.000000
 
 -0.3055556E+00  0.4722222E+00  0.2777778E-01  0.8230453E-02
    1        1.045024   1.000000
    2        7.565430   1.000000
    3       10.708075   0.000000
    4       16.698241   0.000000
    5       20.699717   0.000000
    6       23.219202   0.000000
    7       26.796016   0.000000
    8       29.355773   0.000000
 
 -0.2500000E+00  0.4722222E+00  0.2777778E-01  0.4115226E-02
    1        0.953381   1.000000
    2        8.909705   1.000000
    3        9.221721   1.000000
    4       16.645102   0.000000
    5       21.650493   0.000000
    6       22.352242   0.000000
    7       28.030251   0.000000
    8       28.772466   0.000000
 
 -0.4722222E+00 -0.4722222E+00  0.2777778E-01  0.4115226E-02
    1        3.141076   1.000000
    2        3.541188   1.000000
    3       14.047816   0.000000
    4       17.000206   0.000000
    5       18.715903   0.000000
    6       21.202112   0.000000
    7       28.814056   0.000000
    8       29.097632   0.000000
 
 -0.4166667E+00 -0.4722222E+00  0.2777778E-01  0.8230453E-02
    1        2.770484   1.000000
    2        4.452699   1.000000
    3       12.269360   0.000000
    4       16.688561   0.000000
    5       19.474732   0.000000
    6       23.022465   0.000000
    7       27.372429   0.000000
    8       28.679080   0.000000
 
 -0.3611111E+00 -0.4722222E+00  0.2777778E-01  0.8230453E-02
    1        2.416286   1.000000
    2        5.700272   1.000000
    3       10.444880   0.000000
    4       16.468306   0.000000
    5       20.476741   0.000000
    6       23.963051   0.000000
    7       26.661737   0.000000
    8       28.747381   0.000000
 
 -0.3055556E+00 -0.4722222E+00  0.2777778E-01  0.8230453E-02
    1        2.236205   1.000000
    2        7.115218   1.000000
    3        8.728459   1.000000
    4       16.346991   0.000000
    5       21.629193   0.000000
    6       23.126266   0.000000
    7       27.020853   0.000000
    8       29.560111   0.000000
 
 -0.4166667E+00 -0.4166667E+00  0.2777778E-01  0.4115226E-02
    1        3.784730   1.000000
    2        4.166399   1.000000
    3       10.357577   0.000000
    4       16.390829   0.000000
    5       20.400092   0.000000
    6       24.302437   0.000000
    7       26.641972   0.000000
    8       28.350445   0.000000
 
 -0.3611111E+00 -0.4166667E+00  0.2777778E-01  0.8230453E-02
    1        3.680682   1.000000
    2        5.347709   1.000000
    3        8.545851   1.000000
    4       16.194570   0.000000
    5       21.517633   0.000000
    6       24.132208   0.000000
    7       25.907960   0.000000
    8       29.714386   0.000000
 
 -0.3055556E+00 -0.4166667E+00  0.2777778E-01  0.4115226E-02
    1        3.597091   1.000000
    2        6.714470   1.000000
    3        7.014764   1.000000
    4       16.126713   0.000000
    5       22.449589   0.000000
    6       23.284868   0.000000
    7       25.785482   0.000000
    8       30.972957   0.000000
 
 -0.3611111E+00 -0.3611111E+00  0.2777778E-01  0.4115226E-02
    1        4.952400   1.000000
    2        5.325918   1.000000
    3        6.795769   1.000000
    4       16.051695   0.000000
    5       22.604659   0.000000
    6       24.037383   0.000000
    7       24.733046   0.000000
    8       31.569235   0.000000
 
  0.8333333E-01  0.8333333E-01  0.8333333E-01  0.1371742E-02
    1       -3.045240   1.000000
    2       15.479073   0.000000
    3       16.400036   0.000000
    4       16.400036   0.000000
    5       23.754680   0.000000
    6       23.754680   0.000000
    7       25.802244   0.000000
    8       25.802244   0.000000
 
  0.1388889E+00  0.8333333E-01  0.8333333E-01  0.4115226E-02
    1       -2.388841   1.000000
    2       13.626564   0.000000
    3       14.992915   0.000000
    4       15.538293   0.000000
    5       23.636224   0.000000
    6       24.163417   0.000000
    7       26.193755   0.000000
    8       26.600235   0.000000
 
  0.1944444E+00  0.8333333E-01  0.8333333E-01  0.4115226E-02
    1       -1.547963   1.000000
    2       11.403352   0.000000
    3       14.185369   0.000000
    4       14.802708   0.000000
    5       23.385142   0.000000
    6       23.846749   0.000000
    7       27.252737   0.000000
    8       27.315277   0.000000
 
  0.2500000E+00  0.8333333E-01  0.8333333E-01  0.4115226E-02
    1       -0.525040   1.000000
    2        9.245923   1.000000
    3       13.588265   0.000000
    4       14.217180   0.000000
    5       23.090449   0.000000
    6       23.444147   0.000000
    7       28.102453   0.000000
    8       28.410159   0.000000
 
  0.3055556E+00  0.8333333E-01  0.8333333E-01  0.4115226E-02
    1        0.676572   1.000000
    2        7.218851   1.000000
    3       13.165767   0.000000
    4       13.793468   0.000000
    5       22.833842   0.000000
    6       23.119159   0.000000
    7       28.995449   0.000000
    8       29.545380   0.000000
 
  0.3611111E+00  0.8333333E-01  0.8333333E-01  0.4115226E-02
    1        2.050528   1.000000
    2        5.345478   1.000000
    3       12.912657   0.000000
    4       13.536805   0.000000
    5       22.662840   0.000000
    6       22.914358   0.000000
    7       29.896769   0.000000
    8       30.534856   0.000000
 
  0.4166667E+00  0.8333333E-01  0.8333333E-01  0.2057613E-02
    1        3.417169   1.000000
    2        3.811756   1.000000
    3       12.828218   0.000000
    4       13.450624   0.000000
    5       22.603021   0.000000
    6       22.843901   0.000000
    7       30.376683   0.000000
    8       30.981409   0.000000
 
 -0.8333333E-01  0.8333333E-01  0.8333333E-01  0.1028807E-02
    1       -3.892298   1.000000
    2       18.574362   0.000000
    3       18.574362   0.000000
    4       19.785983   0.000000
    5       22.841691   0.000000
    6       22.875048   0.000000
    7       24.126097   0.000000
    8       24.126097   0.000000
 
  0.1388889E+00  0.1388889E+00  0.8333333E-01  0.4115226E-02
    1       -1.641216   1.000000
    2       12.601318   0.000000
    3       13.107844   0.000000
    4       14.481485   0.000000
    5       24.172160   0.000000
    6       24.905087   0.000000
    7       26.549577   0.000000
    8       27.349916   0.000000
 
  0.1944444E+00  0.1388889E+00  0.8333333E-01  0.8230453E-02
    1       -0.710476   1.000000
    2       10.620073   0.000000
    3       12.202356   0.000000
    4       13.799333   0.000000
    5       24.212004   0.000000
    6       25.068832   0.000000
    7       27.307106   0.000000
    8       28.361233   0.000000
 
  0.2500000E+00  0.1388889E+00  0.8333333E-01  0.8230453E-02
    1        0.400432   1.000000
    2        8.542362   1.000000
    3       11.671079   0.000000
    4       13.290377   0.000000
    5       24.031691   0.000000
    6       25.033160   0.000000
    7       28.109342   0.000000
    8       29.562519   0.000000
 
  0.3055556E+00  0.1388889E+00  0.8333333E-01  0.8230453E-02
    1        1.687349   1.000000
    2        6.595971   1.000000
    3       11.322362   0.000000
    4       12.949498   0.000000
    5       23.840176   0.000000
    6       24.953436   0.000000
    7       29.012929   0.000000
    8       30.536457   0.000000
 
  0.3611111E+00  0.1388889E+00  0.8333333E-01  0.8230453E-02
    1        3.136339   1.000000
    2        4.814820   1.000000
    3       11.148570   0.000000
    4       12.778518   0.000000
    5       23.729280   0.000000
    6       24.897013   0.000000
    7       29.922763   0.000000
    8       30.779004   0.000000
 
 -0.1388889E+00  0.1388889E+00  0.8333333E-01  0.4115226E-02
    1       -3.515370   1.000000
    2       16.842320   0.000000
    3       17.502621   0.000000
    4       19.294757   0.000000
    5       21.806589   0.000000
    6       22.440458   0.000000
    7       24.451215   0.000000
    8       25.419413   0.000000
 
  0.1944444E+00  0.1944444E+00  0.8333333E-01  0.4115226E-02
    1        0.308283   1.000000
    2        9.854678   0.961592
    3       10.225498   0.000000
    4       13.193605   0.000000
    5       24.729079   0.000000
    6       25.692791   0.000000
    7       28.145190   0.000000
    8       28.992550   0.000000
 
  0.2500000E+00  0.1944444E+00  0.8333333E-01  0.8230453E-02
    1        1.504984   1.000000
    2        8.006025   1.000000
    3        9.622242   1.000000
    4       12.766379   0.000000
    5       24.865410   0.000000
    6       26.132161   0.000000
    7       28.739208   0.000000
    8       29.966874   0.000000
 
  0.3055556E+00  0.1944444E+00  0.8333333E-01  0.8230453E-02
    1        2.873449   1.000000
    2        6.149742   1.000000
    3        9.350255   1.000000
    4       12.510222   0.000000
    5       24.811959   0.000000
    6       26.523423   0.000000
    7       29.164448   0.000000
    8       30.551986   0.000000
 
  0.3611111E+00  0.1944444E+00  0.8333333E-01  0.4115226E-02
    1        4.239807   1.000000
    2        4.618817   1.000000
    3        9.261200   1.000000
    4       12.424867   0.000000
    5       24.778947   0.000000
    6       26.664382   0.000000
    7       29.504679   0.000000
    8       30.461881   0.000000
 
 -0.1944444E+00  0.1944444E+00  0.8333333E-01  0.4115226E-02
    1       -2.951271   1.000000
    2       14.610311   0.000000
    3       16.545411   0.000000
    4       18.813190   0.000000
    5       21.408212   0.000000
    6       21.633572   0.000000
    7       24.397591   0.000000
    8       27.263609   0.000000
 
 -0.1388889E+00  0.1944444E+00  0.8333333E-01  0.4115226E-02
    1       -3.045155   1.000000
    2       15.689831   0.000000
    3       15.950381   0.000000
    4       18.797939   0.000000
    5       20.881298   0.000000
    6       22.246477   0.000000
    7       25.213770   0.000000
    8       25.977129   0.000000
 
  0.2500000E+00  0.2500000E+00  0.8333333E-01  0.4115226E-02
    1        2.784221   1.000000
    2        7.508317   1.000000
    3        7.833469   1.000000
    4       12.423936   0.000000
    5       25.524367   0.000000
    6       26.653158   0.000000
    7       29.483834   0.000000
    8       30.189318   0.000000
 
  0.3055556E+00  0.2500000E+00  0.8333333E-01  0.8230453E-02
    1        4.223698   1.000000
    2        5.883809   1.000000
    3        7.511398   1.000000
    4       12.252991   0.000000
    5       25.752479   0.000000
    6       27.306992   0.000000
    7       28.886690   0.000000
    8       31.076706   0.000000
 
 -0.2500000E+00  0.2500000E+00  0.8333333E-01  0.4115226E-02
    1       -2.201595   1.000000
    2       12.324347   0.000000
    3       15.734771   0.000000
    4       18.210370   0.000000
    5       20.871515   0.000000
    6       21.376108   0.000000
    7       24.318418   0.000000
    8       29.300736   0.000000
 
 -0.1944444E+00  0.2500000E+00  0.8333333E-01  0.8230453E-02
    1       -2.388714   1.000000
    2       13.605844   0.000000
    3       14.941719   0.000000
    4       18.413457   0.000000
    5       20.572058   0.000000
    6       21.654701   0.000000
    7       25.240466   0.000000
    8       27.474625   0.000000
 
  0.3055556E+00  0.3055556E+00  0.8333333E-01  0.1371742E-02
    1        5.444206   1.000000
    2        5.960795   1.000000
    3        5.960795   1.000000
    4       12.167531   0.000000
    5       26.216631   0.000000
    6       27.966820   0.000000
    7       27.966820   0.000000
    8       32.463731   0.000000
 
 -0.3055556E+00  0.3055556E+00  0.8333333E-01  0.4115226E-02
    1       -1.268411   1.000000
    2       10.108372   0.000000
    3       15.081179   0.000000
    4       17.638983   0.000000
    5       20.227905   0.000000
    6       21.375241   0.000000
    7       24.526505   0.000000
    8       30.243370   0.000000
 
 -0.2500000E+00  0.3055556E+00  0.8333333E-01  0.8230453E-02
    1       -1.547793   1.000000
    2       11.380617   0.000000
    3       14.188183   0.000000
    4       17.895231   0.000000
    5       20.490207   0.000000
    6       21.353893   0.000000
    7       24.967053   0.000000
    8       29.212372   0.000000
 
 -0.1944444E+00  0.3055556E+00  0.8333333E-01  0.4115226E-02
    1       -1.641037   1.000000
    2       12.621997   0.000000
    3       12.940814   0.000000
    4       18.327901   0.000000
    5       20.191731   0.000000
    6       21.220799   0.000000
    7       26.543428   0.000000
    8       27.468754   0.000000
 