 vasp.6.2.0 18Jan21 (build Aug 12 2022 13:00:08) complex                        
  
 executed on             LinuxIFC date 2024.11.03  21:53:30
 running on    4 total cores
 distrk:  each k-point on    4 cores,    1 groups
 distr:  one band on NCORE=   1 cores,    4 groups


--------------------------------------------------------------------------------------------------------


 INCAR:
   ISTART = 0            (Read existing wavefunction, if there)
   ISPIN = 1            (Non-Spin polarised DFT)
   LREAL = .FALSE.       (Projection operators: automatic)
   LWAVE = .FALSE.        (Write WAVECAR or not)
   LCHARG = .FALSE.        (Write CHGCAR or not)
   ADDGRID = .TRUE.        (Increase grid, helps GGA convergence)
   LASPH = .TRUE.        (Give more accurate total energies and band structure calculations)
   PREC = Accurate      (Accurate strictly avoids any aliasing or wrap around errors)
   ENCUT = 350          (Cut-off energy for plane wave basis set, in eV)
   ISMEAR = 0            (Gaussian smearing, metals:1)
   SIGMA = 0.05         (Smearing value in eV, metals:0.2)
   NELM = 90           (Max electronic SCF steps)
   NELMIN = 6            (Min electronic SCF steps)
   EDIFF = 1E-06        (SCF energy convergence, in eV)
   NSW = 100          (Max ionic steps)
   IBRION = 2            (Algorithm: 0-MD, 1-Quasi-New, 2-CG)
   ISIF = 3            (Stress/relaxation: 2-Ions, 3-Shape/Ions/V, 4-Shape/Ions)
   EDIFFG = -2E-03        (Ionic convergence, eV/AA)
   ISYM = 2              (Symmetry: 0\=none, 2\=GGA, 3\=hybrids)

 POTCAR:    PAW_PBE Si 05Jan2001                  
 POTCAR:    PAW_PBE Si 05Jan2001                  
   VRHFIN =Si: s2p2                                                                                 
   LEXCH  = PE                                                                                      
   EATOM  =   103.0669 eV,    7.5752 Ry                                                             
                                                                                                    
   TITEL  = PAW_PBE Si 05Jan2001                                                                    
   LULTRA =        F    use ultrasoft PP ?                                                          
   IUNSCR =        1    unscreen: 0-lin 1-nonlin 2-no                                               
   RPACOR =    1.500    partial core radius                                                         
   POMASS =   28.085; ZVAL   =    4.000    mass and valenz                                          
   RCORE  =    1.900    outmost cutoff radius                                                       
   RWIGS  =    2.480; RWIGS  =    1.312    wigner-seitz radius (au A)                               
   ENMAX  =  245.345; ENMIN  =  184.009 eV                                                          
   ICORE  =        2    local potential                                                             
   LCOR   =        T    correct aug charges                                                         
   LPAW   =        T    paw PP                                                                      
   EAUG   =  322.069                                                                                
   DEXC   =    0.000                                                                                
   RMAX   =    1.950    core radius for proj-oper                                                   
   RAUG   =    1.300    factor for augmentation sphere                                              
   RDEP   =    1.993    radius for radial grids                                                     
   RDEPT  =    1.837    core radius for aug-charge                                                  
                                                                                                    
   Atomic configuration                                                                             
    6 entries                                                                                       
     n  l   j            E        occ.                                                              
     1  0  0.50     -1785.8828   2.0000                                                             
     2  0  0.50      -139.4969   2.0000                                                             
     2  1  1.50       -95.5546   6.0000                                                             
     3  0  0.50       -10.8127   2.0000                                                             
     3  1  0.50        -4.0811   2.0000                                                             
     3  2  1.50        -4.0817   0.0000                                                             
   Description                                                                                      
     l       E           TYP  RCUT    TYP  RCUT                                                     
     0    -10.8127223     23  1.900                                                                 
     0     -7.6451159     23  1.900                                                                 
     1     -4.0811372     23  1.900                                                                 
     1      2.4879257     23  1.900                                                                 
     2     -4.0817478      7  1.900                                                                 
  local pseudopotential read in
  partial core-charges read in
  partial kinetic energy density read in
  atomic valenz-charges read in
  non local Contribution for L=           0  read in
    real space projection operators read in
  non local Contribution for L=           0  read in
    real space projection operators read in
  non local Contribution for L=           1  read in
    real space projection operators read in
  non local Contribution for L=           1  read in
    real space projection operators read in
    PAW grid and wavefunctions read in
 
   number of l-projection  operators is LMAX  =           4
   number of lm-projection operators is LMMAX =           8
 
  PAW_PBE Si 05Jan2001                  :
 energy of atom  1       EATOM= -103.0669
 kinetic energy error for atom=    0.0013 (will be added to EATOM!!)
 
 
 POSCAR: Si1
  positions in direct lattice
  No initial velocities read in
 exchange correlation table for  LEXCH =        8
   RHO(1)=    0.500       N(1)  =     2000
   RHO(2)=  100.500       N(2)  =     4000
 


--------------------------------------------------------------------------------------------------------


 ion  position               nearest neighbor table
   1  0.000  0.000  0.000-
 
  LATTYP: Found a body centered cubic cell.
 ALAT       =     3.0266512600
  
  Lattice vectors:
  
 A1 = (   1.5133256300,   1.5133256300,   1.5133256300)
 A2 = (   1.5133256300,  -1.5133256300,  -1.5133256300)
 A3 = (  -1.5133256300,   1.5133256300,  -1.5133256300)


Analysis of symmetry for initial positions (statically):
=====================================================================
 Subroutine PRICEL returns:
 Original cell was already a primitive cell.
 

 Routine SETGRP: Setting up the symmetry group for a 
 body centered cubic supercell.


 Subroutine GETGRP returns: Found 48 space group operations
 (whereof 48 operations were pure point group operations)
 out of a pool of 48 trial point group operations.


The static configuration has the point symmetry O_h .


Analysis of symmetry for dynamics (positions and initial velocities):
=====================================================================
 Subroutine PRICEL returns:
 Original cell was already a primitive cell.
 

 Routine SETGRP: Setting up the symmetry group for a 
 body centered cubic supercell.


 Subroutine GETGRP returns: Found 48 space group operations
 (whereof 48 operations were pure point group operations)
 out of a pool of 48 trial point group operations.


The dynamic configuration has the point symmetry O_h .


 Subroutine INISYM returns: Found 48 space group operations
 (whereof 48 operations are pure point group operations),
 and found     1 'primitive' translations


----------------------------------------------------------------------------------------

                                     Primitive cell                                     

  volume of cell :      13.8630

  direct lattice vectors                    reciprocal lattice vectors
     1.513325630  1.513325630  1.513325630     0.330398158  0.330398158  0.000000000
     1.513325630 -1.513325630 -1.513325630     0.330398158  0.000000000 -0.330398158
    -1.513325630  1.513325630 -1.513325630     0.000000000  0.330398158 -0.330398158

  length of vectors
     2.621156880  2.621156880  2.621156880     0.467253555  0.467253555  0.467253555

  position of ions in fractional coordinates (direct lattice)
     0.000000000  0.000000000  0.000000000

  ion indices of the primitive-cell ions
   primitive index   ion index
                 1           1

----------------------------------------------------------------------------------------

 
 
 KPOINTS: Automatic                               

Automatic generation of k-mesh.
 Grid dimensions read from file:
 generate k-points for:   18   18   18

 Generating k-lattice:

  Cartesian coordinates                     Fractional coordinates (reciprocal lattice)
     0.018355453  0.018355453  0.000000000     0.055555556  0.000000000  0.000000000
     0.018355453  0.000000000 -0.018355453     0.000000000  0.055555556  0.000000000
     0.000000000  0.018355453 -0.018355453     0.000000000  0.000000000  0.055555556

  Length of vectors
     0.025958531  0.025958531  0.025958531

  Shift w.r.t. Gamma in fractional coordinates (k-lattice)
     0.500000000  0.500000000  0.500000000

 
 Subroutine IBZKPT returns following result:
 ===========================================
 
 Found    190 irreducible k-points:
 
 Following reciprocal coordinates:
            Coordinates               Weight
  0.027778  0.027778  0.027778      8.000000
  0.083333  0.027778  0.027778     24.000000
  0.138889  0.027778  0.027778     24.000000
  0.194444  0.027778  0.027778     24.000000
  0.250000  0.027778  0.027778     24.000000
  0.305556  0.027778  0.027778     24.000000
  0.361111  0.027778  0.027778     24.000000
  0.416667  0.027778  0.027778     24.000000
  0.472222  0.027778  0.027778     12.000000
 -0.027778  0.027778  0.027778      6.000000
  0.083333  0.083333  0.027778     24.000000
  0.138889  0.083333  0.027778     48.000000
  0.194444  0.083333  0.027778     48.000000
  0.250000  0.083333  0.027778     48.000000
  0.305556  0.083333  0.027778     48.000000
  0.361111  0.083333  0.027778     48.000000
  0.416667  0.083333  0.027778     48.000000
 -0.083333  0.083333  0.027778     24.000000
  0.138889  0.138889  0.027778     24.000000
  0.194444  0.138889  0.027778     48.000000
  0.250000  0.138889  0.027778     48.000000
  0.305556  0.138889  0.027778     48.000000
  0.361111  0.138889  0.027778     48.000000
  0.416667  0.138889  0.027778     24.000000
 -0.138889  0.138889  0.027778     24.000000
 -0.083333  0.138889  0.027778     24.000000
  0.194444  0.194444  0.027778     24.000000
  0.250000  0.194444  0.027778     48.000000
  0.305556  0.194444  0.027778     48.000000
  0.361111  0.194444  0.027778     48.000000
 -0.194444  0.194444  0.027778     24.000000
 -0.138889  0.194444  0.027778     48.000000
  0.250000  0.250000  0.027778     24.000000
  0.305556  0.250000  0.027778     48.000000
  0.361111  0.250000  0.027778     24.000000
 -0.250000  0.250000  0.027778     24.000000
 -0.194444  0.250000  0.027778     48.000000
 -0.138889  0.250000  0.027778     24.000000
  0.305556  0.305556  0.027778     24.000000
 -0.305556  0.305556  0.027778     24.000000
 -0.250000  0.305556  0.027778     48.000000
 -0.194444  0.305556  0.027778     48.000000
 -0.361111  0.361111  0.027778     24.000000
 -0.305556  0.361111  0.027778     48.000000
 -0.250000  0.361111  0.027778     48.000000
 -0.194444  0.361111  0.027778     24.000000
 -0.416667  0.416667  0.027778     24.000000
 -0.361111  0.416667  0.027778     48.000000
 -0.305556  0.416667  0.027778     48.000000
 -0.250000  0.416667  0.027778     48.000000
 -0.472222  0.472222  0.027778     24.000000
 -0.416667  0.472222  0.027778     48.000000
 -0.361111  0.472222  0.027778     48.000000
 -0.305556  0.472222  0.027778     48.000000
 -0.250000  0.472222  0.027778     24.000000
 -0.472222 -0.472222  0.027778     24.000000
 -0.416667 -0.472222  0.027778     48.000000
 -0.361111 -0.472222  0.027778     48.000000
 -0.305556 -0.472222  0.027778     48.000000
 -0.416667 -0.416667  0.027778     24.000000
 -0.361111 -0.416667  0.027778     48.000000
 -0.305556 -0.416667  0.027778     24.000000
 -0.361111 -0.361111  0.027778     24.000000
  0.083333  0.083333  0.083333      8.000000
  0.138889  0.083333  0.083333     24.000000
  0.194444  0.083333  0.083333     24.000000
  0.250000  0.083333  0.083333     24.000000
  0.305556  0.083333  0.083333     24.000000
  0.361111  0.083333  0.083333     24.000000
  0.416667  0.083333  0.083333     12.000000
 -0.083333  0.083333  0.083333      6.000000
  0.138889  0.138889  0.083333     24.000000
  0.194444  0.138889  0.083333     48.000000
  0.250000  0.138889  0.083333     48.000000
  0.305556  0.138889  0.083333     48.000000
  0.361111  0.138889  0.083333     48.000000
 -0.138889  0.138889  0.083333     24.000000
  0.194444  0.194444  0.083333     24.000000
  0.250000  0.194444  0.083333     48.000000
  0.305556  0.194444  0.083333     48.000000
  0.361111  0.194444  0.083333     24.000000
 -0.194444  0.194444  0.083333     24.000000
 -0.138889  0.194444  0.083333     24.000000
  0.250000  0.250000  0.083333     24.000000
  0.305556  0.250000  0.083333     48.000000
 -0.250000  0.250000  0.083333     24.000000
 -0.194444  0.250000  0.083333     48.000000
  0.305556  0.305556  0.083333      8.000000
 -0.305556  0.305556  0.083333     24.000000
 -0.250000  0.305556  0.083333     48.000000
 -0.194444  0.305556  0.083333     24.000000
 -0.361111  0.361111  0.083333     24.000000
 -0.305556  0.361111  0.083333     48.000000
 -0.250000  0.361111  0.083333     48.000000
 -0.416667  0.416667  0.083333     24.000000
 -0.361111  0.416667  0.083333     48.000000
 -0.305556  0.416667  0.083333     48.000000
 -0.250000  0.416667  0.083333     24.000000
 -0.472222  0.472222  0.083333     24.000000
 -0.416667  0.472222  0.083333     48.000000
 -0.361111  0.472222  0.083333     48.000000
 -0.305556  0.472222  0.083333     48.000000
 -0.472222 -0.472222  0.083333     24.000000
 -0.416667 -0.472222  0.083333     48.000000
 -0.361111 -0.472222  0.083333     48.000000
 -0.305556 -0.472222  0.083333     24.000000
 -0.416667 -0.416667  0.083333     24.000000
 -0.361111 -0.416667  0.083333     48.000000
 -0.361111 -0.361111  0.083333      8.000000
  0.138889  0.138889  0.138889      8.000000
  0.194444  0.138889  0.138889     24.000000
  0.250000  0.138889  0.138889     24.000000
  0.305556  0.138889  0.138889     24.000000
  0.361111  0.138889  0.138889     12.000000
 -0.138889  0.138889  0.138889      6.000000
  0.194444  0.194444  0.138889     24.000000
  0.250000  0.194444  0.138889     48.000000
  0.305556  0.194444  0.138889     48.000000
 -0.194444  0.194444  0.138889     24.000000
  0.250000  0.250000  0.138889     24.000000
  0.305556  0.250000  0.138889     24.000000
 -0.250000  0.250000  0.138889     24.000000
 -0.194444  0.250000  0.138889     24.000000
 -0.305556  0.305556  0.138889     24.000000
 -0.250000  0.305556  0.138889     48.000000
 -0.361111  0.361111  0.138889     24.000000
 -0.305556  0.361111  0.138889     48.000000
 -0.250000  0.361111  0.138889     24.000000
 -0.416667  0.416667  0.138889     24.000000
 -0.361111  0.416667  0.138889     48.000000
 -0.305556  0.416667  0.138889     48.000000
 -0.472222  0.472222  0.138889     24.000000
 -0.416667  0.472222  0.138889     48.000000
 -0.361111  0.472222  0.138889     48.000000
 -0.305556  0.472222  0.138889     24.000000
 -0.472222 -0.472222  0.138889     24.000000
 -0.416667 -0.472222  0.138889     48.000000
 -0.361111 -0.472222  0.138889     48.000000
 -0.416667 -0.416667  0.138889     24.000000
 -0.361111 -0.416667  0.138889     24.000000
  0.194444  0.194444  0.194444      8.000000
  0.250000  0.194444  0.194444     24.000000
  0.305556  0.194444  0.194444     12.000000
 -0.194444  0.194444  0.194444      6.000000
  0.250000  0.250000  0.194444     24.000000
 -0.250000  0.250000  0.194444     24.000000
 -0.305556  0.305556  0.194444     24.000000
 -0.250000  0.305556  0.194444     24.000000
 -0.361111  0.361111  0.194444     24.000000
 -0.305556  0.361111  0.194444     48.000000
 -0.416667  0.416667  0.194444     24.000000
 -0.361111  0.416667  0.194444     48.000000
 -0.305556  0.416667  0.194444     24.000000
 -0.472222  0.472222  0.194444     24.000000
 -0.416667  0.472222  0.194444     48.000000
 -0.361111  0.472222  0.194444     48.000000
 -0.472222 -0.472222  0.194444     24.000000
 -0.416667 -0.472222  0.194444     48.000000
 -0.361111 -0.472222  0.194444     24.000000
 -0.416667 -0.416667  0.194444     24.000000
  0.250000  0.250000  0.250000      2.000000
 -0.250000  0.250000  0.250000      6.000000
 -0.305556  0.305556  0.250000     24.000000
 -0.361111  0.361111  0.250000     24.000000
 -0.305556  0.361111  0.250000     24.000000
 -0.416667  0.416667  0.250000     24.000000
 -0.361111  0.416667  0.250000     48.000000
 -0.472222  0.472222  0.250000     24.000000
 -0.416667  0.472222  0.250000     48.000000
 -0.361111  0.472222  0.250000     24.000000
 -0.472222 -0.472222  0.250000     24.000000
 -0.416667 -0.472222  0.250000     48.000000
 -0.416667 -0.416667  0.250000      8.000000
 -0.305556  0.305556  0.305556      6.000000
 -0.361111  0.361111  0.305556     24.000000
 -0.416667  0.416667  0.305556     24.000000
 -0.361111  0.416667  0.305556     24.000000
 -0.472222  0.472222  0.305556     24.000000
 -0.416667  0.472222  0.305556     48.000000
 -0.472222 -0.472222  0.305556     24.000000
 -0.416667 -0.472222  0.305556     24.000000
 -0.361111  0.361111  0.361111      6.000000
 -0.416667  0.416667  0.361111     24.000000
 -0.472222  0.472222  0.361111     24.000000
 -0.416667  0.472222  0.361111     24.000000
 -0.472222 -0.472222  0.361111     24.000000
 -0.416667  0.416667  0.416667      6.000000
 -0.472222  0.472222  0.416667     24.000000
 -0.472222 -0.472222  0.416667      8.000000
 -0.472222  0.472222  0.472222      6.000000
 
 Following cartesian coordinates:
            Coordinates               Weight
  0.018355  0.018355 -0.018355      8.000000
  0.036711  0.036711 -0.018355     24.000000
  0.055066  0.055066 -0.018355     24.000000
  0.073422  0.073422 -0.018355     24.000000
  0.091777  0.091777 -0.018355     24.000000
  0.110133  0.110133 -0.018355     24.000000
  0.128488  0.128488 -0.018355     24.000000
  0.146844  0.146844 -0.018355     24.000000
  0.165199  0.165199 -0.018355     12.000000
  0.000000  0.000000 -0.018355      6.000000
  0.055066  0.036711 -0.036711     24.000000
  0.073422  0.055066 -0.036711     48.000000
  0.091777  0.073422 -0.036711     48.000000
  0.110133  0.091777 -0.036711     48.000000
  0.128488  0.110133 -0.036711     48.000000
  0.146844  0.128488 -0.036711     48.000000
  0.165199  0.146844 -0.036711     48.000000
  0.000000 -0.018355 -0.036711     24.000000
  0.091777  0.055066 -0.055066     24.000000
  0.110133  0.073422 -0.055066     48.000000
  0.128488  0.091777 -0.055066     48.000000
  0.146844  0.110133 -0.055066     48.000000
  0.165199  0.128488 -0.055066     48.000000
  0.183555  0.146844 -0.055066     24.000000
  0.000000 -0.036711 -0.055066     24.000000
  0.018355 -0.018355 -0.055066     24.000000
  0.128488  0.073422 -0.073422     24.000000
  0.146844  0.091777 -0.073422     48.000000
  0.165199  0.110133 -0.073422     48.000000
  0.183555  0.128488 -0.073422     48.000000
  0.000000 -0.055066 -0.073422     24.000000
  0.018355 -0.036711 -0.073422     48.000000
  0.165199  0.091777 -0.091777     24.000000
  0.183555  0.110133 -0.091777     48.000000
  0.201910  0.128488 -0.091777     24.000000
  0.000000 -0.073422 -0.091777     24.000000
  0.018355 -0.055066 -0.091777     48.000000
  0.036711 -0.036711 -0.091777     24.000000
  0.201910  0.110133 -0.110133     24.000000
  0.000000 -0.091777 -0.110133     24.000000
  0.018355 -0.073422 -0.110133     48.000000
  0.036711 -0.055066 -0.110133     48.000000
  0.000000 -0.110133 -0.128488     24.000000
  0.018355 -0.091777 -0.128488     48.000000
  0.036711 -0.073422 -0.128488     48.000000
  0.055066 -0.055066 -0.128488     24.000000
  0.000000 -0.128488 -0.146844     24.000000
  0.018355 -0.110133 -0.146844     48.000000
  0.036711 -0.091777 -0.146844     48.000000
  0.055066 -0.073422 -0.146844     48.000000
  0.000000 -0.146844 -0.165199     24.000000
  0.018355 -0.128488 -0.165199     48.000000
  0.036711 -0.110133 -0.165199     48.000000
  0.055066 -0.091777 -0.165199     48.000000
  0.073422 -0.073422 -0.165199     24.000000
 -0.312043 -0.146844  0.146844     24.000000
 -0.293687 -0.128488  0.146844     48.000000
 -0.275332 -0.110133  0.146844     48.000000
 -0.256976 -0.091777  0.146844     48.000000
 -0.275332 -0.128488  0.128488     24.000000
 -0.256976 -0.110133  0.128488     48.000000
 -0.238621 -0.091777  0.128488     24.000000
 -0.238621 -0.110133  0.110133     24.000000
  0.055066  0.055066 -0.055066      8.000000
  0.073422  0.073422 -0.055066     24.000000
  0.091777  0.091777 -0.055066     24.000000
  0.110133  0.110133 -0.055066     24.000000
  0.128488  0.128488 -0.055066     24.000000
  0.146844  0.146844 -0.055066     24.000000
  0.165199  0.165199 -0.055066     12.000000
  0.000000  0.000000 -0.055066      6.000000
  0.091777  0.073422 -0.073422     24.000000
  0.110133  0.091777 -0.073422     48.000000
  0.128488  0.110133 -0.073422     48.000000
  0.146844  0.128488 -0.073422     48.000000
  0.165199  0.146844 -0.073422     48.000000
  0.000000 -0.018355 -0.073422     24.000000
  0.128488  0.091777 -0.091777     24.000000
  0.146844  0.110133 -0.091777     48.000000
  0.165199  0.128488 -0.091777     48.000000
  0.183555  0.146844 -0.091777     24.000000
  0.000000 -0.036711 -0.091777     24.000000
  0.018355 -0.018355 -0.091777     24.000000
  0.165199  0.110133 -0.110133     24.000000
  0.183555  0.128488 -0.110133     48.000000
  0.000000 -0.055066 -0.110133     24.000000
  0.018355 -0.036711 -0.110133     48.000000
  0.201910  0.128488 -0.128488      8.000000
  0.000000 -0.073422 -0.128488     24.000000
  0.018355 -0.055066 -0.128488     48.000000
  0.036711 -0.036711 -0.128488     24.000000
  0.000000 -0.091777 -0.146844     24.000000
  0.018355 -0.073422 -0.146844     48.000000
  0.036711 -0.055066 -0.146844     48.000000
  0.000000 -0.110133 -0.165199     24.000000
  0.018355 -0.091777 -0.165199     48.000000
  0.036711 -0.073422 -0.165199     48.000000
  0.055066 -0.055066 -0.165199     24.000000
  0.000000 -0.128488 -0.183555     24.000000
  0.018355 -0.110133 -0.183555     48.000000
  0.036711 -0.091777 -0.183555     48.000000
  0.055066 -0.073422 -0.183555     48.000000
 -0.312043 -0.128488  0.128488     24.000000
 -0.293687 -0.110133  0.128488     48.000000
 -0.275332 -0.091777  0.128488     48.000000
 -0.256976 -0.073422  0.128488     24.000000
 -0.275332 -0.110133  0.110133     24.000000
 -0.256976 -0.091777  0.110133     48.000000
 -0.238621 -0.091777  0.091777      8.000000
  0.091777  0.091777 -0.091777      8.000000
  0.110133  0.110133 -0.091777     24.000000
  0.128488  0.128488 -0.091777     24.000000
  0.146844  0.146844 -0.091777     24.000000
  0.165199  0.165199 -0.091777     12.000000
  0.000000  0.000000 -0.091777      6.000000
  0.128488  0.110133 -0.110133     24.000000
  0.146844  0.128488 -0.110133     48.000000
  0.165199  0.146844 -0.110133     48.000000
  0.000000 -0.018355 -0.110133     24.000000
  0.165199  0.128488 -0.128488     24.000000
  0.183555  0.146844 -0.128488     24.000000
  0.000000 -0.036711 -0.128488     24.000000
  0.018355 -0.018355 -0.128488     24.000000
  0.000000 -0.055066 -0.146844     24.000000
  0.018355 -0.036711 -0.146844     48.000000
  0.000000 -0.073422 -0.165199     24.000000
  0.018355 -0.055066 -0.165199     48.000000
  0.036711 -0.036711 -0.165199     24.000000
  0.000000 -0.091777 -0.183555     24.000000
  0.018355 -0.073422 -0.183555     48.000000
  0.036711 -0.055066 -0.183555     48.000000
  0.000000 -0.110133 -0.201910     24.000000
  0.018355 -0.091777 -0.201910     48.000000
  0.036711 -0.073422 -0.201910     48.000000
  0.055066 -0.055066 -0.201910     24.000000
 -0.312043 -0.110133  0.110133     24.000000
 -0.293687 -0.091777  0.110133     48.000000
 -0.275332 -0.073422  0.110133     48.000000
 -0.275332 -0.091777  0.091777     24.000000
 -0.256976 -0.073422  0.091777     24.000000
  0.128488  0.128488 -0.128488      8.000000
  0.146844  0.146844 -0.128488     24.000000
  0.165199  0.165199 -0.128488     12.000000
  0.000000  0.000000 -0.128488      6.000000
  0.165199  0.146844 -0.146844     24.000000
  0.000000 -0.018355 -0.146844     24.000000
  0.000000 -0.036711 -0.165199     24.000000
  0.018355 -0.018355 -0.165199     24.000000
  0.000000 -0.055066 -0.183555     24.000000
  0.018355 -0.036711 -0.183555     48.000000
  0.000000 -0.073422 -0.201910     24.000000
  0.018355 -0.055066 -0.201910     48.000000
  0.036711 -0.036711 -0.201910     24.000000
  0.000000 -0.091777 -0.220265     24.000000
  0.018355 -0.073422 -0.220265     48.000000
  0.036711 -0.055066 -0.220265     48.000000
 -0.312043 -0.091777  0.091777     24.000000
 -0.293687 -0.073422  0.091777     48.000000
 -0.275332 -0.055066  0.091777     24.000000
 -0.275332 -0.073422  0.073422     24.000000
  0.165199  0.165199 -0.165199      2.000000
  0.000000  0.000000 -0.165199      6.000000
  0.000000 -0.018355 -0.183555     24.000000
  0.000000 -0.036711 -0.201910     24.000000
  0.018355 -0.018355 -0.201910     24.000000
  0.000000 -0.055066 -0.220265     24.000000
  0.018355 -0.036711 -0.220265     48.000000
  0.000000 -0.073422 -0.238621     24.000000
  0.018355 -0.055066 -0.238621     48.000000
  0.036711 -0.036711 -0.238621     24.000000
 -0.312043 -0.073422  0.073422     24.000000
 -0.293687 -0.055066  0.073422     48.000000
 -0.275332 -0.055066  0.055066      8.000000
  0.000000  0.000000 -0.201910      6.000000
  0.000000 -0.018355 -0.220265     24.000000
  0.000000 -0.036711 -0.238621     24.000000
  0.018355 -0.018355 -0.238621     24.000000
  0.000000 -0.055066 -0.256976     24.000000
  0.018355 -0.036711 -0.256976     48.000000
 -0.312043 -0.055066  0.055066     24.000000
 -0.293687 -0.036711  0.055066     24.000000
  0.000000  0.000000 -0.238621      6.000000
  0.000000 -0.018355 -0.256976     24.000000
  0.000000 -0.036711 -0.275332     24.000000
  0.018355 -0.018355 -0.275332     24.000000
 -0.312043 -0.036711  0.036711     24.000000
  0.000000  0.000000 -0.275332      6.000000
  0.000000 -0.018355 -0.293687     24.000000
 -0.312043 -0.018355  0.018355      8.000000
  0.000000  0.000000 -0.312043      6.000000
 


--------------------------------------------------------------------------------------------------------




 Dimension of arrays:
   k-points           NKPTS =    190   k-points in BZ     NKDIM =    190   number of bands    NBANDS=      8
   number of dos      NEDOS =    301   number of ions     NIONS =      1
   non local maximal  LDIM  =      4   non local SUM 2l+1 LMDIM =      8
   total plane-waves  NPLWV =   4096
   max r-space proj   IRMAX =      1   max aug-charges    IRDMAX=  79220
   dimension x,y,z NGX =    16 NGY =   16 NGZ =   16
   dimension x,y,z NGXF=    32 NGYF=   32 NGZF=   32
   support grid    NGXF=    64 NGYF=   64 NGZF=   64
   ions per type =               1
   NGX,Y,Z   is equivalent  to a cutoff of  10.15, 10.15, 10.15 a.u.
   NGXF,Y,Z  is equivalent  to a cutoff of  20.30, 20.30, 20.30 a.u.

 SYSTEM =  unknown system                          
 POSCAR =  Si1                                     

 Startparameter for this run:
   NWRITE =      2    write-flag & timer
   PREC   = accura    normal or accurate (medium, high low for compatibility)
   ISTART =      0    job   : 0-new  1-cont  2-samecut
   ICHARG =      2    charge: 1-file 2-atom 10-const
   ISPIN  =      1    spin polarized calculation?
   LNONCOLLINEAR =      F non collinear calculations
   LSORBIT =      F    spin-orbit coupling
   INIWAV =      1    electr: 0-lowe 1-rand  2-diag
   LASPH  =      T    aspherical Exc in radial PAW
   METAGGA=      F    non-selfconsistent MetaGGA calc.

 Electronic Relaxation 1
   ENCUT  =  350.0 eV  25.72 Ry    5.07 a.u.   4.00  4.00  4.00*2*pi/ulx,y,z
   ENINI  =  350.0     initial cutoff
   ENAUG  =  322.1 eV  augmentation charge cutoff
   NELM   =     90;   NELMIN=  6; NELMDL= -5     # of ELM steps 
   EDIFF  = 0.1E-05   stopping-criterion for ELM
   LREAL  =      F    real-space projection
   NLSPLINE    = F    spline interpolate recip. space projectors
   LCOMPAT=      F    compatible to vasp.4.4
   GGA_COMPAT  = T    GGA compatible to vasp.4.4-vasp.4.6
   LMAXPAW     = -100 max onsite density
   LMAXMIX     =    2 max onsite mixed and CHGCAR
   VOSKOWN=      0    Vosko Wilk Nusair interpolation
   ROPT   =    0.00000
 Ionic relaxation
   EDIFFG = -.2E-02   stopping-criterion for IOM
   NSW    =    100    number of steps for IOM
   NBLOCK =      1;   KBLOCK =    100    inner block; outer block 
   IBRION =      2    ionic relax: 0-MD 1-quasi-New 2-CG
   NFREE  =      1    steps in history (QN), initial steepest desc. (CG)
   ISIF   =      3    stress and relaxation
   IWAVPR =     11    prediction:  0-non 1-charg 2-wave 3-comb
   ISYM   =      2    0-nonsym 1-usesym 2-fastsym
   LCORR  =      T    Harris-Foulkes like correction to forces

   POTIM  = 0.5000    time-step for ionic-motion
   TEIN   =    0.0    initial temperature
   TEBEG  =    0.0;   TEEND  =   0.0 temperature during run
   SMASS  =  -3.00    Nose mass-parameter (am)
   estimated Nose-frequenzy (Omega)   =  0.10E-29 period in steps = 0.13E+47 mass=  -0.157E-27a.u.
   SCALEE = 1.0000    scale energy and forces
   NPACO  =    256;   APACO  = 16.0  distance and # of slots for P.C.
   PSTRESS=    0.0 pullay stress

  Mass of Ions in am
   POMASS =  28.09
  Ionic Valenz
   ZVAL   =   4.00
  Atomic Wigner-Seitz radii
   RWIGS  =  -1.00
  virtual crystal weights 
   VCA    =   1.00
   NELECT =       4.0000    total number of electrons
   NUPDOWN=      -1.0000    fix difference up-down

 DOS related values:
   EMIN   =  10.00;   EMAX   =-10.00  energy-range for DOS
   EFERMI =   0.00
   ISMEAR =     0;   SIGMA  =   0.05  broadening in eV -4-tet -1-fermi 0-gaus

 Electronic relaxation 2 (details)
   IALGO  =     38    algorithm
   LDIAG  =      T    sub-space diagonalisation (order eigenvalues)
   LSUBROT=      F    optimize rotation matrix (better conditioning)
   TURBO    =      0    0=normal 1=particle mesh
   IRESTART =      0    0=no restart 2=restart with 2 vectors
   NREBOOT  =      0    no. of reboots
   NMIN     =      0    reboot dimension
   EREF     =   0.00    reference energy to select bands
   IMIX   =      4    mixing-type and parameters
     AMIX     =   0.40;   BMIX     =  1.00
     AMIX_MAG =   1.60;   BMIX_MAG =  1.00
     AMIN     =   0.10
     WC   =   100.;   INIMIX=   1;  MIXPRE=   1;  MAXMIX= -45

 Intra band minimization:
   WEIMIN = 0.0010     energy-eigenvalue tresh-hold
   EBREAK =  0.31E-07  absolut break condition
   DEPER  =   0.30     relativ break condition  

   TIME   =   0.40     timestep for ELM

  volume/ion in A,a.u.               =      13.86        93.55
  Fermi-wavevector in a.u.,A,eV,Ry     =   1.081789  2.044284 15.922447  1.170267
  Thomas-Fermi vector in A             =   2.217814
 
 Write flags
   LWAVE        =      F    write WAVECAR
   LDOWNSAMPLE  =      F    k-point downsampling of WAVECAR
   LCHARG       =      F    write CHGCAR
   LVTOT        =      F    write LOCPOT, total local potential
   LVHAR        =      F    write LOCPOT, Hartree potential only
   LELF         =      F    write electronic localiz. function (ELF)
   LORBIT       =      0    0 simple, 1 ext, 2 COOP (PROOUT), +10 PAW based schemes


 Dipole corrections
   LMONO  =      F    monopole corrections only (constant potential shift)
   LDIPOL =      F    correct potential (dipole corrections)
   IDIPOL =      0    1-x, 2-y, 3-z, 4-all directions 
   EPSILON=  1.0000000 bulk dielectric constant

 Exchange correlation treatment:
   GGA     =    --    GGA type
   LEXCH   =     8    internal setting for exchange type
   VOSKOWN=      0    Vosko Wilk Nusair interpolation
   LHFCALC =     F    Hartree Fock is set to
   LHFONE  =     F    Hartree Fock one center treatment
   AEXX    =    0.0000 exact exchange contribution

 Linear response parameters
   LEPSILON=     F    determine dielectric tensor
   LRPA    =     F    only Hartree local field effects (RPA)
   LNABLA  =     F    use nabla operator in PAW spheres
   LVEL    =     F    velocity operator in full k-point grid
   LINTERFAST=   F  fast interpolation
   KINTER  =     0    interpolate to denser k-point grid
   CSHIFT  =0.1000    complex shift for real part using Kramers Kronig
   OMEGAMAX=  -1.0    maximum frequency
   DEG_THRESHOLD= 0.2000000E-02 threshold for treating states as degnerate
   RTIME   =   -0.100 relaxation time in fs
  (WPLASMAI=    0.000 imaginary part of plasma frequency in eV, 0.658/RTIME)
   DFIELD  = 0.0000000 0.0000000 0.0000000 field for delta impulse in time
 
 Orbital magnetization related:
   ORBITALMAG=     F  switch on orbital magnetization
   LCHIMAG   =     F  perturbation theory with respect to B field
   DQ        =  0.001000  dq finite difference perturbation B field
   LLRAUG    =     F  two centre corrections for induced B field



--------------------------------------------------------------------------------------------------------


 conjugate gradient relaxation of ions
 charge density and potential will be updated during run
 non-spin polarized calculation
 Variant of blocked Davidson
 Davidson routine will perform the subspace rotation
 perform sub-space diagonalisation
    after iterative eigenvector-optimisation
 modified Broyden-mixing scheme, WC =      100.0
 initial mixing is a Kerker type mixing with AMIX =  0.4000 and BMIX =      1.0000
 Hartree-type preconditioning will be used
 using additional bands            6
 reciprocal scheme for non local part
 use partial core corrections
 calculate Harris-corrections to forces 
   (improved forces if not selfconsistent)
 use gradient corrections 
 use of overlap-Matrix (Vanderbilt PP)
 Gauss-broadening in eV      SIGMA  =   0.05


--------------------------------------------------------------------------------------------------------


  energy-cutoff  :      350.00
  volume of cell :       13.86
      direct lattice vectors                 reciprocal lattice vectors
     1.513325630  1.513325630  1.513325630     0.330398158  0.330398158  0.000000000
     1.513325630 -1.513325630 -1.513325630     0.330398158  0.000000000 -0.330398158
    -1.513325630  1.513325630 -1.513325630     0.000000000  0.330398158 -0.330398158

  length of vectors
     2.621156880  2.621156880  2.621156880     0.467253555  0.467253555  0.467253555


 
 k-points in units of 2pi/SCALE and weight: Automatic                               
   0.01835545  0.01835545 -0.01835545       0.001
   0.03671091  0.03671091 -0.01835545       0.004
   0.05506636  0.05506636 -0.01835545       0.004
   0.07342181  0.07342181 -0.01835545       0.004
   0.09177727  0.09177727 -0.01835545       0.004
   0.11013272  0.11013272 -0.01835545       0.004
   0.12848817  0.12848817 -0.01835545       0.004
   0.14684363  0.14684363 -0.01835545       0.004
   0.16519908  0.16519908 -0.01835545       0.002
   0.00000000  0.00000000 -0.01835545       0.001
   0.05506636  0.03671091 -0.03671091       0.004
   0.07342181  0.05506636 -0.03671091       0.008
   0.09177727  0.07342181 -0.03671091       0.008
   0.11013272  0.09177727 -0.03671091       0.008
   0.12848817  0.11013272 -0.03671091       0.008
   0.14684363  0.12848817 -0.03671091       0.008
   0.16519908  0.14684363 -0.03671091       0.008
   0.00000000 -0.01835545 -0.03671091       0.004
   0.09177727  0.05506636 -0.05506636       0.004
   0.11013272  0.07342181 -0.05506636       0.008
   0.12848817  0.09177727 -0.05506636       0.008
   0.14684363  0.11013272 -0.05506636       0.008
   0.16519908  0.12848817 -0.05506636       0.008
   0.18355453  0.14684363 -0.05506636       0.004
   0.00000000 -0.03671091 -0.05506636       0.004
   0.01835545 -0.01835545 -0.05506636       0.004
   0.12848817  0.07342181 -0.07342181       0.004
   0.14684363  0.09177727 -0.07342181       0.008
   0.16519908  0.11013272 -0.07342181       0.008
   0.18355453  0.12848817 -0.07342181       0.008
   0.00000000 -0.05506636 -0.07342181       0.004
   0.01835545 -0.03671091 -0.07342181       0.008
   0.16519908  0.09177727 -0.09177727       0.004
   0.18355453  0.11013272 -0.09177727       0.008
   0.20190999  0.12848817 -0.09177727       0.004
   0.00000000 -0.07342181 -0.09177727       0.004
   0.01835545 -0.05506636 -0.09177727       0.008
   0.03671091 -0.03671091 -0.09177727       0.004
   0.20190999  0.11013272 -0.11013272       0.004
   0.00000000 -0.09177727 -0.11013272       0.004
   0.01835545 -0.07342181 -0.11013272       0.008
   0.03671091 -0.05506636 -0.11013272       0.008
   0.00000000 -0.11013272 -0.12848817       0.004
   0.01835545 -0.09177727 -0.12848817       0.008
   0.03671091 -0.07342181 -0.12848817       0.008
   0.05506636 -0.05506636 -0.12848817       0.004
   0.00000000 -0.12848817 -0.14684363       0.004
   0.01835545 -0.11013272 -0.14684363       0.008
   0.03671091 -0.09177727 -0.14684363       0.008
   0.05506636 -0.07342181 -0.14684363       0.008
   0.00000000 -0.14684363 -0.16519908       0.004
   0.01835545 -0.12848817 -0.16519908       0.008
   0.03671091 -0.11013272 -0.16519908       0.008
   0.05506636 -0.09177727 -0.16519908       0.008
   0.07342181 -0.07342181 -0.16519908       0.004
  -0.31204270 -0.14684363  0.14684363       0.004
  -0.29368725 -0.12848817  0.14684363       0.008
  -0.27533180 -0.11013272  0.14684363       0.008
  -0.25697634 -0.09177727  0.14684363       0.008
  -0.27533180 -0.12848817  0.12848817       0.004
  -0.25697634 -0.11013272  0.12848817       0.008
  -0.23862089 -0.09177727  0.12848817       0.004
  -0.23862089 -0.11013272  0.11013272       0.004
   0.05506636  0.05506636 -0.05506636       0.001
   0.07342181  0.07342181 -0.05506636       0.004
   0.09177727  0.09177727 -0.05506636       0.004
   0.11013272  0.11013272 -0.05506636       0.004
   0.12848817  0.12848817 -0.05506636       0.004
   0.14684363  0.14684363 -0.05506636       0.004
   0.16519908  0.16519908 -0.05506636       0.002
   0.00000000  0.00000000 -0.05506636       0.001
   0.09177727  0.07342181 -0.07342181       0.004
   0.11013272  0.09177727 -0.07342181       0.008
   0.12848817  0.11013272 -0.07342181       0.008
   0.14684363  0.12848817 -0.07342181       0.008
   0.16519908  0.14684363 -0.07342181       0.008
   0.00000000 -0.01835545 -0.07342181       0.004
   0.12848817  0.09177727 -0.09177727       0.004
   0.14684363  0.11013272 -0.09177727       0.008
   0.16519908  0.12848817 -0.09177727       0.008
   0.18355453  0.14684363 -0.09177727       0.004
   0.00000000 -0.03671091 -0.09177727       0.004
   0.01835545 -0.01835545 -0.09177727       0.004
   0.16519908  0.11013272 -0.11013272       0.004
   0.18355453  0.12848817 -0.11013272       0.008
   0.00000000 -0.05506636 -0.11013272       0.004
   0.01835545 -0.03671091 -0.11013272       0.008
   0.20190999  0.12848817 -0.12848817       0.001
   0.00000000 -0.07342181 -0.12848817       0.004
   0.01835545 -0.05506636 -0.12848817       0.008
   0.03671091 -0.03671091 -0.12848817       0.004
   0.00000000 -0.09177727 -0.14684363       0.004
   0.01835545 -0.07342181 -0.14684363       0.008
   0.03671091 -0.05506636 -0.14684363       0.008
   0.00000000 -0.11013272 -0.16519908       0.004
   0.01835545 -0.09177727 -0.16519908       0.008
   0.03671091 -0.07342181 -0.16519908       0.008
   0.05506636 -0.05506636 -0.16519908       0.004
   0.00000000 -0.12848817 -0.18355453       0.004
   0.01835545 -0.11013272 -0.18355453       0.008
   0.03671091 -0.09177727 -0.18355453       0.008
   0.05506636 -0.07342181 -0.18355453       0.008
  -0.31204270 -0.12848817  0.12848817       0.004
  -0.29368725 -0.11013272  0.12848817       0.008
  -0.27533180 -0.09177727  0.12848817       0.008
  -0.25697634 -0.07342181  0.12848817       0.004
  -0.27533180 -0.11013272  0.11013272       0.004
  -0.25697634 -0.09177727  0.11013272       0.008
  -0.23862089 -0.09177727  0.09177727       0.001
   0.09177727  0.09177727 -0.09177727       0.001
   0.11013272  0.11013272 -0.09177727       0.004
   0.12848817  0.12848817 -0.09177727       0.004
   0.14684363  0.14684363 -0.09177727       0.004
   0.16519908  0.16519908 -0.09177727       0.002
   0.00000000  0.00000000 -0.09177727       0.001
   0.12848817  0.11013272 -0.11013272       0.004
   0.14684363  0.12848817 -0.11013272       0.008
   0.16519908  0.14684363 -0.11013272       0.008
   0.00000000 -0.01835545 -0.11013272       0.004
   0.16519908  0.12848817 -0.12848817       0.004
   0.18355453  0.14684363 -0.12848817       0.004
   0.00000000 -0.03671091 -0.12848817       0.004
   0.01835545 -0.01835545 -0.12848817       0.004
   0.00000000 -0.05506636 -0.14684363       0.004
   0.01835545 -0.03671091 -0.14684363       0.008
   0.00000000 -0.07342181 -0.16519908       0.004
   0.01835545 -0.05506636 -0.16519908       0.008
   0.03671091 -0.03671091 -0.16519908       0.004
   0.00000000 -0.09177727 -0.18355453       0.004
   0.01835545 -0.07342181 -0.18355453       0.008
   0.03671091 -0.05506636 -0.18355453       0.008
   0.00000000 -0.11013272 -0.20190999       0.004
   0.01835545 -0.09177727 -0.20190999       0.008
   0.03671091 -0.07342181 -0.20190999       0.008
   0.05506636 -0.05506636 -0.20190999       0.004
  -0.31204270 -0.11013272  0.11013272       0.004
  -0.29368725 -0.09177727  0.11013272       0.008
  -0.27533180 -0.07342181  0.11013272       0.008
  -0.27533180 -0.09177727  0.09177727       0.004
  -0.25697634 -0.07342181  0.09177727       0.004
   0.12848817  0.12848817 -0.12848817       0.001
   0.14684363  0.14684363 -0.12848817       0.004
   0.16519908  0.16519908 -0.12848817       0.002
   0.00000000  0.00000000 -0.12848817       0.001
   0.16519908  0.14684363 -0.14684363       0.004
   0.00000000 -0.01835545 -0.14684363       0.004
   0.00000000 -0.03671091 -0.16519908       0.004
   0.01835545 -0.01835545 -0.16519908       0.004
   0.00000000 -0.05506636 -0.18355453       0.004
   0.01835545 -0.03671091 -0.18355453       0.008
   0.00000000 -0.07342181 -0.20190999       0.004
   0.01835545 -0.05506636 -0.20190999       0.008
   0.03671091 -0.03671091 -0.20190999       0.004
   0.00000000 -0.09177727 -0.22026544       0.004
   0.01835545 -0.07342181 -0.22026544       0.008
   0.03671091 -0.05506636 -0.22026544       0.008
  -0.31204270 -0.09177727  0.09177727       0.004
  -0.29368725 -0.07342181  0.09177727       0.008
  -0.27533180 -0.05506636  0.09177727       0.004
  -0.27533180 -0.07342181  0.07342181       0.004
   0.16519908  0.16519908 -0.16519908       0.000
   0.00000000  0.00000000 -0.16519908       0.001
   0.00000000 -0.01835545 -0.18355453       0.004
   0.00000000 -0.03671091 -0.20190999       0.004
   0.01835545 -0.01835545 -0.20190999       0.004
   0.00000000 -0.05506636 -0.22026544       0.004
   0.01835545 -0.03671091 -0.22026544       0.008
   0.00000000 -0.07342181 -0.23862089       0.004
   0.01835545 -0.05506636 -0.23862089       0.008
   0.03671091 -0.03671091 -0.23862089       0.004
  -0.31204270 -0.07342181  0.07342181       0.004
  -0.29368725 -0.05506636  0.07342181       0.008
  -0.27533180 -0.05506636  0.05506636       0.001
   0.00000000  0.00000000 -0.20190999       0.001
   0.00000000 -0.01835545 -0.22026544       0.004
   0.00000000 -0.03671091 -0.23862089       0.004
   0.01835545 -0.01835545 -0.23862089       0.004
   0.00000000 -0.05506636 -0.25697634       0.004
   0.01835545 -0.03671091 -0.25697634       0.008
  -0.31204270 -0.05506636  0.05506636       0.004
  -0.29368725 -0.03671091  0.05506636       0.004
   0.00000000  0.00000000 -0.23862089       0.001
   0.00000000 -0.01835545 -0.25697634       0.004
   0.00000000 -0.03671091 -0.27533180       0.004
   0.01835545 -0.01835545 -0.27533180       0.004
  -0.31204270 -0.03671091  0.03671091       0.004
   0.00000000  0.00000000 -0.27533180       0.001
   0.00000000 -0.01835545 -0.29368725       0.004
  -0.31204270 -0.01835545  0.01835545       0.001
   0.00000000  0.00000000 -0.31204270       0.001
 
 k-points in reciprocal lattice and weights: Automatic                               
   0.02777778  0.02777778  0.02777778       0.001
   0.08333333  0.02777778  0.02777778       0.004
   0.13888889  0.02777778  0.02777778       0.004
   0.19444444  0.02777778  0.02777778       0.004
   0.25000000  0.02777778  0.02777778       0.004
   0.30555556  0.02777778  0.02777778       0.004
   0.36111111  0.02777778  0.02777778       0.004
   0.41666667  0.02777778  0.02777778       0.004
   0.47222222  0.02777778  0.02777778       0.002
  -0.02777778  0.02777778  0.02777778       0.001
   0.08333333  0.08333333  0.02777778       0.004
   0.13888889  0.08333333  0.02777778       0.008
   0.19444444  0.08333333  0.02777778       0.008
   0.25000000  0.08333333  0.02777778       0.008
   0.30555556  0.08333333  0.02777778       0.008
   0.36111111  0.08333333  0.02777778       0.008
   0.41666667  0.08333333  0.02777778       0.008
  -0.08333333  0.08333333  0.02777778       0.004
   0.13888889  0.13888889  0.02777778       0.004
   0.19444444  0.13888889  0.02777778       0.008
   0.25000000  0.13888889  0.02777778       0.008
   0.30555556  0.13888889  0.02777778       0.008
   0.36111111  0.13888889  0.02777778       0.008
   0.41666667  0.13888889  0.02777778       0.004
  -0.13888889  0.13888889  0.02777778       0.004
  -0.08333333  0.13888889  0.02777778       0.004
   0.19444444  0.19444444  0.02777778       0.004
   0.25000000  0.19444444  0.02777778       0.008
   0.30555556  0.19444444  0.02777778       0.008
   0.36111111  0.19444444  0.02777778       0.008
  -0.19444444  0.19444444  0.02777778       0.004
  -0.13888889  0.19444444  0.02777778       0.008
   0.25000000  0.25000000  0.02777778       0.004
   0.30555556  0.25000000  0.02777778       0.008
   0.36111111  0.25000000  0.02777778       0.004
  -0.25000000  0.25000000  0.02777778       0.004
  -0.19444444  0.25000000  0.02777778       0.008
  -0.13888889  0.25000000  0.02777778       0.004
   0.30555556  0.30555556  0.02777778       0.004
  -0.30555556  0.30555556  0.02777778       0.004
  -0.25000000  0.30555556  0.02777778       0.008
  -0.19444444  0.30555556  0.02777778       0.008
  -0.36111111  0.36111111  0.02777778       0.004
  -0.30555556  0.36111111  0.02777778       0.008
  -0.25000000  0.36111111  0.02777778       0.008
  -0.19444444  0.36111111  0.02777778       0.004
  -0.41666667  0.41666667  0.02777778       0.004
  -0.36111111  0.41666667  0.02777778       0.008
  -0.30555556  0.41666667  0.02777778       0.008
  -0.25000000  0.41666667  0.02777778       0.008
  -0.47222222  0.47222222  0.02777778       0.004
  -0.41666667  0.47222222  0.02777778       0.008
  -0.36111111  0.47222222  0.02777778       0.008
  -0.30555556  0.47222222  0.02777778       0.008
  -0.25000000  0.47222222  0.02777778       0.004
  -0.47222222 -0.47222222  0.02777778       0.004
  -0.41666667 -0.47222222  0.02777778       0.008
  -0.36111111 -0.47222222  0.02777778       0.008
  -0.30555556 -0.47222222  0.02777778       0.008
  -0.41666667 -0.41666667  0.02777778       0.004
  -0.36111111 -0.41666667  0.02777778       0.008
  -0.30555556 -0.41666667  0.02777778       0.004
  -0.36111111 -0.36111111  0.02777778       0.004
   0.08333333  0.08333333  0.08333333       0.001
   0.13888889  0.08333333  0.08333333       0.004
   0.19444444  0.08333333  0.08333333       0.004
   0.25000000  0.08333333  0.08333333       0.004
   0.30555556  0.08333333  0.08333333       0.004
   0.36111111  0.08333333  0.08333333       0.004
   0.41666667  0.08333333  0.08333333       0.002
  -0.08333333  0.08333333  0.08333333       0.001
   0.13888889  0.13888889  0.08333333       0.004
   0.19444444  0.13888889  0.08333333       0.008
   0.25000000  0.13888889  0.08333333       0.008
   0.30555556  0.13888889  0.08333333       0.008
   0.36111111  0.13888889  0.08333333       0.008
  -0.13888889  0.13888889  0.08333333       0.004
   0.19444444  0.19444444  0.08333333       0.004
   0.25000000  0.19444444  0.08333333       0.008
   0.30555556  0.19444444  0.08333333       0.008
   0.36111111  0.19444444  0.08333333       0.004
  -0.19444444  0.19444444  0.08333333       0.004
  -0.13888889  0.19444444  0.08333333       0.004
   0.25000000  0.25000000  0.08333333       0.004
   0.30555556  0.25000000  0.08333333       0.008
  -0.25000000  0.25000000  0.08333333       0.004
  -0.19444444  0.25000000  0.08333333       0.008
   0.30555556  0.30555556  0.08333333       0.001
  -0.30555556  0.30555556  0.08333333       0.004
  -0.25000000  0.30555556  0.08333333       0.008
  -0.19444444  0.30555556  0.08333333       0.004
  -0.36111111  0.36111111  0.08333333       0.004
  -0.30555556  0.36111111  0.08333333       0.008
  -0.25000000  0.36111111  0.08333333       0.008
  -0.41666667  0.41666667  0.08333333       0.004
  -0.36111111  0.41666667  0.08333333       0.008
  -0.30555556  0.41666667  0.08333333       0.008
  -0.25000000  0.41666667  0.08333333       0.004
  -0.47222222  0.47222222  0.08333333       0.004
  -0.41666667  0.47222222  0.08333333       0.008
  -0.36111111  0.47222222  0.08333333       0.008
  -0.30555556  0.47222222  0.08333333       0.008
  -0.47222222 -0.47222222  0.08333333       0.004
  -0.41666667 -0.47222222  0.08333333       0.008
  -0.36111111 -0.47222222  0.08333333       0.008
  -0.30555556 -0.47222222  0.08333333       0.004
  -0.41666667 -0.41666667  0.08333333       0.004
  -0.36111111 -0.41666667  0.08333333       0.008
  -0.36111111 -0.36111111  0.08333333       0.001
   0.13888889  0.13888889  0.13888889       0.001
   0.19444444  0.13888889  0.13888889       0.004
   0.25000000  0.13888889  0.13888889       0.004
   0.30555556  0.13888889  0.13888889       0.004
   0.36111111  0.13888889  0.13888889       0.002
  -0.13888889  0.13888889  0.13888889       0.001
   0.19444444  0.19444444  0.13888889       0.004
   0.25000000  0.19444444  0.13888889       0.008
   0.30555556  0.19444444  0.13888889       0.008
  -0.19444444  0.19444444  0.13888889       0.004
   0.25000000  0.25000000  0.13888889       0.004
   0.30555556  0.25000000  0.13888889       0.004
  -0.25000000  0.25000000  0.13888889       0.004
  -0.19444444  0.25000000  0.13888889       0.004
  -0.30555556  0.30555556  0.13888889       0.004
  -0.25000000  0.30555556  0.13888889       0.008
  -0.36111111  0.36111111  0.13888889       0.004
  -0.30555556  0.36111111  0.13888889       0.008
  -0.25000000  0.36111111  0.13888889       0.004
  -0.41666667  0.41666667  0.13888889       0.004
  -0.36111111  0.41666667  0.13888889       0.008
  -0.30555556  0.41666667  0.13888889       0.008
  -0.47222222  0.47222222  0.13888889       0.004
  -0.41666667  0.47222222  0.13888889       0.008
  -0.36111111  0.47222222  0.13888889       0.008
  -0.30555556  0.47222222  0.13888889       0.004
  -0.47222222 -0.47222222  0.13888889       0.004
  -0.41666667 -0.47222222  0.13888889       0.008
  -0.36111111 -0.47222222  0.13888889       0.008
  -0.41666667 -0.41666667  0.13888889       0.004
  -0.36111111 -0.41666667  0.13888889       0.004
   0.19444444  0.19444444  0.19444444       0.001
   0.25000000  0.19444444  0.19444444       0.004
   0.30555556  0.19444444  0.19444444       0.002
  -0.19444444  0.19444444  0.19444444       0.001
   0.25000000  0.25000000  0.19444444       0.004
  -0.25000000  0.25000000  0.19444444       0.004
  -0.30555556  0.30555556  0.19444444       0.004
  -0.25000000  0.30555556  0.19444444       0.004
  -0.36111111  0.36111111  0.19444444       0.004
  -0.30555556  0.36111111  0.19444444       0.008
  -0.41666667  0.41666667  0.19444444       0.004
  -0.36111111  0.41666667  0.19444444       0.008
  -0.30555556  0.41666667  0.19444444       0.004
  -0.47222222  0.47222222  0.19444444       0.004
  -0.41666667  0.47222222  0.19444444       0.008
  -0.36111111  0.47222222  0.19444444       0.008
  -0.47222222 -0.47222222  0.19444444       0.004
  -0.41666667 -0.47222222  0.19444444       0.008
  -0.36111111 -0.47222222  0.19444444       0.004
  -0.41666667 -0.41666667  0.19444444       0.004
   0.25000000  0.25000000  0.25000000       0.000
  -0.25000000  0.25000000  0.25000000       0.001
  -0.30555556  0.30555556  0.25000000       0.004
  -0.36111111  0.36111111  0.25000000       0.004
  -0.30555556  0.36111111  0.25000000       0.004
  -0.41666667  0.41666667  0.25000000       0.004
  -0.36111111  0.41666667  0.25000000       0.008
  -0.47222222  0.47222222  0.25000000       0.004
  -0.41666667  0.47222222  0.25000000       0.008
  -0.36111111  0.47222222  0.25000000       0.004
  -0.47222222 -0.47222222  0.25000000       0.004
  -0.41666667 -0.47222222  0.25000000       0.008
  -0.41666667 -0.41666667  0.25000000       0.001
  -0.30555556  0.30555556  0.30555556       0.001
  -0.36111111  0.36111111  0.30555556       0.004
  -0.41666667  0.41666667  0.30555556       0.004
  -0.36111111  0.41666667  0.30555556       0.004
  -0.47222222  0.47222222  0.30555556       0.004
  -0.41666667  0.47222222  0.30555556       0.008
  -0.47222222 -0.47222222  0.30555556       0.004
  -0.41666667 -0.47222222  0.30555556       0.004
  -0.36111111  0.36111111  0.36111111       0.001
  -0.41666667  0.41666667  0.36111111       0.004
  -0.47222222  0.47222222  0.36111111       0.004
  -0.41666667  0.47222222  0.36111111       0.004
  -0.47222222 -0.47222222  0.36111111       0.004
  -0.41666667  0.41666667  0.41666667       0.001
  -0.47222222  0.47222222  0.41666667       0.004
  -0.47222222 -0.47222222  0.41666667       0.001
  -0.47222222  0.47222222  0.47222222       0.001
 
 position of ions in fractional coordinates (direct lattice) 
   0.00000000  0.00000000  0.00000000
 
 position of ions in cartesian coordinates  (Angst):
   0.00000000  0.00000000  0.00000000
 


--------------------------------------------------------------------------------------------------------


 k-point   1 :   0.0278 0.0278 0.0278  plane waves:     204
 k-point   2 :   0.0833 0.0278 0.0278  plane waves:     205
 k-point   3 :   0.1389 0.0278 0.0278  plane waves:     203
 k-point   4 :   0.1944 0.0278 0.0278  plane waves:     201
 k-point   5 :   0.2500 0.0278 0.0278  plane waves:     204
 k-point   6 :   0.3056 0.0278 0.0278  plane waves:     199
 k-point   7 :   0.3611 0.0278 0.0278  plane waves:     201
 k-point   8 :   0.4167 0.0278 0.0278  plane waves:     202
 k-point   9 :   0.4722 0.0278 0.0278  plane waves:     200
 k-point  10 :  -0.0278 0.0278 0.0278  plane waves:     201
 k-point  11 :   0.0833 0.0833 0.0278  plane waves:     202
 k-point  12 :   0.1389 0.0833 0.0278  plane waves:     204
 k-point  13 :   0.1944 0.0833 0.0278  plane waves:     203
 k-point  14 :   0.2500 0.0833 0.0278  plane waves:     203
 k-point  15 :   0.3056 0.0833 0.0278  plane waves:     201
 k-point  16 :   0.3611 0.0833 0.0278  plane waves:     201
 k-point  17 :   0.4167 0.0833 0.0278  plane waves:     202
 k-point  18 :  -0.0833 0.0833 0.0278  plane waves:     207
 k-point  19 :   0.1389 0.1389 0.0278  plane waves:     206
 k-point  20 :   0.1944 0.1389 0.0278  plane waves:     205
 k-point  21 :   0.2500 0.1389 0.0278  plane waves:     202
 k-point  22 :   0.3056 0.1389 0.0278  plane waves:     203
 k-point  23 :   0.3611 0.1389 0.0278  plane waves:     202
 k-point  24 :   0.4167 0.1389 0.0278  plane waves:     206
 k-point  25 :  -0.1389 0.1389 0.0278  plane waves:     203
 k-point  26 :  -0.0833 0.1389 0.0278  plane waves:     206
 k-point  27 :   0.1944 0.1944 0.0278  plane waves:     203
 k-point  28 :   0.2500 0.1944 0.0278  plane waves:     203
 k-point  29 :   0.3056 0.1944 0.0278  plane waves:     207
 k-point  30 :   0.3611 0.1944 0.0278  plane waves:     207
 k-point  31 :  -0.1944 0.1944 0.0278  plane waves:     201
 k-point  32 :  -0.1389 0.1944 0.0278  plane waves:     203
 k-point  33 :   0.2500 0.2500 0.0278  plane waves:     208
 k-point  34 :   0.3056 0.2500 0.0278  plane waves:     208
 k-point  35 :   0.3611 0.2500 0.0278  plane waves:     210
 k-point  36 :  -0.2500 0.2500 0.0278  plane waves:     204
 k-point  37 :  -0.1944 0.2500 0.0278  plane waves:     203
 k-point  38 :  -0.1389 0.2500 0.0278  plane waves:     203
 k-point  39 :   0.3056 0.3056 0.0278  plane waves:     210
 k-point  40 :  -0.3056 0.3056 0.0278  plane waves:     201
 k-point  41 :  -0.2500 0.3056 0.0278  plane waves:     202
 k-point  42 :  -0.1944 0.3056 0.0278  plane waves:     205
 k-point  43 :  -0.3611 0.3611 0.0278  plane waves:     200
 k-point  44 :  -0.3056 0.3611 0.0278  plane waves:     199
 k-point  45 :  -0.2500 0.3611 0.0278  plane waves:     201
 k-point  46 :  -0.1944 0.3611 0.0278  plane waves:     202
 k-point  47 :  -0.4167 0.4167 0.0278  plane waves:     203
 k-point  48 :  -0.3611 0.4167 0.0278  plane waves:     204
 k-point  49 :  -0.3056 0.4167 0.0278  plane waves:     203
 k-point  50 :  -0.2500 0.4167 0.0278  plane waves:     203
 k-point  51 :  -0.4722 0.4722 0.0278  plane waves:     200
 k-point  52 :  -0.4167 0.4722 0.0278  plane waves:     202
 k-point  53 :  -0.3611 0.4722 0.0278  plane waves:     204
 k-point  54 :  -0.3056 0.4722 0.0278  plane waves:     206
 k-point  55 :  -0.2500 0.4722 0.0278  plane waves:     205
 k-point  56 :  -0.4722-0.4722 0.0278  plane waves:     202
 k-point  57 :  -0.4167-0.4722 0.0278  plane waves:     203
 k-point  58 :  -0.3611-0.4722 0.0278  plane waves:     205
 k-point  59 :  -0.3056-0.4722 0.0278  plane waves:     205
 k-point  60 :  -0.4167-0.4167 0.0278  plane waves:     205
 k-point  61 :  -0.3611-0.4167 0.0278  plane waves:     208
 k-point  62 :  -0.3056-0.4167 0.0278  plane waves:     207
 k-point  63 :  -0.3611-0.3611 0.0278  plane waves:     209
 k-point  64 :   0.0833 0.0833 0.0833  plane waves:     201
 k-point  65 :   0.1389 0.0833 0.0833  plane waves:     206
 k-point  66 :   0.1944 0.0833 0.0833  plane waves:     203
 k-point  67 :   0.2500 0.0833 0.0833  plane waves:     203
 k-point  68 :   0.3056 0.0833 0.0833  plane waves:     201
 k-point  69 :   0.3611 0.0833 0.0833  plane waves:     202
 k-point  70 :   0.4167 0.0833 0.0833  plane waves:     206
 k-point  71 :  -0.0833 0.0833 0.0833  plane waves:     205
 k-point  72 :   0.1389 0.1389 0.0833  plane waves:     206
 k-point  73 :   0.1944 0.1389 0.0833  plane waves:     201
 k-point  74 :   0.2500 0.1389 0.0833  plane waves:     201
 k-point  75 :   0.3056 0.1389 0.0833  plane waves:     204
 k-point  76 :   0.3611 0.1389 0.0833  plane waves:     206
 k-point  77 :  -0.1389 0.1389 0.0833  plane waves:     206
 k-point  78 :   0.1944 0.1944 0.0833  plane waves:     202
 k-point  79 :   0.2500 0.1944 0.0833  plane waves:     206
 k-point  80 :   0.3056 0.1944 0.0833  plane waves:     208
 k-point  81 :   0.3611 0.1944 0.0833  plane waves:     206
 k-point  82 :  -0.1944 0.1944 0.0833  plane waves:     206
 k-point  83 :  -0.1389 0.1944 0.0833  plane waves:     206
 k-point  84 :   0.2500 0.2500 0.0833  plane waves:     208
 k-point  85 :   0.3056 0.2500 0.0833  plane waves:     207
 k-point  86 :  -0.2500 0.2500 0.0833  plane waves:     204
 k-point  87 :  -0.1944 0.2500 0.0833  plane waves:     208
 k-point  88 :   0.3056 0.3056 0.0833  plane waves:     204
 k-point  89 :  -0.3056 0.3056 0.0833  plane waves:     203
 k-point  90 :  -0.2500 0.3056 0.0833  plane waves:     205
 k-point  91 :  -0.1944 0.3056 0.0833  plane waves:     208
 k-point  92 :  -0.3611 0.3611 0.0833  plane waves:     202
 k-point  93 :  -0.3056 0.3611 0.0833  plane waves:     203
 k-point  94 :  -0.2500 0.3611 0.0833  plane waves:     204
 k-point  95 :  -0.4167 0.4167 0.0833  plane waves:     200
 k-point  96 :  -0.3611 0.4167 0.0833  plane waves:     205
 k-point  97 :  -0.3056 0.4167 0.0833  plane waves:     208
 k-point  98 :  -0.2500 0.4167 0.0833  plane waves:     207
 k-point  99 :  -0.4722 0.4722 0.0833  plane waves:     203
 k-point 100 :  -0.4167 0.4722 0.0833  plane waves:     207
 k-point 101 :  -0.3611 0.4722 0.0833  plane waves:     208
 k-point 102 :  -0.3056 0.4722 0.0833  plane waves:     211
 k-point 103 :  -0.4722-0.4722 0.0833  plane waves:     206
 k-point 104 :  -0.4167-0.4722 0.0833  plane waves:     207
 k-point 105 :  -0.3611-0.4722 0.0833  plane waves:     209
 k-point 106 :  -0.3056-0.4722 0.0833  plane waves:     210
 k-point 107 :  -0.4167-0.4167 0.0833  plane waves:     208
 k-point 108 :  -0.3611-0.4167 0.0833  plane waves:     210
 k-point 109 :  -0.3611-0.3611 0.0833  plane waves:     206
 k-point 110 :   0.1389 0.1389 0.1389  plane waves:     198
 k-point 111 :   0.1944 0.1389 0.1389  plane waves:     204
 k-point 112 :   0.2500 0.1389 0.1389  plane waves:     204
 k-point 113 :   0.3056 0.1389 0.1389  plane waves:     204
 k-point 114 :   0.3611 0.1389 0.1389  plane waves:     206
 k-point 115 :  -0.1389 0.1389 0.1389  plane waves:     209
 k-point 116 :   0.1944 0.1944 0.1389  plane waves:     202
 k-point 117 :   0.2500 0.1944 0.1389  plane waves:     203
 k-point 118 :   0.3056 0.1944 0.1389  plane waves:     206
 k-point 119 :  -0.1944 0.1944 0.1389  plane waves:     208
 k-point 120 :   0.2500 0.2500 0.1389  plane waves:     206
 k-point 121 :   0.3056 0.2500 0.1389  plane waves:     206
 k-point 122 :  -0.2500 0.2500 0.1389  plane waves:     206
 k-point 123 :  -0.1944 0.2500 0.1389  plane waves:     209
 k-point 124 :  -0.3056 0.3056 0.1389  plane waves:     201
 k-point 125 :  -0.2500 0.3056 0.1389  plane waves:     202
 k-point 126 :  -0.3611 0.3611 0.1389  plane waves:     208
 k-point 127 :  -0.3056 0.3611 0.1389  plane waves:     206
 k-point 128 :  -0.2500 0.3611 0.1389  plane waves:     204
 k-point 129 :  -0.4167 0.4167 0.1389  plane waves:     206
 k-point 130 :  -0.3611 0.4167 0.1389  plane waves:     209
 k-point 131 :  -0.3056 0.4167 0.1389  plane waves:     211
 k-point 132 :  -0.4722 0.4722 0.1389  plane waves:     208
 k-point 133 :  -0.4167 0.4722 0.1389  plane waves:     207
 k-point 134 :  -0.3611 0.4722 0.1389  plane waves:     209
 k-point 135 :  -0.3056 0.4722 0.1389  plane waves:     209
 k-point 136 :  -0.4722-0.4722 0.1389  plane waves:     208
 k-point 137 :  -0.4167-0.4722 0.1389  plane waves:     211
 k-point 138 :  -0.3611-0.4722 0.1389  plane waves:     209
 k-point 139 :  -0.4167-0.4167 0.1389  plane waves:     210
 k-point 140 :  -0.3611-0.4167 0.1389  plane waves:     207
 k-point 141 :   0.1944 0.1944 0.1944  plane waves:     198
 k-point 142 :   0.2500 0.1944 0.1944  plane waves:     206
 k-point 143 :   0.3056 0.1944 0.1944  plane waves:     206
 k-point 144 :  -0.1944 0.1944 0.1944  plane waves:     209
 k-point 145 :   0.2500 0.2500 0.1944  plane waves:     214
 k-point 146 :  -0.2500 0.2500 0.1944  plane waves:     205
 k-point 147 :  -0.3056 0.3056 0.1944  plane waves:     207
 k-point 148 :  -0.2500 0.3056 0.1944  plane waves:     205
 k-point 149 :  -0.3611 0.3611 0.1944  plane waves:     209
 k-point 150 :  -0.3056 0.3611 0.1944  plane waves:     208
 k-point 151 :  -0.4167 0.4167 0.1944  plane waves:     213
 k-point 152 :  -0.3611 0.4167 0.1944  plane waves:     210
 k-point 153 :  -0.3056 0.4167 0.1944  plane waves:     209
 k-point 154 :  -0.4722 0.4722 0.1944  plane waves:     208
 k-point 155 :  -0.4167 0.4722 0.1944  plane waves:     209
 k-point 156 :  -0.3611 0.4722 0.1944  plane waves:     208
 k-point 157 :  -0.4722-0.4722 0.1944  plane waves:     212
 k-point 158 :  -0.4167-0.4722 0.1944  plane waves:     208
 k-point 159 :  -0.3611-0.4722 0.1944  plane waves:     211
 k-point 160 :  -0.4167-0.4167 0.1944  plane waves:     210
 k-point 161 :   0.2500 0.2500 0.2500  plane waves:     216
 k-point 162 :  -0.2500 0.2500 0.2500  plane waves:     209
 k-point 163 :  -0.3056 0.3056 0.2500  plane waves:     206
 k-point 164 :  -0.3611 0.3611 0.2500  plane waves:     211
 k-point 165 :  -0.3056 0.3611 0.2500  plane waves:     211
 k-point 166 :  -0.4167 0.4167 0.2500  plane waves:     212
 k-point 167 :  -0.3611 0.4167 0.2500  plane waves:     210
 k-point 168 :  -0.4722 0.4722 0.2500  plane waves:     210
 k-point 169 :  -0.4167 0.4722 0.2500  plane waves:     210
 k-point 170 :  -0.3611 0.4722 0.2500  plane waves:     214
 k-point 171 :  -0.4722-0.4722 0.2500  plane waves:     212
 k-point 172 :  -0.4167-0.4722 0.2500  plane waves:     212
 k-point 173 :  -0.4167-0.4167 0.2500  plane waves:     209
 k-point 174 :  -0.3056 0.3056 0.3056  plane waves:     205
 k-point 175 :  -0.3611 0.3611 0.3056  plane waves:     210
 k-point 176 :  -0.4167 0.4167 0.3056  plane waves:     214
 k-point 177 :  -0.3611 0.4167 0.3056  plane waves:     214
 k-point 178 :  -0.4722 0.4722 0.3056  plane waves:     212
 k-point 179 :  -0.4167 0.4722 0.3056  plane waves:     216
 k-point 180 :  -0.4722-0.4722 0.3056  plane waves:     214
 k-point 181 :  -0.4167-0.4722 0.3056  plane waves:     216
 k-point 182 :  -0.3611 0.3611 0.3611  plane waves:     212
 k-point 183 :  -0.4167 0.4167 0.3611  plane waves:     216
 k-point 184 :  -0.4722 0.4722 0.3611  plane waves:     216
 k-point 185 :  -0.4167 0.4722 0.3611  plane waves:     216
 k-point 186 :  -0.4722-0.4722 0.3611  plane waves:     216
 k-point 187 :  -0.4167 0.4167 0.4167  plane waves:     212
 k-point 188 :  -0.4722 0.4722 0.4167  plane waves:     218
 k-point 189 :  -0.4722-0.4722 0.4167  plane waves:     218
 k-point 190 :  -0.4722 0.4722 0.4722  plane waves:     228

 maximum and minimum number of plane-waves per node :       228      198

 maximum number of plane-waves:       228
 maximum index in each direction: 
   IXMAX=    4   IYMAX=    4   IZMAX=    3
   IXMIN=   -4   IYMIN=   -4   IZMIN=   -4


 serial   3D FFT for wavefunctions
 parallel 3D FFT for charge:
    minimum data exchange during FFTs selected (reduces bandwidth)


 total amount of memory used by VASP MPI-rank0    36036. kBytes
=======================================================================

   base      :      30000. kBytes
   nonl-proj :       2776. kBytes
   fftplans  :       1246. kBytes
   grid      :        577. kBytes
   one-center:          3. kBytes
   wavefun   :       1434. kBytes
 
     INWAV:  cpu time    0.0000: real time    0.0008
 Broyden mixing: mesh for mixing (old mesh)
   NGX =  7   NGY =  7   NGZ =  7
  (NGX  = 32   NGY  = 32   NGZ  = 32)
  gives a total of    343 points

 initial charge density was supplied:
 charge density of overlapping atoms calculated
 number of electron       4.0000000 magnetization 
 keeping initial charge density in first step


--------------------------------------------------------------------------------------------------------


 Maximum index for augmentation-charges        19203 (set IRDMAX)


--------------------------------------------------------------------------------------------------------


 First call to EWALD:  gamma=   0.738
 Maximum number of real-space cells 3x 3x 3
 Maximum number of reciprocal cells 3x 3x 3

    FEWALD:  cpu time    0.0030: real time    0.0035


--------------------------------------- Iteration      1(   1)  ---------------------------------------


    POTLOK:  cpu time    0.0100: real time    0.0141
    SETDIJ:  cpu time    0.1650: real time    0.1656
     EDDAV:  cpu time    0.6099: real time    0.6095
       DOS:  cpu time    0.0020: real time    0.0029
    --------------------------------------------
      LOOP:  cpu time    0.7869: real time    0.7924

 eigenvalue-minimisations  :  3352
 total energy-change (2. order) :-0.3340846E+01  (-0.1482375E+03)
 number of electron       4.0000000 magnetization 
 augmentation part        4.0000000 magnetization 

 Free energy of the ion-electron system (eV)
  ---------------------------------------------------
  alpha Z        PSCENC =         2.42827211
  Ewald energy   TEWEN  =      -138.51397499
  -Hartree energ DENC   =        -0.48179554
  -exchange      EXHF   =         0.00000000
  -V(xc)+E(xc)   XCENC  =        -8.69332224
  PAW double counting   =        88.12379961      -70.53051779
  entropy T*S    EENTRO =        -0.00047406
  eigenvalues    EBANDS =        21.26154026
  atomic energy  EATOM  =       103.06562707
  Solvation  Ediel_sol  =         0.00000000
  ---------------------------------------------------
  free energy    TOTEN  =        -3.34084557 eV

  energy without entropy =       -3.34037151  energy(sigma->0) =       -3.34060854


--------------------------------------------------------------------------------------------------------




--------------------------------------- Iteration      1(   2)  ---------------------------------------


     EDDAV:  cpu time    0.8219: real time    0.8376
       DOS:  cpu time    0.0030: real time    0.0026
    --------------------------------------------
      LOOP:  cpu time    0.8249: real time    0.8402

 eigenvalue-minimisations  :  4608
 total energy-change (2. order) :-0.1561664E+01  (-0.1448195E+01)
 number of electron       4.0000000 magnetization 
 augmentation part        4.0000000 magnetization 

 Free energy of the ion-electron system (eV)
  ---------------------------------------------------
  alpha Z        PSCENC =         2.42827211
  Ewald energy   TEWEN  =      -138.51397499
  -Hartree energ DENC   =        -0.48179554
  -exchange      EXHF   =         0.00000000
  -V(xc)+E(xc)   XCENC  =        -8.69332224
  PAW double counting   =        88.12379961      -70.53051779
  entropy T*S    EENTRO =        -0.00076216
  eigenvalues    EBANDS =        19.70016457
  atomic energy  EATOM  =       103.06562707
  Solvation  Ediel_sol  =         0.00000000
  ---------------------------------------------------
  free energy    TOTEN  =        -4.90250936 eV

  energy without entropy =       -4.90174720  energy(sigma->0) =       -4.90212828


--------------------------------------------------------------------------------------------------------




--------------------------------------- Iteration      1(   3)  ---------------------------------------


     EDDAV:  cpu time    0.5689: real time    0.5787
       DOS:  cpu time    0.0030: real time    0.0029
    --------------------------------------------
      LOOP:  cpu time    0.5729: real time    0.5816

 eigenvalue-minimisations  :  3352
 total energy-change (2. order) :-0.6843979E-02  (-0.6843500E-02)
 number of electron       4.0000000 magnetization 
 augmentation part        4.0000000 magnetization 

 Free energy of the ion-electron system (eV)
  ---------------------------------------------------
  alpha Z        PSCENC =         2.42827211
  Ewald energy   TEWEN  =      -138.51397499
  -Hartree energ DENC   =        -0.48179554
  -exchange      EXHF   =         0.00000000
  -V(xc)+E(xc)   XCENC  =        -8.69332224
  PAW double counting   =        88.12379961      -70.53051779
  entropy T*S    EENTRO =        -0.00076755
  eigenvalues    EBANDS =        19.69332597
  atomic energy  EATOM  =       103.06562707
  Solvation  Ediel_sol  =         0.00000000
  ---------------------------------------------------
  free energy    TOTEN  =        -4.90935334 eV

  energy without entropy =       -4.90858579  energy(sigma->0) =       -4.90896957


--------------------------------------------------------------------------------------------------------




--------------------------------------- Iteration      1(   4)  ---------------------------------------


     EDDAV:  cpu time    0.8729: real time    0.8804
       DOS:  cpu time    0.0030: real time    0.0029
    --------------------------------------------
      LOOP:  cpu time    0.8749: real time    0.8834

 eigenvalue-minimisations  :  4936
 total energy-change (2. order) :-0.5009696E-05  (-0.5009320E-05)
 number of electron       4.0000000 magnetization 
 augmentation part        4.0000000 magnetization 

 Free energy of the ion-electron system (eV)
  ---------------------------------------------------
  alpha Z        PSCENC =         2.42827211
  Ewald energy   TEWEN  =      -138.51397499
  -Hartree energ DENC   =        -0.48179554
  -exchange      EXHF   =         0.00000000
  -V(xc)+E(xc)   XCENC  =        -8.69332224
  PAW double counting   =        88.12379961      -70.53051779
  entropy T*S    EENTRO =        -0.00076755
  eigenvalues    EBANDS =        19.69332097
  atomic energy  EATOM  =       103.06562707
  Solvation  Ediel_sol  =         0.00000000
  ---------------------------------------------------
  free energy    TOTEN  =        -4.90935835 eV

  energy without entropy =       -4.90859080  energy(sigma->0) =       -4.90897457


--------------------------------------------------------------------------------------------------------




--------------------------------------- Iteration      1(   5)  ---------------------------------------


     EDDAV:  cpu time    0.5589: real time    0.5703
       DOS:  cpu time    0.0030: real time    0.0028
    CHARGE:  cpu time    0.0230: real time    0.0229
    MIXING:  cpu time    0.0000: real time    0.0012
    --------------------------------------------
      LOOP:  cpu time    0.5859: real time    0.5970

 eigenvalue-minimisations  :  3352
 total energy-change (2. order) : 0.5526317E-09  (-0.8514787E-09)
 number of electron       4.0000000 magnetization 
 augmentation part       -0.2400254 magnetization 

 Broyden mixing:
  rms(total) = 0.28650E+00    rms(broyden)= 0.28650E+00
  rms(prec ) = 0.41426E+00
  weight for this iteration     100.00

 Free energy of the ion-electron system (eV)
  ---------------------------------------------------
  alpha Z        PSCENC =         2.42827211
  Ewald energy   TEWEN  =      -138.51397499
  -Hartree energ DENC   =        -0.48179554
  -exchange      EXHF   =         0.00000000
  -V(xc)+E(xc)   XCENC  =        -8.69332224
  PAW double counting   =        88.12379961      -70.53051779
  entropy T*S    EENTRO =        -0.00076755
  eigenvalues    EBANDS =        19.69332097
  atomic energy  EATOM  =       103.06562707
  Solvation  Ediel_sol  =         0.00000000
  ---------------------------------------------------
  free energy    TOTEN  =        -4.90935835 eV

  energy without entropy =       -4.90859080  energy(sigma->0) =       -4.90897457


--------------------------------------------------------------------------------------------------------




--------------------------------------- Iteration      1(   6)  ---------------------------------------


    POTLOK:  cpu time    0.0100: real time    0.0175
    SETDIJ:  cpu time    0.1630: real time    0.1623
     EDDAV:  cpu time    0.5269: real time    0.5275
       DOS:  cpu time    0.0020: real time    0.0029
    CHARGE:  cpu time    0.0220: real time    0.0218
    MIXING:  cpu time    0.0000: real time    0.0007
    --------------------------------------------
      LOOP:  cpu time    0.7239: real time    0.7327

 eigenvalue-minimisations  :  3168
 total energy-change (2. order) : 0.1149758E-01  (-0.3621267E-03)
 number of electron       4.0000000 magnetization 
 augmentation part       -0.2419701 magnetization 

 Broyden mixing:
  rms(total) = 0.15917E+00    rms(broyden)= 0.15917E+00
  rms(prec ) = 0.23972E+00
  weight for this iteration     100.00

 eigenvalues of (default mixing * dielectric matrix)
  average eigenvalue GAMMA=   2.2398
  2.2398

 Free energy of the ion-electron system (eV)
  ---------------------------------------------------
  alpha Z        PSCENC =         2.42827211
  Ewald energy   TEWEN  =      -138.51397499
  -Hartree energ DENC   =        -0.41824790
  -exchange      EXHF   =         0.00000000
  -V(xc)+E(xc)   XCENC  =        -8.66812136
  PAW double counting   =       176.90973709     -159.32322685
  entropy T*S    EENTRO =        -0.00078550
  eigenvalues    EBANDS =        19.62285955
  atomic energy  EATOM  =       103.06562707
  Solvation  Ediel_sol  =         0.00000000
  ---------------------------------------------------
  free energy    TOTEN  =        -4.89786077 eV

  energy without entropy =       -4.89707527  energy(sigma->0) =       -4.89746802


--------------------------------------------------------------------------------------------------------




--------------------------------------- Iteration      1(   7)  ---------------------------------------


    POTLOK:  cpu time    0.0110: real time    0.0216
    SETDIJ:  cpu time    0.1640: real time    0.1640
     EDDAV:  cpu time    0.5519: real time    0.5528
       DOS:  cpu time    0.0020: real time    0.0027
    CHARGE:  cpu time    0.0220: real time    0.0218
    MIXING:  cpu time    0.0010: real time    0.0007
    --------------------------------------------
      LOOP:  cpu time    0.7509: real time    0.7636

 eigenvalue-minimisations  :  3264
 total energy-change (2. order) : 0.6565421E-02  (-0.7231606E-03)
 number of electron       4.0000000 magnetization 
 augmentation part       -0.2447941 magnetization 

 Broyden mixing:
  rms(total) = 0.13572E-01    rms(broyden)= 0.13572E-01
  rms(prec ) = 0.18321E-01
  weight for this iteration     100.00

 eigenvalues of (default mixing * dielectric matrix)
  average eigenvalue GAMMA=   2.4594
  2.4594  2.4594

 Free energy of the ion-electron system (eV)
  ---------------------------------------------------
  alpha Z        PSCENC =         2.42827211
  Ewald energy   TEWEN  =      -138.51397499
  -Hartree energ DENC   =        -0.35380008
  -exchange      EXHF   =         0.00000000
  -V(xc)+E(xc)   XCENC  =        -8.62833987
  PAW double counting   =       351.40622436     -333.83331287
  entropy T*S    EENTRO =        -0.00080211
  eigenvalues    EBANDS =        19.53881103
  atomic energy  EATOM  =       103.06562707
  Solvation  Ediel_sol  =         0.00000000
  ---------------------------------------------------
  free energy    TOTEN  =        -4.89129535 eV

  energy without entropy =       -4.89049324  energy(sigma->0) =       -4.89089430


--------------------------------------------------------------------------------------------------------




--------------------------------------- Iteration      1(   8)  ---------------------------------------


    POTLOK:  cpu time    0.0100: real time    0.0170
    SETDIJ:  cpu time    0.1620: real time    0.1623
     EDDAV:  cpu time    0.8259: real time    0.8263
       DOS:  cpu time    0.0020: real time    0.0026
    CHARGE:  cpu time    0.0220: real time    0.0218
    MIXING:  cpu time    0.0010: real time    0.0007
    --------------------------------------------
      LOOP:  cpu time    1.0228: real time    1.0308

 eigenvalue-minimisations  :  4472
 total energy-change (2. order) : 0.2098800E-04  (-0.3269908E-05)
 number of electron       4.0000000 magnetization 
 augmentation part       -0.2448759 magnetization 

 Broyden mixing:
  rms(total) = 0.10189E-02    rms(broyden)= 0.10187E-02
  rms(prec ) = 0.18616E-02
  weight for this iteration     100.00

 eigenvalues of (default mixing * dielectric matrix)
  average eigenvalue GAMMA=   2.0198
  0.9877  2.4066  2.6651

 Free energy of the ion-electron system (eV)
  ---------------------------------------------------
[...]
      1       3.1444      2.00000
      2       6.3990      2.00000
      3      10.8956      0.00000
      4      14.8985      0.00000
      5      19.1323      0.00000
      6      22.1580      0.00000
      7      23.7970      0.00000
      8      28.1274      0.00000

 k-point   156 :      -0.3611    0.4722    0.1944
  band No.  band energies     occupation 
      1       2.9647      2.00000
      2       7.7913      2.00000
      3       9.3410      2.00000
      4      15.9476      0.00000
      5      17.7064      0.00000
      6      21.9283      0.00000
      7      23.9807      0.00000
      8      29.9663      0.00000

 k-point   157 :      -0.4722   -0.4722    0.1944
  band No.  band energies     occupation 
      1       4.5169      2.00000
      2       4.8664      2.00000
      3      10.8095      0.00000
      4      14.8172      0.00000
      5      19.9271      0.00000
      6      21.2808      0.00000
      7      23.6718      0.00000
      8      28.0840      0.00000

 k-point   158 :      -0.4167   -0.4722    0.1944
  band No.  band energies     occupation 
      1       4.4017      2.00000
      2       6.0468      2.00000
      3       9.1622      2.00000
      4      15.8363      0.00000
      5      18.7995      0.00000
      6      20.5727      0.00000
      7      23.7568      0.00000
      8      30.0570      0.00000

 k-point   159 :      -0.3611   -0.4722    0.1944
  band No.  band energies     occupation 
      1       4.3174      2.00000
      2       7.4068      2.00000
      3       7.6689      2.00000
      4      16.7088      0.00000
      5      17.8340      0.00000
      6      20.4076      0.00000
      7      23.7454      0.00000
      8      31.5734      0.00000

 k-point   160 :      -0.4167   -0.4167    0.1944
  band No.  band energies     occupation 
      1       5.6765      2.00000
      2       6.0111      2.00000
      3       7.4658      2.00000
      4      16.8774      0.00000
      5      18.5705      0.00000
      6      19.2855      0.00000
      7      23.6653      0.00000
      8      32.0973      0.00000

 k-point   161 :       0.2500    0.2500    0.2500
  band No.  band energies     occupation 
      1       6.3708      2.00000
      2       7.0418      2.00000
      3       7.0418      2.00000
      4       7.0418      2.00000
      5      31.0930      0.00000
      6      31.0930      0.00000
      7      31.0930      0.00000
      8      31.1305      0.00000

 k-point   162 :      -0.2500    0.2500    0.2500
  band No.  band energies     occupation 
      1      -0.5244      2.00000
      2      12.8219      0.00000
      3      12.8219      0.00000
      4      14.8250      0.00000
      5      16.1334      0.00000
      6      26.1582      0.00000
      7      26.8665      0.00000
      8      27.5612      0.00000

 k-point   163 :      -0.3056    0.3056    0.2500
  band No.  band energies     occupation 
      1       0.4009      2.00000
      2      11.3995      0.00000
      3      12.1517      0.00000
      4      14.4771      0.00000
      5      15.8048      0.00000
      6      25.2306      0.00000
      7      26.0936      0.00000
      8      28.1836      0.00000

 k-point   164 :      -0.3611    0.3611    0.2500
  band No.  band energies     occupation 
      1       1.5048      2.00000
      2       9.4983      2.00000
      3      11.6467      0.00000
      4      14.1300      0.00000
      5      16.4198      0.00000
      6      23.5270      0.00000
      7      25.6872      0.00000
      8      28.4043      0.00000

 k-point   165 :      -0.3056    0.3611    0.2500
  band No.  band energies     occupation 
      1       1.4132      2.00000
      2      10.7274      0.00000
      3      10.8797      0.00000
      4      14.4016      0.00000
      5      15.3831      0.00000
      6      23.4739      0.00000
      7      26.3330      0.00000
      8      29.2011      0.00000

 k-point   166 :      -0.4167    0.4167    0.2500
  band No.  band energies     occupation 
      1       2.7828      2.00000
      2       7.6195      2.00000
      3      11.3094      0.00000
      4      13.8180      0.00000
      5      17.4491      0.00000
      6      21.8829      0.00000
      7      25.3863      0.00000
      8      28.4084      0.00000

 k-point   167 :      -0.3611    0.4167    0.2500
  band No.  band energies     occupation 
      1       2.6014      2.00000
      2       8.9708      2.00000
      3      10.3824      0.00000
      4      14.3095      0.00000
      5      15.9328      0.00000
      6      21.7228      0.00000
      7      26.0894      0.00000
      8      29.6966      0.00000

 k-point   168 :      -0.4722    0.4722    0.2500
  band No.  band energies     occupation 
      1       4.2217      2.00000
      2       5.8693      2.00000
      3      11.1405      0.00000
      4      13.6524      0.00000
      5      18.6144      0.00000
      6      20.4215      0.00000
      7      25.2299      0.00000
      8      28.3745      0.00000

 k-point   169 :      -0.4167    0.4722    0.2500
  band No.  band energies     occupation 
      1       3.9584      2.00000
      2       7.1766      2.00000
      3      10.1223      0.00000
      4      14.1086      0.00000
      5      17.0308      0.00000
      6      20.0841      0.00000
      7      25.8893      0.00000
      8      29.8005      0.00000

 k-point   170 :      -0.3611    0.4722    0.2500
  band No.  band energies     occupation 
      1       3.8693      2.00000
      2       8.5139      2.00000
      3       8.7431      2.00000
      4      14.9949      0.00000
      5      15.8883      0.00000
      6      19.9838      0.00000
      7      25.9935      0.00000
      8      31.2027      0.00000

 k-point   171 :      -0.4722   -0.4722    0.2500
  band No.  band energies     occupation 
      1       5.3301      2.00000
      2       5.6535      2.00000
      3      10.0355      0.00082
      4      14.0317      0.00000
      5      18.0138      0.00000
      6      18.9320      0.00000
      7      25.8166      0.00000
      8      29.8154      0.00000

 k-point   172 :      -0.4167   -0.4722    0.2500
  band No.  band energies     occupation 
      1       5.2945      2.00000
      2       6.9115      2.00000
      3       8.4644      2.00000
      4      15.1145      0.00000
      5      16.8154      0.00000
      6      18.4213      0.00000
      7      25.8939      0.00000
      8      31.7599      0.00000

 k-point   173 :      -0.4167   -0.4167    0.2500
  band No.  band energies     occupation 
      1       6.5374      2.00000
      2       6.9576      2.00000
      3       6.9576      2.00000
      4      15.8463      0.00000
      5      17.1174      0.00000
      6      17.1174      0.00000
      7      25.8678      0.00000
      8      33.4255      0.00000

 k-point   174 :      -0.3056    0.3056    0.3056
  band No.  band energies     occupation 
      1       1.3215      2.00000
      2      11.4789      0.00000
      3      11.4789      0.00000
      4      13.5170      0.00000
      5      14.6121      0.00000
      6      23.4378      0.00000
      7      27.9463      0.00000
      8      29.1281      0.00000

 k-point   175 :      -0.3611    0.3611    0.3056
  band No.  band energies     occupation 
      1       2.4194      2.00000
      2      10.1987      0.00000
      3      10.9720      0.00000
      4      13.2976      0.00000
      5      14.5086      0.00000
      6      21.5798      0.00000
      7      27.9706      0.00000
      8      29.7637      0.00000

 k-point   176 :      -0.4167    0.4167    0.3056
  band No.  band energies     occupation 
      1       3.6890      2.00000
      2       8.4473      2.00000
      3      10.6338      0.00000
      4      13.0776      0.00000
      5      15.3611      0.00000
      6      19.8167      0.00000
      7      27.7048      0.00000
      8      30.0446      0.00000

 k-point   177 :      -0.3611    0.4167    0.3056
  band No.  band energies     occupation 
      1       3.5989      2.00000
      2       9.6981      2.00000
      3       9.8432      1.96377
      4      13.4035      0.00000
      5      14.2631      0.00000
      6      19.7291      0.00000
      7      28.2907      0.00000
      8      30.9791      0.00000

 k-point   178 :      -0.4722    0.4722    0.3056
  band No.  band energies     occupation 
      1       5.1170      2.00000
      2       6.7385      2.00000
      3      10.4646      0.00000
      4      12.9257      0.00000
      5      16.5591      0.00000
      6      18.2391      0.00000
      7      27.5579      0.00000
      8      30.1359      0.00000

 k-point   179 :      -0.4167    0.4722    0.3056
  band No.  band energies     occupation 
      1       4.9438      2.00000
      2       8.0939      2.00000
      3       9.5192      2.00000
      4      13.4451      0.00000
      5      15.0342      0.00000
      6      18.0180      0.00000
      7      28.1890      0.00000
      8      31.5194      0.00000

 k-point   180 :      -0.4722   -0.4722    0.3056
  band No.  band energies     occupation 
      1       6.3079      2.00000
      2       6.6015      2.00000
      3       9.4315      2.00000
      4      13.3931      0.00000
      5      16.0684      0.00000
      6      16.7567      0.00000
      7      28.1382      0.00000
      8      31.6302      0.00000

 k-point   181 :      -0.4167   -0.4722    0.3056
  band No.  band energies     occupation 
      1       6.3463      2.00000
      2       7.8231      2.00000
      3       8.0372      2.00000
      4      14.2826      0.00000
      5      15.1570      0.00000
      6      16.4145      0.00000
      7      28.2049      0.00000
      8      33.0647      0.00000

 k-point   182 :      -0.3611    0.3611    0.3611
  band No.  band energies     occupation 
      1       3.5086      2.00000
      2      10.4647      0.00000
      3      10.4647      0.00000
      4      12.4970      0.00000
      5      13.4665      0.00000
      6      19.6445      0.00000
      7      30.0261      0.00000
      8      30.9039      0.00000

 k-point   183 :      -0.4167    0.4167    0.3611
  band No.  band energies     occupation 
      1       4.7660      2.00000
      2       9.3354      2.00000
      3      10.1258      0.00000
      4      12.4242      0.00000
      5      13.5791      0.00000
      6      17.8304      0.00000
      7      30.1072      0.00000
      8      31.5994      0.00000

 k-point   184 :      -0.4722    0.4722    0.3611
  band No.  band energies     occupation 
      1       6.1751      2.00000
      2       7.7486      2.00000
      3       9.9563      0.26928
      4      12.3514      0.00000
      5      14.6224      0.00000
      6      16.2087      0.00000
      7      29.9804      0.00000
      8      31.8876      0.00000

 k-point   185 :      -0.4167    0.4722    0.3611
  band No.  band energies     occupation 
      1       6.0905      2.00000
      2       9.0085      2.00000
      3       9.1495      2.00000
      4      12.7036      0.00000
      5      13.5152      0.00000
      6      16.0943      0.00000
      7      30.5062      0.00000
      8      32.8514      0.00000

 k-point   186 :      -0.4722   -0.4722    0.3611
  band No.  band energies     occupation 
      1       7.4292      2.00000
      2       7.6841      2.00000
      3       9.0009      2.00000
      4      12.8593      0.00000
      5      14.2943      0.00000
      6      14.7918      0.00000
      7      30.5090      0.00000
      8      33.2748      0.00000

 k-point   187 :      -0.4167    0.4167    0.4167
  band No.  band energies     occupation 
      1       6.0032      2.00000
      2       9.7867      1.99978
      3       9.7867      1.99978
      4      11.7872      0.00000
      5      12.7024      0.00000
      6      15.9951      0.00000
      7      32.2756      0.00000
      8      32.7815      0.00000

 k-point   188 :      -0.4722    0.4722    0.4167
  band No.  band energies     occupation 
      1       7.3733      2.00000
      2       8.8176      2.00000
      3       9.6169      2.00000
      4      11.8553      0.00000
      5      13.0086      0.00000
      6      14.3801      0.00000
      7      32.3660      0.00000
      8      33.3828      0.00000

 k-point   189 :      -0.4722   -0.4722    0.4167
  band No.  band energies     occupation 
      1       8.5707      2.00000
      2       8.8020      2.00000
      3       8.8020      2.00000
      4      12.0899      0.00000
      5      13.1413      0.00000
      6      13.1413      0.00000
      7      32.7195      0.00000
      8      34.3553      0.00000

 k-point   190 :      -0.4722    0.4722    0.4722
  band No.  band energies     occupation 
      1       8.6306      2.00000
      2       9.4468      2.00000
      3       9.4468      2.00000
      4      11.2996      0.00000
      5      12.3153      0.00000
      6      12.8979      0.00000
      7      34.1748      0.00000
      8      34.2784      0.00000


--------------------------------------------------------------------------------------------------------


 soft charge-density along one line, spin component           1
         0         1         2         3         4         5         6         7         8         9
 total charge-density along one line
 
 pseudopotential strength for first ion, spin component:           1
 17.986  25.092  -0.000  -0.000   0.000  -0.000  -0.000   0.000
 25.092  35.009  -0.000  -0.000   0.000  -0.000  -0.000   0.000
 -0.000  -0.000   4.100  -0.000   0.000   7.637  -0.000   0.000
 -0.000  -0.000  -0.000   4.100  -0.000  -0.000   7.637  -0.000
  0.000   0.000   0.000  -0.000   4.100   0.000  -0.000   7.637
 -0.000  -0.000   7.637  -0.000   0.000  14.239  -0.000   0.000
 -0.000  -0.000  -0.000   7.637  -0.000  -0.000  14.239  -0.000
  0.000   0.000   0.000  -0.000   7.637   0.000  -0.000  14.239
 total augmentation occupancy for first ion, spin component:           1
  4.766  -1.927   0.000   0.000   0.000   0.000   0.000   0.000
 -1.927   1.207   0.000   0.000   0.000   0.000   0.000   0.000
  0.000   0.000   2.313  -0.000   0.000  -0.542   0.000  -0.000
  0.000   0.000   0.000   2.313  -0.000  -0.000  -0.542   0.000
  0.000   0.000   0.000  -0.000   2.313  -0.000   0.000  -0.542
  0.000   0.000  -0.542  -0.000  -0.000   0.141   0.000   0.000
  0.000   0.000   0.000  -0.542   0.000   0.000   0.141  -0.000
  0.000   0.000  -0.000   0.000  -0.542   0.000  -0.000   0.141


------------------------ aborting loop because EDIFF is reached ----------------------------------------


    CHARGE:  cpu time    0.0210: real time    0.0215
    FORLOC:  cpu time    0.0000: real time    0.0005
    FORNL :  cpu time    0.0430: real time    0.0427
    STRESS:  cpu time    0.4509: real time    0.4512
    FORCOR:  cpu time    0.0130: real time    0.0127
    FORHAR:  cpu time    0.0010: real time    0.0019
    MIXING:  cpu time    0.0000: real time    0.0005
    OFIELD:  cpu time    0.0000: real time    0.0002

  FORCE on cell =-STRESS in cart. coord.  units (eV):
  Direction    XX          YY          ZZ          XY          YZ          ZX
  --------------------------------------------------------------------------------------
  Alpha Z     2.30043     2.30043     2.30043
  Ewald     -45.34639   -45.34639   -45.34639     0.00000    -0.00000     0.00000
  Hartree     0.14412     0.14412     0.14412    -0.00000     0.00000     0.00000
  E(xc)     -12.67003   -12.67003   -12.67003     0.00000    -0.00000    -0.00000
  Local      -5.11913    -5.11913    -5.11913    -0.00001     0.00001     0.00001
  n-local    39.05587    38.40686    38.09379    -0.91029    -1.39725     0.47228
  augment    -6.28038    -6.28038    -6.28038     0.00001    -0.00001    -0.00001
  Kinetic    22.09391    34.16278    29.10496    10.05862    15.45597    -5.79100
  Fock        0.00000     0.00000     0.00000     0.00000     0.00000     0.00000
  -------------------------------------------------------------------------------------
  Total       0.00135     0.00135     0.00135     0.00000     0.00000     0.00000
  in kB       0.14729     0.14729     0.14729     0.00000     0.00000     0.00000
  external pressure =        0.15 kB  Pullay stress =        0.00 kB


 VOLUME and BASIS-vectors are now :
 -----------------------------------------------------------------------------
  energy-cutoff  :      350.00
  volume of cell :       14.63
      direct lattice vectors                 reciprocal lattice vectors
     1.540855883  1.540855883  1.540855883     0.324494981  0.324494981  0.000000000
     1.540855883 -1.540855883 -1.540855883     0.324494981  0.000000000 -0.324494981
    -1.540855883  1.540855883 -1.540855883     0.000000000  0.324494981 -0.324494981

  length of vectors
     2.668840676  2.668840676  2.668840676     0.458905203  0.458905203  0.458905203


 FORCES acting on ions
    electron-ion (+dipol)            ewald-force                    non-local-force                 convergence-correction
 -----------------------------------------------------------------------------------------------
   0.413E-15 0.866E-16 0.501E-15   0.288E-15 -.903E-16 0.293E-15   -.258E-25 -.258E-25 0.000E+00   0.193E-15 0.195E-15 0.341E-16
 -----------------------------------------------------------------------------------------------
   0.413E-15 0.866E-16 0.501E-15   0.288E-15 -.903E-16 0.293E-15   -.258E-25 -.258E-25 0.000E+00   0.193E-15 0.195E-15 0.341E-16
 
 
 POSITION                                       TOTAL-FORCE (eV/Angst)
 -----------------------------------------------------------------------------------
      0.00000     -0.00000     -0.00000         0.000000      0.000000      0.000000
 -----------------------------------------------------------------------------------
    total drift:                                0.000000      0.000000      0.000000


--------------------------------------------------------------------------------------------------------



  FREE ENERGIE OF THE ION-ELECTRON SYSTEM (eV)
  ---------------------------------------------------
  free  energy   TOTEN  =        -4.90420903 eV

  energy  without entropy=       -4.90373596  energy(sigma->0) =       -4.90397249
 
 d Force = 0.0000000E+00[ 0.000E+00, 0.000E+00]  d Energy = 0.9724614E-03-0.972E-03
 d Force = 0.0000000E+00[ 0.000E+00, 0.000E+00]  d Ewald  = 0.6899400E+00-0.690E+00


--------------------------------------------------------------------------------------------------------


    POTLOK:  cpu time    0.1740: real time    0.1803


--------------------------------------------------------------------------------------------------------




--------------------------------------------------------------------------------------------------------


  
 reached required accuracy - stopping structural energy minimisation
     LOOP+:  cpu time    5.1792: real time    5.4449
    4ORBIT:  cpu time    0.0000: real time    0.0000

 total amount of memory used by VASP MPI-rank0    36036. kBytes
=======================================================================

   base      :      30000. kBytes
   nonl-proj :       2776. kBytes
   fftplans  :       1246. kBytes
   grid      :        577. kBytes
   one-center:          3. kBytes
   wavefun   :       1434. kBytes
 
  
  
 General timing and accounting informations for this job:
 ========================================================
  
                  Total CPU time used (sec):       19.224
                            User time (sec):       18.681
                          System time (sec):        0.543
                         Elapsed time (sec):       20.821
  
                   Maximum memory used (kb):       60856.
                   Average memory used (kb):          N/A
  
                          Minor page faults:        10392
                          Major page faults:            1
                 Voluntary context switches:        30858
