<?xml version="1.0" encoding="ISO-8859-1"?>
<modeling>
 <generator>
  <i name="program" type="string">vasp </i>
  <i name="version" type="string">6.2.0  </i>
  <i name="subversion" type="string">18Jan21 (build Aug 12 2022 13:00:08) complex                          parallel </i>
  <i name="platform" type="string">LinuxIFC </i>
  <i name="date" type="string">2024 11 03 </i>
  <i name="time" type="string">21:53:30 </i>
 </generator>
 <incar>
  <i type="int" name="ISTART">     0</i>
  <i type="string" name="PREC">Accurate      (Accurate strictly avoids</i>
  <i type="logical" name="ADDGRID"> T  </i>
  <i type="int" name="ISPIN">     1</i>
  <i type="int" name="NELM">    90</i>
  <i type="int" name="NELMIN">     6</i>
  <i type="int" name="IBRION">     2</i>
  <i name="EDIFF">      0.00000100</i>
  <i name="EDIFFG">     -0.00200000</i>
  <i type="int" name="NSW">   100</i>
  <i type="int" name="ISIF">     3</i>
  <i type="int" name="ISYM">     2</i>
  <i name="ENCUT">    350.00000000</i>
  <i type="logical" name="LREAL"> F  </i>
  <i type="int" name="ISMEAR">     0</i>
  <i name="SIGMA">      0.05000000</i>
  <i type="logical" name="LWAVE"> F  </i>
  <i type="logical" name="LCHARG"> F  </i>
  <i type="logical" name="LASPH"> T  </i>
 </incar>
 <primitive_cell>
  <structure name="primitive_cell" >
   <crystal>
    <varray name="basis" >
     <v>       1.51332563       1.51332563       1.51332563 </v>
     <v>       1.51332563      -1.51332563      -1.51332563 </v>
     <v>      -1.51332563       1.51332563      -1.51332563 </v>
    </varray>
    <i name="volume">     13.86299778 </i>
    <varray name="rec_basis" >
     <v>       0.33039816       0.33039816       0.00000000 </v>
     <v>       0.33039816       0.00000000      -0.33039816 </v>
     <v>       0.00000000       0.33039816      -0.33039816 </v>
    </varray>
   </crystal>
   <varray name="positions" >
    <v>       0.00000000       0.00000000       0.00000000 </v>
   </varray>
  </structure>
  <varray name="primitive_index" >
   <v type="int" >        1 </v>
  </varray>
 </primitive_cell>
 <kpoints>
  <generation param="Monkhorst-Pack">
   <v type="int" name="divisions">      18       18       18 </v>
   <v name="usershift">      0.00000000       0.00000000       0.00000000 </v>
   <v name="genvec1">      0.05555556       0.00000000       0.00000000 </v>
   <v name="genvec2">      0.00000000       0.05555556       0.00000000 </v>
   <v name="genvec3">      0.00000000       0.00000000       0.05555556 </v>
   <v name="shift">      0.50000000       0.50000000       0.50000000 </v>
  </generation>
  <varray name="kpointlist" >
   <v>       0.02777778       0.02777778       0.02777778 </v>
   <v>       0.08333333       0.02777778       0.02777778 </v>
   <v>       0.13888889       0.02777778       0.02777778 </v>
   <v>       0.19444444       0.02777778       0.02777778 </v>
   <v>       0.25000000       0.02777778       0.02777778 </v>
   <v>       0.30555556       0.02777778       0.02777778 </v>
   <v>       0.36111111       0.02777778       0.02777778 </v>
   <v>       0.41666667       0.02777778       0.02777778 </v>
   <v>       0.47222222       0.02777778       0.02777778 </v>
   <v>      -0.02777778       0.02777778       0.02777778 </v>
   <v>       0.08333333       0.08333333       0.02777778 </v>
   <v>       0.13888889       0.08333333       0.02777778 </v>
   <v>       0.19444444       0.08333333       0.02777778 </v>
   <v>       0.25000000       0.08333333       0.02777778 </v>
   <v>       0.30555556       0.08333333       0.02777778 </v>
   <v>       0.36111111       0.08333333       0.02777778 </v>
   <v>       0.41666667       0.08333333       0.02777778 </v>
   <v>      -0.08333333       0.08333333       0.02777778 </v>
   <v>       0.13888889       0.13888889       0.02777778 </v>
   <v>       0.19444444       0.13888889       0.02777778 </v>
   <v>       0.25000000       0.13888889       0.02777778 </v>
   <v>       0.30555556       0.13888889       0.02777778 </v>
   <v>       0.36111111       0.13888889       0.02777778 </v>
   <v>       0.41666667       0.13888889       0.02777778 </v>
   <v>      -0.13888889       0.13888889       0.02777778 </v>
   <v>      -0.08333333       0.13888889       0.02777778 </v>
   <v>       0.19444444       0.19444444       0.02777778 </v>
   <v>       0.25000000       0.19444444       0.02777778 </v>
   <v>       0.30555556       0.19444444       0.02777778 </v>
   <v>       0.36111111       0.19444444       0.02777778 </v>
   <v>      -0.19444444       0.19444444       0.02777778 </v>
   <v>      -0.13888889       0.19444444       0.02777778 </v>
   <v>       0.25000000       0.25000000       0.02777778 </v>
   <v>       0.30555556       0.25000000       0.02777778 </v>
   <v>       0.36111111       0.25000000       0.02777778 </v>
   <v>      -0.25000000       0.25000000       0.02777778 </v>
   <v>      -0.19444444       0.25000000       0.02777778 </v>
   <v>      -0.13888889       0.25000000       0.02777778 </v>
   <v>       0.30555556       0.30555556       0.02777778 </v>
   <v>      -0.30555556       0.30555556       0.02777778 </v>
   <v>      -0.25000000       0.30555556       0.02777778 </v>
   <v>      -0.19444444       0.30555556       0.02777778 </v>
   <v>      -0.36111111       0.36111111       0.02777778 </v>
   <v>      -0.30555556       0.36111111       0.02777778 </v>
   <v>      -0.25000000       0.36111111       0.02777778 </v>
   <v>      -0.19444444       0.36111111       0.02777778 </v>
   <v>      -0.41666667       0.41666667       0.02777778 </v>
   <v>      -0.36111111       0.41666667       0.02777778 </v>
   <v>      -0.30555556       0.41666667       0.02777778 </v>
   <v>      -0.25000000       0.41666667       0.02777778 </v>
   <v>      -0.47222222       0.47222222       0.02777778 </v>
   <v>      -0.41666667       0.47222222       0.02777778 </v>
   <v>      -0.36111111       0.47222222       0.02777778 </v>
   <v>      -0.30555556       0.47222222       0.02777778 </v>
   <v>      -0.25000000       0.47222222       0.02777778 </v>
   <v>      -0.47222222      -0.47222222       0.02777778 </v>
   <v>      -0.41666667      -0.47222222       0.02777778 </v>
   <v>      -0.36111111      -0.47222222       0.02777778 </v>
   <v>      -0.30555556      -0.47222222       0.02777778 </v>
   <v>      -0.41666667      -0.41666667       0.02777778 </v>
   <v>      -0.36111111      -0.41666667       0.02777778 </v>
   <v>      -0.30555556      -0.41666667       0.02777778 </v>
   <v>      -0.36111111      -0.36111111       0.02777778 </v>
   <v>       0.08333333       0.08333333       0.08333333 </v>
   <v>       0.13888889       0.08333333       0.08333333 </v>
   <v>       0.19444444       0.08333333       0.08333333 </v>
   <v>       0.25000000       0.08333333       0.08333333 </v>
   <v>       0.30555556       0.08333333       0.08333333 </v>
   <v>       0.36111111       0.08333333       0.08333333 </v>
   <v>       0.41666667       0.08333333       0.08333333 </v>
   <v>      -0.08333333       0.08333333       0.08333333 </v>
   <v>       0.13888889       0.13888889       0.08333333 </v>
   <v>       0.19444444       0.13888889       0.08333333 </v>
   <v>       0.25000000       0.13888889       0.08333333 </v>
   <v>       0.30555556       0.13888889       0.08333333 </v>
   <v>       0.36111111       0.13888889       0.08333333 </v>
   <v>      -0.13888889       0.13888889       0.08333333 </v>
   <v>       0.19444444       0.19444444       0.08333333 </v>
   <v>       0.25000000       0.19444444       0.08333333 </v>
   <v>       0.30555556       0.19444444       0.08333333 </v>
   <v>       0.36111111       0.19444444       0.08333333 </v>
   <v>      -0.19444444       0.19444444       0.08333333 </v>
   <v>      -0.13888889       0.19444444       0.08333333 </v>
   <v>       0.25000000       0.25000000       0.08333333 </v>
   <v>       0.30555556       0.25000000       0.08333333 </v>
   <v>      -0.25000000       0.25000000       0.08333333 </v>
   <v>      -0.19444444       0.25000000       0.08333333 </v>
   <v>       0.30555556       0.30555556       0.08333333 </v>
   <v>      -0.30555556       0.30555556       0.08333333 </v>
   <v>      -0.25000000       0.30555556       0.08333333 </v>
   <v>      -0.19444444       0.30555556       0.08333333 </v>
   <v>      -0.36111111       0.36111111       0.08333333 </v>
   <v>      -0.30555556       0.36111111       0.08333333 </v>
   <v>      -0.25000000       0.36111111       0.08333333 </v>
   <v>      -0.41666667       0.41666667       0.08333333 </v>
   <v>      -0.36111111       0.41666667       0.08333333 </v>
   <v>      -0.30555556       0.41666667       0.08333333 </v>
   <v>      -0.25000000       0.41666667       0.08333333 </v>
   <v>      -0.47222222       0.47222222       0.08333333 </v>
   <v>      -0.41666667       0.47222222       0.08333333 </v>
   <v>      -0.36111111       0.47222222       0.08333333 </v>
   <v>      -0.30555556       0.47222222       0.08333333 </v>
   <v>      -0.47222222      -0.47222222       0.08333333 </v>
   <v>      -0.41666667      -0.47222222       0.08333333 </v>
   <v>      -0.36111111      -0.47222222       0.08333333 </v>
   <v>      -0.30555556      -0.47222222       0.08333333 </v>
   <v>      -0.41666667      -0.41666667       0.08333333 </v>
   <v>      -0.36111111      -0.41666667       0.08333333 </v>
   <v>      -0.36111111      -0.36111111       0.08333333 </v>
   <v>       0.13888889       0.13888889       0.13888889 </v>
   <v>       0.19444444       0.13888889       0.13888889 </v>
   <v>       0.25000000       0.13888889       0.13888889 </v>
   <v>       0.30555556       0.13888889       0.13888889 </v>
   <v>       0.36111111       0.13888889       0.13888889 </v>
   <v>      -0.13888889       0.13888889       0.13888889 </v>
   <v>       0.19444444       0.19444444       0.13888889 </v>
   <v>       0.25000000       0.19444444       0.13888889 </v>
   <v>       0.30555556       0.19444444       0.13888889 </v>
   <v>      -0.19444444       0.19444444       0.13888889 </v>
   <v>       0.25000000       0.25000000       0.13888889 </v>
   <v>       0.30555556       0.25000000       0.13888889 </v>
   <v>      -0.25000000       0.25000000       0.13888889 </v>
   <v>      -0.19444444       0.25000000       0.13888889 </v>
   <v>      -0.30555556       0.30555556       0.13888889 </v>
   <v>      -0.25000000       0.30555556       0.13888889 </v>
   <v>      -0.36111111       0.36111111       0.13888889 </v>
   <v>      -0.30555556       0.36111111       0.13888889 </v>
   <v>      -0.25000000       0.36111111       0.13888889 </v>
   <v>      -0.41666667       0.41666667       0.13888889 </v>
   <v>      -0.36111111       0.41666667       0.13888889 </v>
   <v>      -0.30555556       0.41666667       0.13888889 </v>
   <v>      -0.47222222       0.47222222       0.13888889 </v>
   <v>      -0.41666667       0.47222222       0.13888889 </v>
   <v>      -0.36111111       0.47222222       0.13888889 </v>
   <v>      -0.30555556       0.47222222       0.13888889 </v>
   <v>      -0.47222222      -0.47222222       0.13888889 </v>
   <v>      -0.41666667      -0.47222222       0.13888889 </v>
   <v>      -0.36111111      -0.47222222       0.13888889 </v>
   <v>      -0.41666667      -0.41666667       0.13888889 </v>
   <v>      -0.36111111      -0.41666667       0.13888889 </v>
   <v>       0.19444444       0.19444444       0.19444444 </v>
   <v>       0.25000000       0.19444444       0.19444444 </v>
   <v>       0.30555556       0.19444444       0.19444444 </v>
   <v>      -0.19444444       0.19444444       0.19444444 </v>
   <v>       0.25000000       0.25000000       0.19444444 </v>
   <v>      -0.25000000       0.25000000       0.19444444 </v>
   <v>      -0.30555556       0.30555556       0.19444444 </v>
   <v>      -0.25000000       0.30555556       0.19444444 </v>
   <v>      -0.36111111       0.36111111       0.19444444 </v>
   <v>      -0.30555556       0.36111111       0.19444444 </v>
   <v>      -0.41666667       0.41666667       0.19444444 </v>
   <v>      -0.36111111       0.41666667       0.19444444 </v>
   <v>      -0.30555556       0.41666667       0.19444444 </v>
   <v>      -0.47222222       0.47222222       0.19444444 </v>
   <v>      -0.41666667       0.47222222       0.19444444 </v>
   <v>      -0.36111111       0.47222222       0.19444444 </v>
   <v>      -0.47222222      -0.47222222       0.19444444 </v>
   <v>      -0.41666667      -0.47222222       0.19444444 </v>
   <v>      -0.36111111      -0.47222222       0.19444444 </v>
   <v>      -0.41666667      -0.41666667       0.19444444 </v>
   <v>       0.25000000       0.25000000       0.25000000 </v>
   <v>      -0.25000000       0.25000000       0.25000000 </v>
   <v>      -0.30555556       0.30555556       0.25000000 </v>
   <v>      -0.36111111       0.36111111       0.25000000 </v>
   <v>      -0.30555556       0.36111111       0.25000000 </v>
   <v>      -0.41666667       0.41666667       0.25000000 </v>
   <v>      -0.36111111       0.41666667       0.25000000 </v>
   <v>      -0.47222222       0.47222222       0.25000000 </v>
   <v>      -0.41666667       0.47222222       0.25000000 </v>
   <v>      -0.36111111       0.47222222       0.25000000 </v>
   <v>      -0.47222222      -0.47222222       0.25000000 </v>
   <v>      -0.41666667      -0.47222222       0.25000000 </v>
   <v>      -0.41666667      -0.41666667       0.25000000 </v>
   <v>      -0.30555556       0.30555556       0.30555556 </v>
   <v>      -0.36111111       0.36111111       0.30555556 </v>
   <v>      -0.41666667       0.41666667       0.30555556 </v>
   <v>      -0.36111111       0.41666667       0.30555556 </v>
   <v>      -0.47222222       0.47222222       0.30555556 </v>
   <v>      -0.41666667       0.47222222       0.30555556 </v>
   <v>      -0.47222222      -0.47222222       0.30555556 </v>
   <v>      -0.41666667      -0.47222222       0.30555556 </v>
   <v>      -0.36111111       0.36111111       0.36111111 </v>
   <v>      -0.41666667       0.41666667       0.36111111 </v>
   <v>      -0.47222222       0.47222222       0.36111111 </v>
   <v>      -0.41666667       0.47222222       0.36111111 </v>
   <v>      -0.47222222      -0.47222222       0.36111111 </v>
   <v>      -0.41666667       0.41666667       0.41666667 </v>
   <v>      -0.47222222       0.47222222       0.41666667 </v>
   <v>      -0.47222222      -0.47222222       0.41666667 </v>
   <v>      -0.47222222       0.47222222       0.47222222 </v>
  </varray>
  <varray name="weights" >
   <v>       0.00137174 </v>
   <v>       0.00411523 </v>
   <v>       0.00411523 </v>
   <v>       0.00411523 </v>
   <v>       0.00411523 </v>
   <v>       0.00411523 </v>
   <v>       0.00411523 </v>
   <v>       0.00411523 </v>
   <v>       0.00205761 </v>
   <v>       0.00102881 </v>
   <v>       0.00411523 </v>
   <v>       0.00823045 </v>
   <v>       0.00823045 </v>
   <v>       0.00823045 </v>
   <v>       0.00823045 </v>
   <v>       0.00823045 </v>
   <v>       0.00823045 </v>
   <v>       0.00411523 </v>
   <v>       0.00411523 </v>
   <v>       0.00823045 </v>
   <v>       0.00823045 </v>
   <v>       0.00823045 </v>
   <v>       0.00823045 </v>
   <v>       0.00411523 </v>
   <v>       0.00411523 </v>
   <v>       0.00411523 </v>
   <v>       0.00411523 </v>
   <v>       0.00823045 </v>
   <v>       0.00823045 </v>
   <v>       0.00823045 </v>
   <v>       0.00411523 </v>
   <v>       0.00823045 </v>
   <v>       0.00411523 </v>
   <v>       0.00823045 </v>
   <v>       0.00411523 </v>
   <v>       0.00411523 </v>
   <v>       0.00823045 </v>
   <v>       0.00411523 </v>
   <v>       0.00411523 </v>
   <v>       0.00411523 </v>
   <v>       0.00823045 </v>
   <v>       0.00823045 </v>
   <v>       0.00411523 </v>
   <v>       0.00823045 </v>
   <v>       0.00823045 </v>
   <v>       0.00411523 </v>
   <v>       0.00411523 </v>
   <v>       0.00823045 </v>
   <v>       0.00823045 </v>
   <v>       0.00823045 </v>
   <v>       0.00411523 </v>
   <v>       0.00823045 </v>
   <v>       0.00823045 </v>
   <v>       0.00823045 </v>
   <v>       0.00411523 </v>
   <v>       0.00411523 </v>
   <v>       0.00823045 </v>
   <v>       0.00823045 </v>
   <v>       0.00823045 </v>
   <v>       0.00411523 </v>
   <v>       0.00823045 </v>
   <v>       0.00411523 </v>
   <v>       0.00411523 </v>
   <v>       0.00137174 </v>
   <v>       0.00411523 </v>
   <v>       0.00411523 </v>
   <v>       0.00411523 </v>
   <v>       0.00411523 </v>
   <v>       0.00411523 </v>
   <v>       0.00205761 </v>
   <v>       0.00102881 </v>
   <v>       0.00411523 </v>
   <v>       0.00823045 </v>
   <v>       0.00823045 </v>
   <v>       0.00823045 </v>
   <v>       0.00823045 </v>
   <v>       0.00411523 </v>
   <v>       0.00411523 </v>
   <v>       0.00823045 </v>
   <v>       0.00823045 </v>
   <v>       0.00411523 </v>
   <v>       0.00411523 </v>
   <v>       0.00411523 </v>
   <v>       0.00411523 </v>
   <v>       0.00823045 </v>
   <v>       0.00411523 </v>
   <v>       0.00823045 </v>
   <v>       0.00137174 </v>
   <v>       0.00411523 </v>
   <v>       0.00823045 </v>
   <v>       0.00411523 </v>
   <v>       0.00411523 </v>
   <v>       0.00823045 </v>
   <v>       0.00823045 </v>
   <v>       0.00411523 </v>
   <v>       0.00823045 </v>
   <v>       0.00823045 </v>
   <v>       0.00411523 </v>
   <v>       0.00411523 </v>
   <v>       0.00823045 </v>
   <v>       0.00823045 </v>
   <v>       0.00823045 </v>
   <v>       0.00411523 </v>
   <v>       0.00823045 </v>
   <v>       0.00823045 </v>
   <v>       0.00411523 </v>
   <v>       0.00411523 </v>
   <v>       0.00823045 </v>
   <v>       0.00137174 </v>
   <v>       0.00137174 </v>
   <v>       0.00411523 </v>
   <v>       0.00411523 </v>
   <v>       0.00411523 </v>
   <v>       0.00205761 </v>
   <v>       0.00102881 </v>
   <v>       0.00411523 </v>
   <v>       0.00823045 </v>
   <v>       0.00823045 </v>
   <v>       0.00411523 </v>
   <v>       0.00411523 </v>
   <v>       0.00411523 </v>
   <v>       0.00411523 </v>
   <v>       0.00411523 </v>
   <v>       0.00411523 </v>
   <v>       0.00823045 </v>
   <v>       0.00411523 </v>
   <v>       0.00823045 </v>
   <v>       0.00411523 </v>
   <v>       0.00411523 </v>
   <v>       0.00823045 </v>
   <v>       0.00823045 </v>
   <v>       0.00411523 </v>
   <v>       0.00823045 </v>
   <v>       0.00823045 </v>
   <v>       0.00411523 </v>
   <v>       0.00411523 </v>
   <v>       0.00823045 </v>
   <v>       0.00823045 </v>
   <v>       0.00411523 </v>
   <v>       0.00411523 </v>
   <v>       0.00137174 </v>
   <v>       0.00411523 </v>
   <v>       0.00205761 </v>
   <v>       0.00102881 </v>
   <v>       0.00411523 </v>
   <v>       0.00411523 </v>
   <v>       0.00411523 </v>
   <v>       0.00411523 </v>
   <v>       0.00411523 </v>
   <v>       0.00823045 </v>
   <v>       0.00411523 </v>
   <v>       0.00823045 </v>
   <v>       0.00411523 </v>
   <v>       0.00411523 </v>
   <v>       0.00823045 </v>
   <v>       0.00823045 </v>
   <v>       0.00411523 </v>
   <v>       0.00823045 </v>
   <v>       0.00411523 </v>
   <v>       0.00411523 </v>
   <v>       0.00034294 </v>
   <v>       0.00102881 </v>
   <v>       0.00411523 </v>
   <v>       0.00411523 </v>
   <v>       0.00411523 </v>
   <v>       0.00411523 </v>
   <v>       0.00823045 </v>
   <v>       0.00411523 </v>
   <v>       0.00823045 </v>
   <v>       0.00411523 </v>
   <v>       0.00411523 </v>
   <v>       0.00823045 </v>
   <v>       0.00137174 </v>
   <v>       0.00102881 </v>
   <v>       0.00411523 </v>
   <v>       0.00411523 </v>
   <v>       0.00411523 </v>
   <v>       0.00411523 </v>
   <v>       0.00823045 </v>
   <v>       0.00411523 </v>
   <v>       0.00411523 </v>
   <v>       0.00102881 </v>
   <v>       0.00411523 </v>
   <v>       0.00411523 </v>
   <v>       0.00411523 </v>
   <v>       0.00411523 </v>
   <v>       0.00102881 </v>
   <v>       0.00411523 </v>
   <v>       0.00137174 </v>
   <v>       0.00102881 </v>
  </varray>
 </kpoints>
 <parameters>
  <separator name="general" >
   <i type="string" name="SYSTEM">unknown system</i>
   <i type="logical" name="LCOMPAT"> F  </i>
  </separator>
  <separator name="electronic" >
   <i type="string" name="PREC">accura</i>
   <i name="ENMAX">    350.00000000</i>
   <i name="ENAUG">    322.06900000</i>
   <i name="EDIFF">      0.00000100</i>
   <i type="int" name="IALGO">    38</i>
   <i type="int" name="IWAVPR">    11</i>
   <i type="int" name="NBANDS">     8</i>
   <i type="int" name="NBANDSLOW">    -1</i>
   <i type="int" name="NBANDSHIGH">    -1</i>
   <i name="NELECT">      4.00000000</i>
   <i type="int" name="TURBO">     0</i>
   <i type="int" name="IRESTART">     0</i>
   <i type="int" name="NREBOOT">     0</i>
   <i type="int" name="NMIN">     0</i>
   <i name="EREF">      0.00000000</i>
   <separator name="electronic smearing" >
    <i type="int" name="ISMEAR">     0</i>
    <i name="SIGMA">      0.05000000</i>
    <i name="KSPACING">      0.50000000</i>
    <i type="logical" name="KGAMMA"> T  </i>
    <i type="logical" name="KBLOWUP"> T  </i>
   </separator>
   <separator name="electronic projectors" >
    <i type="logical" name="LREAL"> F  </i>
    <v name="ROPT">      0.00000000</v>
    <i type="int" name="LMAXPAW">  -100</i>
    <i type="int" name="LMAXMIX">     2</i>
    <i type="logical" name="NLSPLINE"> F  </i>
   </separator>
   <separator name="electronic startup" >
    <i type="int" name="ISTART">     0</i>
    <i type="int" name="ICHARG">     2</i>
    <i type="int" name="INIWAV">     1</i>
   </separator>
   <separator name="electronic spin" >
    <i type="int" name="ISPIN">     1</i>
    <i type="logical" name="LNONCOLLINEAR"> F  </i>
    <v name="MAGMOM">      1.00000000</v>
    <i name="NUPDOWN">     -1.00000000</i>
    <i type="logical" name="LSORBIT"> F  </i>
    <v name="SAXIS">      0.00000000      0.00000000      1.00000000</v>
    <i type="logical" name="LSPIRAL"> F  </i>
    <v name="QSPIRAL">      0.00000000      0.00000000      0.00000000</v>
    <i type="logical" name="LZEROZ"> F  </i>
   </separator>
   <separator name="electronic exchange-correlation" >
    <i type="logical" name="LASPH"> T  </i>
    <i type="logical" name="LMETAGGA"> F  </i>
   </separator>
   <separator name="electronic convergence" >
    <i type="int" name="NELM">    90</i>
    <i type="int" name="NELMDL">    -5</i>
    <i type="int" name="NELMIN">     6</i>
    <i name="ENINI">    350.00000000</i>
    <separator name="electronic convergence detail" >
     <i type="logical" name="LDIAG"> T  </i>
     <i type="logical" name="LSUBROT"> F  </i>
     <i name="WEIMIN">      0.00100000</i>
     <i name="EBREAK">      0.00000003</i>
     <i name="DEPER">      0.30000000</i>
     <i type="int" name="NRMM">     4</i>
     <i name="TIME">      0.40000000</i>
    </separator>
   </separator>
   <separator name="electronic mixer" >
    <i name="AMIX">      0.40000000</i>
    <i name="BMIX">      1.00000000</i>
    <i name="AMIN">      0.10000000</i>
    <i name="AMIX_MAG">      1.60000000</i>
    <i name="BMIX_MAG">      1.00000000</i>
    <separator name="electronic mixer details" >
     <i type="int" name="IMIX">     4</i>
     <i type="logical" name="MIXFIRST"> F  </i>
     <i type="int" name="MAXMIX">   -45</i>
     <i name="WC">    100.00000000</i>
     <i type="int" name="INIMIX">     1</i>
     <i type="int" name="MIXPRE">     1</i>
     <i type="int" name="MREMOVE">     5</i>
    </separator>
   </separator>
   <separator name="electronic dipolcorrection" >
    <i type="logical" name="LDIPOL"> F  </i>
    <i type="logical" name="LMONO"> F  </i>
    <i type="int" name="IDIPOL">     0</i>
    <i name="EPSILON">      1.00000000</i>
    <v name="DIPOL">   -100.00000000   -100.00000000   -100.00000000</v>
    <i name="EFIELD">      0.00000000</i>
   </separator>
  </separator>
  <separator name="grids" >
   <i type="int" name="NGX">    16</i>
   <i type="int" name="NGY">    16</i>
   <i type="int" name="NGZ">    16</i>
   <i type="int" name="NGXF">    32</i>
   <i type="int" name="NGYF">    32</i>
   <i type="int" name="NGZF">    32</i>
   <i type="logical" name="ADDGRID"> T  </i>
  </separator>
  <separator name="ionic" >
   <i type="int" name="NSW">   100</i>
   <i type="int" name="IBRION">     2</i>
   <i type="int" name="MDALGO">     0</i>
   <i type="int" name="ISIF">     3</i>
   <i name="PSTRESS">      0.00000000</i>
   <i name="EDIFFG">     -0.00200000</i>
   <i type="int" name="NFREE">     1</i>
   <i name="POTIM">      0.50000000</i>
   <i name="SMASS">     -3.00000000</i>
   <i name="SCALEE">      1.00000000</i>
  </separator>
  <separator name="ionic md" >
   <i name="TEBEG">      0.00010000</i>
   <i name="TEEND">      0.00010000</i>
   <i type="int" name="NBLOCK">     1</i>
   <i type="int" name="KBLOCK">   100</i>
   <i type="int" name="NPACO">   256</i>
   <i name="APACO">     16.00000000</i>
  </separator>
  <separator name="symmetry" >
   <i type="int" name="ISYM">     2</i>
   <i name="SYMPREC">      0.00001000</i>
  </separator>
  <separator name="dos" >
   <i type="int" name="LORBIT">     0</i>
   <v name="RWIGS">     -1.00000000</v>
   <i type="int" name="NEDOS">   301</i>
   <i name="EMIN">     10.00000000</i>
   <i name="EMAX">    -10.00000000</i>
   <i name="EFERMI">      0.00000000</i>
  </separator>
  <separator name="writing" >
   <i type="int" name="NWRITE">     2</i>
   <i type="logical" name="LWAVE"> F  </i>
   <i type="logical" name="LDOWNSAMPLE"> F  </i>
   <i type="logical" name="LCHARG"> F  </i>
   <i type="logical" name="LPARD"> F  </i>
   <i type="logical" name="LVTOT"> F  </i>
   <i type="logical" name="LVHAR"> F  </i>
   <i type="logical" name="LELF"> F  </i>
   <i type="logical" name="LOPTICS"> F  </i>
   <v name="STM">      0.00000000      0.00000000      0.00000000      0.00000000      0.00000000      0.00000000      0.00000000</v>
  </separator>
  <separator name="performance" >
   <i type="int" name="NPAR">     4</i>
   <i type="int" name="NSIM">     4</i>
   <i type="int" name="NBLK">    -1</i>
   <i type="logical" name="LPLANE"> T  </i>
   <i type="logical" name="LSCALAPACK"> T  </i>
   <i type="logical" name="LSCAAWARE"> F  </i>
   <i type="logical" name="LSCALU"> F  </i>
   <i type="logical" name="LASYNC"> F  </i>
   <i type="logical" name="LORBITALREAL"> F  </i>
  </separator>
  <separator name="miscellaneous" >
   <i type="int" name="IDIOT">     3</i>
   <i type="int" name="PHON_NSTRUCT">    -1</i>
   <i type="logical" name="LMUSIC"> F  </i>
   <v name="POMASS">     28.08500000</v>
   <v name="DARWINR">      0.00000000</v>
   <v name="DARWINV">      1.00000000</v>
   <i type="logical" name="LCORR"> T  </i>
  </separator>
  <i type="logical" name="GGA_COMPAT"> T  </i>
  <i type="logical" name="LBERRY"> F  </i>
  <i type="int" name="ICORELEVEL">     0</i>
  <i type="logical" name="LDAU"> F  </i>
  <i type="int" name="I_CONSTRAINED_M">     0</i>
  <separator name="electronic exchange-correlation" >
   <i type="string" name="GGA">--</i>
   <i type="int" name="VOSKOWN">     0</i>
   <i type="logical" name="LHFCALC"> F  </i>
   <i type="string" name="PRECFOCK"></i>
   <i type="logical" name="LSYMGRAD"> F  </i>
   <i type="logical" name="LHFONE"> F  </i>
   <i type="logical" name="LRHFCALC"> F  </i>
   <i type="logical" name="LTHOMAS"> F  </i>
   <i type="logical" name="LMODELHF"> F  </i>
   <i type="logical" name="LFOCKACE"> F  </i>
   <i name="ENCUT4O">     -1.00000000</i>
   <i type="int" name="EXXOEP">     0</i>
   <i type="int" name="FOURORBIT">     0</i>
   <i name="AEXX">      0.00000000</i>
   <i name="HFALPHA">      0.00000000</i>
   <i name="MCALPHA">      0.00000000</i>
   <i name="ALDAX">      1.00000000</i>
   <i name="AGGAX">      1.00000000</i>
   <i name="ALDAC">      1.00000000</i>
   <i name="AGGAC">      1.00000000</i>
   <i type="int" name="NKREDX">     1</i>
   <i type="int" name="NKREDY">     1</i>
   <i type="int" name="NKREDZ">     1</i>
   <i type="logical" name="SHIFTRED"> F  </i>
   <i type="logical" name="ODDONLY"> F  </i>
   <i type="logical" name="EVENONLY"> F  </i>
   <i type="int" name="LMAXFOCK">     0</i>
   <i type="int" name="NMAXFOCKAE">     0</i>
   <i type="logical" name="LFOCKAEDFT"> F  </i>
   <i name="HFSCREEN">      0.00000000</i>
   <i name="HFSCREENC">      0.00000000</i>
   <i type="int" name="NBANDSGWLOW">     0</i>
  </separator>
  <separator name="vdW DFT" >
   <i type="logical" name="LUSE_VDW"> F  </i>
   <i name="Zab_VDW">     -0.84910000</i>
   <i name="PARAM1">      0.12340000</i>
   <i name="PARAM2">      1.00000000</i>
   <i name="PARAM3">      0.00000000</i>
  </separator>
  <separator name="model GW" >
   <i type="int" name="MODEL_GW">     0</i>
   <i name="MODEL_EPS0">      8.31779867</i>
   <i name="MODEL_ALPHA">      1.00000000</i>
  </separator>
  <separator name="linear response parameters" >
   <i type="logical" name="LEPSILON"> F  </i>
   <i type="logical" name="LRPA"> F  </i>
   <i type="logical" name="LNABLA"> F  </i>
   <i type="logical" name="LVEL"> F  </i>
   <i type="int" name="KINTER">     0</i>
   <i name="CSHIFT">      0.10000000</i>
   <i name="OMEGAMAX">     -1.00000000</i>
   <i name="DEG_THRESHOLD">      0.00200000</i>
   <i name="RTIME">     -0.10000000</i>
   <i name="WPLASMAI">      0.00000000</i>
   <v name="DFIELD">      0.00000000      0.00000000      0.00000000</v>
   <v name="WPLASMA">      0.00000000      0.00000000      0.00000000      0.00000000      0.00000000      0.00000000      0.00000000      0.00000000      0.00000000</v>
  </separator>
  <separator name="orbital magnetization" >
   <i type="logical" name="NUCIND"> F  </i>
   <v name="MAGPOS">      0.00000000      0.00000000      0.00000000</v>
   <i type="logical" name="LNICSALL"> T  </i>
   <i type="logical" name="ORBITALMAG"> F  </i>
   <i type="logical" name="LMAGBLOCH"> F  </i>
   <i type="logical" name="LCHIMAG"> F  </i>
   <i type="logical" name="LGAUGE"> T  </i>
   <i type="int" name="MAGATOM">     0</i>
   <v name="MAGDIPOL">      0.00000000      0.00000000      0.00000000</v>
   <v name="AVECCONST">      0.00000000      0.00000000      0.00000000</v>
  </separator>
  <separator name="response functions" >
   <i type="logical" name="LFINITE_TEMPERATURE"> F  </i>
   <i type="logical" name="LADDER"> F  </i>
   <i type="logical" name="LRPAFORCE"> F  </i>
   <i type="logical" name="LFXC"> F  </i>
   <i type="logical" name="LHARTREE"> T  </i>
   <i type="int" name="IBSE">     0</i>
   <v type="int" name="KPOINT">    -1     0     0     0</v>
   <i type="logical" name="LTCTC"> F  </i>
   <i type="logical" name="LTCTE"> F  </i>
   <i type="logical" name="LTETE"> F  </i>
   <i type="logical" name="LTRIPLET"> F  </i>
   <i type="logical" name="LFXCEPS"> F  </i>
   <i type="logical" name="LFXHEG"> F  </i>
   <i type="int" name="NATURALO">     2</i>
   <i type="logical" name="LHOLEGF"> F  </i>
   <i type="logical" name="L2ORDER"> F  </i>
   <i type="logical" name="LDMP1"> F  </i>
   <i type="logical" name="LMP2LT"> F  </i>
   <i type="logical" name="LSMP2LT"> F  </i>
   <i type="logical" name="LGWLF"> F  </i>
   <i name="ENCUTGW">     -2.00000000</i>
   <i name="ENCUTGWSOFT">     -2.00000000</i>
   <i name="ENCUTLF">     -1.00000000</i>
   <i type="logical" name="LESF_SPLINES"> F  </i>
   <i type="int" name="LMAXMP2">    -1</i>
   <i name="SCISSOR">      0.00000000</i>
   <i type="int" name="NOMEGA">     0</i>
   <i type="int" name="NOMEGAR">     0</i>
   <i type="int" name="NBANDSGW">    -1</i>
   <i type="int" name="NBANDSO">    -1</i>
   <i type="int" name="NBANDSV">    -1</i>
   <i type="int" name="NELM">    90</i>
   <i type="int" name="NELMHF">     1</i>
   <i type="int" name="DIM">     3</i>
   <i type="int" name="IESPILON">     4</i>
   <i type="int" name="ANTIRES">     0</i>
   <i name="OMEGAMAX">    -30.00000000</i>
   <i name="OMEGAMIN">    -30.00000000</i>
   <i name="OMEGATL">   -200.00000000</i>
   <i type="int" name="OMEGAGRID">     0</i>
   <i name="CSHIFT">     -0.10000000</i>
   <i type="logical" name="LSELFENERGY"> F  </i>
   <i type="logical" name="LSPECTRAL"> F  </i>
   <i type="logical" name="LSPECTRALGW"> F  </i>
   <i type="logical" name="LSINGLES"> F  </i>
   <i type="logical" name="LFERMIGW"> F  </i>
   <i type="logical" name="ODDONLYGW"> F  </i>
   <i type="logical" name="EVENONLYGW"> F  </i>
   <i type="int" name="NKREDLFX">     1</i>
   <i type="int" name="NKREDLFY">     1</i>
   <i type="int" name="NKREDLFZ">     1</i>
   <i type="int" name="MAXMEM">  2800</i>
   <i type="int" name="TELESCOPE">     0</i>
   <i type="int" name="NTAUPAR">    -1</i>
   <i type="int" name="NOMEGAPAR">    -1</i>
   <i name="DAMP_NEWTON">      0.80000001</i>
   <i name="LAMBDA">      1.00000000</i>
  </separator>
  <separator name="External order field" >
   <i name="OFIELD_KAPPA">      0.00000000</i>
   <v name="OFIELD_K">      0.00000000      0.00000000      0.00000000</v>
   <i name="OFIELD_Q6_NEAR">      0.00000000</i>
   <i name="OFIELD_Q6_FAR">      0.00000000</i>
   <i name="OFIELD_A">      0.00000000</i>
  </separator>
 </parameters>
 <atominfo>
  <atoms>       1 </atoms>
  <types>       1 </types>
  <array name="atoms" >
   <dimension dim="1">ion</dimension>
   <field type="string">element</field>
   <field type="int">atomtype</field>
   <set>
    <rc><c>Si</c><c>   1</c></rc>
   </set>
  </array>
  <array name="atomtypes" >
   <dimension dim="1">type</dimension>
   <field type="int">atomspertype</field>
   <field type="string">element</field>
   <field>mass</field>
   <field>valence</field>
   <field type="string">pseudopotential</field>
   <set>
    <rc><c>   1</c><c>Si</c><c>     28.08500000</c><c>      4.00000000</c><c>  PAW_PBE Si 05Jan2001                  </c></rc>
   </set>
  </array>
 </atominfo>
 <structure name="initialpos" >
  <crystal>
   <varray name="basis" >
    <v>       1.51332563       1.51332563       1.51332563 </v>
    <v>       1.51332563      -1.51332563      -1.51332563 </v>
    <v>      -1.51332563       1.51332563      -1.51332563 </v>
   </varray>
   <i name="volume">     13.86299778 </i>
   <varray name="rec_basis" >
    <v>       0.33039816       0.33039816       0.00000000 </v>
    <v>       0.33039816       0.00000000      -0.33039816 </v>
    <v>       0.00000000       0.33039816      -0.33039816 </v>
   </varray>
  </crystal>
  <varray name="positions" >
   <v>       0.00000000       0.00000000       0.00000000 </v>
  </varray>
 </structure>
 <calculation>
  <scstep>
   <time name="dav">    0.61    0.61</time>
   <time name="total">    0.79    0.79</time>
   <energy>
    <i name="alphaZ">      2.42827211 </i>
    <i name="ewald">   -138.51397499 </i>
    <i name="hartreedc">     -0.48179554 </i>
    <i name="XCdc">     -8.69332224 </i>
    <i name="pawpsdc">     88.12379961 </i>
    <i name="pawaedc">    -70.53051779 </i>
    <i name="eentropy">     -0.00047406 </i>
    <i name="bandstr">     21.26154026 </i>
    <i name="atom">    103.06562707 </i>
    <i name="e_fr_energy">     -3.34084557 </i>
    <i name="e_wo_entrp">     -3.34037151 </i>
    <i name="e_0_energy">     -3.34060854 </i>
   </energy>
  </scstep>
  <scstep>
   <time name="dav">    0.82    0.84</time>
   <time name="total">    0.82    0.84</time>
   <energy>
    <i name="e_fr_energy">     -4.90250936 </i>
    <i name="e_wo_entrp">     -4.90174720 </i>
    <i name="e_0_energy">     -4.90212828 </i>
   </energy>
  </scstep>
  <scstep>
   <time name="dav">    0.57    0.58</time>
   <time name="total">    0.57    0.58</time>
   <energy>
    <i name="e_fr_energy">     -4.90935334 </i>
    <i name="e_wo_entrp">     -4.90858579 </i>
    <i name="e_0_energy">     -4.90896957 </i>
   </energy>
  </scstep>
  <scstep>
   <time name="dav">    0.87    0.88</time>
   <time name="total">    0.87    0.88</time>
   <energy>
    <i name="e_fr_energy">     -4.90935835 </i>
    <i name="e_wo_entrp">     -4.90859080 </i>
    <i name="e_0_energy">     -4.90897457 </i>
   </energy>
  </scstep>
  <scstep>
   <time name="dav">    0.56    0.57</time>
   <time name="total">    0.59    0.60</time>
   <energy>
    <i name="e_fr_energy">     -4.90935835 </i>
    <i name="e_wo_entrp">     -4.90859080 </i>
    <i name="e_0_energy">     -4.90897457 </i>
   </energy>
  </scstep>
  <scstep>
   <time name="dav">    0.53    0.53</time>
   <time name="total">    0.72    0.73</time>
   <energy>
    <i name="e_fr_energy">     -4.89786077 </i>
    <i name="e_wo_entrp">     -4.89707527 </i>
    <i name="e_0_energy">     -4.89746802 </i>
   </energy>
  </scstep>
  <scstep>
   <time name="dav">    0.55    0.55</time>
   <time name="total">    0.75    0.76</time>
   <energy>
    <i name="e_fr_energy">     -4.89129535 </i>
    <i name="e_wo_entrp">     -4.89049324 </i>
    <i name="e_0_energy">     -4.89089430 </i>
   </energy>
  </scstep>
  <scstep>
   <time name="dav">    0.83    0.83</time>
   <time name="total">    1.02    1.03</time>
   <energy>
    <i name="e_fr_energy">     -4.89127436 </i>
    <i name="e_wo_entrp">     -4.89047206 </i>
    <i name="e_0_energy">     -4.89087321 </i>
   </energy>
  </scstep>
  <scstep>
   <time name="dav">    0.58    0.58</time>
   <time name="total">    0.75    0.77</time>
   <energy>
    <i name="alphaZ">      2.42827211 </i>
    <i name="ewald">   -138.51397499 </i>
    <i name="hartreedc">     -0.35582146 </i>
    <i name="XCdc">     -8.62306033 </i>
    <i name="pawpsdc">    335.34804241 </i>
    <i name="pawaedc">   -317.78239059 </i>
    <i name="eentropy">     -0.00080236 </i>
    <i name="bandstr">     19.54283325 </i>
    <i name="atom">    103.06562707 </i>
    <i name="e_fr_energy">     -4.89127490 </i>
    <i name="e_wo_entrp">     -4.89047254 </i>
    <i name="e_0_energy">     -4.89087372 </i>
   </energy>
  </scstep>
  <structure>
   <crystal>
    <varray name="basis" >
     <v>       1.51332563       1.51332563       1.51332563 </v>
     <v>       1.51332563      -1.51332563      -1.51332563 </v>
     <v>      -1.51332563       1.51332563      -1.51332563 </v>
    </varray>
    <i name="volume">     13.86299778 </i>
    <varray name="rec_basis" >
     <v>       0.33039816       0.33039816       0.00000000 </v>
     <v>       0.33039816       0.00000000      -0.33039816 </v>
     <v>       0.00000000       0.33039816      -0.33039816 </v>
    </varray>
   </crystal>
   <varray name="positions" >
    <v>       0.00000000       0.00000000       0.00000000 </v>
   </varray>
  </structure>
  <varray name="forces" >
   <v>       0.00000000       0.00000000      -0.00000000 </v>
  </varray>
  <varray name="stress" >
   <v>      56.01518742       0.00000000       0.00000000 </v>
   <v>       0.00000000      56.01518742      -0.00000000 </v>
   <v>      -0.00000000       0.00000000      56.01518742 </v>
  </varray>
  <energy>
   <i name="e_fr_energy">     -4.89127490 </i>
   <i name="e_wo_entrp">     -4.89047254 </i>
   <i name="e_0_energy">     -4.89087372 </i>
  </energy>
  <time name="totalsc">    7.88    8.13</time>
 </calculation>
 <calculation>
  <scstep>
   <time name="dav">    0.51    0.51</time>
   <time name="total">    0.71    0.71</time>
   <energy>
    <i name="alphaZ">      2.26560346 </i>
    <i name="ewald">   -135.34922554 </i>
    <i name="hartreedc">     -0.34767068 </i>
    <i name="XCdc">     -8.80462183 </i>
    <i name="pawpsdc">    335.41269073 </i>
    <i name="pawaedc">   -317.84668768 </i>
    <i name="eentropy">     -0.00040818 </i>
    <i name="bandstr">     16.69289663 </i>
    <i name="atom">    103.06562707 </i>
    <i name="e_fr_energy">     -4.91179604 </i>
    <i name="e_wo_entrp">     -4.91138786 </i>
    <i name="e_0_energy">     -4.91159195 </i>
   </energy>
  </scstep>
  <scstep>
   <time name="dav">    0.59    0.59</time>
   <time name="total">    0.78    0.79</time>
   <energy>
    <i name="e_fr_energy">     -4.90641465 </i>
    <i name="e_wo_entrp">     -4.90600388 </i>
    <i name="e_0_energy">     -4.90620926 </i>
   </energy>
  </scstep>
  <scstep>
   <time name="dav">    0.55    0.55</time>
   <time name="total">    0.75    0.76</time>
   <energy>
    <i name="e_fr_energy">     -4.90325142 </i>
    <i name="e_wo_entrp">     -4.90283428 </i>
    <i name="e_0_energy">     -4.90304285 </i>
   </energy>
  </scstep>
  <scstep>
   <time name="dav">    0.65    0.66</time>
   <time name="total">    0.85    0.86</time>
   <energy>
    <i name="e_fr_energy">     -4.90324817 </i>
    <i name="e_wo_entrp">     -4.90283108 </i>
    <i name="e_0_energy">     -4.90303962 </i>
   </energy>
  </scstep>
  <scstep>
   <time name="dav">    0.63    0.63</time>
   <time name="total">    0.83    0.84</time>
   <energy>
    <i name="e_fr_energy">     -4.90323617 </i>
    <i name="e_wo_entrp">     -4.90281909 </i>
    <i name="e_0_energy">     -4.90302763 </i>
   </energy>
  </scstep>
  <scstep>
   <time name="dav">    0.31    0.31</time>
   <time name="total">    0.48    0.49</time>
   <energy>
    <i name="alphaZ">      2.26560346 </i>
    <i name="ewald">   -135.34922554 </i>
    <i name="hartreedc">     -0.45703237 </i>
    <i name="XCdc">     -8.82639649 </i>
    <i name="pawpsdc">    289.16360040 </i>
    <i name="pawaedc">   -271.58267838 </i>
    <i name="eentropy">     -0.00041708 </i>
    <i name="bandstr">     16.81768238 </i>
    <i name="atom">    103.06562707 </i>
    <i name="e_fr_energy">     -4.90323657 </i>
    <i name="e_wo_entrp">     -4.90281949 </i>
    <i name="e_0_energy">     -4.90302803 </i>
   </energy>
  </scstep>
  <structure>
   <crystal>
    <varray name="basis" >
     <v>       1.54871036       1.54871036       1.54871036 </v>
     <v>       1.54871036      -1.54871036      -1.54871036 </v>
     <v>      -1.54871036       1.54871036      -1.54871036 </v>
    </varray>
    <i name="volume">     14.85835074 </i>
    <varray name="rec_basis" >
     <v>       0.32284926       0.32284926       0.00000000 </v>
     <v>       0.32284926       0.00000000      -0.32284926 </v>
     <v>       0.00000000       0.32284926      -0.32284926 </v>
    </varray>
   </crystal>
   <varray name="positions" >
    <v>       0.00000000       0.00000000       0.00000000 </v>
   </varray>
  </structure>
  <varray name="forces" >
   <v>       0.00000000      -0.00000000      -0.00000000 </v>
  </varray>
  <varray name="stress" >
   <v>     -13.76134809      -0.00000000       0.00000000 </v>
   <v>       0.00000000     -13.76134809      -0.00000000 </v>
   <v>      -0.00000000       0.00000000     -13.76134809 </v>
  </varray>
  <energy>
   <i name="e_fr_energy">     -4.90323657 </i>
   <i name="e_wo_entrp">     -4.90281949 </i>
   <i name="e_0_energy">     -4.90302803 </i>
  </energy>
  <time name="totalsc">    5.39    5.62</time>
 </calculation>
 <calculation>
  <scstep>
   <time name="dav">    0.50    0.51</time>
   <time name="total">    0.70    0.71</time>
   <energy>
    <i name="alphaZ">      2.30042697 </i>
    <i name="ewald">   -136.03916552 </i>
    <i name="hartreedc">     -0.45935033 </i>
    <i name="XCdc">     -8.78749948 </i>
    <i name="pawpsdc">    288.92902188 </i>
    <i name="pawaedc">   -271.34811448 </i>
    <i name="eentropy">     -0.00048284 </i>
    <i name="bandstr">     17.43490315 </i>
    <i name="atom">    103.06562707 </i>
    <i name="e_fr_energy">     -4.90463358 </i>
    <i name="e_wo_entrp">     -4.90415075 </i>
    <i name="e_0_energy">     -4.90439217 </i>
   </energy>
  </scstep>
  <scstep>
   <time name="dav">    0.60    0.60</time>
   <time name="total">    0.80    0.81</time>
   <energy>
    <i name="e_fr_energy">     -4.90436438 </i>
    <i name="e_wo_entrp">     -4.90388561 </i>
    <i name="e_0_energy">     -4.90412499 </i>
   </energy>
  </scstep>
  <scstep>
   <time name="dav">    0.61    0.61</time>
   <time name="total">    0.80    0.81</time>
   <energy>
    <i name="e_fr_energy">     -4.90420838 </i>
    <i name="e_wo_entrp">     -4.90373532 </i>
    <i name="e_0_energy">     -4.90397185 </i>
   </energy>
  </scstep>
  <scstep>
   <time name="dav">    0.65    0.65</time>
   <time name="total">    0.85    0.86</time>
   <energy>
    <i name="e_fr_energy">     -4.90420846 </i>
    <i name="e_wo_entrp">     -4.90373537 </i>
    <i name="e_0_energy">     -4.90397192 </i>
   </energy>
  </scstep>
  <scstep>
   <time name="dav">    0.32    0.32</time>
   <time name="total">    0.53    0.54</time>
   <energy>
    <i name="e_fr_energy">     -4.90420917 </i>
    <i name="e_wo_entrp">     -4.90373610 </i>
    <i name="e_0_energy">     -4.90397263 </i>
   </energy>
  </scstep>
  <scstep>
   <time name="dav">    0.37    0.37</time>
   <time name="total">    0.55    0.56</time>
   <energy>
    <i name="alphaZ">      2.30042697 </i>
    <i name="ewald">   -136.03916552 </i>
    <i name="hartreedc">     -0.43234521 </i>
    <i name="XCdc">     -8.78245716 </i>
    <i name="pawpsdc">    298.12353682 </i>
    <i name="pawaedc">   -280.54576013 </i>
    <i name="eentropy">     -0.00047307 </i>
    <i name="bandstr">     17.40640120 </i>
    <i name="atom">    103.06562707 </i>
    <i name="e_fr_energy">     -4.90420903 </i>
    <i name="e_wo_entrp">     -4.90373596 </i>
    <i name="e_0_energy">     -4.90397249 </i>
   </energy>
  </scstep>
  <structure>
   <crystal>
    <varray name="basis" >
     <v>       1.54085588       1.54085588       1.54085588 </v>
     <v>       1.54085588      -1.54085588      -1.54085588 </v>
     <v>      -1.54085588       1.54085588      -1.54085588 </v>
    </varray>
    <i name="volume">     14.63342728 </i>
    <varray name="rec_basis" >
     <v>       0.32449498       0.32449498       0.00000000 </v>
     <v>       0.32449498       0.00000000      -0.32449498 </v>
     <v>       0.00000000       0.32449498      -0.32449498 </v>
    </varray>
   </crystal>
   <varray name="positions" >
    <v>       0.00000000       0.00000000       0.00000000 </v>
   </varray>
  </structure>
  <varray name="forces" >
   <v>       0.00000000       0.00000000       0.00000000 </v>
  </varray>
  <varray name="stress" >
   <v>       0.14728825      -0.00000000       0.00000000 </v>
   <v>       0.00000000       0.14728825       0.00000000 </v>
   <v>      -0.00000000       0.00000000       0.14728825 </v>
  </varray>
  <energy>
   <i name="e_fr_energy">     -4.90420903 </i>
   <i name="e_wo_entrp">     -4.90373596 </i>
   <i name="e_0_energy">     -4.90397249 </i>
  </energy>
  <time name="totalsc">    5.18    5.44</time>
  <eigenvalues>
   <array>
    <dimension dim="1">band</dimension>
    <dimension dim="2">kpoint</dimension>
    <dimension dim="3">spin</dimension>
    <field>eigene</field>
    <field>occ</field>
    <set>
     <set comment="spin 1">
      <set comment="kpoint 1">
       <r>   -4.1754    1.0000 </r>
       <r>   19.6611    0.0000 </r>
       <r>   20.4404    0.0000 </r>
       <r>   20.4404    0.0000 </r>
       <r>   22.7098    0.0000 </r>
       <r>   22.7098    0.0000 </r>
       <r>   23.9724    0.0000 </r>
       <r>   25.6096    0.0000 </r>
      </set>
      <set comment="kpoint 2">
       <r>   -3.8923    1.0000 </r>
       <r>   17.9388    0.0000 </r>
       <r>   18.9491    0.0000 </r>
       <r>   19.8096    0.0000 </r>
       <r>   22.2476    0.0000 </r>
       <r>   23.3360    0.0000 </r>
       <r>   24.9359    0.0000 </r>
       <r>   25.3794    0.0000 </r>
      </set>
      <set comment="kpoint 3">
       <r>   -3.4213    1.0000 </r>
       <r>   15.6909    0.0000 </r>
       <r>   17.8411    0.0000 </r>
       <r>   19.0204    0.0000 </r>
       <r>   21.6768    0.0000 </r>
       <r>   22.8850    0.0000 </r>
       <r>   25.4859    0.0000 </r>
       <r>   26.0254    0.0000 </r>
      </set>
      <set comment="kpoint 4">
       <r>   -2.7637    1.0000 </r>
       <r>   13.3512    0.0000 </r>
       <r>   16.9471    0.0000 </r>
       <r>   18.2375    0.0000 </r>
       <r>   21.0692    0.0000 </r>
       <r>   22.1621    0.0000 </r>
       <r>   26.3464    0.0000 </r>
       <r>   26.4163    0.0000 </r>
      </set>
      <set comment="kpoint 5">
       <r>   -1.9213    1.0000 </r>
       <r>   11.0683    0.0000 </r>
       <r>   16.2211    0.0000 </r>
       <r>   17.5434    0.0000 </r>
       <r>   20.4954    0.0000 </r>
       <r>   21.5068    0.0000 </r>
       <r>   27.0048    0.0000 </r>
       <r>   27.2994    0.0000 </r>
      </set>
      <set comment="kpoint 6">
       <r>   -0.8965    1.0000 </r>
       <r>    8.8972    1.0000 </r>
       <r>   15.6577    0.0000 </r>
       <r>   16.9822    0.0000 </r>
       <r>   20.0124    0.0000 </r>
       <r>   20.9747    0.0000 </r>
       <r>   27.7826    0.0000 </r>
       <r>   28.3363    0.0000 </r>
      </set>
      <set comment="kpoint 7">
       <r>    0.3070    1.0000 </r>
       <r>    6.8629    1.0000 </r>
       <r>   15.2554    0.0000 </r>
       <r>   16.5721    0.0000 </r>
       <r>   19.6510    0.0000 </r>
       <r>   20.5811    0.0000 </r>
       <r>   28.6954    0.0000 </r>
       <r>   29.4049    0.0000 </r>
      </set>
      <set comment="kpoint 8">
       <r>    1.6832    1.0000 </r>
       <r>    4.9854    1.0000 </r>
       <r>   15.0141    0.0000 </r>
       <r>   16.3229    0.0000 </r>
       <r>   19.4291    0.0000 </r>
       <r>   20.3410    0.0000 </r>
       <r>   29.6471    0.0000 </r>
       <r>   30.3659    0.0000 </r>
      </set>
      <set comment="kpoint 9">
       <r>    3.0485    1.0000 </r>
       <r>    3.4524    1.0000 </r>
       <r>   14.9336    0.0000 </r>
       <r>   16.2389    0.0000 </r>
       <r>   19.3540    0.0000 </r>
       <r>   20.2610    0.0000 </r>
       <r>   30.2049    0.0000 </r>
       <r>   30.8180    0.0000 </r>
      </set>
      <set comment="kpoint 10">
       <r>   -4.2699    1.0000 </r>
       <r>   20.6882    0.0000 </r>
       <r>   20.6882    0.0000 </r>
       <r>   21.0739    0.0000 </r>
       <r>   22.5091    0.0000 </r>
       <r>   22.9201    0.0000 </r>
       <r>   22.9201    0.0000 </r>
       <r>   25.4677    0.0000 </r>
      </set>
      <set comment="kpoint 11">
       <r>   -3.5154    1.0000 </r>
       <r>   16.6596    0.0000 </r>
       <r>   17.3302    0.0000 </r>
       <r>   18.5735    0.0000 </r>
       <r>   22.5979    0.0000 </r>
       <r>   23.6630    0.0000 </r>
       <r>   24.8608    0.0000 </r>
       <r>   25.8988    0.0000 </r>
      </set>
      <set comment="kpoint 12">
       <r>   -2.9513    1.0000 </r>
       <r>   14.6248    0.0000 </r>
       <r>   16.0873    0.0000 </r>
       <r>   17.6752    0.0000 </r>
       <r>   22.3546    0.0000 </r>
       <r>   23.4769    0.0000 </r>
       <r>   25.2976    0.0000 </r>
       <r>   26.6273    0.0000 </r>
      </set>
      <set comment="kpoint 13">
       <r>   -2.2017    1.0000 </r>
       <r>   12.3392    0.0000 </r>
       <r>   15.2350    0.0000 </r>
       <r>   16.9003    0.0000 </r>
       <r>   21.8871    0.0000 </r>
       <r>   23.0501    0.0000 </r>
       <r>   25.8790    0.0000 </r>
       <r>   27.6356    0.0000 </r>
      </set>
      <set comment="kpoint 14">
       <r>   -1.2685    1.0000 </r>
       <r>   10.1169    0.0000 </r>
       <r>   14.5658    0.0000 </r>
       <r>   16.2606    0.0000 </r>
       <r>   21.3910    0.0000 </r>
       <r>   22.6359    0.0000 </r>
       <r>   26.5850    0.0000 </r>
       <r>   28.6753    0.0000 </r>
      </set>
      <set comment="kpoint 15">
       <r>   -0.1547    1.0000 </r>
       <r>    8.0158    1.0000 </r>
       <r>   14.0644    0.0000 </r>
       <r>   15.7714    0.0000 </r>
       <r>   20.9740    0.0000 </r>
       <r>   22.2830    0.0000 </r>
       <r>   27.4664    0.0000 </r>
       <r>   29.6837    0.0000 </r>
      </set>
      <set comment="kpoint 16">
       <r>    1.1356    1.0000 </r>
       <r>    6.0600    1.0000 </r>
       <r>   13.7296    0.0000 </r>
       <r>   15.4417    0.0000 </r>
       <r>   20.6811    0.0000 </r>
       <r>   22.0284    0.0000 </r>
       <r>   28.4809    0.0000 </r>
       <r>   30.4758    0.0000 </r>
      </set>
      <set comment="kpoint 17">
       <r>    2.5877    1.0000 </r>
       <r>    4.2736    1.0000 </r>
       <r>   13.5619    0.0000 </r>
       <r>   15.2756    0.0000 </r>
       <r>   20.5309    0.0000 </r>
       <r>   21.8967    0.0000 </r>
       <r>   29.5300    0.0000 </r>
       <r>   30.4936    0.0000 </r>
      </set>
      <set comment="kpoint 18">
       <r>   -4.0810    1.0000 </r>
       <r>   19.0447    0.0000 </r>
       <r>   19.5896    0.0000 </r>
       <r>   20.7770    0.0000 </r>
       <r>   22.0298    0.0000 </r>
       <r>   23.4441    0.0000 </r>
       <r>   24.2238    0.0000 </r>
       <r>   24.4888    0.0000 </r>
      </set>
      <set comment="kpoint 19">
       <r>   -2.2952    1.0000 </r>
       <r>   13.5281    0.0000 </r>
       <r>   14.0054    0.0000 </r>
       <r>   16.7877    0.0000 </r>
       <r>   22.6019    0.0000 </r>
       <r>   23.6893    0.0000 </r>
       <r>   25.8315    0.0000 </r>
       <r>   27.0941    0.0000 </r>
      </set>
      <set comment="kpoint 20">
       <r>   -1.4547    1.0000 </r>
       <r>   11.4757    0.0000 </r>
       <r>   13.0364    0.0000 </r>
       <r>   16.0693    0.0000 </r>
       <r>   22.4496    0.0000 </r>
       <r>   23.7652    0.0000 </r>
       <r>   26.2673    0.0000 </r>
       <r>   28.1871    0.0000 </r>
      </set>
      <set comment="kpoint 21">
       <r>   -0.4322    1.0000 </r>
       <r>    9.3295    1.0000 </r>
       <r>   12.4255    0.0000 </r>
       <r>   15.5023    0.0000 </r>
       <r>   22.0865    0.0000 </r>
       <r>   23.9212    0.0000 </r>
       <r>   26.6139    0.0000 </r>
       <r>   29.5282    0.0000 </r>
      </set>
      <set comment="kpoint 22">
       <r>    0.7688    1.0000 </r>
       <r>    7.3060    1.0000 </r>
       <r>   11.9934    0.0000 </r>
       <r>   15.0924    0.0000 </r>
       <r>   21.7604    0.0000 </r>
       <r>   23.9614    0.0000 </r>
       <r>   27.2665    0.0000 </r>
       <r>   30.4075    0.0000 </r>
      </set>
      <set comment="kpoint 23">
       <r>    2.1421    1.0000 </r>
       <r>    5.4344    1.0000 </r>
       <r>   11.7345    0.0000 </r>
       <r>   14.8446    0.0000 </r>
       <r>   21.5491    0.0000 </r>
       <r>   23.9314    0.0000 </r>
       <r>   28.1988    0.0000 </r>
       <r>   30.2594    0.0000 </r>
      </set>
      <set comment="kpoint 24">
       <r>    3.5092    1.0000 </r>
       <r>    3.9005    1.0000 </r>
       <r>   11.6477    0.0000 </r>
       <r>   14.7616    0.0000 </r>
       <r>   21.4768    0.0000 </r>
       <r>   23.9104    0.0000 </r>
       <r>   29.0574    0.0000 </r>
       <r>   29.5369    0.0000 </r>
      </set>
      <set comment="kpoint 25">
       <r>   -3.7038    1.0000 </r>
       <r>   16.8419    0.0000 </r>
       <r>   18.5082    0.0000 </r>
       <r>   20.3423    0.0000 </r>
       <r>   21.1882    0.0000 </r>
       <r>   22.9249    0.0000 </r>
       <r>   24.5902    0.0000 </r>
       <r>   25.9283    0.0000 </r>
      </set>
      <set comment="kpoint 26">
       <r>   -3.7980    1.0000 </r>
       <r>   17.7924    0.0000 </r>
       <r>   18.1800    0.0000 </r>
       <r>   20.1288    0.0000 </r>
       <r>   21.9412    0.0000 </r>
       <r>   23.2059    0.0000 </r>
       <r>   24.2531    0.0000 </r>
       <r>   25.0708    0.0000 </r>
      </set>
      <set comment="kpoint 27">
       <r>   -0.5249    1.0000 </r>
       <r>   10.6303    0.0000 </r>
       <r>   10.9956    0.0000 </r>
       <r>   15.4232    0.0000 </r>
       <r>   22.8845    0.0000 </r>
       <r>   23.8635    0.0000 </r>
       <r>   27.4492    0.0000 </r>
       <r>   28.4402    0.0000 </r>
      </set>
      <set comment="kpoint 28">
       <r>    0.5850    1.0000 </r>
       <r>    8.7074    1.0000 </r>
       <r>   10.3098    0.0000 </r>
       <r>   14.9341    0.0000 </r>
       <r>   22.8612    0.0000 </r>
       <r>   24.3264    0.0000 </r>
       <r>   27.7597    0.0000 </r>
       <r>   29.4717    0.0000 </r>
      </set>
      <set comment="kpoint 29">
       <r>    1.8705    1.0000 </r>
       <r>    6.7705    1.0000 </r>
       <r>    9.9515    0.1665 </r>
       <r>   14.6050    0.0000 </r>
       <r>   22.6718    0.0000 </r>
       <r>   24.9741    0.0000 </r>
       <r>   27.8183    0.0000 </r>
       <r>   29.9335    0.0000 </r>
      </set>
      <set comment="kpoint 30">
       <r>    3.3181    1.0000 </r>
       <r>    4.9930    1.0000 </r>
       <r>    9.7745    1.0000 </r>
       <r>   14.4393    0.0000 </r>
       <r>   22.5528    0.0000 </r>
       <r>   25.4079    0.0000 </r>
       <r>   28.0558    0.0000 </r>
       <r>   29.5207    0.0000 </r>
      </set>
      <set comment="kpoint 31">
       <r>   -3.1392    1.0000 </r>
       <r>   14.4994    0.0000 </r>
       <r>   17.5600    0.0000 </r>
       <r>   19.7733    0.0000 </r>
       <r>   20.3126    0.0000 </r>
       <r>   22.1681    0.0000 </r>
       <r>   25.0324    0.0000 </r>
       <r>   27.1078    0.0000 </r>
      </set>
      <set comment="kpoint 32">
       <r>   -3.3272    1.0000 </r>
       <r>   15.7272    0.0000 </r>
       <r>   17.0116    0.0000 </r>
       <r>   19.5039    0.0000 </r>
       <r>   21.4028    0.0000 </r>
       <r>   22.6227    0.0000 </r>
       <r>   24.5676    0.0000 </r>
       <r>   26.3862    0.0000 </r>
      </set>
      <set comment="kpoint 33">
       <r>    1.7797    1.0000 </r>
       <r>    8.1246    1.0000 </r>
       <r>    8.4441    1.0000 </r>
       <r>   14.5257    0.0000 </r>
       <r>   23.5125    0.0000 </r>
       <r>   24.5057    0.0000 </r>
       <r>   28.7093    0.0000 </r>
       <r>   29.4288    0.0000 </r>
      </set>
      <set comment="kpoint 34">
       <r>    3.1456    1.0000 </r>
       <r>    6.4089    1.0000 </r>
       <r>    8.0356    1.0000 </r>
       <r>   14.2788    0.0000 </r>
       <r>   23.6530    0.0000 </r>
       <r>   25.2430    0.0000 </r>
       <r>   27.8686    0.0000 </r>
       <r>   30.2890    0.0000 </r>
      </set>
      <set comment="kpoint 35">
       <r>    4.5102    1.0000 </r>
       <r>    4.8844    1.0000 </r>
       <r>    7.9418    1.0000 </r>
       <r>   14.1962    0.0000 </r>
       <r>   23.6421    0.0000 </r>
       <r>   25.8746    0.0000 </r>
       <r>   27.2076    0.0000 </r>
       <r>   30.4846    0.0000 </r>
      </set>
      <set comment="kpoint 36">
       <r>   -2.3888    1.0000 </r>
       <r>   12.1755    0.0000 </r>
       <r>   16.7631    0.0000 </r>
       <r>   19.1806    0.0000 </r>
       <r>   19.5164    0.0000 </r>
       <r>   21.4954    0.0000 </r>
       <r>   25.6054    0.0000 </r>
       <r>   27.8615    0.0000 </r>
      </set>
      <set comment="kpoint 37">
       <r>   -2.6699    1.0000 </r>
       <r>   13.4192    0.0000 </r>
       <r>   16.1092    0.0000 </r>
       <r>   18.8349    0.0000 </r>
       <r>   20.6969    0.0000 </r>
       <r>   22.3064    0.0000 </r>
       <r>   24.7099    0.0000 </r>
       <r>   27.9112    0.0000 </r>
      </set>
      <set comment="kpoint 38">
       <r>   -2.7636    1.0000 </r>
       <r>   14.5754    0.0000 </r>
       <r>   14.9988    0.0000 </r>
       <r>   18.8186    0.0000 </r>
       <r>   21.3744    0.0000 </r>
       <r>   22.2020    0.0000 </r>
       <r>   25.4321    0.0000 </r>
       <r>   26.6650    0.0000 </r>
      </set>
      <set comment="kpoint 39">
       <r>    4.5753    1.0000 </r>
       <r>    6.1079    1.0000 </r>
       <r>    6.4012    1.0000 </r>
       <r>   14.1148    0.0000 </r>
       <r>   24.3749    0.0000 </r>
       <r>   25.6328    0.0000 </r>
       <r>   26.7612    0.0000 </r>
       <r>   31.7145    0.0000 </r>
      </set>
      <set comment="kpoint 40">
       <r>   -1.4548    1.0000 </r>
       <r>    9.9441    0.2233 </r>
       <r>   16.1235    0.0000 </r>
       <r>   18.6486    0.0000 </r>
       <r>   18.8500    0.0000 </r>
       <r>   20.9307    0.0000 </r>
       <r>   26.3513    0.0000 </r>
       <r>   28.7452    0.0000 </r>
      </set>
      <set comment="kpoint 41">
       <r>   -1.8278    1.0000 </r>
       <r>   11.1476    0.0000 </r>
       <r>   15.3703    0.0000 </r>
       <r>   18.2105    0.0000 </r>
       <r>   20.0222    0.0000 </r>
       <r>   22.0180    0.0000 </r>
       <r>   25.0810    0.0000 </r>
       <r>   29.1135    0.0000 </r>
      </set>
      <set comment="kpoint 42">
       <r>   -2.0146    1.0000 </r>
       <r>   12.4800    0.0000 </r>
       <r>   13.9816    0.0000 </r>
       <r>   18.1692    0.0000 </r>
       <r>   20.9724    0.0000 </r>
       <r>   22.2355    0.0000 </r>
       <r>   25.5945    0.0000 </r>
       <r>   27.9114    0.0000 </r>
      </set>
      <set comment="kpoint 43">
       <r>   -0.3400    1.0000 </r>
       <r>    7.8383    1.0000 </r>
       <r>   15.6430    0.0000 </r>
       <r>   18.2245    0.0000 </r>
       <r>   18.3400    0.0000 </r>
       <r>   20.4871    0.0000 </r>
       <r>   27.2638    0.0000 </r>
       <r>   29.6765    0.0000 </r>
      </set>
      <set comment="kpoint 44">
       <r>   -0.8036    1.0000 </r>
       <r>    8.9818    1.0000 </r>
       <r>   14.7933    0.0000 </r>
       <r>   17.6931    0.0000 </r>
       <r>   19.4638    0.0000 </r>
       <r>   21.7102    0.0000 </r>
       <r>   25.7543    0.0000 </r>
       <r>   30.0453    0.0000 </r>
      </set>
      <set comment="kpoint 45">
       <r>   -1.0823    1.0000 </r>
       <r>   10.2800    0.0000 </r>
       <r>   13.2948    0.0000 </r>
       <r>   17.5993    0.0000 </r>
       <r>   20.4216    0.0000 </r>
       <r>   22.5845    0.0000 </r>
       <r>   25.5294    0.0000 </r>
       <r>   29.4127    0.0000 </r>
      </set>
      <set comment="kpoint 46">
       <r>   -1.1752    1.0000 </r>
       <r>   11.5590    0.0000 </r>
       <r>   11.9133    0.0000 </r>
       <r>   17.5752    0.0000 </r>
       <r>   21.2728    0.0000 </r>
       <r>   21.9715    0.0000 </r>
       <r>   26.9211    0.0000 </r>
       <r>   27.9244    0.0000 </r>
      </set>
      <set comment="kpoint 47">
       <r>    0.9512    1.0000 </r>
       <r>    5.8807    1.0000 </r>
       <r>   15.3224    0.0000 </r>
       <r>   17.9319    0.0000 </r>
       <r>   17.9948    0.0000 </r>
       <r>   20.1825    0.0000 </r>
       <r>   28.3048    0.0000 </r>
       <r>   30.4244    0.0000 </r>
      </set>
      <set comment="kpoint 48">
       <r>    0.3995    1.0000 </r>
       <r>    6.9503    1.0000 </r>
       <r>   14.3795    0.0000 </r>
       <r>   17.3112    0.0000 </r>
       <r>   19.0504    0.0000 </r>
       <r>   21.4409    0.0000 </r>
       <r>   26.6669    0.0000 </r>
       <r>   30.5276    0.0000 </r>
      </set>
      <set comment="kpoint 49">
       <r>    0.0305    1.0000 </r>
       <r>    8.1871    1.0000 </r>
       <r>   12.7826    0.0000 </r>
       <r>   17.1505    0.0000 </r>
       <r>   19.9586    0.0000 </r>
       <r>   22.8810    0.0000 </r>
       <r>   25.7557    0.0000 </r>
       <r>   30.1978    0.0000 </r>
      </set>
      <set comment="kpoint 50">
       <r>   -0.1542    1.0000 </r>
       <r>    9.5747    1.0000 </r>
       <r>   11.1503    0.0000 </r>
       <r>   17.0732    0.0000 </r>
       <r>   21.0396    0.0000 </r>
       <r>   22.4367    0.0000 </r>
       <r>   27.0217    0.0000 </r>
       <r>   29.0026    0.0000 </r>
      </set>
      <set comment="kpoint 51">
       <r>    2.4043    1.0000 </r>
       <r>    4.0929    1.0000 </r>
       <r>   15.1621    0.0000 </r>
       <r>   17.7831    0.0000 </r>
       <r>   17.8221    0.0000 </r>
       <r>   20.0282    0.0000 </r>
       <r>   29.3931    0.0000 </r>
       <r>   30.3891    0.0000 </r>
      </set>
      <set comment="kpoint 52">
       <r>    1.7750    1.0000 </r>
       <r>    5.0746    1.0000 </r>
       <r>   14.1308    0.0000 </r>
       <r>   17.0783    0.0000 </r>
       <r>   18.7996    0.0000 </r>
       <r>   21.2640    0.0000 </r>
       <r>   27.7597    0.0000 </r>
       <r>   30.0617    0.0000 </r>
      </set>
      <set comment="kpoint 53">
       <r>    1.3195    1.0000 </r>
       <r>    6.2364    1.0000 </r>
       <r>   12.4404    0.0000 </r>
       <r>   16.8437    0.0000 </r>
       <r>   19.6377    0.0000 </r>
       <r>   23.0026    0.0000 </r>
       <r>   26.4118    0.0000 </r>
       <r>   29.7394    0.0000 </r>
      </set>
      <set comment="kpoint 54">
       <r>    1.0450    1.0000 </r>
       <r>    7.5654    1.0000 </r>
       <r>   10.7081    0.0000 </r>
       <r>   16.6982    0.0000 </r>
       <r>   20.6997    0.0000 </r>
       <r>   23.2192    0.0000 </r>
       <r>   26.7960    0.0000 </r>
       <r>   29.3558    0.0000 </r>
      </set>
      <set comment="kpoint 55">
       <r>    0.9534    1.0000 </r>
       <r>    8.9097    1.0000 </r>
       <r>    9.2217    1.0000 </r>
       <r>   16.6451    0.0000 </r>
       <r>   21.6505    0.0000 </r>
       <r>   22.3522    0.0000 </r>
       <r>   28.0303    0.0000 </r>
       <r>   28.7725    0.0000 </r>
      </set>
      <set comment="kpoint 56">
       <r>    3.1411    1.0000 </r>
       <r>    3.5412    1.0000 </r>
       <r>   14.0478    0.0000 </r>
       <r>   17.0002    0.0000 </r>
       <r>   18.7159    0.0000 </r>
       <r>   21.2021    0.0000 </r>
       <r>   28.8141    0.0000 </r>
       <r>   29.0976    0.0000 </r>
      </set>
      <set comment="kpoint 57">
       <r>    2.7705    1.0000 </r>
       <r>    4.4527    1.0000 </r>
       <r>   12.2694    0.0000 </r>
       <r>   16.6886    0.0000 </r>
       <r>   19.4747    0.0000 </r>
       <r>   23.0225    0.0000 </r>
       <r>   27.3724    0.0000 </r>
       <r>   28.6791    0.0000 </r>
      </set>
      <set comment="kpoint 58">
       <r>    2.4163    1.0000 </r>
       <r>    5.7003    1.0000 </r>
       <r>   10.4449    0.0000 </r>
       <r>   16.4683    0.0000 </r>
       <r>   20.4767    0.0000 </r>
       <r>   23.9631    0.0000 </r>
       <r>   26.6617    0.0000 </r>
       <r>   28.7474    0.0000 </r>
      </set>
      <set comment="kpoint 59">
       <r>    2.2362    1.0000 </r>
       <r>    7.1152    1.0000 </r>
       <r>    8.7285    1.0000 </r>
       <r>   16.3470    0.0000 </r>
       <r>   21.6292    0.0000 </r>
       <r>   23.1263    0.0000 </r>
       <r>   27.0209    0.0000 </r>
       <r>   29.5601    0.0000 </r>
      </set>
      <set comment="kpoint 60">
       <r>    3.7847    1.0000 </r>
       <r>    4.1664    1.0000 </r>
       <r>   10.3576    0.0000 </r>
       <r>   16.3908    0.0000 </r>
       <r>   20.4001    0.0000 </r>
       <r>   24.3024    0.0000 </r>
       <r>   26.6420    0.0000 </r>
       <r>   28.3504    0.0000 </r>
      </set>
      <set comment="kpoint 61">
       <r>    3.6807    1.0000 </r>
       <r>    5.3477    1.0000 </r>
       <r>    8.5459    1.0000 </r>
       <r>   16.1946    0.0000 </r>
       <r>   21.5176    0.0000 </r>
       <r>   24.1322    0.0000 </r>
       <r>   25.9080    0.0000 </r>
       <r>   29.7144    0.0000 </r>
      </set>
      <set comment="kpoint 62">
       <r>    3.5971    1.0000 </r>
       <r>    6.7145    1.0000 </r>
       <r>    7.0148    1.0000 </r>
       <r>   16.1267    0.0000 </r>
       <r>   22.4496    0.0000 </r>
       <r>   23.2849    0.0000 </r>
       <r>   25.7855    0.0000 </r>
       <r>   30.9730    0.0000 </r>
      </set>
      <set comment="kpoint 63">
       <r>    4.9524    1.0000 </r>
       <r>    5.3259    1.0000 </r>
       <r>    6.7958    1.0000 </r>
       <r>   16.0517    0.0000 </r>
       <r>   22.6047    0.0000 </r>
       <r>   24.0374    0.0000 </r>
       <r>   24.7330    0.0000 </r>
       <r>   31.5692    0.0000 </r>
      </set>
      <set comment="kpoint 64">
       <r>   -3.0452    1.0000 </r>
       <r>   15.4791    0.0000 </r>
       <r>   16.4000    0.0000 </r>
       <r>   16.4000    0.0000 </r>
       <r>   23.7547    0.0000 </r>
       <r>   23.7547    0.0000 </r>
       <r>   25.8022    0.0000 </r>
       <r>   25.8022    0.0000 </r>
      </set>
      <set comment="kpoint 65">
       <r>   -2.3888    1.0000 </r>
       <r>   13.6266    0.0000 </r>
       <r>   14.9929    0.0000 </r>
       <r>   15.5383    0.0000 </r>
       <r>   23.6362    0.0000 </r>
       <r>   24.1634    0.0000 </r>
       <r>   26.1938    0.0000 </r>
       <r>   26.6002    0.0000 </r>
      </set>
      <set comment="kpoint 66">
       <r>   -1.5480    1.0000 </r>
       <r>   11.4034    0.0000 </r>
       <r>   14.1854    0.0000 </r>
       <r>   14.8027    0.0000 </r>
       <r>   23.3851    0.0000 </r>
       <r>   23.8467    0.0000 </r>
       <r>   27.2527    0.0000 </r>
       <r>   27.3153    0.0000 </r>
      </set>
      <set comment="kpoint 67">
       <r>   -0.5250    1.0000 </r>
       <r>    9.2459    1.0000 </r>
       <r>   13.5883    0.0000 </r>
       <r>   14.2172    0.0000 </r>
       <r>   23.0904    0.0000 </r>
       <r>   23.4441    0.0000 </r>
       <r>   28.1025    0.0000 </r>
       <r>   28.4102    0.0000 </r>
      </set>
      <set comment="kpoint 68">
       <r>    0.6766    1.0000 </r>
       <r>    7.2189    1.0000 </r>
       <r>   13.1658    0.0000 </r>
       <r>   13.7935    0.0000 </r>
       <r>   22.8338    0.0000 </r>
       <r>   23.1192    0.0000 </r>
       <r>   28.9954    0.0000 </r>
       <r>   29.5454    0.0000 </r>
      </set>
      <set comment="kpoint 69">
       <r>    2.0505    1.0000 </r>
       <r>    5.3455    1.0000 </r>
       <r>   12.9127    0.0000 </r>
       <r>   13.5368    0.0000 </r>
       <r>   22.6628    0.0000 </r>
       <r>   22.9144    0.0000 </r>
       <r>   29.8968    0.0000 </r>
       <r>   30.5349    0.0000 </r>
      </set>
      <set comment="kpoint 70">
       <r>    3.4172    1.0000 </r>
       <r>    3.8118    1.0000 </r>
       <r>   12.8282    0.0000 </r>
       <r>   13.4506    0.0000 </r>
       <r>   22.6030    0.0000 </r>
       <r>   22.8439    0.0000 </r>
       <r>   30.3767    0.0000 </r>
       <r>   30.9814    0.0000 </r>
      </set>
      <set comment="kpoint 71">
       <r>   -3.8923    1.0000 </r>
       <r>   18.5744    0.0000 </r>
       <r>   18.5744    0.0000 </r>
       <r>   19.7860    0.0000 </r>
       <r>   22.8417    0.0000 </r>
       <r>   22.8750    0.0000 </r>
       <r>   24.1261    0.0000 </r>
       <r>   24.1261    0.0000 </r>
      </set>
      <set comment="kpoint 72">
       <r>   -1.6412    1.0000 </r>
       <r>   12.6013    0.0000 </r>
       <r>   13.1078    0.0000 </r>
       <r>   14.4815    0.0000 </r>
       <r>   24.1722    0.0000 </r>
       <r>   24.9051    0.0000 </r>
       <r>   26.5496    0.0000 </r>
       <r>   27.3499    0.0000 </r>
      </set>
      <set comment="kpoint 73">
       <r>   -0.7105    1.0000 </r>
       <r>   10.6201    0.0000 </r>
       <r>   12.2024    0.0000 </r>
       <r>   13.7993    0.0000 </r>
       <r>   24.2120    0.0000 </r>
       <r>   25.0688    0.0000 </r>
       <r>   27.3071    0.0000 </r>
       <r>   28.3612    0.0000 </r>
      </set>
      <set comment="kpoint 74">
       <r>    0.4004    1.0000 </r>
       <r>    8.5424    1.0000 </r>
       <r>   11.6711    0.0000 </r>
       <r>   13.2904    0.0000 </r>
       <r>   24.0317    0.0000 </r>
       <r>   25.0332    0.0000 </r>
       <r>   28.1093    0.0000 </r>
       <r>   29.5625    0.0000 </r>
      </set>
      <set comment="kpoint 75">
       <r>    1.6873    1.0000 </r>
       <r>    6.5960    1.0000 </r>
       <r>   11.3224    0.0000 </r>
       <r>   12.9495    0.0000 </r>
       <r>   23.8402    0.0000 </r>
       <r>   24.9534    0.0000 </r>
       <r>   29.0129    0.0000 </r>
       <r>   30.5365    0.0000 </r>
      </set>
      <set comment="kpoint 76">
       <r>    3.1363    1.0000 </r>
       <r>    4.8148    1.0000 </r>
       <r>   11.1486    0.0000 </r>
       <r>   12.7785    0.0000 </r>
       <r>   23.7293    0.0000 </r>
       <r>   24.8970    0.0000 </r>
       <r>   29.9228    0.0000 </r>
       <r>   30.7790    0.0000 </r>
      </set>
      <set comment="kpoint 77">
       <r>   -3.5154    1.0000 </r>
       <r>   16.8423    0.0000 </r>
       <r>   17.5026    0.0000 </r>
       <r>   19.2948    0.0000 </r>
       <r>   21.8066    0.0000 </r>
       <r>   22.4405    0.0000 </r>
       <r>   24.4512    0.0000 </r>
       <r>   25.4194    0.0000 </r>
      </set>
      <set comment="kpoint 78">
       <r>    0.3083    1.0000 </r>
       <r>    9.8547    0.9616 </r>
       <r>   10.2255    0.0000 </r>
       <r>   13.1936    0.0000 </r>
       <r>   24.7291    0.0000 </r>
       <r>   25.6928    0.0000 </r>
       <r>   28.1452    0.0000 </r>
       <r>   28.9926    0.0000 </r>
      </set>
      <set comment="kpoint 79">
       <r>    1.5050    1.0000 </r>
       <r>    8.0060    1.0000 </r>
       <r>    9.6222    1.0000 </r>
       <r>   12.7664    0.0000 </r>
       <r>   24.8654    0.0000 </r>
       <r>   26.1322    0.0000 </r>
       <r>   28.7392    0.0000 </r>
       <r>   29.9669    0.0000 </r>
      </set>
      <set comment="kpoint 80">
       <r>    2.8734    1.0000 </r>
       <r>    6.1497    1.0000 </r>
       <r>    9.3503    1.0000 </r>
       <r>   12.5102    0.0000 </r>
       <r>   24.8120    0.0000 </r>
       <r>   26.5234    0.0000 </r>
       <r>   29.1644    0.0000 </r>
       <r>   30.5520    0.0000 </r>
      </set>
      <set comment="kpoint 81">
       <r>    4.2398    1.0000 </r>
       <r>    4.6188    1.0000 </r>
       <r>    9.2612    1.0000 </r>
       <r>   12.4249    0.0000 </r>
       <r>   24.7789    0.0000 </r>
       <r>   26.6644    0.0000 </r>
       <r>   29.5047    0.0000 </r>
       <r>   30.4619    0.0000 </r>
      </set>
      <set comment="kpoint 82">
       <r>   -2.9513    1.0000 </r>
       <r>   14.6103    0.0000 </r>
       <r>   16.5454    0.0000 </r>
       <r>   18.8132    0.0000 </r>
       <r>   21.4082    0.0000 </r>
       <r>   21.6336    0.0000 </r>
       <r>   24.3976    0.0000 </r>
       <r>   27.2636    0.0000 </r>
      </set>
      <set comment="kpoint 83">
       <r>   -3.0452    1.0000 </r>
       <r>   15.6898    0.0000 </r>
       <r>   15.9504    0.0000 </r>
       <r>   18.7979    0.0000 </r>
       <r>   20.8813    0.0000 </r>
       <r>   22.2465    0.0000 </r>
       <r>   25.2138    0.0000 </r>
       <r>   25.9771    0.0000 </r>
      </set>
      <set comment="kpoint 84">
       <r>    2.7842    1.0000 </r>
       <r>    7.5083    1.0000 </r>
       <r>    7.8335    1.0000 </r>
       <r>   12.4239    0.0000 </r>
       <r>   25.5244    0.0000 </r>
       <r>   26.6532    0.0000 </r>
       <r>   29.4838    0.0000 </r>
       <r>   30.1893    0.0000 </r>
      </set>
      <set comment="kpoint 85">
       <r>    4.2237    1.0000 </r>
       <r>    5.8838    1.0000 </r>
       <r>    7.5114    1.0000 </r>
       <r>   12.2530    0.0000 </r>
       <r>   25.7525    0.0000 </r>
       <r>   27.3070    0.0000 </r>
       <r>   28.8867    0.0000 </r>
       <r>   31.0767    0.0000 </r>
      </set>
      <set comment="kpoint 86">
       <r>   -2.2016    1.0000 </r>
       <r>   12.3243    0.0000 </r>
       <r>   15.7348    0.0000 </r>
       <r>   18.2104    0.0000 </r>
       <r>   20.8715    0.0000 </r>
       <r>   21.3761    0.0000 </r>
       <r>   24.3184    0.0000 </r>
       <r>   29.3007    0.0000 </r>
      </set>
      <set comment="kpoint 87">
       <r>   -2.3887    1.0000 </r>
       <r>   13.6058    0.0000 </r>
       <r>   14.9417    0.0000 </r>
       <r>   18.4135    0.0000 </r>
       <r>   20.5721    0.0000 </r>
       <r>   21.6547    0.0000 </r>
       <r>   25.2405    0.0000 </r>
       <r>   27.4746    0.0000 </r>
      </set>
      <set comment="kpoint 88">
       <r>    5.4442    1.0000 </r>
       <r>    5.9608    1.0000 </r>
       <r>    5.9608    1.0000 </r>
       <r>   12.1675    0.0000 </r>
       <r>   26.2166    0.0000 </r>
       <r>   27.9668    0.0000 </r>
       <r>   27.9668    0.0000 </r>
       <r>   32.4637    0.0000 </r>
      </set>
      <set comment="kpoint 89">
       <r>   -1.2684    1.0000 </r>
       <r>   10.1084    0.0000 </r>
       <r>   15.0812    0.0000 </r>
       <r>   17.6390    0.0000 </r>
       <r>   20.2279    0.0000 </r>
       <r>   21.3752    0.0000 </r>
       <r>   24.5265    0.0000 </r>
       <r>   30.2434    0.0000 </r>
      </set>
      <set comment="kpoint 90">
       <r>   -1.5478    1.0000 </r>
       <r>   11.3806    0.0000 </r>
       <r>   14.1882    0.0000 </r>
       <r>   17.8952    0.0000 </r>
       <r>   20.4902    0.0000 </r>
       <r>   21.3539    0.0000 </r>
       <r>   24.9671    0.0000 </r>
       <r>   29.2124    0.0000 </r>
      </set>
      <set comment="kpoint 91">
       <r>   -1.6410    1.0000 </r>
       <r>   12.6220    0.0000 </r>
       <r>   12.9408    0.0000 </r>
       <r>   18.3279    0.0000 </r>
       <r>   20.1917    0.0000 </r>
       <r>   21.2208    0.0000 </r>
       <r>   26.5434    0.0000 </r>
       <r>   27.4688    0.0000 </r>
      </set>
      <set comment="kpoint 92">
       <r>   -0.1546    1.0000 </r>
       <r>    8.0111    1.0000 </r>
       <r>   14.5888    0.0000 </r>
       <r>   17.1799    0.0000 </r>
       <r>   19.7336    0.0000 </r>
       <r>   21.2889    0.0000 </r>
       <r>   25.1142    0.0000 </r>
       <r>   30.4071    0.0000 </r>
      </set>
      <set comment="kpoint 93">
       <r>   -0.5250    1.0000 </r>
       <r>    9.2332    1.0000 </r>
       <r>   13.6010    0.0000 </r>
       <r>   17.4036    0.0000 </r>
       <r>   20.1315    0.0000 </r>
       <r>   21.6300    0.0000 </r>
       <r>   24.8266    0.0000 </r>
       <r>   29.9503    0.0000 </r>
      </set>
      <set comment="kpoint 94">
       <r>   -0.7104    1.0000 </r>
       <r>   10.5959    0.0000 </r>
       <r>   12.1166    0.0000 </r>
       <r>   18.0508    0.0000 </r>
       <r>   20.1415    0.0000 </r>
       <r>   21.0354    0.0000 </r>
       <r>   26.5008    0.0000 </r>
       <r>   28.6082    0.0000 </r>
      </set>
      <set comment="kpoint 95">
       <r>    1.1354    1.0000 </r>
       <r>    6.0575    1.0000 </r>
       <r>   14.2602    0.0000 </r>
       <r>   16.8630    0.0000 </r>
       <r>   19.4005    0.0000 </r>
       <r>   21.1693    0.0000 </r>
       <r>   26.0228    0.0000 </r>
       <r>   29.6528    0.0000 </r>
      </set>
      <set comment="kpoint 96">
       <r>    0.6764    1.0000 </r>
       <r>    7.2117    1.0000 </r>
       <r>   13.1799    0.0000 </r>
       <r>   17.0258    0.0000 </r>
       <r>   19.7714    0.0000 </r>
       <r>   21.9909    0.0000 </r>
       <r>   25.0291    0.0000 </r>
       <r>   29.2727    0.0000 </r>
      </set>
      <set comment="kpoint 97">
       <r>    0.4003    1.0000 </r>
       <r>    8.5270    1.0000 </r>
       <r>   11.5938    0.0000 </r>
       <r>   17.7050    0.0000 </r>
       <r>   19.8798    0.0000 </r>
       <r>   21.5436    0.0000 </r>
       <r>   26.0928    0.0000 </r>
       <r>   28.8662    0.0000 </r>
      </set>
      <set comment="kpoint 98">
       <r>    0.3082    1.0000 </r>
       <r>    9.8533    0.9648 </r>
       <r>   10.1522    0.0000 </r>
       <r>   18.0490    0.0000 </r>
       <r>   20.2976    0.0000 </r>
       <r>   20.6911    0.0000 </r>
       <r>   27.4821    0.0000 </r>
       <r>   28.2475    0.0000 </r>
      </set>
      <set comment="kpoint 99">
       <r>    2.5874    1.0000 </r>
       <r>    4.2722    1.0000 </r>
       <r>   14.0950    0.0000 </r>
       <r>   16.7023    0.0000 </r>
       <r>   19.2312    0.0000 </r>
       <r>   21.0925    0.0000 </r>
       <r>   27.1354    0.0000 </r>
       <r>   28.4525    0.0000 </r>
      </set>
      <set comment="kpoint 100">
       <r>    2.0500    1.0000 </r>
       <r>    5.3416    1.0000 </r>
       <r>   12.9267    0.0000 </r>
       <r>   16.7919    0.0000 </r>
       <r>   19.5394    0.0000 </r>
[...]
      <set comment="kpoint 179">
       <r>    4.9438    1.0000 </r>
       <r>    8.0939    1.0000 </r>
       <r>    9.5192    1.0000 </r>
       <r>   13.4451    0.0000 </r>
       <r>   15.0342    0.0000 </r>
       <r>   18.0180    0.0000 </r>
       <r>   28.1890    0.0000 </r>
       <r>   31.5194    0.0000 </r>
      </set>
      <set comment="kpoint 180">
       <r>    6.3079    1.0000 </r>
       <r>    6.6015    1.0000 </r>
       <r>    9.4315    1.0000 </r>
       <r>   13.3931    0.0000 </r>
       <r>   16.0684    0.0000 </r>
       <r>   16.7567    0.0000 </r>
       <r>   28.1382    0.0000 </r>
       <r>   31.6302    0.0000 </r>
      </set>
      <set comment="kpoint 181">
       <r>    6.3463    1.0000 </r>
       <r>    7.8231    1.0000 </r>
       <r>    8.0372    1.0000 </r>
       <r>   14.2826    0.0000 </r>
       <r>   15.1570    0.0000 </r>
       <r>   16.4145    0.0000 </r>
       <r>   28.2049    0.0000 </r>
       <r>   33.0647    0.0000 </r>
      </set>
      <set comment="kpoint 182">
       <r>    3.5086    1.0000 </r>
       <r>   10.4647    0.0000 </r>
       <r>   10.4647    0.0000 </r>
       <r>   12.4970    0.0000 </r>
       <r>   13.4665    0.0000 </r>
       <r>   19.6445    0.0000 </r>
       <r>   30.0261    0.0000 </r>
       <r>   30.9039    0.0000 </r>
      </set>
      <set comment="kpoint 183">
       <r>    4.7660    1.0000 </r>
       <r>    9.3354    1.0000 </r>
       <r>   10.1258    0.0000 </r>
       <r>   12.4242    0.0000 </r>
       <r>   13.5791    0.0000 </r>
       <r>   17.8304    0.0000 </r>
       <r>   30.1072    0.0000 </r>
       <r>   31.5994    0.0000 </r>
      </set>
      <set comment="kpoint 184">
       <r>    6.1751    1.0000 </r>
       <r>    7.7486    1.0000 </r>
       <r>    9.9563    0.1346 </r>
       <r>   12.3514    0.0000 </r>
       <r>   14.6224    0.0000 </r>
       <r>   16.2087    0.0000 </r>
       <r>   29.9804    0.0000 </r>
       <r>   31.8876    0.0000 </r>
      </set>
      <set comment="kpoint 185">
       <r>    6.0905    1.0000 </r>
       <r>    9.0085    1.0000 </r>
       <r>    9.1495    1.0000 </r>
       <r>   12.7036    0.0000 </r>
       <r>   13.5152    0.0000 </r>
       <r>   16.0943    0.0000 </r>
       <r>   30.5062    0.0000 </r>
       <r>   32.8514    0.0000 </r>
      </set>
      <set comment="kpoint 186">
       <r>    7.4292    1.0000 </r>
       <r>    7.6841    1.0000 </r>
       <r>    9.0009    1.0000 </r>
       <r>   12.8593    0.0000 </r>
       <r>   14.2943    0.0000 </r>
       <r>   14.7918    0.0000 </r>
       <r>   30.5090    0.0000 </r>
       <r>   33.2748    0.0000 </r>
      </set>
      <set comment="kpoint 187">
       <r>    6.0032    1.0000 </r>
       <r>    9.7867    0.9999 </r>
       <r>    9.7867    0.9999 </r>
       <r>   11.7872    0.0000 </r>
       <r>   12.7024    0.0000 </r>
       <r>   15.9951    0.0000 </r>
       <r>   32.2756    0.0000 </r>
       <r>   32.7815    0.0000 </r>
      </set>
      <set comment="kpoint 188">
       <r>    7.3733    1.0000 </r>
       <r>    8.8176    1.0000 </r>
       <r>    9.6169    1.0000 </r>
       <r>   11.8553    0.0000 </r>
       <r>   13.0086    0.0000 </r>
       <r>   14.3801    0.0000 </r>
       <r>   32.3660    0.0000 </r>
       <r>   33.3828    0.0000 </r>
      </set>
      <set comment="kpoint 189">
       <r>    8.5707    1.0000 </r>
       <r>    8.8020    1.0000 </r>
       <r>    8.8020    1.0000 </r>
       <r>   12.0899    0.0000 </r>
       <r>   13.1413    0.0000 </r>
       <r>   13.1413    0.0000 </r>
       <r>   32.7195    0.0000 </r>
       <r>   34.3553    0.0000 </r>
      </set>
      <set comment="kpoint 190">
       <r>    8.6306    1.0000 </r>
       <r>    9.4468    1.0000 </r>
       <r>    9.4468    1.0000 </r>
       <r>   11.2996    0.0000 </r>
       <r>   12.3153    0.0000 </r>
       <r>   12.8979    0.0000 </r>
       <r>   34.1748    0.0000 </r>
       <r>   34.2784    0.0000 </r>
      </set>
     </set>
    </set>
   </array>
  </eigenvalues>
  <separator name="orbital magnetization" >
   <v name="MAGDIPOLOUT">      0.00000000      0.00000000      0.00000000</v>
  </separator>
  <dos>
   <i name="efermi">      9.91723796 </i>
   <total>
    <array>
     <dimension dim="1">gridpoints</dimension>
     <dimension dim="2">spin</dimension>
     <field>energy</field>
     <field>total</field>
     <field>integrated</field>
     <set>
      <set comment="spin 1">
       <r>    -6.2012     0.0000     0.0000 </r>
       <r>    -6.0596     0.0000     0.0000 </r>
       <r>    -5.9179     0.0000     0.0000 </r>
       <r>    -5.7763     0.0000     0.0000 </r>
       <r>    -5.6347     0.0000     0.0000 </r>
       <r>    -5.4931     0.0000     0.0000 </r>
       <r>    -5.3514     0.0000     0.0000 </r>
       <r>    -5.2098     0.0000     0.0000 </r>
       <r>    -5.0682     0.0000     0.0000 </r>
       <r>    -4.9266     0.0000     0.0000 </r>
       <r>    -4.7849     0.0000     0.0000 </r>
       <r>    -4.6433     0.0000     0.0000 </r>
       <r>    -4.5017     0.0000     0.0000 </r>
       <r>    -4.3600     0.0001     0.0000 </r>
       <r>    -4.2184     0.0156     0.0022 </r>
       <r>    -4.0768     0.0500     0.0093 </r>
       <r>    -3.9352     0.0345     0.0142 </r>
       <r>    -3.7935     0.0966     0.0279 </r>
       <r>    -3.6519     0.0800     0.0392 </r>
       <r>    -3.5103     0.0693     0.0490 </r>
       <r>    -3.3687     0.1192     0.0659 </r>
       <r>    -3.2270     0.1064     0.0810 </r>
       <r>    -3.0854     0.0777     0.0920 </r>
       <r>    -2.9438     0.1740     0.1166 </r>
       <r>    -2.8022     0.0887     0.1292 </r>
       <r>    -2.6605     0.1707     0.1533 </r>
       <r>    -2.5189     0.1008     0.1676 </r>
       <r>    -2.3773     0.1495     0.1888 </r>
       <r>    -2.2357     0.1707     0.2130 </r>
       <r>    -2.0940     0.1491     0.2341 </r>
       <r>    -1.9524     0.1461     0.2548 </r>
       <r>    -1.8108     0.2187     0.2857 </r>
       <r>    -1.6692     0.0800     0.2971 </r>
       <r>    -1.5275     0.2197     0.3282 </r>
       <r>    -1.3859     0.2159     0.3588 </r>
       <r>    -1.2443     0.1807     0.3844 </r>
       <r>    -1.1027     0.1783     0.4096 </r>
       <r>    -0.9610     0.1722     0.4340 </r>
       <r>    -0.8194     0.1552     0.4560 </r>
       <r>    -0.6778     0.2838     0.4962 </r>
       <r>    -0.5362     0.1344     0.5152 </r>
       <r>    -0.3945     0.3101     0.5592 </r>
       <r>    -0.2529     0.1345     0.5782 </r>
       <r>    -0.1113     0.3190     0.6234 </r>
       <r>     0.0304     0.2031     0.6522 </r>
       <r>     0.1720     0.0714     0.6623 </r>
       <r>     0.3136     0.2047     0.6913 </r>
       <r>     0.4552     0.4558     0.7558 </r>
       <r>     0.5969     0.1729     0.7803 </r>
       <r>     0.7385     0.2852     0.8207 </r>
       <r>     0.8801     0.1519     0.8422 </r>
       <r>     1.0217     0.2518     0.8779 </r>
       <r>     1.1634     0.3189     0.9230 </r>
       <r>     1.3050     0.1269     0.9410 </r>
       <r>     1.4466     0.2400     0.9750 </r>
       <r>     1.5882     0.3489     1.0244 </r>
       <r>     1.7299     0.3380     1.0723 </r>
       <r>     1.8715     0.3616     1.1235 </r>
       <r>     2.0131     0.0913     1.1364 </r>
       <r>     2.1547     0.3110     1.1804 </r>
       <r>     2.2964     0.2849     1.2208 </r>
       <r>     2.4380     0.1873     1.2473 </r>
       <r>     2.5796     0.3207     1.2927 </r>
       <r>     2.7212     0.2957     1.3346 </r>
       <r>     2.8629     0.4178     1.3938 </r>
       <r>     3.0045     0.3027     1.4367 </r>
       <r>     3.1461     0.3396     1.4848 </r>
       <r>     3.2877     0.2513     1.5204 </r>
       <r>     3.4294     0.1597     1.5430 </r>
       <r>     3.5710     0.3615     1.5942 </r>
       <r>     3.7126     0.3452     1.6431 </r>
       <r>     3.8543     0.2478     1.6782 </r>
       <r>     3.9959     0.3425     1.7267 </r>
       <r>     4.1375     0.2102     1.7564 </r>
       <r>     4.2791     0.5966     1.8409 </r>
       <r>     4.4208     0.2727     1.8796 </r>
       <r>     4.5624     0.2900     1.9206 </r>
       <r>     4.7040     0.2174     1.9514 </r>
       <r>     4.8456     0.2852     1.9918 </r>
       <r>     4.9873     0.4672     2.0580 </r>
       <r>     5.1289     0.2739     2.0968 </r>
       <r>     5.2705     0.2201     2.1279 </r>
       <r>     5.4121     0.7239     2.2305 </r>
       <r>     5.5538     0.1327     2.2492 </r>
       <r>     5.6954     0.2381     2.2830 </r>
       <r>     5.8370     0.3488     2.3324 </r>
       <r>     5.9786     0.3908     2.3877 </r>
       <r>     6.1203     0.5508     2.4657 </r>
       <r>     6.2619     0.3704     2.5182 </r>
       <r>     6.4035     0.3136     2.5626 </r>
       <r>     6.5451     0.2724     2.6012 </r>
       <r>     6.6868     0.3025     2.6440 </r>
       <r>     6.8284     0.4697     2.7105 </r>
       <r>     6.9700     0.3564     2.7610 </r>
       <r>     7.1116     0.3470     2.8102 </r>
       <r>     7.2533     0.5188     2.8836 </r>
       <r>     7.3949     0.2395     2.9176 </r>
       <r>     7.5365     0.6071     3.0035 </r>
       <r>     7.6782     0.3729     3.0563 </r>
       <r>     7.8198     0.3333     3.1035 </r>
       <r>     7.9614     0.2914     3.1448 </r>
       <r>     8.1030     0.6364     3.2349 </r>
       <r>     8.2447     0.2946     3.2767 </r>
       <r>     8.3863     0.2474     3.3117 </r>
       <r>     8.5279     0.4963     3.3820 </r>
       <r>     8.6695     0.4253     3.4422 </r>
       <r>     8.8112     0.3992     3.4988 </r>
       <r>     8.9528     0.4513     3.5627 </r>
       <r>     9.0944     0.4885     3.6319 </r>
       <r>     9.2360     0.4724     3.6988 </r>
       <r>     9.3777     0.6689     3.7935 </r>
       <r>     9.5193     0.2652     3.8311 </r>
       <r>     9.6609     0.6343     3.9209 </r>
       <r>     9.8025     0.2755     3.9599 </r>
       <r>     9.9442     0.3637     4.0114 </r>
       <r>    10.0858     0.3727     4.0642 </r>
       <r>    10.2274     0.6178     4.1517 </r>
       <r>    10.3690     0.4368     4.2135 </r>
       <r>    10.5107     0.4630     4.2791 </r>
       <r>    10.6523     0.5667     4.3594 </r>
       <r>    10.7939     0.3799     4.4132 </r>
       <r>    10.9355     0.3381     4.4611 </r>
       <r>    11.0772     0.3830     4.5153 </r>
       <r>    11.2188     0.6799     4.6116 </r>
       <r>    11.3604     0.4099     4.6697 </r>
       <r>    11.5021     0.3660     4.7215 </r>
       <r>    11.6437     0.3862     4.7762 </r>
       <r>    11.7853     0.5098     4.8484 </r>
       <r>    11.9269     0.2565     4.8847 </r>
       <r>    12.0686     0.2538     4.9206 </r>
       <r>    12.2102     0.5149     4.9936 </r>
       <r>    12.3518     0.5171     5.0668 </r>
       <r>    12.4934     0.6756     5.1625 </r>
       <r>    12.6351     0.3877     5.2174 </r>
       <r>    12.7767     0.2951     5.2592 </r>
       <r>    12.9183     0.5162     5.3323 </r>
       <r>    13.0599     0.5905     5.4159 </r>
       <r>    13.2016     0.4962     5.4862 </r>
       <r>    13.3432     0.3686     5.5384 </r>
       <r>    13.4848     0.4730     5.6054 </r>
       <r>    13.6264     0.6573     5.6985 </r>
       <r>    13.7681     0.3760     5.7517 </r>
       <r>    13.9097     0.2381     5.7854 </r>
       <r>    14.0513     0.4011     5.8422 </r>
       <r>    14.1929     0.6535     5.9348 </r>
       <r>    14.3346     0.5913     6.0185 </r>
       <r>    14.4762     0.4594     6.0836 </r>
       <r>    14.6178     0.7101     6.1842 </r>
       <r>    14.7594     0.3938     6.2399 </r>
       <r>    14.9011     0.5363     6.3159 </r>
       <r>    15.0427     0.6126     6.4026 </r>
       <r>    15.1843     0.5707     6.4835 </r>
       <r>    15.3260     0.3654     6.5352 </r>
       <r>    15.4676     0.5180     6.6086 </r>
       <r>    15.6092     0.3958     6.6646 </r>
       <r>    15.7508     0.5192     6.7382 </r>
       <r>    15.8925     0.5373     6.8143 </r>
       <r>    16.0341     0.5182     6.8877 </r>
       <r>    16.1757     0.7670     6.9963 </r>
       <r>    16.3173     0.3854     7.0509 </r>
       <r>    16.4590     0.4964     7.1212 </r>
       <r>    16.6006     0.3639     7.1727 </r>
       <r>    16.7422     0.6579     7.2659 </r>
       <r>    16.8838     0.9011     7.3935 </r>
       <r>    17.0255     0.7239     7.4960 </r>
       <r>    17.1671     0.7546     7.6029 </r>
       <r>    17.3087     0.3366     7.6505 </r>
       <r>    17.4503     0.3803     7.7044 </r>
       <r>    17.5920     0.5530     7.7827 </r>
       <r>    17.7336     0.8164     7.8983 </r>
       <r>    17.8752     0.7362     8.0026 </r>
       <r>    18.0168     0.4779     8.0703 </r>
       <r>    18.1585     0.4947     8.1403 </r>
       <r>    18.3001     0.4658     8.2063 </r>
       <r>    18.4417     0.3195     8.2516 </r>
       <r>    18.5833     0.2484     8.2867 </r>
       <r>    18.7250     0.3235     8.3326 </r>
       <r>    18.8666     0.6922     8.4306 </r>
       <r>    19.0082     0.3313     8.4775 </r>
       <r>    19.1499     0.2843     8.5178 </r>
       <r>    19.2915     0.2169     8.5485 </r>
       <r>    19.4331     0.3489     8.5979 </r>
       <r>    19.5747     0.8730     8.7216 </r>
       <r>    19.7164     0.5922     8.8054 </r>
       <r>    19.8580     0.4411     8.8679 </r>
       <r>    19.9996     0.5755     8.9494 </r>
       <r>    20.1412     0.7424     9.0545 </r>
       <r>    20.2829     0.5036     9.1259 </r>
       <r>    20.4245     0.4722     9.1927 </r>
       <r>    20.5661     0.7158     9.2941 </r>
       <r>    20.7077     0.6539     9.3867 </r>
       <r>    20.8494     0.3870     9.4415 </r>
       <r>    20.9910     0.5224     9.5155 </r>
       <r>    21.1326     0.5684     9.5960 </r>
       <r>    21.2742     0.5556     9.6747 </r>
       <r>    21.4159     0.7105     9.7753 </r>
       <r>    21.5575     0.7991     9.8885 </r>
       <r>    21.6991     0.9017    10.0162 </r>
       <r>    21.8407     0.5079    10.0881 </r>
       <r>    21.9824     0.8068    10.2024 </r>
       <r>    22.1240     0.9100    10.3313 </r>
       <r>    22.2656     0.9655    10.4680 </r>
       <r>    22.4072     0.7244    10.5706 </r>
       <r>    22.5489     0.4217    10.6303 </r>
       <r>    22.6905     0.8808    10.7551 </r>
       <r>    22.8321     0.2343    10.7883 </r>
       <r>    22.9738     0.5497    10.8661 </r>
       <r>    23.1154     0.8136    10.9813 </r>
       <r>    23.2570     0.5337    11.0569 </r>
       <r>    23.3986     0.3590    11.1078 </r>
       <r>    23.5403     0.4376    11.1698 </r>
       <r>    23.6819     0.5332    11.2453 </r>
       <r>    23.8235     0.8073    11.3596 </r>
       <r>    23.9651     0.6747    11.4552 </r>
       <r>    24.1068     0.6214    11.5432 </r>
       <r>    24.2484     0.4378    11.6052 </r>
       <r>    24.3900     0.5735    11.6864 </r>
       <r>    24.5316     0.5226    11.7604 </r>
       <r>    24.6733     0.4213    11.8201 </r>
       <r>    24.8149     0.4328    11.8814 </r>
       <r>    24.9565     0.7770    11.9914 </r>
       <r>    25.0981     1.0472    12.1397 </r>
       <r>    25.2398     0.4732    12.2067 </r>
       <r>    25.3814     0.5126    12.2793 </r>
       <r>    25.5230     0.4694    12.3458 </r>
       <r>    25.6646     0.6068    12.4317 </r>
       <r>    25.8063     0.8211    12.5480 </r>
       <r>    25.9479     1.0515    12.6969 </r>
       <r>    26.0895     0.5169    12.7701 </r>
       <r>    26.2311     0.5519    12.8483 </r>
       <r>    26.3728     0.5750    12.9298 </r>
       <r>    26.5144     0.5130    13.0024 </r>
       <r>    26.6560     0.8667    13.1252 </r>
       <r>    26.7976     0.4698    13.1917 </r>
       <r>    26.9393     0.4504    13.2555 </r>
       <r>    27.0809     0.5313    13.3307 </r>
       <r>    27.2225     0.4639    13.3964 </r>
       <r>    27.3642     0.7301    13.4998 </r>
       <r>    27.5058     0.4822    13.5681 </r>
       <r>    27.6474     0.5020    13.6392 </r>
       <r>    27.7890     0.7173    13.7408 </r>
       <r>    27.9307     0.7582    13.8482 </r>
       <r>    28.0723     0.4126    13.9066 </r>
       <r>    28.2139     1.2064    14.0775 </r>
       <r>    28.3555     0.6691    14.1722 </r>
       <r>    28.4972     0.8653    14.2948 </r>
       <r>    28.6388     0.5462    14.3721 </r>
       <r>    28.7804     0.6812    14.4686 </r>
       <r>    28.9220     0.4379    14.5306 </r>
       <r>    29.0637     0.7576    14.6379 </r>
       <r>    29.2053     0.4947    14.7080 </r>
       <r>    29.3469     0.3328    14.7551 </r>
       <r>    29.4885     0.6923    14.8532 </r>
       <r>    29.6302     0.9037    14.9811 </r>
       <r>    29.7718     0.7202    15.0831 </r>
       <r>    29.9134     0.4828    15.1515 </r>
       <r>    30.0550     0.8913    15.2778 </r>
       <r>    30.1967     0.4835    15.3462 </r>
       <r>    30.3383     0.5471    15.4237 </r>
       <r>    30.4799     0.9391    15.5567 </r>
       <r>    30.6215     0.7289    15.6600 </r>
       <r>    30.7632     0.1524    15.6815 </r>
       <r>    30.9048     0.2644    15.7190 </r>
       <r>    31.0464     0.3740    15.7719 </r>
       <r>    31.1881     0.2462    15.8068 </r>
       <r>    31.3297     0.0832    15.8186 </r>
       <r>    31.4713     0.0822    15.8302 </r>
       <r>    31.6129     0.2774    15.8695 </r>
       <r>    31.7546     0.2287    15.9019 </r>
       <r>    31.8962     0.1074    15.9171 </r>
       <r>    32.0378     0.0317    15.9216 </r>
       <r>    32.1794     0.1073    15.9368 </r>
       <r>    32.3211     0.0197    15.9396 </r>
       <r>    32.4627     0.0629    15.9485 </r>
       <r>    32.6043     0.0101    15.9499 </r>
       <r>    32.7459     0.0338    15.9547 </r>
       <r>    32.8876     0.0687    15.9644 </r>
       <r>    33.0292     0.0181    15.9670 </r>
       <r>    33.1708     0.0490    15.9739 </r>
       <r>    33.3124     0.0511    15.9812 </r>
       <r>    33.4541     0.0791    15.9924 </r>
       <r>    33.5957     0.0053    15.9931 </r>
       <r>    33.7373     0.0000    15.9931 </r>
       <r>    33.8789     0.0000    15.9931 </r>
       <r>    34.0206     0.0000    15.9931 </r>
       <r>    34.1622     0.0053    15.9939 </r>
       <r>    34.3038     0.0218    15.9970 </r>
       <r>    34.4454     0.0213    16.0000 </r>
       <r>    34.5871     0.0001    16.0000 </r>
       <r>    34.7287     0.0000    16.0000 </r>
       <r>    34.8703     0.0000    16.0000 </r>
       <r>    35.0120     0.0000    16.0000 </r>
       <r>    35.1536     0.0000    16.0000 </r>
       <r>    35.2952     0.0000    16.0000 </r>
       <r>    35.4368     0.0000    16.0000 </r>
       <r>    35.5785     0.0000    16.0000 </r>
       <r>    35.7201     0.0000    16.0000 </r>
       <r>    35.8617     0.0000    16.0000 </r>
       <r>    36.0033     0.0000    16.0000 </r>
       <r>    36.1450     0.0000    16.0000 </r>
       <r>    36.2866     0.0000    16.0000 </r>
      </set>
     </set>
    </array>
   </total>
  </dos>
 </calculation>
 <structure name="finalpos" >
  <crystal>
   <varray name="basis" >
    <v>       1.54085588       1.54085588       1.54085588 </v>
    <v>       1.54085588      -1.54085588      -1.54085588 </v>
    <v>      -1.54085588       1.54085588      -1.54085588 </v>
   </varray>
   <i name="volume">     14.63342728 </i>
   <varray name="rec_basis" >
    <v>       0.32449498       0.32449498       0.00000000 </v>
    <v>       0.32449498       0.00000000      -0.32449498 </v>
    <v>       0.00000000       0.32449498      -0.32449498 </v>
   </varray>
  </crystal>
  <varray name="positions" >
   <v>       0.00000000       0.00000000       0.00000000 </v>
  </varray>
 </structure>
</modeling>
