   2   2   0   0
  0.2073813E+02  0.3885422E-09  0.3885423E-09  0.3885421E-09  0.5000000E-15
  1.000000000000000E-004
  CAR 
 unknown system                          
     16.11034673     -7.28535864  301      5.66270205      1.00000000
     -7.285  0.0000E+00  0.0000E+00
     -7.207  0.0000E+00  0.0000E+00
     -7.129  0.0000E+00  0.0000E+00
     -7.051  0.0000E+00  0.0000E+00
     -6.973  0.0000E+00  0.0000E+00
     -6.895  0.0000E+00  0.0000E+00
     -6.817  0.0000E+00  0.0000E+00
     -6.739  0.0000E+00  0.0000E+00
     -6.661  0.0000E+00  0.0000E+00
     -6.583  0.0000E+00  0.0000E+00
     -6.506  0.1483E-18  0.1156E-19
     -6.428  0.8988E-12  0.7009E-13
     -6.350  0.4560E-07  0.3556E-08
     -6.272  0.2472E-04  0.1931E-05
     -6.194  0.3872E-03  0.3212E-04
     -6.116  0.1058E-02  0.1146E-03
     -6.038  0.1421E-02  0.2254E-03
     -5.960  0.1948E-02  0.3774E-03
     -5.882  0.1760E-02  0.5146E-03
     -5.804  0.2765E-02  0.7302E-03
     -5.726  0.2205E-02  0.9022E-03
     -5.648  0.2803E-02  0.1121E-02
     -5.570  0.3025E-02  0.1357E-02
     -5.492  0.3421E-02  0.1624E-02
     -5.414  0.3197E-02  0.1873E-02
     -5.336  0.2864E-02  0.2096E-02
     -5.258  0.4790E-02  0.2470E-02
     -5.180  0.3754E-02  0.2762E-02
     -5.102  0.3836E-02  0.3062E-02
     -5.024  0.3574E-02  0.3340E-02
     -4.946  0.5557E-02  0.3774E-02
     -4.868  0.4161E-02  0.4098E-02
     -4.790  0.5288E-02  0.4511E-02
     -4.712  0.4758E-02  0.4882E-02
     -4.634  0.4788E-02  0.5255E-02
     -4.556  0.4935E-02  0.5640E-02
     -4.478  0.6819E-02  0.6172E-02
     -4.400  0.6703E-02  0.6694E-02
     -4.322  0.4928E-02  0.7079E-02
     -4.244  0.6155E-02  0.7559E-02
     -4.166  0.6653E-02  0.8078E-02
     -4.088  0.8323E-02  0.8727E-02
     -4.010  0.7923E-02  0.9345E-02
     -3.932  0.8536E-02  0.1001E-01
     -3.854  0.1168E-01  0.1092E-01
     -3.776  0.5671E-02  0.1136E-01
     -3.698  0.7524E-02  0.1195E-01
     -3.620  0.1035E-01  0.1276E-01
     -3.542  0.7219E-02  0.1332E-01
     -3.464  0.7349E-02  0.1389E-01
     -3.386  0.8432E-02  0.1455E-01
     -3.308  0.8175E-02  0.1519E-01
     -3.230  0.5079E-02  0.1558E-01
     -3.152  0.3543E-02  0.1586E-01
     -3.074  0.6473E-02  0.1637E-01
     -2.996  0.8486E-02  0.1703E-01
     -2.918  0.7301E-02  0.1760E-01
     -2.840  0.5281E-02  0.1801E-01
     -2.762  0.3380E-02  0.1827E-01
     -2.684  0.2377E-02  0.1846E-01
     -2.606  0.2786E-02  0.1867E-01
     -2.528  0.4726E-02  0.1904E-01
     -2.450  0.6425E-02  0.1954E-01
     -2.372  0.3489E-02  0.1982E-01
     -2.294  0.2214E-02  0.1999E-01
     -2.216  0.1378E-03  0.2000E-01
     -2.138  0.1899E-06  0.2000E-01
     -2.060  0.8928E-08  0.2000E-01
     -1.982  0.2915E-04  0.2000E-01
     -1.904  0.1836E-02  0.2015E-01
     -1.826  0.7233E-02  0.2071E-01
     -1.748  0.4694E-02  0.2108E-01
     -1.670  0.2223E-02  0.2125E-01
     -1.592  0.2497E-02  0.2144E-01
     -1.514  0.2075E-02  0.2161E-01
     -1.436  0.3193E-02  0.2185E-01
     -1.358  0.6484E-02  0.2236E-01
     -1.280  0.1381E-01  0.2344E-01
     -1.202  0.1527E-01  0.2463E-01
     -1.124  0.1404E-01  0.2572E-01
     -1.047  0.1166E-01  0.2663E-01
     -0.969  0.7827E-02  0.2724E-01
     -0.891  0.9020E-02  0.2795E-01
     -0.813  0.9907E-02  0.2872E-01
     -0.735  0.4421E-02  0.2906E-01
     -0.657  0.7613E-02  0.2966E-01
     -0.579  0.1142E-01  0.3055E-01
     -0.501  0.4534E-02  0.3090E-01
     -0.423  0.2073E-02  0.3106E-01
     -0.345  0.4267E-02  0.3140E-01
     -0.267  0.8248E-02  0.3204E-01
     -0.189  0.5582E-02  0.3247E-01
     -0.111  0.1341E-02  0.3258E-01
     -0.033  0.3266E-02  0.3283E-01
      0.045  0.5871E-02  0.3329E-01
      0.123  0.8227E-02  0.3393E-01
      0.201  0.2006E-02  0.3409E-01
      0.279  0.1463E-02  0.3420E-01
      0.357  0.2182E-02  0.3437E-01
      0.435  0.3077E-02  0.3461E-01
      0.513  0.6787E-02  0.3514E-01
      0.591  0.2892E-02  0.3537E-01
      0.669  0.5260E-03  0.3541E-01
      0.747  0.2425E-02  0.3560E-01
      0.825  0.3216E-02  0.3585E-01
      0.903  0.4216E-02  0.3618E-01
      0.981  0.3417E-02  0.3645E-01
      1.059  0.6530E-03  0.3650E-01
      1.137  0.1429E-02  0.3661E-01
      1.215  0.1586E-02  0.3673E-01
      1.293  0.4466E-02  0.3708E-01
      1.371  0.9291E-02  0.3780E-01
      1.449  0.8109E-02  0.3844E-01
      1.527  0.1213E-01  0.3938E-01
      1.605  0.1250E-01  0.4036E-01
      1.683  0.1039E-01  0.4117E-01
      1.761  0.1120E-01  0.4204E-01
      1.839  0.1209E-01  0.4298E-01
      1.917  0.1172E-01  0.4390E-01
      1.995  0.1020E-01  0.4469E-01
      2.073  0.9498E-02  0.4543E-01
      2.151  0.8805E-02  0.4612E-01
      2.229  0.1117E-01  0.4699E-01
      2.307  0.1471E-01  0.4814E-01
      2.385  0.1156E-01  0.4904E-01
      2.463  0.9105E-02  0.4975E-01
      2.541  0.1280E-01  0.5075E-01
      2.619  0.1248E-01  0.5172E-01
      2.697  0.1366E-01  0.5279E-01
      2.775  0.1554E-01  0.5400E-01
      2.853  0.1634E-01  0.5527E-01
      2.931  0.1696E-01  0.5660E-01
      3.009  0.1474E-01  0.5774E-01
      3.087  0.1395E-01  0.5883E-01
      3.165  0.1186E-01  0.5976E-01
      3.243  0.1652E-01  0.6105E-01
      3.321  0.1585E-01  0.6228E-01
      3.399  0.1558E-01  0.6350E-01
      3.477  0.1168E-01  0.6441E-01
      3.555  0.1095E-01  0.6526E-01
      3.633  0.1533E-01  0.6646E-01
      3.711  0.1417E-01  0.6756E-01
      3.789  0.1331E-01  0.6860E-01
      3.867  0.1134E-01  0.6948E-01
      3.945  0.1343E-01  0.7053E-01
      4.023  0.1092E-01  0.7138E-01
      4.101  0.1354E-01  0.7244E-01
      4.179  0.1269E-01  0.7343E-01
      4.257  0.9832E-02  0.7420E-01
      4.335  0.9422E-02  0.7493E-01
      4.412  0.1295E-01  0.7594E-01
      4.490  0.7917E-02  0.7656E-01
      4.568  0.5379E-02  0.7698E-01
      4.646  0.5175E-02  0.7738E-01
      4.724  0.5727E-02  0.7783E-01
      4.802  0.5762E-02  0.7828E-01
      4.880  0.4738E-02  0.7865E-01
      4.958  0.3468E-02  0.7892E-01
      5.036  0.2934E-02  0.7915E-01
      5.114  0.3189E-02  0.7939E-01
      5.192  0.2050E-02  0.7955E-01
      5.270  0.2861E-02  0.7978E-01
      5.348  0.1330E-02  0.7988E-01
      5.426  0.1040E-02  0.7996E-01
      5.504  0.4731E-03  0.8000E-01
      5.582  0.1900E-04  0.8000E-01
      5.660  0.1418E-07  0.8000E-01
      5.738  0.1057E-12  0.8000E-01
      5.816  0.0000E+00  0.8000E-01
      5.894  0.0000E+00  0.8000E-01
      5.972  0.1874E-12  0.8000E-01
      6.050  0.2799E-07  0.8000E-01
      6.128  0.4338E-04  0.8000E-01
      6.206  0.1129E-02  0.8009E-01
      6.284  0.1857E-02  0.8024E-01
      6.362  0.8811E-03  0.8030E-01
      6.440  0.3646E-02  0.8059E-01
      6.518  0.4902E-02  0.8097E-01
      6.596  0.3357E-02  0.8123E-01
      6.674  0.5259E-02  0.8164E-01
      6.752  0.3699E-02  0.8193E-01
      6.830  0.3865E-02  0.8223E-01
      6.908  0.6578E-02  0.8275E-01
      6.986  0.1020E-01  0.8354E-01
      7.064  0.5944E-02  0.8400E-01
      7.142  0.7859E-02  0.8462E-01
      7.220  0.8081E-02  0.8525E-01
      7.298  0.1042E-01  0.8606E-01
      7.376  0.8579E-02  0.8673E-01
      7.454  0.1344E-01  0.8778E-01
      7.532  0.1324E-01  0.8881E-01
      7.610  0.1154E-01  0.8971E-01
      7.688  0.1888E-01  0.9118E-01
      7.766  0.1906E-01  0.9267E-01
      7.844  0.1434E-01  0.9379E-01
      7.922  0.1294E-01  0.9480E-01
      8.000  0.1515E-01  0.9598E-01
      8.078  0.1451E-01  0.9711E-01
      8.156  0.1345E-01  0.9816E-01
      8.234  0.1271E-01  0.9915E-01
      8.312  0.8897E-02  0.9984E-01
      8.390  0.1452E-01  0.1010E+00
      8.468  0.1063E-01  0.1018E+00
      8.546  0.8307E-02  0.1025E+00
      8.624  0.1227E-01  0.1034E+00
      8.702  0.1143E-01  0.1043E+00
      8.780  0.2397E-01  0.1062E+00
      8.858  0.2434E-01  0.1081E+00
      8.936  0.1873E-01  0.1095E+00
      9.014  0.2050E-01  0.1111E+00
      9.092  0.1728E-01  0.1125E+00
      9.170  0.1636E-01  0.1138E+00
      9.248  0.1757E-01  0.1151E+00
      9.326  0.1655E-01  0.1164E+00
      9.404  0.1236E-01  0.1174E+00
      9.482  0.1238E-01  0.1183E+00
      9.560  0.1286E-01  0.1193E+00
      9.638  0.1495E-01  0.1205E+00
      9.716  0.1044E-01  0.1213E+00
      9.794  0.1400E-01  0.1224E+00
      9.871  0.1415E-01  0.1235E+00
      9.949  0.7763E-02  0.1241E+00
     10.027  0.1578E-01  0.1254E+00
     10.105  0.1623E-01  0.1266E+00
     10.183  0.1340E-01  0.1277E+00
     10.261  0.1015E-01  0.1285E+00
     10.339  0.1152E-01  0.1294E+00
     10.417  0.1528E-01  0.1305E+00
     10.495  0.1264E-01  0.1315E+00
     10.573  0.1174E-01  0.1324E+00
     10.651  0.1229E-01  0.1334E+00
     10.729  0.1506E-01  0.1346E+00
     10.807  0.1263E-01  0.1356E+00
     10.885  0.9855E-02  0.1363E+00
     10.963  0.8264E-02  0.1370E+00
     11.041  0.1139E-01  0.1379E+00
     11.119  0.1219E-01  0.1388E+00
     11.197  0.1135E-01  0.1397E+00
     11.275  0.9941E-02  0.1405E+00
     11.353  0.1395E-01  0.1416E+00
     11.431  0.1091E-01  0.1424E+00
     11.509  0.1130E-01  0.1433E+00
     11.587  0.9150E-02  0.1440E+00
     11.665  0.8081E-02  0.1446E+00
     11.743  0.9866E-02  0.1454E+00
     11.821  0.7313E-02  0.1460E+00
     11.899  0.7958E-02  0.1466E+00
     11.977  0.1059E-01  0.1474E+00
     12.055  0.1226E-01  0.1484E+00
     12.133  0.1187E-01  0.1493E+00
     12.211  0.7180E-02  0.1499E+00
     12.289  0.9301E-02  0.1506E+00
     12.367  0.8250E-02  0.1512E+00
     12.445  0.3719E-02  0.1515E+00
     12.523  0.3568E-02  0.1518E+00
     12.601  0.6036E-02  0.1523E+00
     12.679  0.9913E-02  0.1531E+00
     12.757  0.8240E-02  0.1537E+00
     12.835  0.7455E-02  0.1543E+00
     12.913  0.9206E-02  0.1550E+00
     12.991  0.4051E-02  0.1553E+00
     13.069  0.4984E-02  0.1557E+00
     13.147  0.4030E-02  0.1560E+00
     13.225  0.2843E-02  0.1562E+00
     13.303  0.4354E-02  0.1566E+00
     13.381  0.5887E-02  0.1570E+00
     13.459  0.3281E-02  0.1573E+00
     13.537  0.3273E-02  0.1575E+00
     13.615  0.9355E-02  0.1583E+00
     13.693  0.4397E-02  0.1586E+00
     13.771  0.1333E-02  0.1587E+00
     13.849  0.3800E-03  0.1587E+00
     13.927  0.1734E-04  0.1588E+00
     14.005  0.9508E-03  0.1588E+00
     14.083  0.2294E-02  0.1590E+00
     14.161  0.4975E-03  0.1590E+00
     14.239  0.7653E-03  0.1591E+00
     14.317  0.2826E-02  0.1593E+00
     14.395  0.4336E-02  0.1597E+00
     14.473  0.7746E-03  0.1597E+00
     14.551  0.8051E-05  0.1597E+00
     14.629  0.1710E-08  0.1597E+00
     14.707  0.6090E-06  0.1597E+00
     14.785  0.2077E-03  0.1597E+00
     14.863  0.1297E-02  0.1598E+00
     14.941  0.3072E-03  0.1599E+00
     15.019  0.7392E-03  0.1599E+00
     15.097  0.9348E-03  0.1600E+00
     15.175  0.7541E-04  0.1600E+00
     15.253  0.1373E-06  0.1600E+00
     15.330  0.2697E-11  0.1600E+00
     15.408  0.3955E-18  0.1600E+00
     15.486  0.0000E+00  0.1600E+00
     15.564  0.0000E+00  0.1600E+00
     15.642  0.0000E+00  0.1600E+00
     15.720  0.0000E+00  0.1600E+00
     15.798  0.0000E+00  0.1600E+00
     15.876  0.0000E+00  0.1600E+00
     15.954  0.0000E+00  0.1600E+00
     16.032  0.0000E+00  0.1600E+00
     16.110  0.0000E+00  0.1600E+00
