    2    2  100    1
  0.2073813E+02  0.3885422E-09  0.3885423E-09  0.3885421E-09  0.5000000E-15
  1.000000000000000E-004
  CAR 
 unknown system                          
      8    182      8
 
  0.4166667E-01  0.4166667E-01  0.4166667E-01  0.1157407E-02
    1       -6.221917   1.000000
    2        5.216792   1.000000
    3        5.438508   1.000000
    4        5.438510   1.000000
    5        8.059086   0.000000
    6        8.081773   0.000000
    7        8.081780   0.000000
    8        8.635471   0.000000
 
  0.1250000E+00  0.4166667E-01  0.4166667E-01  0.3472222E-02
    1       -6.104370   1.000000
    2        4.330869   1.000000
    3        5.032980   1.000000
    4        5.386205   1.000000
    5        8.093380   0.000000
    6        8.196721   0.000000
    7        8.369809   0.000000
    8        9.519491   0.000000
 
  0.2083333E+00  0.4166667E-01  0.4166667E-01  0.3472222E-02
    1       -5.814377   1.000000
    2        2.854587   1.000000
    3        4.672956   1.000000
    4        5.124647   1.000000
    5        7.803208   0.000000
    6        8.577019   0.000000
    7        8.863361   0.000000
    8       10.869528   0.000000
 
  0.2916667E+00  0.4166667E-01  0.4166667E-01  0.3472222E-02
    1       -5.364909   1.000000
    2        1.374926   1.000000
    3        4.383172   1.000000
    4        4.816590   1.000000
    5        7.490315   0.000000
    6        8.867541   0.000000
    7        9.113736   0.000000
    8       12.052603   0.000000
 
  0.3750000E+00  0.4166667E-01  0.4166667E-01  0.3472222E-02
    1       -4.791776   1.000000
    2        0.047270   1.000000
    3        4.193231   1.000000
    4        4.550542   1.000000
    5        7.244546   0.000000
    6        8.917753   0.000000
    7        9.049786   0.000000
    8       12.997054   0.000000
 
  0.4583333E+00  0.4166667E-01  0.4166667E-01  0.3472222E-02
    1       -4.211592   1.000000
    2       -0.973222   1.000000
    3        4.112277   1.000000
    4        4.361331   1.000000
    5        7.098323   0.000000
    6        8.887667   0.000000
    7        8.891024   0.000000
    8       13.262933   0.000000
 
 -0.4583333E+00  0.4166667E-01  0.4166667E-01  0.3472222E-02
    1       -3.991240   1.000000
    2       -1.304684   1.000000
    3        4.138996   1.000000
    4        4.264482   1.000000
    5        7.062758   0.000000
    6        8.794270   0.000000
    7        8.920834   0.000000
    8       13.237557   0.000000
 
 -0.3750000E+00  0.4166667E-01  0.4166667E-01  0.3472222E-02
    1       -4.390395   1.000000
    2       -0.683958   1.000000
    3        4.267008   1.000000
    4        4.268977   1.000000
    5        7.139377   0.000000
    6        8.796601   0.000000
    7        9.046086   0.000000
    8       13.147551   0.000000
 
 -0.2916667E+00  0.4166667E-01  0.4166667E-01  0.3472222E-02
    1       -4.992164   1.000000
    2        0.465244   1.000000
    3        4.379799   1.000000
    4        4.486466   1.000000
    5        7.322976   0.000000
    6        8.831528   0.000000
    7        9.191631   0.000000
    8       12.352016   0.000000
 
 -0.2083333E+00  0.4166667E-01  0.4166667E-01  0.3472222E-02
    1       -5.530897   1.000000
    2        1.857118   1.000000
    3        4.594729   1.000000
    4        4.778677   1.000000
    5        7.595166   0.000000
    6        8.714422   0.000000
    7        9.172856   0.000000
    8       11.521409   0.000000
 
 -0.1250000E+00  0.4166667E-01  0.4166667E-01  0.3472222E-02
    1       -5.929598   1.000000
    2        3.363641   1.000000
    3        4.895080   1.000000
    4        5.096272   1.000000
    5        7.896365   0.000000
    6        8.366230   0.000000
    7        8.840647   0.000000
    8       10.387864   0.000000
 
 -0.4166667E-01  0.4166667E-01  0.4166667E-01  0.3472222E-02
    1       -6.163015   1.000000
    2        4.792803   1.000000
    3        5.222410   1.000000
    4        5.317208   1.000000
    5        7.945813   0.000000
    6        8.240216   0.000000
    7        8.368142   0.000000
    8        9.055301   0.000000
 
  0.1250000E+00  0.1250000E+00  0.4166667E-01  0.3472222E-02
    1       -6.045451   1.000000
    2        4.238332   1.000000
    3        4.888614   1.000000
    4        4.980860   1.000000
    5        7.714065   0.000000
    6        8.651629   0.000000
    7        8.841951   0.000000
    8        9.579506   0.000000
 
  0.2083333E+00  0.1250000E+00  0.4166667E-01  0.6944444E-02
    1       -5.812451   1.000000
    2        3.214707   1.000000
    3        4.316879   1.000000
    4        4.839290   1.000000
    5        7.725507   0.000000
    6        8.798952   0.000000
    7        9.331969   0.000000
    8       10.278255   0.000000
 
  0.2916667E+00  0.1250000E+00  0.4166667E-01  0.6944444E-02
    1       -5.414507   1.000000
    2        1.830623   1.000000
    3        3.939879   1.000000
    4        4.555985   1.000000
    5        7.897163   0.000000
    6        8.770853   0.000000
    7        9.711005   0.000000
    8       10.563236   0.000000
 
  0.3750000E+00  0.1250000E+00  0.4166667E-01  0.6944444E-02
    1       -4.876468   1.000000
    2        0.488054   1.000000
    3        3.680988   1.000000
    4        4.262585   1.000000
    5        7.817673   0.000000
    6        8.814420   0.000000
    7        9.724073   0.000000
    8       11.151348   0.000000
 
  0.4583333E+00  0.1250000E+00  0.4166667E-01  0.6944444E-02
    1       -4.274259   1.000000
    2       -0.639487   1.000000
    3        3.501127   1.000000
    4        4.077390   1.000000
    5        7.694929   0.000000
    6        8.753995   0.000000
    7        9.563359   0.000000
    8       12.250639   0.000000
 
 -0.4583333E+00  0.1250000E+00  0.4166667E-01  0.6944444E-02
    1       -3.873346   1.000000
    2       -1.253862   1.000000
    3        3.379603   1.000000
    4        4.053941   1.000000
    5        7.650476   0.000000
    6        8.719301   0.000000
    7        9.429706   0.000000
    8       13.376119   0.000000
 
 -0.3750000E+00  0.1250000E+00  0.4166667E-01  0.6944444E-02
    1       -4.096205   1.000000
    2       -0.922691   1.000000
    3        3.334287   1.000000
    4        4.184129   1.000000
    5        7.706531   0.000000
    6        8.765584   0.000000
    7        9.406648   0.000000
    8       13.067096   0.000000
 
 -0.2916667E+00  0.1250000E+00  0.4166667E-01  0.6944444E-02
    1       -4.677708   1.000000
    2        0.083133   1.000000
    3        3.397181   1.000000
    4        4.431303   1.000000
    5        7.856829   0.000000
    6        8.840096   0.000000
    7        9.478664   0.000000
    8       11.922773   0.000000
 
 -0.2083333E+00  0.1250000E+00  0.4166667E-01  0.6944444E-02
    1       -5.250036   1.000000
    2        1.368283   1.000000
    3        3.595232   1.000000
    4        4.748419   1.000000
    5        8.073244   0.000000
    6        8.763345   0.000000
    7        9.491180   0.000000
    8       11.089227   0.000000
 
 -0.1250000E+00  0.1250000E+00  0.4166667E-01  0.6944444E-02
    1       -5.698303   1.000000
    2        2.725320   1.000000
    3        3.975119   1.000000
    4        5.056236   1.000000
    5        8.190858   0.000000
    6        8.517836   0.000000
    7        9.160163   0.000000
    8       10.697082   0.000000
 
 -0.4166667E-01  0.1250000E+00  0.4166667E-01  0.6944444E-02
    1       -5.987360   1.000000
    2        3.788522   1.000000
    3        4.695744   1.000000
    4        5.207152   1.000000
    5        7.985622   0.000000
    6        8.375344   0.000000
    7        8.762067   0.000000
    8       10.048541   0.000000
 
  0.2083333E+00  0.2083333E+00  0.4166667E-01  0.3472222E-02
    1       -5.636483   1.000000
    2        2.943459   1.000000
    3        4.154461   1.000000
    4        4.164361   1.000000
    5        7.134315   0.000000
    6        9.418636   0.000000
    7       10.040351   0.000000
    8       10.056023   0.000000
 
  0.2916667E+00  0.2083333E+00  0.4166667E-01  0.6944444E-02
    1       -5.292486   1.000000
    2        2.003976   1.000000
    3        3.585992   1.000000
    4        3.986551   1.000000
    5        7.167584   0.000000
    6        9.107987   0.000000
    7       10.230659   0.000000
    8       10.649647   0.000000
 
  0.3750000E+00  0.2083333E+00  0.4166667E-01  0.6944444E-02
    1       -4.797632   1.000000
    2        0.835208   1.000000
    3        3.136603   1.000000
    4        3.731422   1.000000
    5        7.421900   0.000000
    6        9.329589   0.000000
    7       10.030058   0.000000
    8       10.857271   0.000000
 
  0.4583333E+00  0.2083333E+00  0.4166667E-01  0.6944444E-02
    1       -4.201348   1.000000
    2       -0.280960   1.000000
    3        2.748806   1.000000
    4        3.598505   1.000000
    5        7.490894   0.000000
    6        9.756913   0.000000
    7       10.313742   0.000000
    8       10.740686   0.000000
 
 -0.4583333E+00  0.2083333E+00  0.4166667E-01  0.6944444E-02
    1       -3.679485   1.000000
    2       -1.074764   1.000000
    3        2.446453   1.000000
    4        3.633169   1.000000
    5        7.560329   0.000000
    6        9.549340   0.000000
    7       10.549088   0.000000
    8       11.710977   0.000000
 
 -0.3750000E+00  0.2083333E+00  0.4166667E-01  0.6944444E-02
    1       -3.690044   1.000000
    2       -1.056449   1.000000
    3        2.272381   1.000000
    4        3.816475   1.000000
    5        7.742737   0.000000
    6        9.418849   0.000000
    7       10.416969   0.000000
    8       13.031756   0.000000
 
 -0.2916667E+00  0.2083333E+00  0.4166667E-01  0.6944444E-02
    1       -4.218290   1.000000
    2       -0.250216   1.000000
    3        2.269192   1.000000
    4        4.116939   1.000000
    5        8.034698   0.000000
    6        9.344568   0.000000
    7       10.329954   0.000000
    8       11.697903   0.000000
 
 -0.2083333E+00  0.2083333E+00  0.4166667E-01  0.6944444E-02
    1       -4.811843   1.000000
    2        0.810642   1.000000
    3        2.519409   1.000000
    4        4.482937   1.000000
    5        8.365518   0.000000
    6        9.121341   0.000000
    7       10.152803   0.000000
    8       10.789260   0.000000
 
 -0.1250000E+00  0.2083333E+00  0.4166667E-01  0.6944444E-02
    1       -5.302498   1.000000
    2        1.720617   1.000000
    3        3.222100   1.000000
    4        4.813153   1.000000
    5        8.441874   0.000000
    6        8.685157   0.000000
    7        9.614096   0.000000
    8       10.716891   0.000000
 
 -0.4166667E-01  0.2083333E+00  0.4166667E-01  0.6944444E-02
    1       -5.642346   1.000000
    2        2.338306   1.000000
    3        4.320526   1.000000
    4        4.934773   1.000000
    5        7.912717   0.000000
    6        8.557806   0.000000
    7        9.220633   0.000000
    8       11.004300   0.000000
 
  0.2916667E+00  0.2916667E+00  0.4166667E-01  0.3472222E-02
    1       -5.002094   1.000000
    2        1.541001   1.000000
    3        3.465392   1.000000
    4        3.517085   1.000000
    5        6.612789   0.000000
    6        8.371035   0.000000
    7       11.348692   0.000000
    8       11.425713   0.000000
 
  0.3750000E+00  0.2916667E+00  0.4166667E-01  0.6944444E-02
    1       -4.554839   1.000000
    2        0.715875   1.000000
    3        2.988284   1.000000
    4        3.294819   1.000000
    5        6.726087   0.000000
    6        8.066508   0.000000
    7       11.488275   0.000000
    8       12.089887   0.000000
 
  0.4583333E+00  0.2916667E+00  0.4166667E-01  0.6944444E-02
    1       -3.982712   1.000000
    2       -0.194262   1.000000
    3        2.374722   1.000000
    4        3.169515   1.000000
    5        6.965000   0.000000
    6        8.580048   0.000000
    7       11.272451   0.000000
    8       12.177190   0.000000
 
 -0.4583333E+00  0.2916667E+00  0.4166667E-01  0.6944444E-02
    1       -3.396336   1.000000
    2       -0.987084   1.000000
    3        1.842934   1.000000
    4        3.207556   1.000000
    5        7.077899   0.000000
    6        9.807678   0.000000
    7       11.015893   0.000000
    8       12.011669   0.000000
 
 -0.3750000E+00  0.2916667E+00  0.4166667E-01  0.6944444E-02
    1       -3.202333   1.000000
    2       -1.216724   1.000000
    3        1.515889   1.000000
    4        3.395442   1.000000
    5        7.286487   0.000000
    6       10.709517   0.000000
    7       11.425560   0.000000
    8       11.834945   0.000000
 
 -0.2916667E+00  0.2916667E+00  0.4166667E-01  0.6944444E-02
    1       -3.650395   1.000000
    2       -0.666302   1.000000
    3        1.485428   1.000000
    4        3.708793   1.000000
    5        7.629036   0.000000
    6       10.470572   0.000000
    7       11.488772   0.000000
    8       11.739728   0.000000
 
 -0.2083333E+00  0.2916667E+00  0.4166667E-01  0.6944444E-02
    1       -4.247866   1.000000
    2        0.011574   1.000000
    3        1.922844   1.000000
    4        4.100019   1.000000
    5        8.041856   0.000000
    6        9.735535   0.000000
    7       10.783012   0.000000
    8       11.141467   0.000000
 
 -0.1250000E+00  0.2916667E+00  0.4166667E-01  0.6944444E-02
    1       -4.766480   1.000000
    2        0.496437   1.000000
    3        2.888655   1.000000
    4        4.467188   1.000000
    5        8.202879   0.000000
    6        8.953394   0.000000
    7        9.817603   0.000000
    8       11.272355   0.000000
 
 -0.4166667E-01  0.2916667E+00  0.4166667E-01  0.6944444E-02
    1       -5.145963   1.000000
    2        0.916140   1.000000
    3        4.056503   1.000000
    4        4.623420   1.000000
    5        7.653239   0.000000
    6        8.783446   0.000000
    7        9.348294   0.000000
    8       11.665661   0.000000
 
  0.3750000E+00  0.3750000E+00  0.4166667E-01  0.3472222E-02
    1       -4.154606   1.000000
    2        0.120963   1.000000
    3        2.966733   1.000000
    4        3.053177   1.000000
    5        6.279021   0.000000
    6        7.352538   0.000000
    7       12.833194   0.000000
    8       12.870227   0.000000
 
  0.4583333E+00  0.3750000E+00  0.4166667E-01  0.6944444E-02
    1       -3.616858   1.000000
    2       -0.608356   1.000000
    3        2.581306   1.000000
    4        2.860201   1.000000
    5        6.486757   0.000000
    6        7.253858   0.000000
    7       12.879236   0.000000
    8       13.599776   0.000000
 
 -0.4583333E+00  0.3750000E+00  0.4166667E-01  0.6944444E-02
    1       -3.007820   1.000000
    2       -1.294250   1.000000
    3        1.897383   1.000000
    4        2.875558   1.000000
    5        6.680316   0.000000
    6        8.139871   0.000000
    7       12.631856   0.000000
    8       13.610861   0.000000
 
 -0.3750000E+00  0.3750000E+00  0.4166667E-01  0.6944444E-02
    1       -2.679087   1.000000
    2       -1.608395   1.000000
    3        1.373204   1.000000
    4        3.044739   1.000000
    5        6.880573   0.000000
    6        9.597230   0.000000
    7       12.310315   0.000000
    8       13.116185   0.000000
 
 -0.2916667E+00  0.3750000E+00  0.4166667E-01  0.6944444E-02
    1       -3.091335   1.000000
    2       -1.212350   1.000000
    3        1.275442   1.000000
    4        3.347790   1.000000
    5        7.225037   0.000000
    6       11.121268   0.000000
    7       11.540149   0.000000
    8       12.269154   0.000000
 
 -0.2083333E+00  0.3750000E+00  0.4166667E-01  0.6944444E-02
    1       -3.659980   1.000000
    2       -0.839742   1.000000
    3        1.789922   1.000000
    4        3.745225   1.000000
    5        7.672563   0.000000
    6        9.966968   0.000000
    7       11.003670   0.000000
    8       12.308457   0.000000
 
 -0.1250000E+00  0.3750000E+00  0.4166667E-01  0.6944444E-02
    1       -4.164155   1.000000
    2       -0.597935   1.000000
    3        2.780885   1.000000
    4        4.147172   1.000000
    5        7.958765   0.000000
    6        8.955338   0.000000
    7        9.832935   0.000000
    8       12.393810   0.000000
 
 -0.4166667E-01  0.3750000E+00  0.4166667E-01  0.6944444E-02
    1       -4.549831   1.000000
    2       -0.323860   1.000000
    3        3.899844   1.000000
    4        4.367978   1.000000
    5        7.447426   0.000000
    6        8.792104   0.000000
    7        9.225680   0.000000
    8       12.623926   0.000000
 
  0.4583333E+00  0.4583333E+00  0.4166667E-01  0.3472222E-02
    1       -3.113372   1.000000
    2       -1.253953   1.000000
    3        2.686249   1.000000
    4        2.789500   1.000000
    5        6.193947   0.000000
    6        6.653503   0.000000
    7       14.349730   0.000000
    8       14.359256   0.000000
 
 -0.4583333E+00  0.4583333E+00  0.4166667E-01  0.6944444E-02
    1       -2.507136   1.000000
    2       -1.894641   1.000000
    3        2.401164   1.000000
    4        2.677759   1.000000
    5        6.451597   0.000000
    6        6.828199   0.000000
    7       14.313356   0.000000
    8       14.826669   0.000000
 
 -0.3750000E+00  0.4583333E+00  0.4166667E-01  0.6944444E-02
    1       -2.503700   1.000000
    2       -1.826188   1.000000
    3        1.800427   1.000000
    4        2.817723   1.000000
    5        6.620939   0.000000
    6        8.052632   0.000000
    7       13.316780   0.000000
    8       14.011937   0.000000
 
 -0.2916667E+00  0.4583333E+00  0.4166667E-01  0.6944444E-02
    1       -2.991900   1.000000
    2       -1.331380   1.000000
    3        1.535204   1.000000
    4        3.098864   1.000000
    5        6.947396   0.000000
    6        9.667129   0.000000
    7       11.672290   0.000000
    8       12.700366   0.000000
 
 -0.2083333E+00  0.4583333E+00  0.4166667E-01  0.6944444E-02
    1       -3.408977   1.000000
    2       -1.181248   1.000000
    3        1.931582   1.000000
    4        3.490529   1.000000
    5        7.403969   0.000000
    6       10.124802   0.000000
    7       11.154508   0.000000
    8       11.549742   0.000000
 
 -0.1250000E+00  0.4583333E+00  0.4166667E-01  0.6944444E-02
    1       -3.757478   1.000000
    2       -1.211816   1.000000
    3        2.827933   1.000000
    4        3.919910   1.000000
    5        7.781747   0.000000
    6        8.954182   0.000000
    7        9.877313   0.000000
    8       13.365366   0.000000
 
 -0.4166667E-01  0.4583333E+00  0.4166667E-01  0.6944444E-02
    1       -4.031577   1.000000
    2       -1.170188   1.000000
    3        3.835136   1.000000
    4        4.220664   1.000000
    5        7.338810   0.000000
    6        8.752105   0.000000
    7        9.097555   0.000000
    8       13.320415   0.000000
 
 -0.4583333E+00 -0.4583333E+00  0.4166667E-01  0.3472222E-02
    1       -2.528788   1.000000
    2       -1.906794   1.000000
    3        2.629878   1.000000
    4        2.736309   1.000000
    5        6.246250   0.000000
    6        6.442342   0.000000
    7       15.004530   0.000000
    8       15.046906   0.000000
 
 -0.3750000E+00 -0.4583333E+00  0.4166667E-01  0.6944444E-02
    1       -3.080892   1.000000
    2       -1.261237   1.000000
    3        2.461553   1.000000
    4        2.738316   1.000000
    5        6.449798   0.000000
    6        6.984109   0.000000
    7       13.599498   0.000000
    8       14.347058   0.000000
 
 -0.2916667E+00 -0.4583333E+00  0.4166667E-01  0.6944444E-02
    1       -3.511303   1.000000
    2       -0.738463   1.000000
    3        2.090496   1.000000
    4        2.992057   1.000000
    5        6.796595   0.000000
    6        8.315227   0.000000
    7       11.942774   0.000000
    8       12.891421   0.000000
 
 -0.2083333E+00 -0.4583333E+00  0.4166667E-01  0.6944444E-02
    1       -3.808954   1.000000
    2       -0.636609   1.000000
    3        2.263260   1.000000
    4        3.372500   1.000000
    5        7.264838   0.000000
    6       10.016610   0.000000
    7       10.383344   0.000000
    8       11.345237   0.000000
 
 -0.1250000E+00 -0.4583333E+00  0.4166667E-01  0.6944444E-02
    1       -3.977612   1.000000
    2       -0.892259   1.000000
    3        2.993512   1.000000
    4        3.826128   1.000000
    5        7.705450   0.000000
    6        9.043798   0.000000
    7       10.008897   0.000000
    8       11.947072   0.000000
 
 -0.3750000E+00 -0.3750000E+00  0.4166667E-01  0.3472222E-02
    1       -3.656655   1.000000
    2       -0.575771   1.000000
    3        2.798717   1.000000
    4        2.895437   1.000000
    5        6.203229   0.000000
    6        6.959837   0.000000
    7       13.596806   0.000000
    8       13.611019   0.000000
 
 -0.2916667E+00 -0.3750000E+00  0.4166667E-01  0.6944444E-02
    1       -4.109450   1.000000
    2        0.053940   1.000000
    3        2.758168   1.000000
    4        3.045028   1.000000
    5        6.578513   0.000000
    6        7.617937   0.000000
    7       12.174482   0.000000
    8       12.839396   0.000000
 
 -0.2083333E+00 -0.3750000E+00  0.4166667E-01  0.6944444E-02
    1       -4.413226   1.000000
    2        0.329591   1.000000
    3        2.733978   1.000000
    4        3.413125   1.000000
    5        7.177174   0.000000
    6        8.931109   0.000000
    7       10.622926   0.000000
    8       11.495300   0.000000
 
 -0.1250000E+00 -0.3750000E+00  0.4166667E-01  0.6944444E-02
    1       -4.559870   1.000000
    2        0.090733   1.000000
    3        3.240545   1.000000
    4        3.895782   1.000000
    5        7.715486   0.000000
    6        9.198923   0.000000
    7       10.178442   0.000000
    8       10.705853   0.000000
 
 -0.2916667E+00 -0.2916667E+00  0.4166667E-01  0.3472222E-02
    1       -4.603978   1.000000
    2        0.829054   1.000000
    3        3.189425   1.000000
    4        3.261218   1.000000
    5        6.417671   0.000000
    6        7.826987   0.000000
    7       12.081746   0.000000
    8       12.140559   0.000000
 
 -0.2083333E+00 -0.2916667E+00  0.4166667E-01  0.6944444E-02
    1       -4.949980   1.000000
    2        1.368272   1.000000
    3        3.266304   1.000000
    4        3.610246   1.000000
    5        6.925225   0.000000
    6        8.583454   0.000000
    7       10.826651   0.000000
    8       11.358462   0.000000
 
 -0.1250000E+00 -0.2916667E+00  0.4166667E-01  0.6944444E-02
    1       -5.132263   1.000000
    2        1.331975   1.000000
    3        3.544798   1.000000
    4        4.124758   1.000000
    5        7.679081   0.000000
    6        9.247438   0.000000
    7       10.016207   0.000000
    8       10.277246   0.000000
 
 -0.2083333E+00 -0.2083333E+00  0.4166667E-01  0.3472222E-02
    1       -5.346841   1.000000
    2        2.248912   1.000000
    3        3.791988   1.000000
    4        3.816969   1.000000
    5        6.855865   0.000000
    6        8.949483   0.000000
    7       10.645261   0.000000
    8       10.728939   0.000000
 
 -0.1250000E+00 -0.2083333E+00  0.4166667E-01  0.6944444E-02
    1       -5.580466   1.000000
    2        2.619556   1.000000
    3        3.939972   1.000000
    4        4.408106   1.000000
    5        7.440916   0.000000
    6        9.243653   0.000000
    7        9.968944   0.000000
    8       10.047583   0.000000
 
 -0.1250000E+00 -0.1250000E+00  0.4166667E-01  0.3472222E-02
    1       -5.869696   1.000000
    2        3.612456   1.000000
    3        4.518640   1.000000
    4        4.570809   1.000000
    5        7.429706   0.000000
    6        9.180555   0.000000
    7        9.419414   0.000000
    8        9.894745   0.000000
 
  0.1250000E+00  0.1250000E+00  0.1250000E+00  0.1157407E-02
    1       -6.046029   1.000000
    2        3.887774   1.000000
    3        5.197241   1.000000
    4        5.197244   1.000000
    5        7.874162   0.000000
    6        8.436952   0.000000
    7        8.436959   0.000000
    8        9.888133   0.000000
 
  0.2083333E+00  0.1250000E+00  0.1250000E+00  0.3472222E-02
    1       -5.871450   1.000000
    2        3.264360   1.000000
    3        4.355517   1.000000
    4        5.265354   1.000000
    5        8.214647   0.000000
    6        8.427135   0.000000
    7        8.683673   0.000000
    8       10.548930   0.000000
 
  0.2916667E+00  0.1250000E+00  0.1250000E+00  0.3472222E-02
    1       -5.527961   1.000000
    2        2.221281   1.000000
    3        3.594987   1.000000
    4        5.056164   1.000000
    5        8.339279   0.000000
    6        8.773589   0.000000
    7        9.045207   0.000000
    8       11.013193   0.000000
 
  0.3750000E+00  0.1250000E+00  0.1250000E+00  0.3472222E-02
    1       -5.033210   1.000000
    2        0.920371   1.000000
    3        3.237067   1.000000
    4        4.721609   1.000000
    5        8.086100   0.000000
    6        9.126439   0.000000
    7        9.298048   0.000000
    8       11.626683   0.000000
 
  0.4583333E+00  0.1250000E+00  0.1250000E+00  0.3472222E-02
    1       -4.437698   1.000000
    2       -0.282013   1.000000
    3        3.092441   1.000000
    4        4.389955   1.000000
    5        7.847140   0.000000
    6        9.163972   0.000000
    7        9.287271   0.000000
    8       12.695665   0.000000
 
 -0.4583333E+00  0.1250000E+00  0.1250000E+00  0.3472222E-02
    1       -3.916383   1.000000
    2       -1.120333   1.000000
    3        3.104311   1.000000
    4        4.125960   1.000000
    5        7.681550   0.000000
    6        9.004487   0.000000
    7        9.395507   0.000000
    8       13.596108   0.000000
 
 -0.3750000E+00  0.1250000E+00  0.1250000E+00  0.3472222E-02
    1       -3.913407   1.000000
    2       -1.125824   1.000000
    3        3.251234   1.000000
    4        3.962456   1.000000
    5        7.615081   0.000000
    6        8.948806   0.000000
    7        9.565862   0.000000
    8       12.737146   0.000000
 
 -0.2916667E+00  0.1250000E+00  0.1250000E+00  0.3472222E-02
    1       -4.432793   1.000000
    2       -0.292917   1.000000
    3        3.514668   1.000000
    4        3.917385   1.000000
    5        7.649403   0.000000
    6        8.997235   0.000000
    7        9.795700   0.000000
    8       11.440652   0.000000
 
 -0.2083333E+00  0.1250000E+00  0.1250000E+00  0.3472222E-02
    1       -5.029030   1.000000
    2        0.916394   1.000000
    3        3.868853   1.000000
    4        3.999053   1.000000
    5        7.717599   0.000000
    6        9.054023   0.000000
    7        9.973032   0.000000
    8       10.496690   0.000000
 
 -0.1250000E+00  0.1250000E+00  0.1250000E+00  0.3472222E-02
    1       -5.524985   1.000000
    2        2.278883   1.000000
    3        4.205313   1.000000
    4        4.260942   1.000000
    5        7.618147   0.000000
    6        9.041233   0.000000
    7        9.876517   0.000000
    8       10.206367   0.000000
 
  0.2083333E+00  0.2083333E+00  0.1250000E+00  0.3472222E-02
    1       -5.755617   1.000000
    2        2.823449   1.000000
    3        4.550512   1.000000
    4        4.737092   1.000000
    5        7.855604   0.000000
    6        8.556767   0.000000
    7        9.334531   0.000000
    8       10.562672   0.000000
 
  0.2916667E+00  0.2083333E+00  0.1250000E+00  0.6944444E-02
    1       -5.468846   1.000000
    2        2.182855   1.000000
    3        3.599379   1.000000
    4        4.670577   1.000000
    5        7.952564   0.000000
    6        8.882977   0.000000
    7        9.812477   0.000000
    8       10.291759   0.000000
 
  0.3750000E+00  0.2083333E+00  0.1250000E+00  0.6944444E-02
    1       -5.023493   1.000000
    2        1.226719   1.000000
    3        2.879377   1.000000
    4        4.406156   1.000000
    5        8.344611   0.000000
    6        8.861959   0.000000
    7       10.138043   0.000000
    8       10.375665   0.000000
 
  0.4583333E+00  0.2083333E+00  0.1250000E+00  0.6944444E-02
    1       -4.453325   1.000000
    2        0.097758   1.000000
    3        2.561683   1.000000
    4        4.065153   1.000000
    5        8.395905   0.000000
    6        8.777119   0.000000
    7       10.467176   0.000000
    8       10.884473   0.000000
 
 -0.4583333E+00  0.2083333E+00  0.1250000E+00  0.6944444E-02
    1       -3.869044   1.000000
    2       -0.857821   1.000000
    3        2.464900   1.000000
    4        3.789313   1.000000
    5        8.215978   0.000000
    6        8.728686   0.000000
    7       10.527432   0.000000
    8       12.082300   0.000000
 
 -0.3750000E+00  0.2083333E+00  0.1250000E+00  0.6944444E-02
    1       -3.640110   1.000000
    2       -1.185771   1.000000
    3        2.503428   1.000000
    4        3.654700   1.000000
    5        8.043669   0.000000
    6        8.816047   0.000000
    7       10.555651   0.000000
    8       12.620842   0.000000
 
 -0.2916667E+00  0.2083333E+00  0.1250000E+00  0.6944444E-02
    1       -4.045092   1.000000
    2       -0.591284   1.000000
    3        2.635896   1.000000
    4        3.701401   1.000000
    5        7.957071   0.000000
    6        9.025700   0.000000
    7       10.622474   0.000000
    8       11.179705   0.000000
 
 -0.2083333E+00  0.2083333E+00  0.1250000E+00  0.6944444E-02
    1       -4.648059   1.000000
    2        0.466928   1.000000
    3        2.862834   1.000000
    4        3.918597   1.000000
    5        7.910875   0.000000
    6        9.275859   0.000000
    7       10.028303   0.000000
    8       10.729570   0.000000
 
 -0.1250000E+00  0.2083333E+00  0.1250000E+00  0.6944444E-02
    1       -5.184318   1.000000
    2        1.636355   1.000000
    3        3.250562   1.000000
    4        4.217845   1.000000
    5        7.695257   0.000000
    6        9.247903   0.000000
    7        9.841791   0.000000
    8       10.524548   0.000000
 