 vasp.6.2.0 18Jan21 (build Aug 12 2022 13:00:08) complex                        
  
 executed on             LinuxIFC date 2024.11.05  05:59:37
 running on    4 total cores
 distrk:  each k-point on    4 cores,    1 groups
 distr:  one band on NCORE=   1 cores,    4 groups


--------------------------------------------------------------------------------------------------------


 INCAR:
   ISTART = 0            (Read existing wavefunction, if there)
   ISPIN = 1            (Non-Spin polarised DFT)
   LREAL = .FALSE.       (Projection operators: automatic)
   LWAVE = .FALSE.        (Write WAVECAR or not)
   LCHARG = .FALSE.        (Write CHGCAR or not)
   ADDGRID = .TRUE.        (Increase grid, helps GGA convergence)
   LASPH = .TRUE.        (Give more accurate total energies and band structure calculations)
   PREC = Accurate      (Accurate strictly avoids any aliasing or wrap around errors)
   ENCUT = 350          (Cut-off energy for plane wave basis set, in eV)
   ISMEAR = 0            (Gaussian smearing, metals:1)
   SIGMA = 0.05         (Smearing value in eV, metals:0.2)
   NELM = 90           (Max electronic SCF steps)
   NELMIN = 6            (Min electronic SCF steps)
   EDIFF = 1E-06        (SCF energy convergence, in eV)
   NSW = 100          (Max ionic steps)
   IBRION = 2            (Algorithm: 0-MD, 1-Quasi-New, 2-CG)
   ISIF = 2            (Stress/relaxation: 2-Ions, 3-Shape/Ions/V, 4-Shape/Ions)
   EDIFFG = -2E-03        (Ionic convergence, eV/AA)
   ISYM = 2              (Symmetry: 0\=none, 2\=GGA, 3\=hybrids)

 POTCAR:    PAW_PBE Si 05Jan2001                  
 POTCAR:    PAW_PBE Si 05Jan2001                  
   VRHFIN =Si: s2p2                                                                                 
   LEXCH  = PE                                                                                      
   EATOM  =   103.0669 eV,    7.5752 Ry                                                             
                                                                                                    
   TITEL  = PAW_PBE Si 05Jan2001                                                                    
   LULTRA =        F    use ultrasoft PP ?                                                          
   IUNSCR =        1    unscreen: 0-lin 1-nonlin 2-no                                               
   RPACOR =    1.500    partial core radius                                                         
   POMASS =   28.085; ZVAL   =    4.000    mass and valenz                                          
   RCORE  =    1.900    outmost cutoff radius                                                       
   RWIGS  =    2.480; RWIGS  =    1.312    wigner-seitz radius (au A)                               
   ENMAX  =  245.345; ENMIN  =  184.009 eV                                                          
   ICORE  =        2    local potential                                                             
   LCOR   =        T    correct aug charges                                                         
   LPAW   =        T    paw PP                                                                      
   EAUG   =  322.069                                                                                
   DEXC   =    0.000                                                                                
   RMAX   =    1.950    core radius for proj-oper                                                   
   RAUG   =    1.300    factor for augmentation sphere                                              
   RDEP   =    1.993    radius for radial grids                                                     
   RDEPT  =    1.837    core radius for aug-charge                                                  
                                                                                                    
   Atomic configuration                                                                             
    6 entries                                                                                       
     n  l   j            E        occ.                                                              
     1  0  0.50     -1785.8828   2.0000                                                             
     2  0  0.50      -139.4969   2.0000                                                             
     2  1  1.50       -95.5546   6.0000                                                             
     3  0  0.50       -10.8127   2.0000                                                             
     3  1  0.50        -4.0811   2.0000                                                             
     3  2  1.50        -4.0817   0.0000                                                             
   Description                                                                                      
     l       E           TYP  RCUT    TYP  RCUT                                                     
     0    -10.8127223     23  1.900                                                                 
     0     -7.6451159     23  1.900                                                                 
     1     -4.0811372     23  1.900                                                                 
     1      2.4879257     23  1.900                                                                 
     2     -4.0817478      7  1.900                                                                 
  local pseudopotential read in
  partial core-charges read in
  partial kinetic energy density read in
  atomic valenz-charges read in
  non local Contribution for L=           0  read in
    real space projection operators read in
  non local Contribution for L=           0  read in
    real space projection operators read in
  non local Contribution for L=           1  read in
    real space projection operators read in
  non local Contribution for L=           1  read in
    real space projection operators read in
    PAW grid and wavefunctions read in
 
   number of l-projection  operators is LMAX  =           4
   number of lm-projection operators is LMMAX =           8
 
  PAW_PBE Si 05Jan2001                  :
 energy of atom  1       EATOM= -103.0669
 kinetic energy error for atom=    0.0013 (will be added to EATOM!!)
 
 
 POSCAR: Si2
  positions in direct lattice
  velocities in cartesian coordinates
 exchange correlation table for  LEXCH =        8
   RHO(1)=    0.500       N(1)  =     2000
   RHO(2)=  100.500       N(2)  =     4000
 


--------------------------------------------------------------------------------------------------------


 ion  position               nearest neighbor table
   1  0.875  0.875  0.875-   2 2.38   2 2.38   2 2.38   2 2.38
   2  0.125  0.125  0.125-   1 2.38   1 2.38   1 2.38   1 2.38
 
  LATTYP: Found a face centered cubic cell.
 ALAT       =     5.4948175839
  
  Lattice vectors:
  
 A1 = (   3.3648740571,   0.0000000000,   1.9427106688)
 A2 = (   1.1216246857,   3.1724349421,   1.9427106688)
 A3 = (   0.0000000000,   0.0000000000,   3.8854213377)


Analysis of symmetry for initial positions (statically):
=====================================================================
 Subroutine PRICEL returns:
 Original cell was already a primitive cell.
 

 Routine SETGRP: Setting up the symmetry group for a 
 face centered cubic supercell.


 Subroutine GETGRP returns: Found 48 space group operations
 (whereof 12 operations were pure point group operations)
 out of a pool of 48 trial point group operations.


The static configuration has the point symmetry D_3d.
 The point group associated with its full space group is O_h .


Analysis of symmetry for dynamics (positions and initial velocities):
=====================================================================
 Subroutine PRICEL returns:
 Original cell was already a primitive cell.
 

 Routine SETGRP: Setting up the symmetry group for a 
 face centered cubic supercell.


 Subroutine GETGRP returns: Found 48 space group operations
 (whereof 12 operations were pure point group operations)
 out of a pool of 48 trial point group operations.


The dynamic configuration has the point symmetry D_3d.
 The point group associated with its full space group is O_h .


 Subroutine INISYM returns: Found 48 space group operations
 (whereof 12 operations are pure point group operations),
 and found     1 'primitive' translations


----------------------------------------------------------------------------------------

                                     Primitive cell                                     

  volume of cell :      41.4763

  direct lattice vectors                    reciprocal lattice vectors
     3.364874057  0.000000000  1.942710669     0.297187943 -0.105071763  0.000000000
     1.121624686  3.172434942  1.942710669     0.000000000  0.315215290  0.000000000
     0.000000000  0.000000000  3.885421338    -0.148593972 -0.105071763  0.257372345

  length of vectors
     3.885421748  3.885422775  3.885421338     0.315215401  0.315215290  0.315215431

  position of ions in fractional coordinates (direct lattice)
     0.875000000  0.875000000  0.875000000
     0.125000000  0.125000000  0.125000000

  ion indices of the primitive-cell ions
   primitive index   ion index
                 1           1
                 2           2

----------------------------------------------------------------------------------------

 
 
 KPOINTS: Automatic                               

Automatic generation of k-mesh.
 Grid dimensions read from file:
 generate k-points for:   12   12   12

 Generating k-lattice:

  Cartesian coordinates                     Fractional coordinates (reciprocal lattice)
     0.024765662 -0.008755980  0.000000000     0.083333333  0.000000000  0.000000000
     0.000000000  0.026267941  0.000000000     0.000000000  0.083333333  0.000000000
    -0.012382831 -0.008755980  0.021447695     0.000000000 -0.000000000  0.083333333

  Length of vectors
     0.026267950  0.026267941  0.026267953

  Shift w.r.t. Gamma in fractional coordinates (k-lattice)
     0.500000000  0.500000000  0.500000000

 
 Subroutine IBZKPT returns following result:
 ===========================================
 
 Found    182 irreducible k-points:
 
 Following reciprocal coordinates:
            Coordinates               Weight
  0.041667  0.041667  0.041667      8.000000
  0.125000  0.041667  0.041667     24.000000
  0.208333  0.041667  0.041667     24.000000
  0.291667  0.041667  0.041667     24.000000
  0.375000  0.041667  0.041667     24.000000
  0.458333  0.041667  0.041667     24.000000
 -0.458333  0.041667  0.041667     24.000000
 -0.375000  0.041667  0.041667     24.000000
 -0.291667  0.041667  0.041667     24.000000
 -0.208333  0.041667  0.041667     24.000000
 -0.125000  0.041667  0.041667     24.000000
 -0.041667  0.041667  0.041667     24.000000
  0.125000  0.125000  0.041667     24.000000
  0.208333  0.125000  0.041667     48.000000
  0.291667  0.125000  0.041667     48.000000
  0.375000  0.125000  0.041667     48.000000
  0.458333  0.125000  0.041667     48.000000
 -0.458333  0.125000  0.041667     48.000000
 -0.375000  0.125000  0.041667     48.000000
 -0.291667  0.125000  0.041667     48.000000
 -0.208333  0.125000  0.041667     48.000000
 -0.125000  0.125000  0.041667     48.000000
 -0.041667  0.125000  0.041667     48.000000
  0.208333  0.208333  0.041667     24.000000
  0.291667  0.208333  0.041667     48.000000
  0.375000  0.208333  0.041667     48.000000
  0.458333  0.208333  0.041667     48.000000
 -0.458333  0.208333  0.041667     48.000000
 -0.375000  0.208333  0.041667     48.000000
 -0.291667  0.208333  0.041667     48.000000
 -0.208333  0.208333  0.041667     48.000000
 -0.125000  0.208333  0.041667     48.000000
 -0.041667  0.208333  0.041667     48.000000
  0.291667  0.291667  0.041667     24.000000
  0.375000  0.291667  0.041667     48.000000
  0.458333  0.291667  0.041667     48.000000
 -0.458333  0.291667  0.041667     48.000000
 -0.375000  0.291667  0.041667     48.000000
 -0.291667  0.291667  0.041667     48.000000
 -0.208333  0.291667  0.041667     48.000000
 -0.125000  0.291667  0.041667     48.000000
 -0.041667  0.291667  0.041667     48.000000
  0.375000  0.375000  0.041667     24.000000
  0.458333  0.375000  0.041667     48.000000
 -0.458333  0.375000  0.041667     48.000000
 -0.375000  0.375000  0.041667     48.000000
 -0.291667  0.375000  0.041667     48.000000
 -0.208333  0.375000  0.041667     48.000000
 -0.125000  0.375000  0.041667     48.000000
 -0.041667  0.375000  0.041667     48.000000
  0.458333  0.458333  0.041667     24.000000
 -0.458333  0.458333  0.041667     48.000000
 -0.375000  0.458333  0.041667     48.000000
 -0.291667  0.458333  0.041667     48.000000
 -0.208333  0.458333  0.041667     48.000000
 -0.125000  0.458333  0.041667     48.000000
 -0.041667  0.458333  0.041667     48.000000
 -0.458333 -0.458333  0.041667     24.000000
 -0.375000 -0.458333  0.041667     48.000000
 -0.291667 -0.458333  0.041667     48.000000
 -0.208333 -0.458333  0.041667     48.000000
 -0.125000 -0.458333  0.041667     48.000000
 -0.375000 -0.375000  0.041667     24.000000
 -0.291667 -0.375000  0.041667     48.000000
 -0.208333 -0.375000  0.041667     48.000000
 -0.125000 -0.375000  0.041667     48.000000
 -0.291667 -0.291667  0.041667     24.000000
 -0.208333 -0.291667  0.041667     48.000000
 -0.125000 -0.291667  0.041667     48.000000
 -0.208333 -0.208333  0.041667     24.000000
 -0.125000 -0.208333  0.041667     48.000000
 -0.125000 -0.125000  0.041667     24.000000
  0.125000  0.125000  0.125000      8.000000
  0.208333  0.125000  0.125000     24.000000
  0.291667  0.125000  0.125000     24.000000
  0.375000  0.125000  0.125000     24.000000
  0.458333  0.125000  0.125000     24.000000
 -0.458333  0.125000  0.125000     24.000000
 -0.375000  0.125000  0.125000     24.000000
 -0.291667  0.125000  0.125000     24.000000
 -0.208333  0.125000  0.125000     24.000000
 -0.125000  0.125000  0.125000     24.000000
  0.208333  0.208333  0.125000     24.000000
  0.291667  0.208333  0.125000     48.000000
  0.375000  0.208333  0.125000     48.000000
  0.458333  0.208333  0.125000     48.000000
 -0.458333  0.208333  0.125000     48.000000
 -0.375000  0.208333  0.125000     48.000000
 -0.291667  0.208333  0.125000     48.000000
 -0.208333  0.208333  0.125000     48.000000
 -0.125000  0.208333  0.125000     48.000000
  0.291667  0.291667  0.125000     24.000000
  0.375000  0.291667  0.125000     48.000000
  0.458333  0.291667  0.125000     48.000000
 -0.458333  0.291667  0.125000     48.000000
 -0.375000  0.291667  0.125000     48.000000
 -0.291667  0.291667  0.125000     48.000000
 -0.208333  0.291667  0.125000     48.000000
 -0.125000  0.291667  0.125000     48.000000
  0.375000  0.375000  0.125000     24.000000
  0.458333  0.375000  0.125000     48.000000
 -0.458333  0.375000  0.125000     48.000000
 -0.375000  0.375000  0.125000     48.000000
 -0.291667  0.375000  0.125000     48.000000
 -0.208333  0.375000  0.125000     48.000000
 -0.125000  0.375000  0.125000     48.000000
  0.458333  0.458333  0.125000     24.000000
 -0.458333  0.458333  0.125000     48.000000
 -0.375000  0.458333  0.125000     48.000000
 -0.291667  0.458333  0.125000     48.000000
 -0.208333  0.458333  0.125000     48.000000
 -0.125000  0.458333  0.125000     48.000000
 -0.458333 -0.458333  0.125000     24.000000
 -0.375000 -0.458333  0.125000     48.000000
 -0.291667 -0.458333  0.125000     48.000000
 -0.208333 -0.458333  0.125000     48.000000
 -0.375000 -0.375000  0.125000     24.000000
 -0.291667 -0.375000  0.125000     48.000000
 -0.208333 -0.375000  0.125000     48.000000
 -0.291667 -0.291667  0.125000     24.000000
 -0.208333 -0.291667  0.125000     48.000000
 -0.208333 -0.208333  0.125000     24.000000
  0.208333  0.208333  0.208333      8.000000
  0.291667  0.208333  0.208333     24.000000
  0.375000  0.208333  0.208333     24.000000
  0.458333  0.208333  0.208333     24.000000
 -0.458333  0.208333  0.208333     24.000000
 -0.375000  0.208333  0.208333     24.000000
 -0.291667  0.208333  0.208333     24.000000
 -0.208333  0.208333  0.208333     24.000000
  0.291667  0.291667  0.208333     24.000000
  0.375000  0.291667  0.208333     48.000000
  0.458333  0.291667  0.208333     48.000000
 -0.458333  0.291667  0.208333     48.000000
 -0.375000  0.291667  0.208333     48.000000
 -0.291667  0.291667  0.208333     48.000000
 -0.208333  0.291667  0.208333     48.000000
  0.375000  0.375000  0.208333     24.000000
  0.458333  0.375000  0.208333     48.000000
 -0.458333  0.375000  0.208333     48.000000
 -0.375000  0.375000  0.208333     48.000000
 -0.291667  0.375000  0.208333     48.000000
 -0.208333  0.375000  0.208333     48.000000
  0.458333  0.458333  0.208333     24.000000
 -0.458333  0.458333  0.208333     48.000000
 -0.375000  0.458333  0.208333     48.000000
 -0.291667  0.458333  0.208333     48.000000
 -0.208333  0.458333  0.208333     48.000000
 -0.458333 -0.458333  0.208333     24.000000
 -0.375000 -0.458333  0.208333     48.000000
 -0.291667 -0.458333  0.208333     48.000000
 -0.375000 -0.375000  0.208333     24.000000
 -0.291667 -0.375000  0.208333     48.000000
 -0.291667 -0.291667  0.208333     24.000000
  0.291667  0.291667  0.291667      8.000000
  0.375000  0.291667  0.291667     24.000000
  0.458333  0.291667  0.291667     24.000000
 -0.458333  0.291667  0.291667     24.000000
 -0.375000  0.291667  0.291667     24.000000
 -0.291667  0.291667  0.291667     24.000000
  0.375000  0.375000  0.291667     24.000000
  0.458333  0.375000  0.291667     48.000000
 -0.458333  0.375000  0.291667     48.000000
 -0.375000  0.375000  0.291667     48.000000
 -0.291667  0.375000  0.291667     48.000000
  0.458333  0.458333  0.291667     24.000000
 -0.458333  0.458333  0.291667     48.000000
 -0.375000  0.458333  0.291667     48.000000
 -0.291667  0.458333  0.291667     48.000000
 -0.458333 -0.458333  0.291667     24.000000
 -0.375000 -0.458333  0.291667     48.000000
 -0.375000 -0.375000  0.291667     24.000000
  0.375000  0.375000  0.375000      8.000000
  0.458333  0.375000  0.375000     24.000000
 -0.458333  0.375000  0.375000     24.000000
 -0.375000  0.375000  0.375000     24.000000
  0.458333  0.458333  0.375000     24.000000
 -0.458333  0.458333  0.375000     48.000000
 -0.375000  0.458333  0.375000     48.000000
 -0.458333 -0.458333  0.375000     24.000000
  0.458333  0.458333  0.458333      8.000000
 -0.458333  0.458333  0.458333     24.000000
 
 Following cartesian coordinates:
            Coordinates               Weight
  0.006222  0.004400  0.010777      8.000000
  0.031112 -0.004400  0.010777     24.000000
  0.056001 -0.013200  0.010777     24.000000
  0.080891 -0.021999  0.010777     24.000000
  0.105780 -0.030799  0.010777     24.000000
  0.130670 -0.039599  0.010777     24.000000
 -0.143115  0.057198  0.010777     24.000000
 -0.118225  0.048399  0.010777     24.000000
 -0.093336  0.039599  0.010777     24.000000
 -0.068446  0.030799  0.010777     24.000000
 -0.043557  0.021999  0.010777     24.000000
 -0.018667  0.013200  0.010777     24.000000
  0.031112  0.021999  0.010777     24.000000
  0.056001  0.013200  0.010777     48.000000
  0.080891  0.004400  0.010777     48.000000
  0.105780 -0.004400  0.010777     48.000000
  0.130670 -0.013200  0.010777     48.000000
 -0.143115  0.083598  0.010777     48.000000
 -0.118225  0.074798  0.010777     48.000000
 -0.093336  0.065998  0.010777     48.000000
 -0.068446  0.057198  0.010777     48.000000
 -0.043557  0.048399  0.010777     48.000000
 -0.018667  0.039599  0.010777     48.000000
  0.056001  0.039599  0.010777     24.000000
  0.080891  0.030799  0.010777     48.000000
  0.105780  0.021999  0.010777     48.000000
  0.130670  0.013200  0.010777     48.000000
 -0.143115  0.109997  0.010777     48.000000
 -0.118225  0.101197  0.010777     48.000000
 -0.093336  0.092397  0.010777     48.000000
 -0.068446  0.083598  0.010777     48.000000
 -0.043557  0.074798  0.010777     48.000000
 -0.018667  0.065998  0.010777     48.000000
  0.080891  0.057198  0.010777     24.000000
  0.105780  0.048399  0.010777     48.000000
  0.130670  0.039599  0.010777     48.000000
 -0.143115  0.136396  0.010777     48.000000
 -0.118225  0.127597  0.010777     48.000000
 -0.093336  0.118797  0.010777     48.000000
 -0.068446  0.109997  0.010777     48.000000
 -0.043557  0.101197  0.010777     48.000000
 -0.018667  0.092397  0.010777     48.000000
  0.105780  0.074798  0.010777     24.000000
  0.130670  0.065998  0.010777     48.000000
 -0.143115  0.162796  0.010777     48.000000
 -0.118225  0.153996  0.010777     48.000000
 -0.093336  0.145196  0.010777     48.000000
 -0.068446  0.136396  0.010777     48.000000
 -0.043557  0.127597  0.010777     48.000000
 -0.018667  0.118797  0.010777     48.000000
  0.130670  0.092397  0.010777     24.000000
 -0.143115  0.189195  0.010777     48.000000
 -0.118225  0.180395  0.010777     48.000000
 -0.093336  0.171595  0.010777     48.000000
 -0.068446  0.162796  0.010777     48.000000
 -0.043557  0.153996  0.010777     48.000000
 -0.018667  0.145196  0.010777     48.000000
 -0.143115 -0.101197  0.010777     24.000000
 -0.118225 -0.109997  0.010777     48.000000
 -0.093336 -0.118797  0.010777     48.000000
 -0.068446 -0.127597  0.010777     48.000000
 -0.043557 -0.136396  0.010777     48.000000
 -0.118225 -0.083598  0.010777     24.000000
 -0.093336 -0.092397  0.010777     48.000000
 -0.068446 -0.101197  0.010777     48.000000
 -0.043557 -0.109997  0.010777     48.000000
 -0.093336 -0.065998  0.010777     24.000000
 -0.068446 -0.074798  0.010777     48.000000
 -0.043557 -0.083598  0.010777     48.000000
 -0.068446 -0.048399  0.010777     24.000000
 -0.043557 -0.057198  0.010777     48.000000
 -0.043557 -0.030799  0.010777     24.000000
  0.018667  0.013200  0.032332      8.000000
  0.043557  0.004400  0.032332     24.000000
  0.068446 -0.004400  0.032332     24.000000
  0.093336 -0.013200  0.032332     24.000000
  0.118225 -0.021999  0.032332     24.000000
 -0.155559  0.074798  0.032332     24.000000
 -0.130670  0.065998  0.032332     24.000000
 -0.105780  0.057198  0.032332     24.000000
 -0.080891  0.048399  0.032332     24.000000
 -0.056001  0.039599  0.032332     24.000000
  0.043557  0.030799  0.032332     24.000000
  0.068446  0.021999  0.032332     48.000000
  0.093336  0.013200  0.032332     48.000000
  0.118225  0.004400  0.032332     48.000000
 -0.155559  0.101197  0.032332     48.000000
 -0.130670  0.092397  0.032332     48.000000
 -0.105780  0.083598  0.032332     48.000000
 -0.080891  0.074798  0.032332     48.000000
 -0.056001  0.065998  0.032332     48.000000
  0.068446  0.048399  0.032332     24.000000
  0.093336  0.039599  0.032332     48.000000
  0.118225  0.030799  0.032332     48.000000
 -0.155559  0.127597  0.032332     48.000000
 -0.130670  0.118797  0.032332     48.000000
 -0.105780  0.109997  0.032332     48.000000
 -0.080891  0.101197  0.032332     48.000000
 -0.056001  0.092397  0.032332     48.000000
  0.093336  0.065998  0.032332     24.000000
  0.118225  0.057198  0.032332     48.000000
 -0.155559  0.153996  0.032332     48.000000
 -0.130670  0.145196  0.032332     48.000000
 -0.105780  0.136396  0.032332     48.000000
 -0.080891  0.127597  0.032332     48.000000
 -0.056001  0.118797  0.032332     48.000000
  0.118225  0.083598  0.032332     24.000000
 -0.155559  0.180395  0.032332     48.000000
 -0.130670  0.171595  0.032332     48.000000
 -0.105780  0.162796  0.032332     48.000000
 -0.080891  0.153996  0.032332     48.000000
 -0.056001  0.145196  0.032332     48.000000
 -0.155559 -0.109997  0.032332     24.000000
 -0.130670 -0.118797  0.032332     48.000000
 -0.105780 -0.127597  0.032332     48.000000
 -0.080891 -0.136396  0.032332     48.000000
 -0.130670 -0.092397  0.032332     24.000000
 -0.105780 -0.101197  0.032332     48.000000
 -0.080891 -0.109997  0.032332     48.000000
 -0.105780 -0.074798  0.032332     24.000000
 -0.080891 -0.083598  0.032332     48.000000
 -0.080891 -0.057198  0.032332     24.000000
  0.031112  0.021999  0.053887      8.000000
  0.056001  0.013200  0.053887     24.000000
  0.080891  0.004400  0.053887     24.000000
  0.105780 -0.004400  0.053887     24.000000
 -0.168004  0.092397  0.053887     24.000000
 -0.143115  0.083598  0.053887     24.000000
 -0.118225  0.074798  0.053887     24.000000
 -0.093336  0.065998  0.053887     24.000000
  0.056001  0.039599  0.053887     24.000000
  0.080891  0.030799  0.053887     48.000000
  0.105780  0.021999  0.053887     48.000000
 -0.168004  0.118797  0.053887     48.000000
 -0.143115  0.109997  0.053887     48.000000
 -0.118225  0.101197  0.053887     48.000000
 -0.093336  0.092397  0.053887     48.000000
  0.080891  0.057198  0.053887     24.000000
  0.105780  0.048399  0.053887     48.000000
 -0.168004  0.145196  0.053887     48.000000
 -0.143115  0.136396  0.053887     48.000000
 -0.118225  0.127597  0.053887     48.000000
 -0.093336  0.118797  0.053887     48.000000
  0.105780  0.074798  0.053887     24.000000
 -0.168004  0.171595  0.053887     48.000000
 -0.143115  0.162796  0.053887     48.000000
 -0.118225  0.153996  0.053887     48.000000
 -0.093336  0.145196  0.053887     48.000000
 -0.168004 -0.118797  0.053887     24.000000
 -0.143115 -0.127597  0.053887     48.000000
 -0.118225 -0.136396  0.053887     48.000000
 -0.143115 -0.101197  0.053887     24.000000
 -0.118225 -0.109997  0.053887     48.000000
 -0.118225 -0.083598  0.053887     24.000000
  0.043557  0.030799  0.075442      8.000000
  0.068446  0.021999  0.075442     24.000000
  0.093336  0.013200  0.075442     24.000000
 -0.180449  0.109997  0.075442     24.000000
 -0.155559  0.101197  0.075442     24.000000
 -0.130670  0.092397  0.075442     24.000000
  0.068446  0.048399  0.075442     24.000000
  0.093336  0.039599  0.075442     48.000000
 -0.180449  0.136396  0.075442     48.000000
 -0.155559  0.127597  0.075442     48.000000
 -0.130670  0.118797  0.075442     48.000000
  0.093336  0.065998  0.075442     24.000000
 -0.180449  0.162796  0.075442     48.000000
 -0.155559  0.153996  0.075442     48.000000
 -0.130670  0.145196  0.075442     48.000000
 -0.180449 -0.127597  0.075442     24.000000
 -0.155559 -0.136396  0.075442     48.000000
 -0.155559 -0.109997  0.075442     24.000000
  0.056001  0.039599  0.096997      8.000000
  0.080891  0.030799  0.096997     24.000000
 -0.192894  0.127597  0.096997     24.000000
 -0.168004  0.118797  0.096997     24.000000
  0.080891  0.057198  0.096997     24.000000
 -0.192894  0.153996  0.096997     48.000000
 -0.168004  0.145196  0.096997     48.000000
 -0.192894 -0.136396  0.096997     24.000000
  0.068446  0.048399  0.118552      8.000000
 -0.205338  0.145196  0.118552     24.000000
 


--------------------------------------------------------------------------------------------------------




 Dimension of arrays:
   k-points           NKPTS =    182   k-points in BZ     NKDIM =    182   number of bands    NBANDS=      8
   number of dos      NEDOS =    301   number of ions     NIONS =      2
   non local maximal  LDIM  =      4   non local SUM 2l+1 LMDIM =      8
   total plane-waves  NPLWV =  13824
   max r-space proj   IRMAX =      1   max aug-charges    IRDMAX=  89340
   dimension x,y,z NGX =    24 NGY =   24 NGZ =   24
   dimension x,y,z NGXF=    48 NGYF=   48 NGZF=   48
   support grid    NGXF=    96 NGYF=   96 NGZF=   96
   ions per type =               2
   NGX,Y,Z   is equivalent  to a cutoff of  10.27, 10.27, 10.27 a.u.
   NGXF,Y,Z  is equivalent  to a cutoff of  20.54, 20.54, 20.54 a.u.

 SYSTEM =  unknown system                          
 POSCAR =  Si2                                     

 Startparameter for this run:
   NWRITE =      2    write-flag & timer
   PREC   = accura    normal or accurate (medium, high low for compatibility)
   ISTART =      0    job   : 0-new  1-cont  2-samecut
   ICHARG =      2    charge: 1-file 2-atom 10-const
   ISPIN  =      1    spin polarized calculation?
   LNONCOLLINEAR =      F non collinear calculations
   LSORBIT =      F    spin-orbit coupling
   INIWAV =      1    electr: 0-lowe 1-rand  2-diag
   LASPH  =      T    aspherical Exc in radial PAW
   METAGGA=      F    non-selfconsistent MetaGGA calc.

 Electronic Relaxation 1
   ENCUT  =  350.0 eV  25.72 Ry    5.07 a.u.   5.93  5.93  5.93*2*pi/ulx,y,z
   ENINI  =  350.0     initial cutoff
   ENAUG  =  322.1 eV  augmentation charge cutoff
   NELM   =     90;   NELMIN=  6; NELMDL= -5     # of ELM steps 
   EDIFF  = 0.1E-05   stopping-criterion for ELM
   LREAL  =      F    real-space projection
   NLSPLINE    = F    spline interpolate recip. space projectors
   LCOMPAT=      F    compatible to vasp.4.4
   GGA_COMPAT  = T    GGA compatible to vasp.4.4-vasp.4.6
   LMAXPAW     = -100 max onsite density
   LMAXMIX     =    2 max onsite mixed and CHGCAR
   VOSKOWN=      0    Vosko Wilk Nusair interpolation
   ROPT   =    0.00000
 Ionic relaxation
   EDIFFG = -.2E-02   stopping-criterion for IOM
   NSW    =    100    number of steps for IOM
   NBLOCK =      1;   KBLOCK =    100    inner block; outer block 
   IBRION =      2    ionic relax: 0-MD 1-quasi-New 2-CG
   NFREE  =      1    steps in history (QN), initial steepest desc. (CG)
   ISIF   =      2    stress and relaxation
   IWAVPR =     11    prediction:  0-non 1-charg 2-wave 3-comb
   ISYM   =      2    0-nonsym 1-usesym 2-fastsym
   LCORR  =      T    Harris-Foulkes like correction to forces

   POTIM  = 0.5000    time-step for ionic-motion
   TEIN   =    0.0    initial temperature
   TEBEG  =    0.0;   TEEND  =   0.0 temperature during run
   SMASS  =  -3.00    Nose mass-parameter (am)
   estimated Nose-frequenzy (Omega)   =  0.10E-29 period in steps = 0.13E+47 mass=  -0.345E-27a.u.
   SCALEE = 1.0000    scale energy and forces
   NPACO  =    256;   APACO  = 16.0  distance and # of slots for P.C.
   PSTRESS=    0.0 pullay stress

  Mass of Ions in am
   POMASS =  28.09
  Ionic Valenz
   ZVAL   =   4.00
  Atomic Wigner-Seitz radii
   RWIGS  =  -1.00
  virtual crystal weights 
   VCA    =   1.00
   NELECT =       8.0000    total number of electrons
   NUPDOWN=      -1.0000    fix difference up-down

 DOS related values:
   EMIN   =  10.00;   EMAX   =-10.00  energy-range for DOS
   EFERMI =   0.00
   ISMEAR =     0;   SIGMA  =   0.05  broadening in eV -4-tet -1-fermi 0-gaus

 Electronic relaxation 2 (details)
   IALGO  =     38    algorithm
   LDIAG  =      T    sub-space diagonalisation (order eigenvalues)
   LSUBROT=      F    optimize rotation matrix (better conditioning)
   TURBO    =      0    0=normal 1=particle mesh
   IRESTART =      0    0=no restart 2=restart with 2 vectors
   NREBOOT  =      0    no. of reboots
   NMIN     =      0    reboot dimension
   EREF     =   0.00    reference energy to select bands
   IMIX   =      4    mixing-type and parameters
     AMIX     =   0.40;   BMIX     =  1.00
     AMIX_MAG =   1.60;   BMIX_MAG =  1.00
     AMIN     =   0.10
     WC   =   100.;   INIMIX=   1;  MIXPRE=   1;  MAXMIX= -45

 Intra band minimization:
   WEIMIN = 0.0010     energy-eigenvalue tresh-hold
   EBREAK =  0.31E-07  absolut break condition
   DEPER  =   0.30     relativ break condition  

   TIME   =   0.40     timestep for ELM

  volume/ion in A,a.u.               =      20.74       139.95
  Fermi-wavevector in a.u.,A,eV,Ry     =   0.945885  1.787463 12.173108  0.894698
  Thomas-Fermi vector in A             =   2.073829
 
 Write flags
   LWAVE        =      F    write WAVECAR
   LDOWNSAMPLE  =      F    k-point downsampling of WAVECAR
   LCHARG       =      F    write CHGCAR
   LVTOT        =      F    write LOCPOT, total local potential
   LVHAR        =      F    write LOCPOT, Hartree potential only
   LELF         =      F    write electronic localiz. function (ELF)
   LORBIT       =      0    0 simple, 1 ext, 2 COOP (PROOUT), +10 PAW based schemes


 Dipole corrections
   LMONO  =      F    monopole corrections only (constant potential shift)
   LDIPOL =      F    correct potential (dipole corrections)
   IDIPOL =      0    1-x, 2-y, 3-z, 4-all directions 
   EPSILON=  1.0000000 bulk dielectric constant

 Exchange correlation treatment:
   GGA     =    --    GGA type
   LEXCH   =     8    internal setting for exchange type
   VOSKOWN=      0    Vosko Wilk Nusair interpolation
   LHFCALC =     F    Hartree Fock is set to
   LHFONE  =     F    Hartree Fock one center treatment
   AEXX    =    0.0000 exact exchange contribution

 Linear response parameters
   LEPSILON=     F    determine dielectric tensor
   LRPA    =     F    only Hartree local field effects (RPA)
   LNABLA  =     F    use nabla operator in PAW spheres
   LVEL    =     F    velocity operator in full k-point grid
   LINTERFAST=   F  fast interpolation
   KINTER  =     0    interpolate to denser k-point grid
   CSHIFT  =0.1000    complex shift for real part using Kramers Kronig
   OMEGAMAX=  -1.0    maximum frequency
   DEG_THRESHOLD= 0.2000000E-02 threshold for treating states as degnerate
   RTIME   =   -0.100 relaxation time in fs
  (WPLASMAI=    0.000 imaginary part of plasma frequency in eV, 0.658/RTIME)
   DFIELD  = 0.0000000 0.0000000 0.0000000 field for delta impulse in time
 
 Orbital magnetization related:
   ORBITALMAG=     F  switch on orbital magnetization
   LCHIMAG   =     F  perturbation theory with respect to B field
   DQ        =  0.001000  dq finite difference perturbation B field
   LLRAUG    =     F  two centre corrections for induced B field



--------------------------------------------------------------------------------------------------------


 conjugate gradient relaxation of ions
 charge density and potential will be updated during run
 non-spin polarized calculation
 Variant of blocked Davidson
 Davidson routine will perform the subspace rotation
 perform sub-space diagonalisation
    after iterative eigenvector-optimisation
 modified Broyden-mixing scheme, WC =      100.0
 initial mixing is a Kerker type mixing with AMIX =  0.4000 and BMIX =      1.0000
 Hartree-type preconditioning will be used
 using additional bands            4
 reciprocal scheme for non local part
 use partial core corrections
 calculate Harris-corrections to forces 
   (improved forces if not selfconsistent)
 use gradient corrections 
 use of overlap-Matrix (Vanderbilt PP)
 Gauss-broadening in eV      SIGMA  =   0.05


--------------------------------------------------------------------------------------------------------


  energy-cutoff  :      350.00
  volume of cell :       41.48
      direct lattice vectors                 reciprocal lattice vectors
     3.364874057  0.000000000  1.942710669     0.297187943 -0.105071763  0.000000000
     1.121624686  3.172434942  1.942710669     0.000000000  0.315215290  0.000000000
     0.000000000  0.000000000  3.885421338    -0.148593972 -0.105071763  0.257372345

  length of vectors
     3.885421748  3.885422775  3.885421338     0.315215401  0.315215290  0.315215431


 
 k-points in units of 2pi/SCALE and weight: Automatic                               
   0.00622237  0.00439988  0.01077747       0.001
   0.03111186 -0.00439988  0.01077747       0.003
   0.05600135 -0.01319964  0.01077747       0.003
   0.08089084 -0.02199940  0.01077747       0.003
   0.10578033 -0.03079916  0.01077747       0.003
   0.13066982 -0.03959892  0.01077747       0.003
  -0.14311457  0.05719844  0.01077747       0.003
  -0.11822508  0.04839868  0.01077747       0.003
  -0.09333559  0.03959892  0.01077747       0.003
  -0.06844610  0.03079916  0.01077747       0.003
  -0.04355661  0.02199940  0.01077747       0.003
  -0.01866712  0.01319964  0.01077747       0.003
   0.03111186  0.02199940  0.01077747       0.003
   0.05600135  0.01319964  0.01077747       0.007
   0.08089084  0.00439988  0.01077747       0.007
   0.10578033 -0.00439988  0.01077747       0.007
   0.13066982 -0.01319964  0.01077747       0.007
  -0.14311457  0.08359772  0.01077747       0.007
  -0.11822508  0.07479796  0.01077747       0.007
  -0.09333559  0.06599820  0.01077747       0.007
  -0.06844610  0.05719844  0.01077747       0.007
  -0.04355661  0.04839868  0.01077747       0.007
  -0.01866712  0.03959892  0.01077747       0.007
   0.05600135  0.03959892  0.01077747       0.003
   0.08089084  0.03079916  0.01077747       0.007
   0.10578033  0.02199940  0.01077747       0.007
   0.13066982  0.01319964  0.01077747       0.007
  -0.14311457  0.10999700  0.01077747       0.007
  -0.11822508  0.10119724  0.01077747       0.007
  -0.09333559  0.09239748  0.01077747       0.007
  -0.06844610  0.08359772  0.01077747       0.007
  -0.04355661  0.07479796  0.01077747       0.007
  -0.01866712  0.06599820  0.01077747       0.007
   0.08089084  0.05719844  0.01077747       0.003
   0.10578033  0.04839868  0.01077747       0.007
   0.13066982  0.03959892  0.01077747       0.007
  -0.14311457  0.13639628  0.01077747       0.007
  -0.11822508  0.12759652  0.01077747       0.007
  -0.09333559  0.11879676  0.01077747       0.007
  -0.06844610  0.10999700  0.01077747       0.007
  -0.04355661  0.10119724  0.01077747       0.007
  -0.01866712  0.09239748  0.01077747       0.007
   0.10578033  0.07479796  0.01077747       0.003
   0.13066982  0.06599820  0.01077747       0.007
  -0.14311457  0.16279556  0.01077747       0.007
  -0.11822508  0.15399580  0.01077747       0.007
  -0.09333559  0.14519604  0.01077747       0.007
  -0.06844610  0.13639628  0.01077747       0.007
  -0.04355661  0.12759652  0.01077747       0.007
  -0.01866712  0.11879676  0.01077747       0.007
   0.13066982  0.09239748  0.01077747       0.003
  -0.14311457  0.18919484  0.01077747       0.007
  -0.11822508  0.18039508  0.01077747       0.007
  -0.09333559  0.17159532  0.01077747       0.007
  -0.06844610  0.16279556  0.01077747       0.007
  -0.04355661  0.15399580  0.01077747       0.007
  -0.01866712  0.14519604  0.01077747       0.007
  -0.14311457 -0.10119724  0.01077747       0.003
  -0.11822508 -0.10999700  0.01077747       0.007
  -0.09333559 -0.11879676  0.01077747       0.007
  -0.06844610 -0.12759652  0.01077747       0.007
  -0.04355661 -0.13639628  0.01077747       0.007
  -0.11822508 -0.08359772  0.01077747       0.003
  -0.09333559 -0.09239748  0.01077747       0.007
  -0.06844610 -0.10119724  0.01077747       0.007
  -0.04355661 -0.10999700  0.01077747       0.007
  -0.09333559 -0.06599820  0.01077747       0.003
  -0.06844610 -0.07479796  0.01077747       0.007
  -0.04355661 -0.08359772  0.01077747       0.007
  -0.06844610 -0.04839868  0.01077747       0.003
  -0.04355661 -0.05719844  0.01077747       0.007
  -0.04355661 -0.03079916  0.01077747       0.003
   0.01866712  0.01319964  0.03233240       0.001
   0.04355661  0.00439988  0.03233240       0.003
   0.06844610 -0.00439988  0.03233240       0.003
   0.09333559 -0.01319964  0.03233240       0.003
   0.11822508 -0.02199940  0.03233240       0.003
  -0.15555931  0.07479796  0.03233240       0.003
  -0.13066982  0.06599820  0.03233240       0.003
  -0.10578033  0.05719844  0.03233240       0.003
  -0.08089084  0.04839868  0.03233240       0.003
  -0.05600135  0.03959892  0.03233240       0.003
   0.04355661  0.03079916  0.03233240       0.003
   0.06844610  0.02199940  0.03233240       0.007
   0.09333559  0.01319964  0.03233240       0.007
   0.11822508  0.00439988  0.03233240       0.007
  -0.15555931  0.10119724  0.03233240       0.007
  -0.13066982  0.09239748  0.03233240       0.007
  -0.10578033  0.08359772  0.03233240       0.007
  -0.08089084  0.07479796  0.03233240       0.007
  -0.05600135  0.06599820  0.03233240       0.007
   0.06844610  0.04839868  0.03233240       0.003
   0.09333559  0.03959892  0.03233240       0.007
   0.11822508  0.03079916  0.03233240       0.007
  -0.15555931  0.12759652  0.03233240       0.007
  -0.13066982  0.11879676  0.03233240       0.007
  -0.10578033  0.10999700  0.03233240       0.007
  -0.08089084  0.10119724  0.03233240       0.007
  -0.05600135  0.09239748  0.03233240       0.007
   0.09333559  0.06599820  0.03233240       0.003
   0.11822508  0.05719844  0.03233240       0.007
  -0.15555931  0.15399580  0.03233240       0.007
  -0.13066982  0.14519604  0.03233240       0.007
  -0.10578033  0.13639628  0.03233240       0.007
  -0.08089084  0.12759652  0.03233240       0.007
  -0.05600135  0.11879676  0.03233240       0.007
   0.11822508  0.08359772  0.03233240       0.003
  -0.15555931  0.18039508  0.03233240       0.007
  -0.13066982  0.17159532  0.03233240       0.007
  -0.10578033  0.16279556  0.03233240       0.007
  -0.08089084  0.15399580  0.03233240       0.007
  -0.05600135  0.14519604  0.03233240       0.007
  -0.15555931 -0.10999700  0.03233240       0.003
  -0.13066982 -0.11879676  0.03233240       0.007
  -0.10578033 -0.12759652  0.03233240       0.007
  -0.08089084 -0.13639628  0.03233240       0.007
  -0.13066982 -0.09239748  0.03233240       0.003
  -0.10578033 -0.10119724  0.03233240       0.007
  -0.08089084 -0.10999700  0.03233240       0.007
  -0.10578033 -0.07479796  0.03233240       0.003
  -0.08089084 -0.08359772  0.03233240       0.007
  -0.08089084 -0.05719844  0.03233240       0.003
   0.03111186  0.02199940  0.05388733       0.001
   0.05600135  0.01319964  0.05388733       0.003
   0.08089084  0.00439988  0.05388733       0.003
   0.10578033 -0.00439988  0.05388733       0.003
  -0.16800406  0.09239748  0.05388733       0.003
  -0.14311457  0.08359772  0.05388733       0.003
  -0.11822508  0.07479796  0.05388733       0.003
  -0.09333559  0.06599820  0.05388733       0.003
   0.05600135  0.03959892  0.05388733       0.003
   0.08089084  0.03079916  0.05388733       0.007
   0.10578033  0.02199940  0.05388733       0.007
  -0.16800406  0.11879676  0.05388733       0.007
  -0.14311457  0.10999700  0.05388733       0.007
  -0.11822508  0.10119724  0.05388733       0.007
  -0.09333559  0.09239748  0.05388733       0.007
   0.08089084  0.05719844  0.05388733       0.003
   0.10578033  0.04839868  0.05388733       0.007
  -0.16800406  0.14519604  0.05388733       0.007
  -0.14311457  0.13639628  0.05388733       0.007
  -0.11822508  0.12759652  0.05388733       0.007
  -0.09333559  0.11879676  0.05388733       0.007
   0.10578033  0.07479796  0.05388733       0.003
  -0.16800406  0.17159532  0.05388733       0.007
  -0.14311457  0.16279556  0.05388733       0.007
  -0.11822508  0.15399580  0.05388733       0.007
  -0.09333559  0.14519604  0.05388733       0.007
  -0.16800406 -0.11879676  0.05388733       0.003
  -0.14311457 -0.12759652  0.05388733       0.007
  -0.11822508 -0.13639628  0.05388733       0.007
  -0.14311457 -0.10119724  0.05388733       0.003
  -0.11822508 -0.10999700  0.05388733       0.007
  -0.11822508 -0.08359772  0.05388733       0.003
   0.04355661  0.03079916  0.07544227       0.001
   0.06844610  0.02199940  0.07544227       0.003
   0.09333559  0.01319964  0.07544227       0.003
  -0.18044880  0.10999700  0.07544227       0.003
  -0.15555931  0.10119724  0.07544227       0.003
  -0.13066982  0.09239748  0.07544227       0.003
   0.06844610  0.04839868  0.07544227       0.003
   0.09333559  0.03959892  0.07544227       0.007
  -0.18044880  0.13639628  0.07544227       0.007
  -0.15555931  0.12759652  0.07544227       0.007
  -0.13066982  0.11879676  0.07544227       0.007
   0.09333559  0.06599820  0.07544227       0.003
  -0.18044880  0.16279556  0.07544227       0.007
  -0.15555931  0.15399580  0.07544227       0.007
  -0.13066982  0.14519604  0.07544227       0.007
  -0.18044880 -0.12759652  0.07544227       0.003
  -0.15555931 -0.13639628  0.07544227       0.007
  -0.15555931 -0.10999700  0.07544227       0.003
   0.05600135  0.03959892  0.09699720       0.001
   0.08089084  0.03079916  0.09699720       0.003
  -0.19289355  0.12759652  0.09699720       0.003
  -0.16800406  0.11879676  0.09699720       0.003
   0.08089084  0.05719844  0.09699720       0.003
  -0.19289355  0.15399580  0.09699720       0.007
  -0.16800406  0.14519604  0.09699720       0.007
  -0.19289355 -0.13639628  0.09699720       0.003
   0.06844610  0.04839868  0.11855214       0.001
  -0.20533829  0.14519604  0.11855214       0.003
 
 k-points in reciprocal lattice and weights: Automatic                               
   0.04166667  0.04166667  0.04166667       0.001
   0.12500000  0.04166667  0.04166667       0.003
   0.20833333  0.04166667  0.04166667       0.003
   0.29166667  0.04166667  0.04166667       0.003
   0.37500000  0.04166667  0.04166667       0.003
   0.45833333  0.04166667  0.04166667       0.003
  -0.45833333  0.04166667  0.04166667       0.003
  -0.37500000  0.04166667  0.04166667       0.003
  -0.29166667  0.04166667  0.04166667       0.003
  -0.20833333  0.04166667  0.04166667       0.003
  -0.12500000  0.04166667  0.04166667       0.003
  -0.04166667  0.04166667  0.04166667       0.003
   0.12500000  0.12500000  0.04166667       0.003
   0.20833333  0.12500000  0.04166667       0.007
   0.29166667  0.12500000  0.04166667       0.007
   0.37500000  0.12500000  0.04166667       0.007
   0.45833333  0.12500000  0.04166667       0.007
  -0.45833333  0.12500000  0.04166667       0.007
  -0.37500000  0.12500000  0.04166667       0.007
  -0.29166667  0.12500000  0.04166667       0.007
  -0.20833333  0.12500000  0.04166667       0.007
  -0.12500000  0.12500000  0.04166667       0.007
  -0.04166667  0.12500000  0.04166667       0.007
   0.20833333  0.20833333  0.04166667       0.003
   0.29166667  0.20833333  0.04166667       0.007
   0.37500000  0.20833333  0.04166667       0.007
   0.45833333  0.20833333  0.04166667       0.007
  -0.45833333  0.20833333  0.04166667       0.007
  -0.37500000  0.20833333  0.04166667       0.007
  -0.29166667  0.20833333  0.04166667       0.007
  -0.20833333  0.20833333  0.04166667       0.007
  -0.12500000  0.20833333  0.04166667       0.007
  -0.04166667  0.20833333  0.04166667       0.007
   0.29166667  0.29166667  0.04166667       0.003
   0.37500000  0.29166667  0.04166667       0.007
   0.45833333  0.29166667  0.04166667       0.007
  -0.45833333  0.29166667  0.04166667       0.007
  -0.37500000  0.29166667  0.04166667       0.007
  -0.29166667  0.29166667  0.04166667       0.007
  -0.20833333  0.29166667  0.04166667       0.007
  -0.12500000  0.29166667  0.04166667       0.007
  -0.04166667  0.29166667  0.04166667       0.007
   0.37500000  0.37500000  0.04166667       0.003
   0.45833333  0.37500000  0.04166667       0.007
  -0.45833333  0.37500000  0.04166667       0.007
  -0.37500000  0.37500000  0.04166667       0.007
  -0.29166667  0.37500000  0.04166667       0.007
  -0.20833333  0.37500000  0.04166667       0.007
  -0.12500000  0.37500000  0.04166667       0.007
  -0.04166667  0.37500000  0.04166667       0.007
   0.45833333  0.45833333  0.04166667       0.003
  -0.45833333  0.45833333  0.04166667       0.007
  -0.37500000  0.45833333  0.04166667       0.007
  -0.29166667  0.45833333  0.04166667       0.007
  -0.20833333  0.45833333  0.04166667       0.007
  -0.12500000  0.45833333  0.04166667       0.007
  -0.04166667  0.45833333  0.04166667       0.007
  -0.45833333 -0.45833333  0.04166667       0.003
  -0.37500000 -0.45833333  0.04166667       0.007
  -0.29166667 -0.45833333  0.04166667       0.007
  -0.20833333 -0.45833333  0.04166667       0.007
  -0.12500000 -0.45833333  0.04166667       0.007
  -0.37500000 -0.37500000  0.04166667       0.003
  -0.29166667 -0.37500000  0.04166667       0.007
  -0.20833333 -0.37500000  0.04166667       0.007
  -0.12500000 -0.37500000  0.04166667       0.007
  -0.29166667 -0.29166667  0.04166667       0.003
  -0.20833333 -0.29166667  0.04166667       0.007
  -0.12500000 -0.29166667  0.04166667       0.007
  -0.20833333 -0.20833333  0.04166667       0.003
  -0.12500000 -0.20833333  0.04166667       0.007
  -0.12500000 -0.12500000  0.04166667       0.003
   0.12500000  0.12500000  0.12500000       0.001
   0.20833333  0.12500000  0.12500000       0.003
   0.29166667  0.12500000  0.12500000       0.003
   0.37500000  0.12500000  0.12500000       0.003
   0.45833333  0.12500000  0.12500000       0.003
  -0.45833333  0.12500000  0.12500000       0.003
  -0.37500000  0.12500000  0.12500000       0.003
  -0.29166667  0.12500000  0.12500000       0.003
  -0.20833333  0.12500000  0.12500000       0.003
  -0.12500000  0.12500000  0.12500000       0.003
   0.20833333  0.20833333  0.12500000       0.003
   0.29166667  0.20833333  0.12500000       0.007
   0.37500000  0.20833333  0.12500000       0.007
   0.45833333  0.20833333  0.12500000       0.007
  -0.45833333  0.20833333  0.12500000       0.007
  -0.37500000  0.20833333  0.12500000       0.007
  -0.29166667  0.20833333  0.12500000       0.007
  -0.20833333  0.20833333  0.12500000       0.007
  -0.12500000  0.20833333  0.12500000       0.007
   0.29166667  0.29166667  0.12500000       0.003
   0.37500000  0.29166667  0.12500000       0.007
   0.45833333  0.29166667  0.12500000       0.007
  -0.45833333  0.29166667  0.12500000       0.007
  -0.37500000  0.29166667  0.12500000       0.007
  -0.29166667  0.29166667  0.12500000       0.007
  -0.20833333  0.29166667  0.12500000       0.007
  -0.12500000  0.29166667  0.12500000       0.007
   0.37500000  0.37500000  0.12500000       0.003
   0.45833333  0.37500000  0.12500000       0.007
  -0.45833333  0.37500000  0.12500000       0.007
  -0.37500000  0.37500000  0.12500000       0.007
  -0.29166667  0.37500000  0.12500000       0.007
  -0.20833333  0.37500000  0.12500000       0.007
  -0.12500000  0.37500000  0.12500000       0.007
   0.45833333  0.45833333  0.12500000       0.003
  -0.45833333  0.45833333  0.12500000       0.007
  -0.37500000  0.45833333  0.12500000       0.007
  -0.29166667  0.45833333  0.12500000       0.007
  -0.20833333  0.45833333  0.12500000       0.007
  -0.12500000  0.45833333  0.12500000       0.007
  -0.45833333 -0.45833333  0.12500000       0.003
  -0.37500000 -0.45833333  0.12500000       0.007
  -0.29166667 -0.45833333  0.12500000       0.007
  -0.20833333 -0.45833333  0.12500000       0.007
  -0.37500000 -0.37500000  0.12500000       0.003
  -0.29166667 -0.37500000  0.12500000       0.007
  -0.20833333 -0.37500000  0.12500000       0.007
  -0.29166667 -0.29166667  0.12500000       0.003
  -0.20833333 -0.29166667  0.12500000       0.007
  -0.20833333 -0.20833333  0.12500000       0.003
   0.20833333  0.20833333  0.20833333       0.001
   0.29166667  0.20833333  0.20833333       0.003
   0.37500000  0.20833333  0.20833333       0.003
   0.45833333  0.20833333  0.20833333       0.003
  -0.45833333  0.20833333  0.20833333       0.003
  -0.37500000  0.20833333  0.20833333       0.003
  -0.29166667  0.20833333  0.20833333       0.003
  -0.20833333  0.20833333  0.20833333       0.003
   0.29166667  0.29166667  0.20833333       0.003
   0.37500000  0.29166667  0.20833333       0.007
   0.45833333  0.29166667  0.20833333       0.007
  -0.45833333  0.29166667  0.20833333       0.007
  -0.37500000  0.29166667  0.20833333       0.007
  -0.29166667  0.29166667  0.20833333       0.007
  -0.20833333  0.29166667  0.20833333       0.007
   0.37500000  0.37500000  0.20833333       0.003
   0.45833333  0.37500000  0.20833333       0.007
  -0.45833333  0.37500000  0.20833333       0.007
  -0.37500000  0.37500000  0.20833333       0.007
  -0.29166667  0.37500000  0.20833333       0.007
  -0.20833333  0.37500000  0.20833333       0.007
   0.45833333  0.45833333  0.20833333       0.003
  -0.45833333  0.45833333  0.20833333       0.007
  -0.37500000  0.45833333  0.20833333       0.007
  -0.29166667  0.45833333  0.20833333       0.007
  -0.20833333  0.45833333  0.20833333       0.007
  -0.45833333 -0.45833333  0.20833333       0.003
  -0.37500000 -0.45833333  0.20833333       0.007
  -0.29166667 -0.45833333  0.20833333       0.007
  -0.37500000 -0.37500000  0.20833333       0.003
  -0.29166667 -0.37500000  0.20833333       0.007
  -0.29166667 -0.29166667  0.20833333       0.003
   0.29166667  0.29166667  0.29166667       0.001
   0.37500000  0.29166667  0.29166667       0.003
   0.45833333  0.29166667  0.29166667       0.003
  -0.45833333  0.29166667  0.29166667       0.003
  -0.37500000  0.29166667  0.29166667       0.003
  -0.29166667  0.29166667  0.29166667       0.003
   0.37500000  0.37500000  0.29166667       0.003
   0.45833333  0.37500000  0.29166667       0.007
  -0.45833333  0.37500000  0.29166667       0.007
  -0.37500000  0.37500000  0.29166667       0.007
  -0.29166667  0.37500000  0.29166667       0.007
   0.45833333  0.45833333  0.29166667       0.003
  -0.45833333  0.45833333  0.29166667       0.007
  -0.37500000  0.45833333  0.29166667       0.007
  -0.29166667  0.45833333  0.29166667       0.007
  -0.45833333 -0.45833333  0.29166667       0.003
  -0.37500000 -0.45833333  0.29166667       0.007
  -0.37500000 -0.37500000  0.29166667       0.003
   0.37500000  0.37500000  0.37500000       0.001
   0.45833333  0.37500000  0.37500000       0.003
  -0.45833333  0.37500000  0.37500000       0.003
  -0.37500000  0.37500000  0.37500000       0.003
   0.45833333  0.45833333  0.37500000       0.003
  -0.45833333  0.45833333  0.37500000       0.007
  -0.37500000  0.45833333  0.37500000       0.007
  -0.45833333 -0.45833333  0.37500000       0.003
   0.45833333  0.45833333  0.45833333       0.001
  -0.45833333  0.45833333  0.45833333       0.003
 
 position of ions in fractional coordinates (direct lattice) 
   0.87500000  0.87500000  0.87500000
   0.12500000  0.12500000  0.12500000
 
 position of ions in cartesian coordinates  (Angst):
   3.92568640  2.77588057  6.79948734
   0.56081234  0.39655437  0.97135533
 


--------------------------------------------------------------------------------------------------------


 k-point   1 :   0.0417 0.0417 0.0417  plane waves:     609
 k-point   2 :   0.1250 0.0417 0.0417  plane waves:     611
 k-point   3 :   0.2083 0.0417 0.0417  plane waves:     606
 k-point   4 :   0.2917 0.0417 0.0417  plane waves:     611
 k-point   5 :   0.3750 0.0417 0.0417  plane waves:     609
 k-point   6 :   0.4583 0.0417 0.0417  plane waves:     611
 k-point   7 :  -0.4583 0.0417 0.0417  plane waves:     613
 k-point   8 :  -0.3750 0.0417 0.0417  plane waves:     610
 k-point   9 :  -0.2917 0.0417 0.0417  plane waves:     609
 k-point  10 :  -0.2083 0.0417 0.0417  plane waves:     610
 k-point  11 :  -0.1250 0.0417 0.0417  plane waves:     604
 k-point  12 :  -0.0417 0.0417 0.0417  plane waves:     614
 k-point  13 :   0.1250 0.1250 0.0417  plane waves:     607
 k-point  14 :   0.2083 0.1250 0.0417  plane waves:     604
 k-point  15 :   0.2917 0.1250 0.0417  plane waves:     611
 k-point  16 :   0.3750 0.1250 0.0417  plane waves:     613
 k-point  17 :   0.4583 0.1250 0.0417  plane waves:     611
 k-point  18 :  -0.4583 0.1250 0.0417  plane waves:     614
 k-point  19 :  -0.3750 0.1250 0.0417  plane waves:     612
 k-point  20 :  -0.2917 0.1250 0.0417  plane waves:     614
 k-point  21 :  -0.2083 0.1250 0.0417  plane waves:     615
 k-point  22 :  -0.1250 0.1250 0.0417  plane waves:     610
 k-point  23 :  -0.0417 0.1250 0.0417  plane waves:     607
 k-point  24 :   0.2083 0.2083 0.0417  plane waves:     605
 k-point  25 :   0.2917 0.2083 0.0417  plane waves:     612
 k-point  26 :   0.3750 0.2083 0.0417  plane waves:     615
 k-point  27 :   0.4583 0.2083 0.0417  plane waves:     616
 k-point  28 :  -0.4583 0.2083 0.0417  plane waves:     618
 k-point  29 :  -0.3750 0.2083 0.0417  plane waves:     617
 k-point  30 :  -0.2917 0.2083 0.0417  plane waves:     615
 k-point  31 :  -0.2083 0.2083 0.0417  plane waves:     616
 k-point  32 :  -0.1250 0.2083 0.0417  plane waves:     613
 k-point  33 :  -0.0417 0.2083 0.0417  plane waves:     607
 k-point  34 :   0.2917 0.2917 0.0417  plane waves:     615
 k-point  35 :   0.3750 0.2917 0.0417  plane waves:     619
 k-point  36 :   0.4583 0.2917 0.0417  plane waves:     616
 k-point  37 :  -0.4583 0.2917 0.0417  plane waves:     622
 k-point  38 :  -0.3750 0.2917 0.0417  plane waves:     623
 k-point  39 :  -0.2917 0.2917 0.0417  plane waves:     618
 k-point  40 :  -0.2083 0.2917 0.0417  plane waves:     618
 k-point  41 :  -0.1250 0.2917 0.0417  plane waves:     614
 k-point  42 :  -0.0417 0.2917 0.0417  plane waves:     611
 k-point  43 :   0.3750 0.3750 0.0417  plane waves:     622
 k-point  44 :   0.4583 0.3750 0.0417  plane waves:     619
 k-point  45 :  -0.4583 0.3750 0.0417  plane waves:     623
 k-point  46 :  -0.3750 0.3750 0.0417  plane waves:     623
 k-point  47 :  -0.2917 0.3750 0.0417  plane waves:     617
 k-point  48 :  -0.2083 0.3750 0.0417  plane waves:     615
 k-point  49 :  -0.1250 0.3750 0.0417  plane waves:     616
 k-point  50 :  -0.0417 0.3750 0.0417  plane waves:     610
 k-point  51 :   0.4583 0.4583 0.0417  plane waves:     620
 k-point  52 :  -0.4583 0.4583 0.0417  plane waves:     621
 k-point  53 :  -0.3750 0.4583 0.0417  plane waves:     623
 k-point  54 :  -0.2917 0.4583 0.0417  plane waves:     620
 k-point  55 :  -0.2083 0.4583 0.0417  plane waves:     620
 k-point  56 :  -0.1250 0.4583 0.0417  plane waves:     614
 k-point  57 :  -0.0417 0.4583 0.0417  plane waves:     611
 k-point  58 :  -0.4583-0.4583 0.0417  plane waves:     630
 k-point  59 :  -0.3750-0.4583 0.0417  plane waves:     619
 k-point  60 :  -0.2917-0.4583 0.0417  plane waves:     623
 k-point  61 :  -0.2083-0.4583 0.0417  plane waves:     616
 k-point  62 :  -0.1250-0.4583 0.0417  plane waves:     613
 k-point  63 :  -0.3750-0.3750 0.0417  plane waves:     618
 k-point  64 :  -0.2917-0.3750 0.0417  plane waves:     619
 k-point  65 :  -0.2083-0.3750 0.0417  plane waves:     616
 k-point  66 :  -0.1250-0.3750 0.0417  plane waves:     614
 k-point  67 :  -0.2917-0.2917 0.0417  plane waves:     620
 k-point  68 :  -0.2083-0.2917 0.0417  plane waves:     612
 k-point  69 :  -0.1250-0.2917 0.0417  plane waves:     610
 k-point  70 :  -0.2083-0.2083 0.0417  plane waves:     609
 k-point  71 :  -0.1250-0.2083 0.0417  plane waves:     607
 k-point  72 :  -0.1250-0.1250 0.0417  plane waves:     603
 k-point  73 :   0.1250 0.1250 0.1250  plane waves:     609
 k-point  74 :   0.2083 0.1250 0.1250  plane waves:     609
 k-point  75 :   0.2917 0.1250 0.1250  plane waves:     614
 k-point  76 :   0.3750 0.1250 0.1250  plane waves:     612
 k-point  77 :   0.4583 0.1250 0.1250  plane waves:     616
 k-point  78 :  -0.4583 0.1250 0.1250  plane waves:     617
 k-point  79 :  -0.3750 0.1250 0.1250  plane waves:     616
 k-point  80 :  -0.2917 0.1250 0.1250  plane waves:     617
 k-point  81 :  -0.2083 0.1250 0.1250  plane waves:     611
 k-point  82 :  -0.1250 0.1250 0.1250  plane waves:     607
 k-point  83 :   0.2083 0.2083 0.1250  plane waves:     609
 k-point  84 :   0.2917 0.2083 0.1250  plane waves:     611
 k-point  85 :   0.3750 0.2083 0.1250  plane waves:     614
 k-point  86 :   0.4583 0.2083 0.1250  plane waves:     618
 k-point  87 :  -0.4583 0.2083 0.1250  plane waves:     618
 k-point  88 :  -0.3750 0.2083 0.1250  plane waves:     614
 k-point  89 :  -0.2917 0.2083 0.1250  plane waves:     616
 k-point  90 :  -0.2083 0.2083 0.1250  plane waves:     615
 k-point  91 :  -0.1250 0.2083 0.1250  plane waves:     611
 k-point  92 :   0.2917 0.2917 0.1250  plane waves:     610
 k-point  93 :   0.3750 0.2917 0.1250  plane waves:     615
 k-point  94 :   0.4583 0.2917 0.1250  plane waves:     617
 k-point  95 :  -0.4583 0.2917 0.1250  plane waves:     621
 k-point  96 :  -0.3750 0.2917 0.1250  plane waves:     620
 k-point  97 :  -0.2917 0.2917 0.1250  plane waves:     623
 k-point  98 :  -0.2083 0.2917 0.1250  plane waves:     619
 k-point  99 :  -0.1250 0.2917 0.1250  plane waves:     618
 k-point 100 :   0.3750 0.3750 0.1250  plane waves:     616
 k-point 101 :   0.4583 0.3750 0.1250  plane waves:     616
 k-point 102 :  -0.4583 0.3750 0.1250  plane waves:     621
 k-point 103 :  -0.3750 0.3750 0.1250  plane waves:     623
 k-point 104 :  -0.2917 0.3750 0.1250  plane waves:     623
 k-point 105 :  -0.2083 0.3750 0.1250  plane waves:     622
 k-point 106 :  -0.1250 0.3750 0.1250  plane waves:     615
 k-point 107 :   0.4583 0.4583 0.1250  plane waves:     623
 k-point 108 :  -0.4583 0.4583 0.1250  plane waves:     621
 k-point 109 :  -0.3750 0.4583 0.1250  plane waves:     624
 k-point 110 :  -0.2917 0.4583 0.1250  plane waves:     621
 k-point 111 :  -0.2083 0.4583 0.1250  plane waves:     621
 k-point 112 :  -0.1250 0.4583 0.1250  plane waves:     619
 k-point 113 :  -0.4583-0.4583 0.1250  plane waves:     622
 k-point 114 :  -0.3750-0.4583 0.1250  plane waves:     622
 k-point 115 :  -0.2917-0.4583 0.1250  plane waves:     623
 k-point 116 :  -0.2083-0.4583 0.1250  plane waves:     623
 k-point 117 :  -0.3750-0.3750 0.1250  plane waves:     615
 k-point 118 :  -0.2917-0.3750 0.1250  plane waves:     622
 k-point 119 :  -0.2083-0.3750 0.1250  plane waves:     617
 k-point 120 :  -0.2917-0.2917 0.1250  plane waves:     618
 k-point 121 :  -0.2083-0.2917 0.1250  plane waves:     615
 k-point 122 :  -0.2083-0.2083 0.1250  plane waves:     614
 k-point 123 :   0.2083 0.2083 0.2083  plane waves:     604
 k-point 124 :   0.2917 0.2083 0.2083  plane waves:     613
 k-point 125 :   0.3750 0.2083 0.2083  plane waves:     614
 k-point 126 :   0.4583 0.2083 0.2083  plane waves:     616
 k-point 127 :  -0.4583 0.2083 0.2083  plane waves:     616
 k-point 128 :  -0.3750 0.2083 0.2083  plane waves:     617
 k-point 129 :  -0.2917 0.2083 0.2083  plane waves:     618
 k-point 130 :  -0.2083 0.2083 0.2083  plane waves:     617
 k-point 131 :   0.2917 0.2917 0.2083  plane waves:     614
 k-point 132 :   0.3750 0.2917 0.2083  plane waves:     613
 k-point 133 :   0.4583 0.2917 0.2083  plane waves:     618
 k-point 134 :  -0.4583 0.2917 0.2083  plane waves:     616
 k-point 135 :  -0.3750 0.2917 0.2083  plane waves:     621
 k-point 136 :  -0.2917 0.2917 0.2083  plane waves:     622
 k-point 137 :  -0.2083 0.2917 0.2083  plane waves:     615
 k-point 138 :   0.3750 0.3750 0.2083  plane waves:     615
 k-point 139 :   0.4583 0.3750 0.2083  plane waves:     617
 k-point 140 :  -0.4583 0.3750 0.2083  plane waves:     626
 k-point 141 :  -0.3750 0.3750 0.2083  plane waves:     626
 k-point 142 :  -0.2917 0.3750 0.2083  plane waves:     625
 k-point 143 :  -0.2083 0.3750 0.2083  plane waves:     622
 k-point 144 :   0.4583 0.4583 0.2083  plane waves:     616
 k-point 145 :  -0.4583 0.4583 0.2083  plane waves:     623
 k-point 146 :  -0.3750 0.4583 0.2083  plane waves:     623
 k-point 147 :  -0.2917 0.4583 0.2083  plane waves:     618
 k-point 148 :  -0.2083 0.4583 0.2083  plane waves:     624
 k-point 149 :  -0.4583-0.4583 0.2083  plane waves:     621
 k-point 150 :  -0.3750-0.4583 0.2083  plane waves:     622
 k-point 151 :  -0.2917-0.4583 0.2083  plane waves:     621
 k-point 152 :  -0.3750-0.3750 0.2083  plane waves:     625
 k-point 153 :  -0.2917-0.3750 0.2083  plane waves:     623
 k-point 154 :  -0.2917-0.2917 0.2083  plane waves:     618
 k-point 155 :   0.2917 0.2917 0.2917  plane waves:     610
 k-point 156 :   0.3750 0.2917 0.2917  plane waves:     612
 k-point 157 :   0.4583 0.2917 0.2917  plane waves:     615
 k-point 158 :  -0.4583 0.2917 0.2917  plane waves:     613
 k-point 159 :  -0.3750 0.2917 0.2917  plane waves:     620
 k-point 160 :  -0.2917 0.2917 0.2917  plane waves:     622
 k-point 161 :   0.3750 0.3750 0.2917  plane waves:     606
 k-point 162 :   0.4583 0.3750 0.2917  plane waves:     615
 k-point 163 :  -0.4583 0.3750 0.2917  plane waves:     619
 k-point 164 :  -0.3750 0.3750 0.2917  plane waves:     621
 k-point 165 :  -0.2917 0.3750 0.2917  plane waves:     619
 k-point 166 :   0.4583 0.4583 0.2917  plane waves:     615
 k-point 167 :  -0.4583 0.4583 0.2917  plane waves:     618
 k-point 168 :  -0.3750 0.4583 0.2917  plane waves:     621
 k-point 169 :  -0.2917 0.4583 0.2917  plane waves:     622
 k-point 170 :  -0.4583-0.4583 0.2917  plane waves:     623
 k-point 171 :  -0.3750-0.4583 0.2917  plane waves:     619
 k-point 172 :  -0.3750-0.3750 0.2917  plane waves:     620
 k-point 173 :   0.3750 0.3750 0.3750  plane waves:     610
 k-point 174 :   0.4583 0.3750 0.3750  plane waves:     611
 k-point 175 :  -0.4583 0.3750 0.3750  plane waves:     612
 k-point 176 :  -0.3750 0.3750 0.3750  plane waves:     618
 k-point 177 :   0.4583 0.4583 0.3750  plane waves:     612
 k-point 178 :  -0.4583 0.4583 0.3750  plane waves:     610
 k-point 179 :  -0.3750 0.4583 0.3750  plane waves:     620
 k-point 180 :  -0.4583-0.4583 0.3750  plane waves:     613
 k-point 181 :   0.4583 0.4583 0.4583  plane waves:     616
 k-point 182 :  -0.4583 0.4583 0.4583  plane waves:     614

 maximum and minimum number of plane-waves per node :       630      603

 maximum number of plane-waves:       630
 maximum index in each direction: 
   IXMAX=    6   IYMAX=    6   IZMAX=    5
   IXMIN=   -6   IYMIN=   -6   IZMIN=   -6


 serial   3D FFT for wavefunctions
 parallel 3D FFT for charge:
    minimum data exchange during FFTs selected (reduces bandwidth)


 total amount of memory used by VASP MPI-rank0    47263. kBytes
=======================================================================

   base      :      30000. kBytes
   nonl-proj :       7381. kBytes
   fftplans  :       4177. kBytes
   grid      :       1926. kBytes
   one-center:          6. kBytes
   wavefun   :       3773. kBytes
 
     INWAV:  cpu time    0.0000: real time    0.0007
 Broyden mixing: mesh for mixing (old mesh)
   NGX = 11   NGY = 11   NGZ = 11
  (NGX  = 48   NGY  = 48   NGZ  = 48)
  gives a total of   1331 points

 initial charge density was supplied:
 charge density of overlapping atoms calculated
 number of electron       8.0000000 magnetization 
 keeping initial charge density in first step


--------------------------------------------------------------------------------------------------------


 Maximum index for augmentation-charges        21737 (set IRDMAX)


--------------------------------------------------------------------------------------------------------


 First call to EWALD:  gamma=   0.512
 Maximum number of real-space cells 3x 3x 3
 Maximum number of reciprocal cells 3x 3x 3

    FEWALD:  cpu time    0.0030: real time    0.0035


--------------------------------------- Iteration      1(   1)  ---------------------------------------


    POTLOK:  cpu time    0.0320: real time    0.0344
    SETDIJ:  cpu time    0.1760: real time    0.1773
     EDDAV:  cpu time    1.4658: real time    1.4663
       DOS:  cpu time    0.0020: real time    0.0030
    --------------------------------------------
      LOOP:  cpu time    1.6767: real time    1.6814

 eigenvalue-minimisations  :  2928
 total energy-change (2. order) : 0.1616500E+01  (-0.2595530E+03)
 number of electron       8.0000000 magnetization 
 augmentation part        8.0000000 magnetization 

 Free energy of the ion-electron system (eV)
  ---------------------------------------------------
  alpha Z        PSCENC =         3.24649573
  Ewald energy   TEWEN  =      -225.86739231
  -Hartree energ DENC   =       -11.54182812
  -exchange      EXHF   =         0.00000000
  -V(xc)+E(xc)   XCENC  =       -18.74035406
  PAW double counting   =       176.24759923     -141.06103558
  entropy T*S    EENTRO =        -0.00120143
  eigenvalues    EBANDS =        13.20296275
  atomic energy  EATOM  =       206.13125414
  Solvation  Ediel_sol  =         0.00000000
  ---------------------------------------------------
  free energy    TOTEN  =         1.61650036 eV

  energy without entropy =        1.61770179  energy(sigma->0) =        1.61710107


--------------------------------------------------------------------------------------------------------




--------------------------------------- Iteration      1(   2)  ---------------------------------------


     EDDAV:  cpu time    2.1107: real time    2.1288
       DOS:  cpu time    0.0010: real time    0.0020
    --------------------------------------------
      LOOP:  cpu time    2.1117: real time    2.1308

 eigenvalue-minimisations  :  4496
 total energy-change (2. order) :-0.1247738E+02  (-0.1211907E+02)
 number of electron       8.0000000 magnetization 
 augmentation part        8.0000000 magnetization 

 Free energy of the ion-electron system (eV)
  ---------------------------------------------------
  alpha Z        PSCENC =         3.24649573
  Ewald energy   TEWEN  =      -225.86739231
  -Hartree energ DENC   =       -11.54182812
  -exchange      EXHF   =         0.00000000
  -V(xc)+E(xc)   XCENC  =       -18.74035406
  PAW double counting   =       176.24759923     -141.06103558
  entropy T*S    EENTRO =        -0.00000000
  eigenvalues    EBANDS =         0.72438401
  atomic energy  EATOM  =       206.13125414
  Solvation  Ediel_sol  =         0.00000000
  ---------------------------------------------------
  free energy    TOTEN  =       -10.86087695 eV

  energy without entropy =      -10.86087695  energy(sigma->0) =      -10.86087695


--------------------------------------------------------------------------------------------------------




--------------------------------------- Iteration      1(   3)  ---------------------------------------


     EDDAV:  cpu time    1.8277: real time    1.8460
       DOS:  cpu time    0.0020: real time    0.0019
    --------------------------------------------
      LOOP:  cpu time    1.8287: real time    1.8479

 eigenvalue-minimisations  :  3792
 total energy-change (2. order) :-0.1442934E+00  (-0.1442934E+00)
 number of electron       8.0000000 magnetization 
 augmentation part        8.0000000 magnetization 

 Free energy of the ion-electron system (eV)
  ---------------------------------------------------
  alpha Z        PSCENC =         3.24649573
  Ewald energy   TEWEN  =      -225.86739231
  -Hartree energ DENC   =       -11.54182812
  -exchange      EXHF   =         0.00000000
  -V(xc)+E(xc)   XCENC  =       -18.74035406
  PAW double counting   =       176.24759923     -141.06103558
  entropy T*S    EENTRO =        -0.00000000
  eigenvalues    EBANDS =         0.58009065
  atomic energy  EATOM  =       206.13125414
  Solvation  Ediel_sol  =         0.00000000
  ---------------------------------------------------
  free energy    TOTEN  =       -11.00517032 eV

  energy without entropy =      -11.00517032  energy(sigma->0) =      -11.00517032


--------------------------------------------------------------------------------------------------------




--------------------------------------- Iteration      1(   4)  ---------------------------------------


     EDDAV:  cpu time    2.1787: real time    2.1967
       DOS:  cpu time    0.0020: real time    0.0020
    --------------------------------------------
      LOOP:  cpu time    2.1807: real time    2.1987

 eigenvalue-minimisations  :  4640
 total energy-change (2. order) :-0.5584033E-03  (-0.5584033E-03)
 number of electron       8.0000000 magnetization 
 augmentation part        8.0000000 magnetization 

 Free energy of the ion-electron system (eV)
  ---------------------------------------------------
  alpha Z        PSCENC =         3.24649573
  Ewald energy   TEWEN  =      -225.86739231
  -Hartree energ DENC   =       -11.54182812
  -exchange      EXHF   =         0.00000000
  -V(xc)+E(xc)   XCENC  =       -18.74035406
  PAW double counting   =       176.24759923     -141.06103558
  entropy T*S    EENTRO =        -0.00000000
  eigenvalues    EBANDS =         0.57953224
  atomic energy  EATOM  =       206.13125414
  Solvation  Ediel_sol  =         0.00000000
  ---------------------------------------------------
  free energy    TOTEN  =       -11.00572872 eV

  energy without entropy =      -11.00572872  energy(sigma->0) =      -11.00572872


--------------------------------------------------------------------------------------------------------




--------------------------------------- Iteration      1(   5)  ---------------------------------------


     EDDAV:  cpu time    1.8477: real time    1.8670
       DOS:  cpu time    0.0010: real time    0.0021
    CHARGE:  cpu time    0.1140: real time    0.1140
    MIXING:  cpu time    0.0010: real time    0.0015
    --------------------------------------------
      LOOP:  cpu time    1.9647: real time    1.9846

 eigenvalue-minimisations  :  3800
 total energy-change (2. order) :-0.5857343E-06  (-0.5857583E-06)
 number of electron       8.0000000 magnetization 
 augmentation part       -0.4689935 magnetization 

 Broyden mixing:
  rms(total) = 0.46844E+00    rms(broyden)= 0.46843E+00
  rms(prec ) = 0.91551E+00
  weight for this iteration     100.00

 Free energy of the ion-electron system (eV)
  ---------------------------------------------------
  alpha Z        PSCENC =         3.24649573
  Ewald energy   TEWEN  =      -225.86739231
  -Hartree energ DENC   =       -11.54182812
  -exchange      EXHF   =         0.00000000
  -V(xc)+E(xc)   XCENC  =       -18.74035406
  PAW double counting   =       176.24759923     -141.06103558
  entropy T*S    EENTRO =        -0.00000000
  eigenvalues    EBANDS =         0.57953166
  atomic energy  EATOM  =       206.13125414
  Solvation  Ediel_sol  =         0.00000000
  ---------------------------------------------------
  free energy    TOTEN  =       -11.00572931 eV

  energy without entropy =      -11.00572931  energy(sigma->0) =      -11.00572931


--------------------------------------------------------------------------------------------------------




--------------------------------------- Iteration      1(   6)  ---------------------------------------


    POTLOK:  cpu time    0.0320: real time    0.0481
    SETDIJ:  cpu time    0.1740: real time    0.1742
     EDDAV:  cpu time    1.6897: real time    1.6911
       DOS:  cpu time    0.0010: real time    0.0020
    CHARGE:  cpu time    0.1140: real time    0.1138
    MIXING:  cpu time    0.0010: real time    0.0016
    --------------------------------------------
      LOOP:  cpu time    2.0117: real time    2.0307

 eigenvalue-minimisations  :  3472
 total energy-change (2. order) : 0.1100388E+00  (-0.7097674E-02)
 number of electron       8.0000000 magnetization 
 augmentation part       -0.4636329 magnetization 

 Broyden mixing:
  rms(total) = 0.28588E+00    rms(broyden)= 0.28588E+00
  rms(prec ) = 0.54626E+00
  weight for this iteration     100.00

 eigenvalues of (default mixing * dielectric matrix)
  average eigenvalue GAMMA=   2.5578
  2.5578

 Free energy of the ion-electron system (eV)
  ---------------------------------------------------
  alpha Z        PSCENC =         3.24649573
  Ewald energy   TEWEN  =      -225.86739231
  -Hartree energ DENC   =       -12.98115347
  -exchange      EXHF   =         0.00000000
  -V(xc)+E(xc)   XCENC  =       -18.51339007
  PAW double counting   =       367.20116018     -332.11194856
  entropy T*S    EENTRO =        -0.00000000
  eigenvalues    EBANDS =         1.99928384
  atomic energy  EATOM  =       206.13125414
  Solvation  Ediel_sol  =         0.00000000
  ---------------------------------------------------
  free energy    TOTEN  =       -10.89569050 eV

  energy without entropy =      -10.89569050  energy(sigma->0) =      -10.89569050


--------------------------------------------------------------------------------------------------------




--------------------------------------- Iteration      1(   7)  ---------------------------------------


    POTLOK:  cpu time    0.0320: real time    0.0475
    SETDIJ:  cpu time    0.1730: real time    0.1733
     EDDAV:  cpu time    1.8047: real time    1.8064
       DOS:  cpu time    0.0010: real time    0.0021
    CHARGE:  cpu time    0.1140: real time    0.1138
    MIXING:  cpu time    0.0020: real time    0.0015
    --------------------------------------------
      LOOP:  cpu time    2.1257: real time    2.1446

 eigenvalue-minimisations  :  3760
 total energy-change (2. order) : 0.5140433E-01  (-0.1381438E-01)
 number of electron       8.0000000 magnetization 
 augmentation part       -0.4571239 magnetization 

 Broyden mixing:
  rms(total) = 0.16396E-01    rms(broyden)= 0.16395E-01
  rms(prec ) = 0.38790E-01
  weight for this iteration     100.00

 eigenvalues of (default mixing * dielectric matrix)
  average eigenvalue GAMMA=   2.0465
  1.7076  2.3855

 Free energy of the ion-electron system (eV)
  ---------------------------------------------------
  alpha Z        PSCENC =         3.24649573
  Ewald energy   TEWEN  =      -225.86739231
  -Hartree energ DENC   =       -15.35613086
  -exchange      EXHF   =         0.00000000
  -V(xc)+E(xc)   XCENC  =       -18.13140524
  PAW double counting   =       818.26106687     -783.29715938
  entropy T*S    EENTRO =        -0.00000000
  eigenvalues    EBANDS =         4.16898487
  atomic energy  EATOM  =       206.13125414
  Solvation  Ediel_sol  =         0.00000000
  ---------------------------------------------------
  free energy    TOTEN  =       -10.84428618 eV

  energy without entropy =      -10.84428618  energy(sigma->0) =      -10.84428618


--------------------------------------------------------------------------------------------------------




--------------------------------------- Iteration      1(   8)  ---------------------------------------


    POTLOK:  cpu time    0.0310: real time    0.0477
    SETDIJ:  cpu time    0.1730: real time    0.1734
     EDDAV:  cpu time    1.6208: real time    1.6218
       DOS:  cpu time    0.0010: real time    0.0021
    CHARGE:  cpu time    0.1130: real time    0.1136
    MIXING:  cpu time    0.0020: real time    0.0016
    --------------------------------------------
      LOOP:  cpu time    1.9407: real time    1.9601

 eigenvalue-minimisations  :  3304
 total energy-change (2. order) :-0.1096173E-02  (-0.3542457E-03)
 number of electron       8.0000000 magnetization 
 augmentation part       -0.4580348 magnetization 

 Broyden mixing:
  rms(total) = 0.72822E-02    rms(broyden)= 0.72819E-02
  rms(prec ) = 0.13122E-01
  weight for this iteration     100.00

 eigenvalues of (default mixing * dielectric matrix)
  average eigenvalue GAMMA=   2.2522
  2.8649  1.9459  1.9459

 Free energy of the ion-electron system (eV)
  ---------------------------------------------------
  alpha Z        PSCENC =         3.24649573
  Ewald energy   TEWEN  =      -225.86739231
  -Hartree energ DENC   =       -15.28869663
  -exchange      EXHF   =         0.00000000
  -V(xc)+E(xc)   XCENC  =       -18.13205052
  PAW double counting   =       821.15728755     -786.16780508
  entropy T*S    EENTRO =        -0.00000000
  eigenvalues    EBANDS =         4.07552477
  atomic energy  EATOM  =       206.13125414
  Solvation  Ediel_sol  =         0.00000000
  ---------------------------------------------------
  free energy    TOTEN  =       -10.84538235 eV

  energy without entropy =      -10.84538235  energy(sigma->0) =      -10.84538235


--------------------------------------------------------------------------------------------------------




--------------------------------------- Iteration      1(   9)  ---------------------------------------


    POTLOK:  cpu time    0.0310: real time    0.0483
    SETDIJ:  cpu time    0.1740: real time    0.1739
     EDDAV:  cpu time    2.0407: real time    2.0426
       DOS:  cpu time    0.0020: real time    0.0020
    CHARGE:  cpu time    0.1130: real time    0.1136
    MIXING:  cpu time    0.0010: real time    0.0015
    --------------------------------------------
      LOOP:  cpu time    2.3626: real time    2.3819

 eigenvalue-minimisations  :  4328
 total energy-change (2. order) :-0.2055632E-03  (-0.2081287E-04)
 number of electron       8.0000000 magnetization 
 augmentation part       -0.4581544 magnetization 

 Broyden mixing:
  rms(total) = 0.55275E-02    rms(broyden)= 0.55275E-02
  rms(prec ) = 0.63818E-02
  weight for this iteration     100.00

[...]
      3       1.6174      2.00000
      4       2.0057      2.00000
      5       9.1913      0.00000
      6       9.7727      0.00000
      7      10.3587      0.00000
      8      10.9822      0.00000

 k-point   148 :      -0.2083    0.4583    0.2083
  band No.  band energies     occupation 
      1      -2.7261      2.00000
      2      -1.4668      2.00000
      3       1.5293      2.00000
      4       2.2988      2.00000
      5       9.2109      0.00000
      6       9.5196      0.00000
      7      10.0997      0.00000
      8      11.7110      0.00000

 k-point   149 :      -0.4583   -0.4583    0.2083
  band No.  band energies     occupation 
      1      -2.9939      2.00000
      2      -1.3161      2.00000
      3       1.6692      2.00000
      4       3.0634      2.00000
      5       6.6643      0.00000
      6       8.8634      0.00000
      7      12.6487      0.00000
      8      12.6798      0.00000

 k-point   150 :      -0.3750   -0.4583    0.2083
  band No.  band energies     occupation 
      1      -2.5193      2.00000
      2      -1.7573      2.00000
      3       1.5849      2.00000
      4       2.6854      2.00000
      5       7.1265      0.00000
      6       8.8351      0.00000
      7      12.2909      0.00000
      8      13.0727      0.00000

 k-point   151 :      -0.2917   -0.4583    0.2083
  band No.  band energies     occupation 
      1      -2.3750      2.00000
      2      -1.8316      2.00000
      3       1.7104      2.00000
      4       2.1072      2.00000
      5       8.3438      0.00000
      6       8.9782      0.00000
      7      11.2496      0.00000
      8      11.9683      0.00000

 k-point   152 :      -0.3750   -0.3750    0.2083
  band No.  band energies     occupation 
      1      -2.5744      2.00000
      2      -1.7355      2.00000
      3       1.5382      2.00000
      4       3.0136      2.00000
      5       6.5966      0.00000
      6       8.7866      0.00000
      7      13.1898      0.00000
      8      13.4688      0.00000

 k-point   153 :      -0.2917   -0.3750    0.2083
  band No.  band energies     occupation 
      1      -2.9488      2.00000
      2      -1.3283      2.00000
      3       1.6934      2.00000
      4       2.7623      2.00000
      5       7.1862      0.00000
      6       8.9131      0.00000
      7      11.6176      0.00000
      8      13.5427      0.00000

 k-point   154 :      -0.2917   -0.2917    0.2083
  band No.  band energies     occupation 
      1      -3.4603      2.00000
      2      -0.8502      2.00000
      3       1.9285      2.00000
      4       3.1621      2.00000
      5       6.7967      0.00000
      6       9.0181      0.00000
      7      11.9008      0.00000
      8      12.0452      0.00000

 k-point   155 :       0.2917    0.2917    0.2917
  band No.  band energies     occupation 
      1      -5.2038      2.00000
      2       0.9055      2.00000
      3       4.6114      2.00000
      4       4.6114      2.00000
      5       7.2410      0.00000
      6       8.9952      0.00000
      7       8.9952      0.00000
      8      12.7661      0.00000

 k-point   156 :       0.3750    0.2917    0.2917
  band No.  band energies     occupation 
      1      -4.9353      2.00000
      2       0.4815      2.00000
      3       3.7396      2.00000
      4       4.6530      2.00000
      5       7.6690      0.00000
      6       8.9950      0.00000
      7       9.1534      0.00000
      8      12.3230      0.00000

 k-point   157 :       0.4583    0.2917    0.2917
  band No.  band energies     occupation 
      1      -4.5129      2.00000
      2       0.1077      2.00000
      3       2.5649      2.00000
      4       4.3895      2.00000
      5       8.0304      0.00000
      6       9.5809      0.00000
      7       9.5812      0.00000
      8      11.9845      0.00000

 k-point   158 :      -0.4583    0.2917    0.2917
  band No.  band energies     occupation 
      1      -3.9648      2.00000
      2      -0.3362      2.00000
      3       1.6700      2.00000
      4       3.9930      2.00000
      5       7.7013      0.00000
      6      10.5099      0.00000
      7      10.7531      0.00000
      8      11.8539      0.00000

 k-point   159 :      -0.3750    0.2917    0.2917
  band No.  band energies     occupation 
      1      -3.3752      2.00000
      2      -0.9499      2.00000
      3       1.3356      2.00000
      4       3.6129      2.00000
      5       7.2829      0.00000
      6      11.3123      0.00000
      7      11.4846      0.00000
      8      12.2800      0.00000

 k-point   160 :      -0.2917    0.2917    0.2917
  band No.  band energies     occupation 
      1      -3.0749      2.00000
      2      -1.3016      2.00000
      3       1.4782      2.00000
      4       3.3246      2.00000
      5       6.9696      0.00000
      6      10.4809      0.00000
      7      11.7294      0.00000
      8      11.7639      0.00000

 k-point   161 :       0.3750    0.3750    0.2917
  band No.  band energies     occupation 
      1      -4.7335      2.00000
      2       0.0644      2.00000
      3       4.0679      2.00000
      4       4.1430      2.00000
      5       7.5814      0.00000
      6       8.7498      0.00000
      7       9.4593      0.00000
      8      11.8593      0.00000

 k-point   162 :       0.4583    0.3750    0.2917
  band No.  band energies     occupation 
      1      -4.3783      2.00000
      2      -0.2746      2.00000
      3       3.0315      2.00000
      4       4.0729      2.00000
      5       8.0327      0.00000
      6       8.7585      0.00000
      7      10.0047      0.00000
      8      11.5120      0.00000

 k-point   163 :      -0.4583    0.3750    0.2917
  band No.  band energies     occupation 
      1      -3.8901      2.00000
      2      -0.5765      2.00000
      3       2.0110      2.00000
      4       3.7112      2.00000
      5       8.2373      0.00000
      6       9.1251      0.00000
      7      11.0770      0.00000
      8      11.4303      0.00000

 k-point   164 :      -0.3750    0.3750    0.2917
  band No.  band energies     occupation 
      1      -3.3142      2.00000
      2      -0.9791      2.00000
      3       1.3804      2.00000
      4       3.2915      2.00000
      5       7.8006      0.00000
      6      10.3469      0.00000
      7      11.3577      0.00000
      8      12.2733      0.00000

 k-point   165 :      -0.2917    0.3750    0.2917
  band No.  band energies     occupation 
      1      -2.8136      2.00000
      2      -1.4527      2.00000
      3       1.3163      2.00000
      4       2.9546      2.00000
      5       7.4264      0.00000
      6      10.4311      0.00000
      7      11.3526      0.00000
      8      12.1691      0.00000

 k-point   166 :       0.4583    0.4583    0.2917
  band No.  band energies     occupation 
      1      -4.0982      2.00000
      2      -0.6063      2.00000
      3       2.9253      2.00000
      4       3.7155      2.00000
      5       7.4911      0.00000
      6       9.5551      0.00000
      7      10.1984      0.00000
      8      11.1024      0.00000

 k-point   167 :      -0.4583    0.4583    0.2917
  band No.  band energies     occupation 
      1      -3.6904      2.00000
      2      -0.8693      2.00000
      3       2.2175      2.00000
      4       3.3919      2.00000
      5       7.7745      0.00000
      6       9.4880      0.00000
      7      10.9009      0.00000
      8      11.3272      0.00000

 k-point   168 :      -0.3750    0.4583    0.2917
  band No.  band energies     occupation 
      1      -3.1847      2.00000
      2      -1.1469      2.00000
      3       1.6278      2.00000
      4       2.8512      2.00000
      5       8.7824      0.00000
      6       9.0560      0.00000
      7      10.8668      0.00000
      8      12.5484      0.00000

 k-point   169 :      -0.2917    0.4583    0.2917
  band No.  band energies     occupation 
      1      -2.6320      2.00000
      2      -1.5671      2.00000
      3       1.4480      2.00000
      4       2.3722      2.00000
      5       8.6295      0.00000
      6      10.1149      0.00000
      7      10.7185      0.00000
      8      11.0941      0.00000

 k-point   170 :      -0.4583   -0.4583    0.2917
  band No.  band energies     occupation 
      1      -3.3882      2.00000
      2      -1.1103      2.00000
      3       1.8580      2.00000
      4       3.4142      2.00000
      5       7.1000      0.00000
      6      10.5838      0.00000
      7      11.0301      0.00000
      8      11.1799      0.00000

 k-point   171 :      -0.3750   -0.4583    0.2917
  band No.  band energies     occupation 
      1      -3.0190      2.00000
      2      -1.3175      2.00000
      3       1.4962      2.00000
      4       3.0242      2.00000
      5       7.4879      0.00000
      6      10.4052      0.00000
      7      10.8219      0.00000
      8      12.6615      0.00000

 k-point   172 :      -0.3750   -0.3750    0.2917
  band No.  band energies     occupation 
      1      -2.8748      2.00000
      2      -1.4242      2.00000
      3       1.2700      2.00000
      4       3.2792      2.00000
      5       6.9024      0.00000
      6      10.4202      0.00000
      7      12.2128      0.00000
      8      12.5285      0.00000

 k-point   173 :       0.3750    0.3750    0.3750
  band No.  band energies     occupation 
      1      -4.6075      2.00000
      2      -0.3472      2.00000
      3       4.4193      2.00000
      4       4.4193      2.00000
      5       7.0206      0.00000
      6       8.9310      0.00000
      7       8.9310      0.00000
      8      13.2792      0.00000

 k-point   174 :       0.4583    0.3750    0.3750
  band No.  band energies     occupation 
      1      -4.3333      2.00000
      2      -0.6578      2.00000
      3       3.6454      2.00000
      4       4.3828      2.00000
      5       7.4902      0.00000
      6       8.9610      0.00000
      7       9.0413      0.00000
      8      13.2233      0.00000

 k-point   175 :      -0.4583    0.3750    0.3750
  band No.  band energies     occupation 
      1      -3.9289      2.00000
      2      -0.8632      2.00000
      3       2.5225      2.00000
      4       4.0637      2.00000
      5       7.7493      0.00000
      6       9.4888      0.00000
      7       9.7632      0.00000
      8      13.2486      0.00000

 k-point   176 :      -0.3750    0.3750    0.3750
  band No.  band energies     occupation 
      1      -3.4238      2.00000
      2      -1.0563      2.00000
      3       1.6189      2.00000
      4       3.6507      2.00000
      5       7.3388      0.00000
      6      10.8340      0.00000
      7      10.8941      0.00000
      8      12.3100      0.00000

 k-point   177 :       0.4583    0.4583    0.3750
  band No.  band energies     occupation 
      1      -4.1528      2.00000
      2      -0.9486      2.00000
      3       3.8221      2.00000
      4       4.1124      2.00000
      5       7.4465      0.00000
      6       8.7351      0.00000
      7       9.2602      0.00000
      8      12.9439      0.00000

 k-point   178 :      -0.4583    0.4583    0.3750
  band No.  band energies     occupation 
      1      -3.8569      2.00000
      2      -1.1035      2.00000
      3       2.9522      2.00000
      4       3.9051      2.00000
      5       7.9737      0.00000
      6       8.6367      0.00000
      7       9.9344      0.00000
      8      12.8277      0.00000

 k-point   179 :      -0.3750    0.4583    0.3750
  band No.  band energies     occupation 
      1      -3.4712      2.00000
      2      -1.1655      2.00000
      3       2.0366      2.00000
      4       3.4696      2.00000
      5       7.9480      0.00000
      6       9.2642      0.00000
      7      11.2257      0.00000
      8      12.4382      0.00000

 k-point   180 :      -0.4583   -0.4583    0.3750
  band No.  band energies     occupation 
      1      -3.6973      2.00000
      2      -1.2003      2.00000
      3       2.6528      2.00000
      4       3.8303      2.00000
      5       7.5614      0.00000
      6       9.4703      0.00000
      7       9.9524      0.00000
      8      12.5536      0.00000

 k-point   181 :       0.4583    0.4583    0.4583
  band No.  band energies     occupation 
      1      -4.0903      2.00000
      2      -1.1976      2.00000
      3       4.3216      2.00000
      4       4.3216      2.00000
      5       6.9068      0.00000
      6       8.8458      0.00000
      7       8.8458      0.00000
      8      13.1784      0.00000

 k-point   182 :      -0.4583    0.4583    0.4583
  band No.  band energies     occupation 
      1      -3.9324      2.00000
      2      -1.2776      2.00000
      3       3.6765      2.00000
      4       4.1962      2.00000
      5       7.4139      0.00000
      6       8.7959      0.00000
      7       9.1080      0.00000
      8      13.4328      0.00000


--------------------------------------------------------------------------------------------------------


 soft charge-density along one line, spin component           1
         0         1         2         3         4         5         6         7         8         9
 total charge-density along one line
 
 pseudopotential strength for first ion, spin component:           1
 18.453  25.746   0.000   0.000   0.000   0.000   0.000   0.000
 25.746  35.925   0.000   0.000   0.000   0.000   0.000   0.000
  0.000   0.000   4.182  -0.000  -0.000   7.794  -0.000  -0.000
  0.000   0.000  -0.000   4.182  -0.000  -0.000   7.794  -0.000
  0.000   0.000  -0.000  -0.000   4.182  -0.000  -0.000   7.794
  0.000   0.000   7.794  -0.000  -0.000  14.535  -0.000  -0.000
  0.000   0.000  -0.000   7.794  -0.000  -0.000  14.535  -0.000
  0.000   0.000  -0.000  -0.000   7.794  -0.000  -0.000  14.535
 total augmentation occupancy for first ion, spin component:           1
  5.404  -1.995  -0.000   0.000   0.000   0.000   0.000  -0.000
 -1.995   0.854   0.000  -0.000  -0.000   0.000   0.000  -0.000
  0.000  -0.000   2.882   0.000   0.000  -0.645  -0.000  -0.000
 -0.000  -0.000   0.000   2.882   0.000  -0.000  -0.645  -0.000
  0.000   0.000   0.000   0.000   2.882  -0.000  -0.000  -0.645
 -0.000   0.000  -0.645  -0.000  -0.000   0.152   0.000   0.000
  0.000   0.000  -0.000  -0.645  -0.000   0.000   0.152   0.000
 -0.000  -0.000  -0.000  -0.000  -0.645   0.000   0.000   0.152


------------------------ aborting loop because EDIFF is reached ----------------------------------------


    CHARGE:  cpu time    0.1130: real time    0.1124
    FORLOC:  cpu time    0.0000: real time    0.0017
    FORNL :  cpu time    0.1840: real time    0.1829
    STRESS:  cpu time    1.4698: real time    1.4712
    FORCOR:  cpu time    0.0320: real time    0.0318
    FORHAR:  cpu time    0.0060: real time    0.0060
    MIXING:  cpu time    0.0020: real time    0.0012
    OFIELD:  cpu time    0.0000: real time    0.0002

  FORCE on cell =-STRESS in cart. coord.  units (eV):
  Direction    XX          YY          ZZ          XY          YZ          ZX
  --------------------------------------------------------------------------------------
  Alpha Z     3.24650     3.24650     3.24650
  Ewald     -75.28914   -75.28922   -75.28913     0.00001     0.00000    -0.00000
  Hartree     5.11396     5.11396     5.11396     0.00000     0.00000     0.00000
  E(xc)     -25.16621   -25.16620   -25.16621    -0.00000    -0.00000    -0.00000
  Local     -29.73500   -29.73498   -29.73498    -0.00000     0.00001     0.00001
  n-local    74.91367    77.25380    79.51803    -1.02628    -1.42315     0.10455
  augment   -11.64771   -11.64771   -11.64772    -0.00000    -0.00001    -0.00001
  Kinetic    54.41908    55.94461    57.39420    -0.17758     0.43852    -1.08767
  Fock        0.00000     0.00000     0.00000     0.00000     0.00000     0.00000
  -------------------------------------------------------------------------------------
  Total      -0.32981    -0.32981    -0.32981    -0.00000    -0.00000    -0.00000
  in kB     -12.74032   -12.74033   -12.74032    -0.00000    -0.00000    -0.00000
  external pressure =      -12.74 kB  Pullay stress =        0.00 kB


 VOLUME and BASIS-vectors are now :
 -----------------------------------------------------------------------------
  energy-cutoff  :      350.00
  volume of cell :       41.48
      direct lattice vectors                 reciprocal lattice vectors
     3.364874057  0.000000000  1.942710669     0.297187943 -0.105071763  0.000000000
     1.121624686  3.172434942  1.942710669     0.000000000  0.315215290  0.000000000
     0.000000000  0.000000000  3.885421338    -0.148593972 -0.105071763  0.257372345

  length of vectors
     3.885421748  3.885422775  3.885421338     0.315215401  0.315215290  0.315215431


 FORCES acting on ions
    electron-ion (+dipol)            ewald-force                    non-local-force                 convergence-correction
 -----------------------------------------------------------------------------------------------
   0.523E-05 0.244E-04 0.708E-07   -.883E-05 -.414E-04 -.382E-15   0.198E-16 0.133E-17 -.555E-16   0.642E-07 0.470E-07 0.111E-06
   -.523E-05 -.244E-04 -.708E-07   0.883E-05 0.414E-04 0.324E-15   -.129E-16 -.133E-17 0.451E-16   -.642E-07 -.470E-07 -.111E-06
 -----------------------------------------------------------------------------------------------
   0.389E-13 -.508E-13 0.113E-12   0.356E-15 -.767E-16 -.571E-16   0.697E-17 0.000E+00 -.104E-16   0.401E-15 -.491E-15 -.696E-16
 
 
 POSITION                                       TOTAL-FORCE (eV/Angst)
 -----------------------------------------------------------------------------------
      3.92569      2.77588      6.79949        -0.000000     -0.000000      0.000000
      0.56081      0.39655      0.97136         0.000000      0.000000     -0.000000
 -----------------------------------------------------------------------------------
    total drift:                                0.000000     -0.000000      0.000000


--------------------------------------------------------------------------------------------------------



  FREE ENERGIE OF THE ION-ELECTRON SYSTEM (eV)
  ---------------------------------------------------
  free  energy   TOTEN  =       -10.84561175 eV

  energy  without entropy=      -10.84561175  energy(sigma->0) =      -10.84561175
 


--------------------------------------------------------------------------------------------------------


    POTLOK:  cpu time    0.2110: real time    0.2182


--------------------------------------------------------------------------------------------------------




--------------------------------------------------------------------------------------------------------


  
 reached required accuracy - stopping structural energy minimisation
     LOOP+:  cpu time   24.6083: real time   24.9673
    4ORBIT:  cpu time    0.0000: real time    0.0000

 total amount of memory used by VASP MPI-rank0    47263. kBytes
=======================================================================

   base      :      30000. kBytes
   nonl-proj :       7381. kBytes
   fftplans  :       4177. kBytes
   grid      :       1926. kBytes
   one-center:          6. kBytes
   wavefun   :       3773. kBytes
 
  
  
 General timing and accounting informations for this job:
 ========================================================
  
                  Total CPU time used (sec):       27.261
                            User time (sec):       26.718
                          System time (sec):        0.543
                         Elapsed time (sec):       28.431
  
                   Maximum memory used (kb):       71800.
                   Average memory used (kb):          N/A
  
                          Minor page faults:        53473
                          Major page faults:            1
                 Voluntary context switches:        19705
