 running on    4 total cores
 distrk:  each k-point on    4 cores,    1 groups
 distr:  one band on    1 cores,    4 groups
 vasp.6.2.0 18Jan21 (build Aug 12 2022 13:00:08) complex                        
  
 POSCAR found type information on POSCAR Si
 POSCAR found :  1 types and       2 ions
 scaLAPACK will be used
 LDA part: xc-table for Pade appr. of Perdew
 POSCAR, INCAR and KPOINTS ok, starting setup
 FFT: planning ...
 WAVECAR not read
 entering main loop
       N       E                     dE             d eps       ncg     rms          rms(c)
DAV:   1     0.161650035513E+01    0.16165E+01   -0.25955E+03  2928   0.581E+02
DAV:   2    -0.108608769520E+02   -0.12477E+02   -0.12119E+02  4496   0.663E+01
DAV:   3    -0.110051703184E+02   -0.14429E+00   -0.14429E+00  3792   0.903E+00
DAV:   4    -0.110057287217E+02   -0.55840E-03   -0.55840E-03  4640   0.593E-01
DAV:   5    -0.110057293075E+02   -0.58573E-06   -0.58576E-06  3800   0.147E-02    0.468E+00
DAV:   6    -0.108956905023E+02    0.11004E+00   -0.70977E-02  3472   0.139E+00    0.286E+00
DAV:   7    -0.108442861760E+02    0.51404E-01   -0.13814E-01  3760   0.206E+00    0.164E-01
DAV:   8    -0.108453823489E+02   -0.10962E-02   -0.35425E-03  3304   0.441E-01    0.728E-02
DAV:   9    -0.108455879121E+02   -0.20556E-03   -0.20813E-04  4328   0.110E-01    0.553E-02
DAV:  10    -0.108456120062E+02   -0.24094E-04   -0.28282E-05  3320   0.396E-02    0.852E-03
DAV:  11    -0.108456117539E+02    0.25236E-06   -0.56197E-07  4192   0.509E-03
   1 F= -.10845612E+02 E0= -.10845612E+02  d E =-.108456E+02
 curvature:   0.00 expect dE= 0.000E+00 dE for cont linesearch  0.000E+00
 trial: gam= 0.00000 g(F)=  0.148E-42 g(S)=  0.000E+00 ort = 0.000E+00 (trialstep = 0.100E+01)
 search vector abs. value=  0.100E-09
 reached required accuracy - stopping structural energy minimisation
