<?xml version="1.0" encoding="ISO-8859-1"?>
<modeling>
 <generator>
  <i name="program" type="string">vasp </i>
  <i name="version" type="string">6.2.0  </i>
  <i name="subversion" type="string">18Jan21 (build Aug 12 2022 13:00:08) complex                          parallel </i>
  <i name="platform" type="string">LinuxIFC </i>
  <i name="date" type="string">2024 11 05 </i>
  <i name="time" type="string">05:59:37 </i>
 </generator>
 <incar>
  <i type="int" name="ISTART">     0</i>
  <i type="string" name="PREC">Accurate      (Accurate strictly avoids</i>
  <i type="logical" name="ADDGRID"> T  </i>
  <i type="int" name="ISPIN">     1</i>
  <i type="int" name="NELM">    90</i>
  <i type="int" name="NELMIN">     6</i>
  <i type="int" name="IBRION">     2</i>
  <i name="EDIFF">      0.00000100</i>
  <i name="EDIFFG">     -0.00200000</i>
  <i type="int" name="NSW">   100</i>
  <i type="int" name="ISIF">     2</i>
  <i type="int" name="ISYM">     2</i>
  <i name="ENCUT">    350.00000000</i>
  <i type="logical" name="LREAL"> F  </i>
  <i type="int" name="ISMEAR">     0</i>
  <i name="SIGMA">      0.05000000</i>
  <i type="logical" name="LWAVE"> F  </i>
  <i type="logical" name="LCHARG"> F  </i>
  <i type="logical" name="LASPH"> T  </i>
 </incar>
 <primitive_cell>
  <structure name="primitive_cell" >
   <crystal>
    <varray name="basis" >
     <v>       3.36487406       0.00000000       1.94271067 </v>
     <v>       1.12162469       3.17243494       1.94271067 </v>
     <v>       0.00000000       0.00000000       3.88542134 </v>
    </varray>
    <i name="volume">     41.47626679 </i>
    <varray name="rec_basis" >
     <v>       0.29718794      -0.10507176       0.00000000 </v>
     <v>       0.00000000       0.31521529       0.00000000 </v>
     <v>      -0.14859397      -0.10507176       0.25737234 </v>
    </varray>
   </crystal>
   <varray name="positions" >
    <v>       0.87500000       0.87500000       0.87500000 </v>
    <v>       0.12500000       0.12500000       0.12500000 </v>
   </varray>
  </structure>
  <varray name="primitive_index" >
   <v type="int" >        1 </v>
   <v type="int" >        2 </v>
  </varray>
 </primitive_cell>
 <kpoints>
  <generation param="Monkhorst-Pack">
   <v type="int" name="divisions">      12       12       12 </v>
   <v name="usershift">      0.00000000       0.00000000       0.00000000 </v>
   <v name="genvec1">      0.08333333       0.00000000       0.00000000 </v>
   <v name="genvec2">      0.00000000       0.08333333       0.00000000 </v>
   <v name="genvec3">      0.00000000      -0.00000000       0.08333333 </v>
   <v name="shift">      0.50000000       0.50000000       0.50000000 </v>
  </generation>
  <varray name="kpointlist" >
   <v>       0.04166667       0.04166667       0.04166667 </v>
   <v>       0.12500000       0.04166667       0.04166667 </v>
   <v>       0.20833333       0.04166667       0.04166667 </v>
   <v>       0.29166667       0.04166667       0.04166667 </v>
   <v>       0.37500000       0.04166667       0.04166667 </v>
   <v>       0.45833333       0.04166667       0.04166667 </v>
   <v>      -0.45833333       0.04166667       0.04166667 </v>
   <v>      -0.37500000       0.04166667       0.04166667 </v>
   <v>      -0.29166667       0.04166667       0.04166667 </v>
   <v>      -0.20833333       0.04166667       0.04166667 </v>
   <v>      -0.12500000       0.04166667       0.04166667 </v>
   <v>      -0.04166667       0.04166667       0.04166667 </v>
   <v>       0.12500000       0.12500000       0.04166667 </v>
   <v>       0.20833333       0.12500000       0.04166667 </v>
   <v>       0.29166667       0.12500000       0.04166667 </v>
   <v>       0.37500000       0.12500000       0.04166667 </v>
   <v>       0.45833333       0.12500000       0.04166667 </v>
   <v>      -0.45833333       0.12500000       0.04166667 </v>
   <v>      -0.37500000       0.12500000       0.04166667 </v>
   <v>      -0.29166667       0.12500000       0.04166667 </v>
   <v>      -0.20833333       0.12500000       0.04166667 </v>
   <v>      -0.12500000       0.12500000       0.04166667 </v>
   <v>      -0.04166667       0.12500000       0.04166667 </v>
   <v>       0.20833333       0.20833333       0.04166667 </v>
   <v>       0.29166667       0.20833333       0.04166667 </v>
   <v>       0.37500000       0.20833333       0.04166667 </v>
   <v>       0.45833333       0.20833333       0.04166667 </v>
   <v>      -0.45833333       0.20833333       0.04166667 </v>
   <v>      -0.37500000       0.20833333       0.04166667 </v>
   <v>      -0.29166667       0.20833333       0.04166667 </v>
   <v>      -0.20833333       0.20833333       0.04166667 </v>
   <v>      -0.12500000       0.20833333       0.04166667 </v>
   <v>      -0.04166667       0.20833333       0.04166667 </v>
   <v>       0.29166667       0.29166667       0.04166667 </v>
   <v>       0.37500000       0.29166667       0.04166667 </v>
   <v>       0.45833333       0.29166667       0.04166667 </v>
   <v>      -0.45833333       0.29166667       0.04166667 </v>
   <v>      -0.37500000       0.29166667       0.04166667 </v>
   <v>      -0.29166667       0.29166667       0.04166667 </v>
   <v>      -0.20833333       0.29166667       0.04166667 </v>
   <v>      -0.12500000       0.29166667       0.04166667 </v>
   <v>      -0.04166667       0.29166667       0.04166667 </v>
   <v>       0.37500000       0.37500000       0.04166667 </v>
   <v>       0.45833333       0.37500000       0.04166667 </v>
   <v>      -0.45833333       0.37500000       0.04166667 </v>
   <v>      -0.37500000       0.37500000       0.04166667 </v>
   <v>      -0.29166667       0.37500000       0.04166667 </v>
   <v>      -0.20833333       0.37500000       0.04166667 </v>
   <v>      -0.12500000       0.37500000       0.04166667 </v>
   <v>      -0.04166667       0.37500000       0.04166667 </v>
   <v>       0.45833333       0.45833333       0.04166667 </v>
   <v>      -0.45833333       0.45833333       0.04166667 </v>
   <v>      -0.37500000       0.45833333       0.04166667 </v>
   <v>      -0.29166667       0.45833333       0.04166667 </v>
   <v>      -0.20833333       0.45833333       0.04166667 </v>
   <v>      -0.12500000       0.45833333       0.04166667 </v>
   <v>      -0.04166667       0.45833333       0.04166667 </v>
   <v>      -0.45833333      -0.45833333       0.04166667 </v>
   <v>      -0.37500000      -0.45833333       0.04166667 </v>
   <v>      -0.29166667      -0.45833333       0.04166667 </v>
   <v>      -0.20833333      -0.45833333       0.04166667 </v>
   <v>      -0.12500000      -0.45833333       0.04166667 </v>
   <v>      -0.37500000      -0.37500000       0.04166667 </v>
   <v>      -0.29166667      -0.37500000       0.04166667 </v>
   <v>      -0.20833333      -0.37500000       0.04166667 </v>
   <v>      -0.12500000      -0.37500000       0.04166667 </v>
   <v>      -0.29166667      -0.29166667       0.04166667 </v>
   <v>      -0.20833333      -0.29166667       0.04166667 </v>
   <v>      -0.12500000      -0.29166667       0.04166667 </v>
   <v>      -0.20833333      -0.20833333       0.04166667 </v>
   <v>      -0.12500000      -0.20833333       0.04166667 </v>
   <v>      -0.12500000      -0.12500000       0.04166667 </v>
   <v>       0.12500000       0.12500000       0.12500000 </v>
   <v>       0.20833333       0.12500000       0.12500000 </v>
   <v>       0.29166667       0.12500000       0.12500000 </v>
   <v>       0.37500000       0.12500000       0.12500000 </v>
   <v>       0.45833333       0.12500000       0.12500000 </v>
   <v>      -0.45833333       0.12500000       0.12500000 </v>
   <v>      -0.37500000       0.12500000       0.12500000 </v>
   <v>      -0.29166667       0.12500000       0.12500000 </v>
   <v>      -0.20833333       0.12500000       0.12500000 </v>
   <v>      -0.12500000       0.12500000       0.12500000 </v>
   <v>       0.20833333       0.20833333       0.12500000 </v>
   <v>       0.29166667       0.20833333       0.12500000 </v>
   <v>       0.37500000       0.20833333       0.12500000 </v>
   <v>       0.45833333       0.20833333       0.12500000 </v>
   <v>      -0.45833333       0.20833333       0.12500000 </v>
   <v>      -0.37500000       0.20833333       0.12500000 </v>
   <v>      -0.29166667       0.20833333       0.12500000 </v>
   <v>      -0.20833333       0.20833333       0.12500000 </v>
   <v>      -0.12500000       0.20833333       0.12500000 </v>
   <v>       0.29166667       0.29166667       0.12500000 </v>
   <v>       0.37500000       0.29166667       0.12500000 </v>
   <v>       0.45833333       0.29166667       0.12500000 </v>
   <v>      -0.45833333       0.29166667       0.12500000 </v>
   <v>      -0.37500000       0.29166667       0.12500000 </v>
   <v>      -0.29166667       0.29166667       0.12500000 </v>
   <v>      -0.20833333       0.29166667       0.12500000 </v>
   <v>      -0.12500000       0.29166667       0.12500000 </v>
   <v>       0.37500000       0.37500000       0.12500000 </v>
   <v>       0.45833333       0.37500000       0.12500000 </v>
   <v>      -0.45833333       0.37500000       0.12500000 </v>
   <v>      -0.37500000       0.37500000       0.12500000 </v>
   <v>      -0.29166667       0.37500000       0.12500000 </v>
   <v>      -0.20833333       0.37500000       0.12500000 </v>
   <v>      -0.12500000       0.37500000       0.12500000 </v>
   <v>       0.45833333       0.45833333       0.12500000 </v>
   <v>      -0.45833333       0.45833333       0.12500000 </v>
   <v>      -0.37500000       0.45833333       0.12500000 </v>
   <v>      -0.29166667       0.45833333       0.12500000 </v>
   <v>      -0.20833333       0.45833333       0.12500000 </v>
   <v>      -0.12500000       0.45833333       0.12500000 </v>
   <v>      -0.45833333      -0.45833333       0.12500000 </v>
   <v>      -0.37500000      -0.45833333       0.12500000 </v>
   <v>      -0.29166667      -0.45833333       0.12500000 </v>
   <v>      -0.20833333      -0.45833333       0.12500000 </v>
   <v>      -0.37500000      -0.37500000       0.12500000 </v>
   <v>      -0.29166667      -0.37500000       0.12500000 </v>
   <v>      -0.20833333      -0.37500000       0.12500000 </v>
   <v>      -0.29166667      -0.29166667       0.12500000 </v>
   <v>      -0.20833333      -0.29166667       0.12500000 </v>
   <v>      -0.20833333      -0.20833333       0.12500000 </v>
   <v>       0.20833333       0.20833333       0.20833333 </v>
   <v>       0.29166667       0.20833333       0.20833333 </v>
   <v>       0.37500000       0.20833333       0.20833333 </v>
   <v>       0.45833333       0.20833333       0.20833333 </v>
   <v>      -0.45833333       0.20833333       0.20833333 </v>
   <v>      -0.37500000       0.20833333       0.20833333 </v>
   <v>      -0.29166667       0.20833333       0.20833333 </v>
   <v>      -0.20833333       0.20833333       0.20833333 </v>
   <v>       0.29166667       0.29166667       0.20833333 </v>
   <v>       0.37500000       0.29166667       0.20833333 </v>
   <v>       0.45833333       0.29166667       0.20833333 </v>
   <v>      -0.45833333       0.29166667       0.20833333 </v>
   <v>      -0.37500000       0.29166667       0.20833333 </v>
   <v>      -0.29166667       0.29166667       0.20833333 </v>
   <v>      -0.20833333       0.29166667       0.20833333 </v>
   <v>       0.37500000       0.37500000       0.20833333 </v>
   <v>       0.45833333       0.37500000       0.20833333 </v>
   <v>      -0.45833333       0.37500000       0.20833333 </v>
   <v>      -0.37500000       0.37500000       0.20833333 </v>
   <v>      -0.29166667       0.37500000       0.20833333 </v>
   <v>      -0.20833333       0.37500000       0.20833333 </v>
   <v>       0.45833333       0.45833333       0.20833333 </v>
   <v>      -0.45833333       0.45833333       0.20833333 </v>
   <v>      -0.37500000       0.45833333       0.20833333 </v>
   <v>      -0.29166667       0.45833333       0.20833333 </v>
   <v>      -0.20833333       0.45833333       0.20833333 </v>
   <v>      -0.45833333      -0.45833333       0.20833333 </v>
   <v>      -0.37500000      -0.45833333       0.20833333 </v>
   <v>      -0.29166667      -0.45833333       0.20833333 </v>
   <v>      -0.37500000      -0.37500000       0.20833333 </v>
   <v>      -0.29166667      -0.37500000       0.20833333 </v>
   <v>      -0.29166667      -0.29166667       0.20833333 </v>
   <v>       0.29166667       0.29166667       0.29166667 </v>
   <v>       0.37500000       0.29166667       0.29166667 </v>
   <v>       0.45833333       0.29166667       0.29166667 </v>
   <v>      -0.45833333       0.29166667       0.29166667 </v>
   <v>      -0.37500000       0.29166667       0.29166667 </v>
   <v>      -0.29166667       0.29166667       0.29166667 </v>
   <v>       0.37500000       0.37500000       0.29166667 </v>
   <v>       0.45833333       0.37500000       0.29166667 </v>
   <v>      -0.45833333       0.37500000       0.29166667 </v>
   <v>      -0.37500000       0.37500000       0.29166667 </v>
   <v>      -0.29166667       0.37500000       0.29166667 </v>
   <v>       0.45833333       0.45833333       0.29166667 </v>
   <v>      -0.45833333       0.45833333       0.29166667 </v>
   <v>      -0.37500000       0.45833333       0.29166667 </v>
   <v>      -0.29166667       0.45833333       0.29166667 </v>
   <v>      -0.45833333      -0.45833333       0.29166667 </v>
   <v>      -0.37500000      -0.45833333       0.29166667 </v>
   <v>      -0.37500000      -0.37500000       0.29166667 </v>
   <v>       0.37500000       0.37500000       0.37500000 </v>
   <v>       0.45833333       0.37500000       0.37500000 </v>
   <v>      -0.45833333       0.37500000       0.37500000 </v>
   <v>      -0.37500000       0.37500000       0.37500000 </v>
   <v>       0.45833333       0.45833333       0.37500000 </v>
   <v>      -0.45833333       0.45833333       0.37500000 </v>
   <v>      -0.37500000       0.45833333       0.37500000 </v>
   <v>      -0.45833333      -0.45833333       0.37500000 </v>
   <v>       0.45833333       0.45833333       0.45833333 </v>
   <v>      -0.45833333       0.45833333       0.45833333 </v>
  </varray>
  <varray name="weights" >
   <v>       0.00115741 </v>
   <v>       0.00347222 </v>
   <v>       0.00347222 </v>
   <v>       0.00347222 </v>
   <v>       0.00347222 </v>
   <v>       0.00347222 </v>
   <v>       0.00347222 </v>
   <v>       0.00347222 </v>
   <v>       0.00347222 </v>
   <v>       0.00347222 </v>
   <v>       0.00347222 </v>
   <v>       0.00347222 </v>
   <v>       0.00347222 </v>
   <v>       0.00694444 </v>
   <v>       0.00694444 </v>
   <v>       0.00694444 </v>
   <v>       0.00694444 </v>
   <v>       0.00694444 </v>
   <v>       0.00694444 </v>
   <v>       0.00694444 </v>
   <v>       0.00694444 </v>
   <v>       0.00694444 </v>
   <v>       0.00694444 </v>
   <v>       0.00347222 </v>
   <v>       0.00694444 </v>
   <v>       0.00694444 </v>
   <v>       0.00694444 </v>
   <v>       0.00694444 </v>
   <v>       0.00694444 </v>
   <v>       0.00694444 </v>
   <v>       0.00694444 </v>
   <v>       0.00694444 </v>
   <v>       0.00694444 </v>
   <v>       0.00347222 </v>
   <v>       0.00694444 </v>
   <v>       0.00694444 </v>
   <v>       0.00694444 </v>
   <v>       0.00694444 </v>
   <v>       0.00694444 </v>
   <v>       0.00694444 </v>
   <v>       0.00694444 </v>
   <v>       0.00694444 </v>
   <v>       0.00347222 </v>
   <v>       0.00694444 </v>
   <v>       0.00694444 </v>
   <v>       0.00694444 </v>
   <v>       0.00694444 </v>
   <v>       0.00694444 </v>
   <v>       0.00694444 </v>
   <v>       0.00694444 </v>
   <v>       0.00347222 </v>
   <v>       0.00694444 </v>
   <v>       0.00694444 </v>
   <v>       0.00694444 </v>
   <v>       0.00694444 </v>
   <v>       0.00694444 </v>
   <v>       0.00694444 </v>
   <v>       0.00347222 </v>
   <v>       0.00694444 </v>
   <v>       0.00694444 </v>
   <v>       0.00694444 </v>
   <v>       0.00694444 </v>
   <v>       0.00347222 </v>
   <v>       0.00694444 </v>
   <v>       0.00694444 </v>
   <v>       0.00694444 </v>
   <v>       0.00347222 </v>
   <v>       0.00694444 </v>
   <v>       0.00694444 </v>
   <v>       0.00347222 </v>
   <v>       0.00694444 </v>
   <v>       0.00347222 </v>
   <v>       0.00115741 </v>
   <v>       0.00347222 </v>
   <v>       0.00347222 </v>
   <v>       0.00347222 </v>
   <v>       0.00347222 </v>
   <v>       0.00347222 </v>
   <v>       0.00347222 </v>
   <v>       0.00347222 </v>
   <v>       0.00347222 </v>
   <v>       0.00347222 </v>
   <v>       0.00347222 </v>
   <v>       0.00694444 </v>
   <v>       0.00694444 </v>
   <v>       0.00694444 </v>
   <v>       0.00694444 </v>
   <v>       0.00694444 </v>
   <v>       0.00694444 </v>
   <v>       0.00694444 </v>
   <v>       0.00694444 </v>
   <v>       0.00347222 </v>
   <v>       0.00694444 </v>
   <v>       0.00694444 </v>
   <v>       0.00694444 </v>
   <v>       0.00694444 </v>
   <v>       0.00694444 </v>
   <v>       0.00694444 </v>
   <v>       0.00694444 </v>
   <v>       0.00347222 </v>
   <v>       0.00694444 </v>
   <v>       0.00694444 </v>
   <v>       0.00694444 </v>
   <v>       0.00694444 </v>
   <v>       0.00694444 </v>
   <v>       0.00694444 </v>
   <v>       0.00347222 </v>
   <v>       0.00694444 </v>
   <v>       0.00694444 </v>
   <v>       0.00694444 </v>
   <v>       0.00694444 </v>
   <v>       0.00694444 </v>
   <v>       0.00347222 </v>
   <v>       0.00694444 </v>
   <v>       0.00694444 </v>
   <v>       0.00694444 </v>
   <v>       0.00347222 </v>
   <v>       0.00694444 </v>
   <v>       0.00694444 </v>
   <v>       0.00347222 </v>
   <v>       0.00694444 </v>
   <v>       0.00347222 </v>
   <v>       0.00115741 </v>
   <v>       0.00347222 </v>
   <v>       0.00347222 </v>
   <v>       0.00347222 </v>
   <v>       0.00347222 </v>
   <v>       0.00347222 </v>
   <v>       0.00347222 </v>
   <v>       0.00347222 </v>
   <v>       0.00347222 </v>
   <v>       0.00694444 </v>
   <v>       0.00694444 </v>
   <v>       0.00694444 </v>
   <v>       0.00694444 </v>
   <v>       0.00694444 </v>
   <v>       0.00694444 </v>
   <v>       0.00347222 </v>
   <v>       0.00694444 </v>
   <v>       0.00694444 </v>
   <v>       0.00694444 </v>
   <v>       0.00694444 </v>
   <v>       0.00694444 </v>
   <v>       0.00347222 </v>
   <v>       0.00694444 </v>
   <v>       0.00694444 </v>
   <v>       0.00694444 </v>
   <v>       0.00694444 </v>
   <v>       0.00347222 </v>
   <v>       0.00694444 </v>
   <v>       0.00694444 </v>
   <v>       0.00347222 </v>
   <v>       0.00694444 </v>
   <v>       0.00347222 </v>
   <v>       0.00115741 </v>
   <v>       0.00347222 </v>
   <v>       0.00347222 </v>
   <v>       0.00347222 </v>
   <v>       0.00347222 </v>
   <v>       0.00347222 </v>
   <v>       0.00347222 </v>
   <v>       0.00694444 </v>
   <v>       0.00694444 </v>
   <v>       0.00694444 </v>
   <v>       0.00694444 </v>
   <v>       0.00347222 </v>
   <v>       0.00694444 </v>
   <v>       0.00694444 </v>
   <v>       0.00694444 </v>
   <v>       0.00347222 </v>
   <v>       0.00694444 </v>
   <v>       0.00347222 </v>
   <v>       0.00115741 </v>
   <v>       0.00347222 </v>
   <v>       0.00347222 </v>
   <v>       0.00347222 </v>
   <v>       0.00347222 </v>
   <v>       0.00694444 </v>
   <v>       0.00694444 </v>
   <v>       0.00347222 </v>
   <v>       0.00115741 </v>
   <v>       0.00347222 </v>
  </varray>
 </kpoints>
 <parameters>
  <separator name="general" >
   <i type="string" name="SYSTEM">unknown system</i>
   <i type="logical" name="LCOMPAT"> F  </i>
  </separator>
  <separator name="electronic" >
   <i type="string" name="PREC">accura</i>
   <i name="ENMAX">    350.00000000</i>
   <i name="ENAUG">    322.06900000</i>
   <i name="EDIFF">      0.00000100</i>
   <i type="int" name="IALGO">    38</i>
   <i type="int" name="IWAVPR">    11</i>
   <i type="int" name="NBANDS">     8</i>
   <i type="int" name="NBANDSLOW">    -1</i>
   <i type="int" name="NBANDSHIGH">    -1</i>
   <i name="NELECT">      8.00000000</i>
   <i type="int" name="TURBO">     0</i>
   <i type="int" name="IRESTART">     0</i>
   <i type="int" name="NREBOOT">     0</i>
   <i type="int" name="NMIN">     0</i>
   <i name="EREF">      0.00000000</i>
   <separator name="electronic smearing" >
    <i type="int" name="ISMEAR">     0</i>
    <i name="SIGMA">      0.05000000</i>
    <i name="KSPACING">      0.50000000</i>
    <i type="logical" name="KGAMMA"> T  </i>
    <i type="logical" name="KBLOWUP"> T  </i>
   </separator>
   <separator name="electronic projectors" >
    <i type="logical" name="LREAL"> F  </i>
    <v name="ROPT">      0.00000000</v>
    <i type="int" name="LMAXPAW">  -100</i>
    <i type="int" name="LMAXMIX">     2</i>
    <i type="logical" name="NLSPLINE"> F  </i>
   </separator>
   <separator name="electronic startup" >
    <i type="int" name="ISTART">     0</i>
    <i type="int" name="ICHARG">     2</i>
    <i type="int" name="INIWAV">     1</i>
   </separator>
   <separator name="electronic spin" >
    <i type="int" name="ISPIN">     1</i>
    <i type="logical" name="LNONCOLLINEAR"> F  </i>
    <v name="MAGMOM">      1.00000000      1.00000000</v>
    <i name="NUPDOWN">     -1.00000000</i>
    <i type="logical" name="LSORBIT"> F  </i>
    <v name="SAXIS">      0.00000000      0.00000000      1.00000000</v>
    <i type="logical" name="LSPIRAL"> F  </i>
    <v name="QSPIRAL">      0.00000000      0.00000000      0.00000000</v>
    <i type="logical" name="LZEROZ"> F  </i>
   </separator>
   <separator name="electronic exchange-correlation" >
    <i type="logical" name="LASPH"> T  </i>
    <i type="logical" name="LMETAGGA"> F  </i>
   </separator>
   <separator name="electronic convergence" >
    <i type="int" name="NELM">    90</i>
    <i type="int" name="NELMDL">    -5</i>
    <i type="int" name="NELMIN">     6</i>
    <i name="ENINI">    350.00000000</i>
    <separator name="electronic convergence detail" >
     <i type="logical" name="LDIAG"> T  </i>
     <i type="logical" name="LSUBROT"> F  </i>
     <i name="WEIMIN">      0.00100000</i>
     <i name="EBREAK">      0.00000003</i>
     <i name="DEPER">      0.30000000</i>
     <i type="int" name="NRMM">     4</i>
     <i name="TIME">      0.40000000</i>
    </separator>
   </separator>
   <separator name="electronic mixer" >
    <i name="AMIX">      0.40000000</i>
    <i name="BMIX">      1.00000000</i>
    <i name="AMIN">      0.10000000</i>
    <i name="AMIX_MAG">      1.60000000</i>
    <i name="BMIX_MAG">      1.00000000</i>
    <separator name="electronic mixer details" >
     <i type="int" name="IMIX">     4</i>
     <i type="logical" name="MIXFIRST"> F  </i>
     <i type="int" name="MAXMIX">   -45</i>
     <i name="WC">    100.00000000</i>
     <i type="int" name="INIMIX">     1</i>
     <i type="int" name="MIXPRE">     1</i>
     <i type="int" name="MREMOVE">     5</i>
    </separator>
   </separator>
   <separator name="electronic dipolcorrection" >
    <i type="logical" name="LDIPOL"> F  </i>
    <i type="logical" name="LMONO"> F  </i>
    <i type="int" name="IDIPOL">     0</i>
    <i name="EPSILON">      1.00000000</i>
    <v name="DIPOL">   -100.00000000   -100.00000000   -100.00000000</v>
    <i name="EFIELD">      0.00000000</i>
   </separator>
  </separator>
  <separator name="grids" >
   <i type="int" name="NGX">    24</i>
   <i type="int" name="NGY">    24</i>
   <i type="int" name="NGZ">    24</i>
   <i type="int" name="NGXF">    48</i>
   <i type="int" name="NGYF">    48</i>
   <i type="int" name="NGZF">    48</i>
   <i type="logical" name="ADDGRID"> T  </i>
  </separator>
  <separator name="ionic" >
   <i type="int" name="NSW">   100</i>
   <i type="int" name="IBRION">     2</i>
   <i type="int" name="MDALGO">     0</i>
   <i type="int" name="ISIF">     2</i>
   <i name="PSTRESS">      0.00000000</i>
   <i name="EDIFFG">     -0.00200000</i>
   <i type="int" name="NFREE">     1</i>
   <i name="POTIM">      0.50000000</i>
   <i name="SMASS">     -3.00000000</i>
   <i name="SCALEE">      1.00000000</i>
  </separator>
  <separator name="ionic md" >
   <i name="TEBEG">      0.00010000</i>
   <i name="TEEND">      0.00010000</i>
   <i type="int" name="NBLOCK">     1</i>
   <i type="int" name="KBLOCK">   100</i>
   <i type="int" name="NPACO">   256</i>
   <i name="APACO">     16.00000000</i>
  </separator>
  <separator name="symmetry" >
   <i type="int" name="ISYM">     2</i>
   <i name="SYMPREC">      0.00001000</i>
  </separator>
  <separator name="dos" >
   <i type="int" name="LORBIT">     0</i>
   <v name="RWIGS">     -1.00000000</v>
   <i type="int" name="NEDOS">   301</i>
   <i name="EMIN">     10.00000000</i>
   <i name="EMAX">    -10.00000000</i>
   <i name="EFERMI">      0.00000000</i>
  </separator>
  <separator name="writing" >
   <i type="int" name="NWRITE">     2</i>
   <i type="logical" name="LWAVE"> F  </i>
   <i type="logical" name="LDOWNSAMPLE"> F  </i>
   <i type="logical" name="LCHARG"> F  </i>
   <i type="logical" name="LPARD"> F  </i>
   <i type="logical" name="LVTOT"> F  </i>
   <i type="logical" name="LVHAR"> F  </i>
   <i type="logical" name="LELF"> F  </i>
   <i type="logical" name="LOPTICS"> F  </i>
   <v name="STM">      0.00000000      0.00000000      0.00000000      0.00000000      0.00000000      0.00000000      0.00000000</v>
  </separator>
  <separator name="performance" >
   <i type="int" name="NPAR">     4</i>
   <i type="int" name="NSIM">     4</i>
   <i type="int" name="NBLK">    -1</i>
   <i type="logical" name="LPLANE"> T  </i>
   <i type="logical" name="LSCALAPACK"> T  </i>
   <i type="logical" name="LSCAAWARE"> F  </i>
   <i type="logical" name="LSCALU"> F  </i>
   <i type="logical" name="LASYNC"> F  </i>
   <i type="logical" name="LORBITALREAL"> F  </i>
  </separator>
  <separator name="miscellaneous" >
   <i type="int" name="IDIOT">     3</i>
   <i type="int" name="PHON_NSTRUCT">    -1</i>
   <i type="logical" name="LMUSIC"> F  </i>
   <v name="POMASS">     28.08500000</v>
   <v name="DARWINR">      0.00000000</v>
   <v name="DARWINV">      1.00000000</v>
   <i type="logical" name="LCORR"> T  </i>
  </separator>
  <i type="logical" name="GGA_COMPAT"> T  </i>
  <i type="logical" name="LBERRY"> F  </i>
  <i type="int" name="ICORELEVEL">     0</i>
  <i type="logical" name="LDAU"> F  </i>
  <i type="int" name="I_CONSTRAINED_M">     0</i>
  <separator name="electronic exchange-correlation" >
   <i type="string" name="GGA">--</i>
   <i type="int" name="VOSKOWN">     0</i>
   <i type="logical" name="LHFCALC"> F  </i>
   <i type="string" name="PRECFOCK"></i>
   <i type="logical" name="LSYMGRAD"> F  </i>
   <i type="logical" name="LHFONE"> F  </i>
   <i type="logical" name="LRHFCALC"> F  </i>
   <i type="logical" name="LTHOMAS"> F  </i>
   <i type="logical" name="LMODELHF"> F  </i>
   <i type="logical" name="LFOCKACE"> F  </i>
   <i name="ENCUT4O">     -1.00000000</i>
   <i type="int" name="EXXOEP">     0</i>
   <i type="int" name="FOURORBIT">     0</i>
   <i name="AEXX">      0.00000000</i>
   <i name="HFALPHA">      0.00000000</i>
   <i name="MCALPHA">      0.00000000</i>
   <i name="ALDAX">      1.00000000</i>
   <i name="AGGAX">      1.00000000</i>
   <i name="ALDAC">      1.00000000</i>
   <i name="AGGAC">      1.00000000</i>
   <i type="int" name="NKREDX">     1</i>
   <i type="int" name="NKREDY">     1</i>
   <i type="int" name="NKREDZ">     1</i>
   <i type="logical" name="SHIFTRED"> F  </i>
   <i type="logical" name="ODDONLY"> F  </i>
   <i type="logical" name="EVENONLY"> F  </i>
   <i type="int" name="LMAXFOCK">     0</i>
   <i type="int" name="NMAXFOCKAE">     0</i>
   <i type="logical" name="LFOCKAEDFT"> F  </i>
   <i name="HFSCREEN">      0.00000000</i>
   <i name="HFSCREENC">      0.00000000</i>
   <i type="int" name="NBANDSGWLOW">     0</i>
  </separator>
  <separator name="vdW DFT" >
   <i type="logical" name="LUSE_VDW"> F  </i>
   <i name="Zab_VDW">     -0.84910000</i>
   <i name="PARAM1">      0.12340000</i>
   <i name="PARAM2">      1.00000000</i>
   <i name="PARAM3">      0.00000000</i>
  </separator>
  <separator name="model GW" >
   <i type="int" name="MODEL_GW">     0</i>
   <i name="MODEL_EPS0">     12.44288004</i>
   <i name="MODEL_ALPHA">      1.00000000</i>
  </separator>
  <separator name="linear response parameters" >
   <i type="logical" name="LEPSILON"> F  </i>
   <i type="logical" name="LRPA"> F  </i>
   <i type="logical" name="LNABLA"> F  </i>
   <i type="logical" name="LVEL"> F  </i>
   <i type="int" name="KINTER">     0</i>
   <i name="CSHIFT">      0.10000000</i>
   <i name="OMEGAMAX">     -1.00000000</i>
   <i name="DEG_THRESHOLD">      0.00200000</i>
   <i name="RTIME">     -0.10000000</i>
   <i name="WPLASMAI">      0.00000000</i>
   <v name="DFIELD">      0.00000000      0.00000000      0.00000000</v>
   <v name="WPLASMA">      0.00000000      0.00000000      0.00000000      0.00000000      0.00000000      0.00000000      0.00000000      0.00000000      0.00000000</v>
  </separator>
  <separator name="orbital magnetization" >
   <i type="logical" name="NUCIND"> F  </i>
   <v name="MAGPOS">      0.00000000      0.00000000      0.00000000</v>
   <i type="logical" name="LNICSALL"> T  </i>
   <i type="logical" name="ORBITALMAG"> F  </i>
   <i type="logical" name="LMAGBLOCH"> F  </i>
   <i type="logical" name="LCHIMAG"> F  </i>
   <i type="logical" name="LGAUGE"> T  </i>
   <i type="int" name="MAGATOM">     0</i>
   <v name="MAGDIPOL">      0.00000000      0.00000000      0.00000000</v>
   <v name="AVECCONST">      0.00000000      0.00000000      0.00000000</v>
  </separator>
  <separator name="response functions" >
   <i type="logical" name="LFINITE_TEMPERATURE"> F  </i>
   <i type="logical" name="LADDER"> F  </i>
   <i type="logical" name="LRPAFORCE"> F  </i>
   <i type="logical" name="LFXC"> F  </i>
   <i type="logical" name="LHARTREE"> T  </i>
   <i type="int" name="IBSE">     0</i>
   <v type="int" name="KPOINT">    -1     0     0     0</v>
   <i type="logical" name="LTCTC"> F  </i>
   <i type="logical" name="LTCTE"> F  </i>
   <i type="logical" name="LTETE"> F  </i>
   <i type="logical" name="LTRIPLET"> F  </i>
   <i type="logical" name="LFXCEPS"> F  </i>
   <i type="logical" name="LFXHEG"> F  </i>
   <i type="int" name="NATURALO">     2</i>
   <i type="logical" name="LHOLEGF"> F  </i>
   <i type="logical" name="L2ORDER"> F  </i>
   <i type="logical" name="LDMP1"> F  </i>
   <i type="logical" name="LMP2LT"> F  </i>
   <i type="logical" name="LSMP2LT"> F  </i>
   <i type="logical" name="LGWLF"> F  </i>
   <i name="ENCUTGW">     -2.00000000</i>
   <i name="ENCUTGWSOFT">     -2.00000000</i>
   <i name="ENCUTLF">     -1.00000000</i>
   <i type="logical" name="LESF_SPLINES"> F  </i>
   <i type="int" name="LMAXMP2">    -1</i>
   <i name="SCISSOR">      0.00000000</i>
   <i type="int" name="NOMEGA">     0</i>
   <i type="int" name="NOMEGAR">     0</i>
   <i type="int" name="NBANDSGW">    -1</i>
   <i type="int" name="NBANDSO">    -1</i>
   <i type="int" name="NBANDSV">    -1</i>
   <i type="int" name="NELM">    90</i>
   <i type="int" name="NELMHF">     1</i>
   <i type="int" name="DIM">     3</i>
   <i type="int" name="IESPILON">     4</i>
   <i type="int" name="ANTIRES">     0</i>
   <i name="OMEGAMAX">    -30.00000000</i>
   <i name="OMEGAMIN">    -30.00000000</i>
   <i name="OMEGATL">   -200.00000000</i>
   <i type="int" name="OMEGAGRID">     0</i>
   <i name="CSHIFT">     -0.10000000</i>
   <i type="logical" name="LSELFENERGY"> F  </i>
   <i type="logical" name="LSPECTRAL"> F  </i>
   <i type="logical" name="LSPECTRALGW"> F  </i>
   <i type="logical" name="LSINGLES"> F  </i>
   <i type="logical" name="LFERMIGW"> F  </i>
   <i type="logical" name="ODDONLYGW"> F  </i>
   <i type="logical" name="EVENONLYGW"> F  </i>
   <i type="int" name="NKREDLFX">     1</i>
   <i type="int" name="NKREDLFY">     1</i>
   <i type="int" name="NKREDLFZ">     1</i>
   <i type="int" name="MAXMEM">  2800</i>
   <i type="int" name="TELESCOPE">     0</i>
   <i type="int" name="NTAUPAR">    -1</i>
   <i type="int" name="NOMEGAPAR">    -1</i>
   <i name="DAMP_NEWTON">      0.80000001</i>
   <i name="LAMBDA">      1.00000000</i>
  </separator>
  <separator name="External order field" >
   <i name="OFIELD_KAPPA">      0.00000000</i>
   <v name="OFIELD_K">      0.00000000      0.00000000      0.00000000</v>
   <i name="OFIELD_Q6_NEAR">      0.00000000</i>
   <i name="OFIELD_Q6_FAR">      0.00000000</i>
   <i name="OFIELD_A">      0.00000000</i>
  </separator>
 </parameters>
 <atominfo>
  <atoms>       2 </atoms>
  <types>       1 </types>
  <array name="atoms" >
   <dimension dim="1">ion</dimension>
   <field type="string">element</field>
   <field type="int">atomtype</field>
   <set>
    <rc><c>Si</c><c>   1</c></rc>
    <rc><c>Si</c><c>   1</c></rc>
   </set>
  </array>
  <array name="atomtypes" >
   <dimension dim="1">type</dimension>
   <field type="int">atomspertype</field>
   <field type="string">element</field>
   <field>mass</field>
   <field>valence</field>
   <field type="string">pseudopotential</field>
   <set>
    <rc><c>   2</c><c>Si</c><c>     28.08500000</c><c>      4.00000000</c><c>  PAW_PBE Si 05Jan2001                  </c></rc>
   </set>
  </array>
 </atominfo>
 <structure name="initialpos" >
  <crystal>
   <varray name="basis" >
    <v>       3.36487406       0.00000000       1.94271067 </v>
    <v>       1.12162469       3.17243494       1.94271067 </v>
    <v>       0.00000000       0.00000000       3.88542134 </v>
   </varray>
   <i name="volume">     41.47626679 </i>
   <varray name="rec_basis" >
    <v>       0.29718794      -0.10507176       0.00000000 </v>
    <v>       0.00000000       0.31521529       0.00000000 </v>
    <v>      -0.14859397      -0.10507176       0.25737234 </v>
   </varray>
  </crystal>
  <varray name="positions" >
   <v>       0.87500000       0.87500000       0.87500000 </v>
   <v>       0.12500000       0.12500000       0.12500000 </v>
  </varray>
 </structure>
 <calculation>
  <scstep>
   <time name="dav">    1.47    1.47</time>
   <time name="total">    1.68    1.68</time>
   <energy>
    <i name="alphaZ">      3.24649573 </i>
    <i name="ewald">   -225.86739231 </i>
    <i name="hartreedc">    -11.54182812 </i>
    <i name="XCdc">    -18.74035406 </i>
    <i name="pawpsdc">    176.24759923 </i>
    <i name="pawaedc">   -141.06103558 </i>
    <i name="eentropy">     -0.00120143 </i>
    <i name="bandstr">     13.20296275 </i>
    <i name="atom">    206.13125414 </i>
    <i name="e_fr_energy">      1.61650036 </i>
    <i name="e_wo_entrp">      1.61770179 </i>
    <i name="e_0_energy">      1.61710107 </i>
   </energy>
  </scstep>
  <scstep>
   <time name="dav">    2.11    2.13</time>
   <time name="total">    2.11    2.13</time>
   <energy>
    <i name="e_fr_energy">    -10.86087695 </i>
    <i name="e_wo_entrp">    -10.86087695 </i>
    <i name="e_0_energy">    -10.86087695 </i>
   </energy>
  </scstep>
  <scstep>
   <time name="dav">    1.83    1.85</time>
   <time name="total">    1.83    1.85</time>
   <energy>
    <i name="e_fr_energy">    -11.00517032 </i>
    <i name="e_wo_entrp">    -11.00517032 </i>
    <i name="e_0_energy">    -11.00517032 </i>
   </energy>
  </scstep>
  <scstep>
   <time name="dav">    2.18    2.20</time>
   <time name="total">    2.18    2.20</time>
   <energy>
    <i name="e_fr_energy">    -11.00572872 </i>
    <i name="e_wo_entrp">    -11.00572872 </i>
    <i name="e_0_energy">    -11.00572872 </i>
   </energy>
  </scstep>
  <scstep>
   <time name="dav">    1.85    1.87</time>
   <time name="total">    1.96    1.98</time>
   <energy>
    <i name="e_fr_energy">    -11.00572931 </i>
    <i name="e_wo_entrp">    -11.00572931 </i>
    <i name="e_0_energy">    -11.00572931 </i>
   </energy>
  </scstep>
  <scstep>
   <time name="dav">    1.69    1.69</time>
   <time name="total">    2.01    2.03</time>
   <energy>
    <i name="e_fr_energy">    -10.89569050 </i>
    <i name="e_wo_entrp">    -10.89569050 </i>
    <i name="e_0_energy">    -10.89569050 </i>
   </energy>
  </scstep>
  <scstep>
   <time name="dav">    1.80    1.81</time>
   <time name="total">    2.13    2.14</time>
   <energy>
    <i name="e_fr_energy">    -10.84428618 </i>
    <i name="e_wo_entrp">    -10.84428618 </i>
    <i name="e_0_energy">    -10.84428618 </i>
   </energy>
  </scstep>
  <scstep>
   <time name="dav">    1.62    1.62</time>
   <time name="total">    1.94    1.96</time>
   <energy>
    <i name="e_fr_energy">    -10.84538235 </i>
    <i name="e_wo_entrp">    -10.84538235 </i>
    <i name="e_0_energy">    -10.84538235 </i>
   </energy>
  </scstep>
  <scstep>
   <time name="dav">    2.04    2.04</time>
   <time name="total">    2.36    2.38</time>
   <energy>
    <i name="e_fr_energy">    -10.84558791 </i>
    <i name="e_wo_entrp">    -10.84558791 </i>
    <i name="e_0_energy">    -10.84558791 </i>
   </energy>
  </scstep>
  <scstep>
   <time name="dav">    1.62    1.63</time>
   <time name="total">    1.95    1.97</time>
   <energy>
    <i name="e_fr_energy">    -10.84561201 </i>
    <i name="e_wo_entrp">    -10.84561201 </i>
    <i name="e_0_energy">    -10.84561201 </i>
   </energy>
  </scstep>
  <scstep>
   <time name="dav">    2.00    2.00</time>
   <time name="total">    2.21    2.23</time>
   <energy>
    <i name="alphaZ">      3.24649573 </i>
    <i name="ewald">   -225.86739231 </i>
    <i name="hartreedc">    -15.34006867 </i>
    <i name="XCdc">    -18.12338423 </i>
    <i name="pawpsdc">    812.80708818 </i>
    <i name="pawaedc">   -777.81458688 </i>
    <i name="eentropy">     -0.00000000 </i>
    <i name="bandstr">      4.11498228 </i>
    <i name="atom">    206.13125414 </i>
    <i name="e_fr_energy">    -10.84561175 </i>
    <i name="e_wo_entrp">    -10.84561175 </i>
    <i name="e_0_energy">    -10.84561175 </i>
   </energy>
  </scstep>
  <structure>
   <crystal>
    <varray name="basis" >
     <v>       3.36487406       0.00000000       1.94271067 </v>
     <v>       1.12162469       3.17243494       1.94271067 </v>
     <v>       0.00000000       0.00000000       3.88542134 </v>
    </varray>
    <i name="volume">     41.47626679 </i>
    <varray name="rec_basis" >
     <v>       0.29718794      -0.10507176       0.00000000 </v>
     <v>       0.00000000       0.31521529       0.00000000 </v>
     <v>      -0.14859397      -0.10507176       0.25737234 </v>
    </varray>
   </crystal>
   <varray name="positions" >
    <v>       0.87500000       0.87500000       0.87500000 </v>
    <v>       0.12500000       0.12500000       0.12500000 </v>
   </varray>
  </structure>
  <varray name="forces" >
   <v>      -0.00000000      -0.00000000       0.00000000 </v>
   <v>       0.00000000       0.00000000      -0.00000000 </v>
  </varray>
  <varray name="stress" >
   <v>     -12.74032209      -0.00000000      -0.00000000 </v>
   <v>      -0.00000000     -12.74033219      -0.00000000 </v>
   <v>      -0.00000000      -0.00000000     -12.74031850 </v>
  </varray>
  <energy>
   <i name="e_fr_energy">    -10.84561175 </i>
   <i name="e_wo_entrp">    -10.84561175 </i>
   <i name="e_0_energy">    -10.84561175 </i>
  </energy>
  <time name="totalsc">   24.61   24.97</time>
  <eigenvalues>
   <array>
    <dimension dim="1">band</dimension>
    <dimension dim="2">kpoint</dimension>
    <dimension dim="3">spin</dimension>
    <field>eigene</field>
    <field>occ</field>
    <set>
     <set comment="spin 1">
      <set comment="kpoint 1">
       <r>   -6.2219    1.0000 </r>
       <r>    5.2168    1.0000 </r>
       <r>    5.4385    1.0000 </r>
       <r>    5.4385    1.0000 </r>
       <r>    8.0591    0.0000 </r>
       <r>    8.0818    0.0000 </r>
       <r>    8.0818    0.0000 </r>
       <r>    8.6355    0.0000 </r>
      </set>
      <set comment="kpoint 2">
       <r>   -6.1044    1.0000 </r>
       <r>    4.3309    1.0000 </r>
       <r>    5.0330    1.0000 </r>
       <r>    5.3862    1.0000 </r>
       <r>    8.0934    0.0000 </r>
       <r>    8.1967    0.0000 </r>
       <r>    8.3698    0.0000 </r>
       <r>    9.5195    0.0000 </r>
      </set>
      <set comment="kpoint 3">
       <r>   -5.8144    1.0000 </r>
       <r>    2.8546    1.0000 </r>
       <r>    4.6730    1.0000 </r>
       <r>    5.1246    1.0000 </r>
       <r>    7.8032    0.0000 </r>
       <r>    8.5770    0.0000 </r>
       <r>    8.8634    0.0000 </r>
       <r>   10.8695    0.0000 </r>
      </set>
      <set comment="kpoint 4">
       <r>   -5.3649    1.0000 </r>
       <r>    1.3749    1.0000 </r>
       <r>    4.3832    1.0000 </r>
       <r>    4.8166    1.0000 </r>
       <r>    7.4903    0.0000 </r>
       <r>    8.8675    0.0000 </r>
       <r>    9.1137    0.0000 </r>
       <r>   12.0526    0.0000 </r>
      </set>
      <set comment="kpoint 5">
       <r>   -4.7918    1.0000 </r>
       <r>    0.0473    1.0000 </r>
       <r>    4.1932    1.0000 </r>
       <r>    4.5505    1.0000 </r>
       <r>    7.2445    0.0000 </r>
       <r>    8.9178    0.0000 </r>
       <r>    9.0498    0.0000 </r>
       <r>   12.9971    0.0000 </r>
      </set>
      <set comment="kpoint 6">
       <r>   -4.2116    1.0000 </r>
       <r>   -0.9732    1.0000 </r>
       <r>    4.1123    1.0000 </r>
       <r>    4.3613    1.0000 </r>
       <r>    7.0983    0.0000 </r>
       <r>    8.8877    0.0000 </r>
       <r>    8.8910    0.0000 </r>
       <r>   13.2629    0.0000 </r>
      </set>
      <set comment="kpoint 7">
       <r>   -3.9912    1.0000 </r>
       <r>   -1.3047    1.0000 </r>
       <r>    4.1390    1.0000 </r>
       <r>    4.2645    1.0000 </r>
       <r>    7.0628    0.0000 </r>
       <r>    8.7943    0.0000 </r>
       <r>    8.9208    0.0000 </r>
       <r>   13.2376    0.0000 </r>
      </set>
      <set comment="kpoint 8">
       <r>   -4.3904    1.0000 </r>
       <r>   -0.6840    1.0000 </r>
       <r>    4.2670    1.0000 </r>
       <r>    4.2690    1.0000 </r>
       <r>    7.1394    0.0000 </r>
       <r>    8.7966    0.0000 </r>
       <r>    9.0461    0.0000 </r>
       <r>   13.1476    0.0000 </r>
      </set>
      <set comment="kpoint 9">
       <r>   -4.9922    1.0000 </r>
       <r>    0.4652    1.0000 </r>
       <r>    4.3798    1.0000 </r>
       <r>    4.4865    1.0000 </r>
       <r>    7.3230    0.0000 </r>
       <r>    8.8315    0.0000 </r>
       <r>    9.1916    0.0000 </r>
       <r>   12.3520    0.0000 </r>
      </set>
      <set comment="kpoint 10">
       <r>   -5.5309    1.0000 </r>
       <r>    1.8571    1.0000 </r>
       <r>    4.5947    1.0000 </r>
       <r>    4.7787    1.0000 </r>
       <r>    7.5952    0.0000 </r>
       <r>    8.7144    0.0000 </r>
       <r>    9.1729    0.0000 </r>
       <r>   11.5214    0.0000 </r>
      </set>
      <set comment="kpoint 11">
       <r>   -5.9296    1.0000 </r>
       <r>    3.3636    1.0000 </r>
       <r>    4.8951    1.0000 </r>
       <r>    5.0963    1.0000 </r>
       <r>    7.8964    0.0000 </r>
       <r>    8.3662    0.0000 </r>
       <r>    8.8406    0.0000 </r>
       <r>   10.3879    0.0000 </r>
      </set>
      <set comment="kpoint 12">
       <r>   -6.1630    1.0000 </r>
       <r>    4.7928    1.0000 </r>
       <r>    5.2224    1.0000 </r>
       <r>    5.3172    1.0000 </r>
       <r>    7.9458    0.0000 </r>
       <r>    8.2402    0.0000 </r>
       <r>    8.3681    0.0000 </r>
       <r>    9.0553    0.0000 </r>
      </set>
      <set comment="kpoint 13">
       <r>   -6.0455    1.0000 </r>
       <r>    4.2383    1.0000 </r>
       <r>    4.8886    1.0000 </r>
       <r>    4.9809    1.0000 </r>
       <r>    7.7141    0.0000 </r>
       <r>    8.6516    0.0000 </r>
       <r>    8.8420    0.0000 </r>
       <r>    9.5795    0.0000 </r>
      </set>
      <set comment="kpoint 14">
       <r>   -5.8125    1.0000 </r>
       <r>    3.2147    1.0000 </r>
       <r>    4.3169    1.0000 </r>
       <r>    4.8393    1.0000 </r>
       <r>    7.7255    0.0000 </r>
       <r>    8.7990    0.0000 </r>
       <r>    9.3320    0.0000 </r>
       <r>   10.2783    0.0000 </r>
      </set>
      <set comment="kpoint 15">
       <r>   -5.4145    1.0000 </r>
       <r>    1.8306    1.0000 </r>
       <r>    3.9399    1.0000 </r>
       <r>    4.5560    1.0000 </r>
       <r>    7.8972    0.0000 </r>
       <r>    8.7709    0.0000 </r>
       <r>    9.7110    0.0000 </r>
       <r>   10.5632    0.0000 </r>
      </set>
      <set comment="kpoint 16">
       <r>   -4.8765    1.0000 </r>
       <r>    0.4881    1.0000 </r>
       <r>    3.6810    1.0000 </r>
       <r>    4.2626    1.0000 </r>
       <r>    7.8177    0.0000 </r>
       <r>    8.8144    0.0000 </r>
       <r>    9.7241    0.0000 </r>
       <r>   11.1513    0.0000 </r>
      </set>
      <set comment="kpoint 17">
       <r>   -4.2743    1.0000 </r>
       <r>   -0.6395    1.0000 </r>
       <r>    3.5011    1.0000 </r>
       <r>    4.0774    1.0000 </r>
       <r>    7.6949    0.0000 </r>
       <r>    8.7540    0.0000 </r>
       <r>    9.5634    0.0000 </r>
       <r>   12.2506    0.0000 </r>
      </set>
      <set comment="kpoint 18">
       <r>   -3.8733    1.0000 </r>
       <r>   -1.2539    1.0000 </r>
       <r>    3.3796    1.0000 </r>
       <r>    4.0539    1.0000 </r>
       <r>    7.6505    0.0000 </r>
       <r>    8.7193    0.0000 </r>
       <r>    9.4297    0.0000 </r>
       <r>   13.3761    0.0000 </r>
      </set>
      <set comment="kpoint 19">
       <r>   -4.0962    1.0000 </r>
       <r>   -0.9227    1.0000 </r>
       <r>    3.3343    1.0000 </r>
       <r>    4.1841    1.0000 </r>
       <r>    7.7065    0.0000 </r>
       <r>    8.7656    0.0000 </r>
       <r>    9.4066    0.0000 </r>
       <r>   13.0671    0.0000 </r>
      </set>
      <set comment="kpoint 20">
       <r>   -4.6777    1.0000 </r>
       <r>    0.0831    1.0000 </r>
       <r>    3.3972    1.0000 </r>
       <r>    4.4313    1.0000 </r>
       <r>    7.8568    0.0000 </r>
       <r>    8.8401    0.0000 </r>
       <r>    9.4787    0.0000 </r>
       <r>   11.9228    0.0000 </r>
      </set>
      <set comment="kpoint 21">
       <r>   -5.2500    1.0000 </r>
       <r>    1.3683    1.0000 </r>
       <r>    3.5952    1.0000 </r>
       <r>    4.7484    1.0000 </r>
       <r>    8.0732    0.0000 </r>
       <r>    8.7633    0.0000 </r>
       <r>    9.4912    0.0000 </r>
       <r>   11.0892    0.0000 </r>
      </set>
      <set comment="kpoint 22">
       <r>   -5.6983    1.0000 </r>
       <r>    2.7253    1.0000 </r>
       <r>    3.9751    1.0000 </r>
       <r>    5.0562    1.0000 </r>
       <r>    8.1909    0.0000 </r>
       <r>    8.5178    0.0000 </r>
       <r>    9.1602    0.0000 </r>
       <r>   10.6971    0.0000 </r>
      </set>
      <set comment="kpoint 23">
       <r>   -5.9874    1.0000 </r>
       <r>    3.7885    1.0000 </r>
       <r>    4.6957    1.0000 </r>
       <r>    5.2072    1.0000 </r>
       <r>    7.9856    0.0000 </r>
       <r>    8.3753    0.0000 </r>
       <r>    8.7621    0.0000 </r>
       <r>   10.0485    0.0000 </r>
      </set>
      <set comment="kpoint 24">
       <r>   -5.6365    1.0000 </r>
       <r>    2.9435    1.0000 </r>
       <r>    4.1545    1.0000 </r>
       <r>    4.1644    1.0000 </r>
       <r>    7.1343    0.0000 </r>
       <r>    9.4186    0.0000 </r>
       <r>   10.0404    0.0000 </r>
       <r>   10.0560    0.0000 </r>
      </set>
      <set comment="kpoint 25">
       <r>   -5.2925    1.0000 </r>
       <r>    2.0040    1.0000 </r>
       <r>    3.5860    1.0000 </r>
       <r>    3.9866    1.0000 </r>
       <r>    7.1676    0.0000 </r>
       <r>    9.1080    0.0000 </r>
       <r>   10.2307    0.0000 </r>
       <r>   10.6496    0.0000 </r>
      </set>
      <set comment="kpoint 26">
       <r>   -4.7976    1.0000 </r>
       <r>    0.8352    1.0000 </r>
       <r>    3.1366    1.0000 </r>
       <r>    3.7314    1.0000 </r>
       <r>    7.4219    0.0000 </r>
       <r>    9.3296    0.0000 </r>
       <r>   10.0301    0.0000 </r>
       <r>   10.8573    0.0000 </r>
      </set>
      <set comment="kpoint 27">
       <r>   -4.2013    1.0000 </r>
       <r>   -0.2810    1.0000 </r>
       <r>    2.7488    1.0000 </r>
       <r>    3.5985    1.0000 </r>
       <r>    7.4909    0.0000 </r>
       <r>    9.7569    0.0000 </r>
       <r>   10.3137    0.0000 </r>
       <r>   10.7407    0.0000 </r>
      </set>
      <set comment="kpoint 28">
       <r>   -3.6795    1.0000 </r>
       <r>   -1.0748    1.0000 </r>
       <r>    2.4465    1.0000 </r>
       <r>    3.6332    1.0000 </r>
       <r>    7.5603    0.0000 </r>
       <r>    9.5493    0.0000 </r>
       <r>   10.5491    0.0000 </r>
       <r>   11.7110    0.0000 </r>
      </set>
      <set comment="kpoint 29">
       <r>   -3.6900    1.0000 </r>
       <r>   -1.0564    1.0000 </r>
       <r>    2.2724    1.0000 </r>
       <r>    3.8165    1.0000 </r>
       <r>    7.7427    0.0000 </r>
       <r>    9.4188    0.0000 </r>
       <r>   10.4170    0.0000 </r>
       <r>   13.0318    0.0000 </r>
      </set>
      <set comment="kpoint 30">
       <r>   -4.2183    1.0000 </r>
       <r>   -0.2502    1.0000 </r>
       <r>    2.2692    1.0000 </r>
       <r>    4.1169    1.0000 </r>
       <r>    8.0347    0.0000 </r>
       <r>    9.3446    0.0000 </r>
       <r>   10.3300    0.0000 </r>
       <r>   11.6979    0.0000 </r>
      </set>
      <set comment="kpoint 31">
       <r>   -4.8118    1.0000 </r>
       <r>    0.8106    1.0000 </r>
       <r>    2.5194    1.0000 </r>
       <r>    4.4829    1.0000 </r>
       <r>    8.3655    0.0000 </r>
       <r>    9.1213    0.0000 </r>
       <r>   10.1528    0.0000 </r>
       <r>   10.7893    0.0000 </r>
      </set>
      <set comment="kpoint 32">
       <r>   -5.3025    1.0000 </r>
       <r>    1.7206    1.0000 </r>
       <r>    3.2221    1.0000 </r>
       <r>    4.8132    1.0000 </r>
       <r>    8.4419    0.0000 </r>
       <r>    8.6852    0.0000 </r>
       <r>    9.6141    0.0000 </r>
       <r>   10.7169    0.0000 </r>
      </set>
      <set comment="kpoint 33">
       <r>   -5.6423    1.0000 </r>
       <r>    2.3383    1.0000 </r>
       <r>    4.3205    1.0000 </r>
       <r>    4.9348    1.0000 </r>
       <r>    7.9127    0.0000 </r>
       <r>    8.5578    0.0000 </r>
       <r>    9.2206    0.0000 </r>
       <r>   11.0043    0.0000 </r>
      </set>
      <set comment="kpoint 34">
       <r>   -5.0021    1.0000 </r>
       <r>    1.5410    1.0000 </r>
       <r>    3.4654    1.0000 </r>
       <r>    3.5171    1.0000 </r>
       <r>    6.6128    0.0000 </r>
       <r>    8.3710    0.0000 </r>
       <r>   11.3487    0.0000 </r>
       <r>   11.4257    0.0000 </r>
      </set>
      <set comment="kpoint 35">
       <r>   -4.5548    1.0000 </r>
       <r>    0.7159    1.0000 </r>
       <r>    2.9883    1.0000 </r>
       <r>    3.2948    1.0000 </r>
       <r>    6.7261    0.0000 </r>
       <r>    8.0665    0.0000 </r>
       <r>   11.4883    0.0000 </r>
       <r>   12.0899    0.0000 </r>
      </set>
      <set comment="kpoint 36">
       <r>   -3.9827    1.0000 </r>
       <r>   -0.1943    1.0000 </r>
       <r>    2.3747    1.0000 </r>
       <r>    3.1695    1.0000 </r>
       <r>    6.9650    0.0000 </r>
       <r>    8.5800    0.0000 </r>
       <r>   11.2725    0.0000 </r>
       <r>   12.1772    0.0000 </r>
      </set>
      <set comment="kpoint 37">
       <r>   -3.3963    1.0000 </r>
       <r>   -0.9871    1.0000 </r>
       <r>    1.8429    1.0000 </r>
       <r>    3.2076    1.0000 </r>
       <r>    7.0779    0.0000 </r>
       <r>    9.8077    0.0000 </r>
       <r>   11.0159    0.0000 </r>
       <r>   12.0117    0.0000 </r>
      </set>
      <set comment="kpoint 38">
       <r>   -3.2023    1.0000 </r>
       <r>   -1.2167    1.0000 </r>
       <r>    1.5159    1.0000 </r>
       <r>    3.3954    1.0000 </r>
       <r>    7.2865    0.0000 </r>
       <r>   10.7095    0.0000 </r>
       <r>   11.4256    0.0000 </r>
       <r>   11.8349    0.0000 </r>
      </set>
      <set comment="kpoint 39">
       <r>   -3.6504    1.0000 </r>
       <r>   -0.6663    1.0000 </r>
       <r>    1.4854    1.0000 </r>
       <r>    3.7088    1.0000 </r>
       <r>    7.6290    0.0000 </r>
       <r>   10.4706    0.0000 </r>
       <r>   11.4888    0.0000 </r>
       <r>   11.7397    0.0000 </r>
      </set>
      <set comment="kpoint 40">
       <r>   -4.2479    1.0000 </r>
       <r>    0.0116    1.0000 </r>
       <r>    1.9228    1.0000 </r>
       <r>    4.1000    1.0000 </r>
       <r>    8.0419    0.0000 </r>
       <r>    9.7355    0.0000 </r>
       <r>   10.7830    0.0000 </r>
       <r>   11.1415    0.0000 </r>
      </set>
      <set comment="kpoint 41">
       <r>   -4.7665    1.0000 </r>
       <r>    0.4964    1.0000 </r>
       <r>    2.8887    1.0000 </r>
       <r>    4.4672    1.0000 </r>
       <r>    8.2029    0.0000 </r>
       <r>    8.9534    0.0000 </r>
       <r>    9.8176    0.0000 </r>
       <r>   11.2724    0.0000 </r>
      </set>
      <set comment="kpoint 42">
       <r>   -5.1460    1.0000 </r>
       <r>    0.9161    1.0000 </r>
       <r>    4.0565    1.0000 </r>
       <r>    4.6234    1.0000 </r>
       <r>    7.6532    0.0000 </r>
       <r>    8.7834    0.0000 </r>
       <r>    9.3483    0.0000 </r>
       <r>   11.6657    0.0000 </r>
      </set>
      <set comment="kpoint 43">
       <r>   -4.1546    1.0000 </r>
       <r>    0.1210    1.0000 </r>
       <r>    2.9667    1.0000 </r>
       <r>    3.0532    1.0000 </r>
       <r>    6.2790    0.0000 </r>
       <r>    7.3525    0.0000 </r>
       <r>   12.8332    0.0000 </r>
       <r>   12.8702    0.0000 </r>
      </set>
      <set comment="kpoint 44">
       <r>   -3.6169    1.0000 </r>
       <r>   -0.6084    1.0000 </r>
       <r>    2.5813    1.0000 </r>
       <r>    2.8602    1.0000 </r>
       <r>    6.4868    0.0000 </r>
       <r>    7.2539    0.0000 </r>
       <r>   12.8792    0.0000 </r>
       <r>   13.5998    0.0000 </r>
      </set>
      <set comment="kpoint 45">
       <r>   -3.0078    1.0000 </r>
       <r>   -1.2942    1.0000 </r>
       <r>    1.8974    1.0000 </r>
       <r>    2.8756    1.0000 </r>
       <r>    6.6803    0.0000 </r>
       <r>    8.1399    0.0000 </r>
       <r>   12.6319    0.0000 </r>
       <r>   13.6109    0.0000 </r>
      </set>
      <set comment="kpoint 46">
       <r>   -2.6791    1.0000 </r>
       <r>   -1.6084    1.0000 </r>
       <r>    1.3732    1.0000 </r>
       <r>    3.0447    1.0000 </r>
       <r>    6.8806    0.0000 </r>
       <r>    9.5972    0.0000 </r>
       <r>   12.3103    0.0000 </r>
       <r>   13.1162    0.0000 </r>
      </set>
      <set comment="kpoint 47">
       <r>   -3.0913    1.0000 </r>
       <r>   -1.2123    1.0000 </r>
       <r>    1.2754    1.0000 </r>
       <r>    3.3478    1.0000 </r>
       <r>    7.2250    0.0000 </r>
       <r>   11.1213    0.0000 </r>
       <r>   11.5401    0.0000 </r>
       <r>   12.2692    0.0000 </r>
      </set>
      <set comment="kpoint 48">
       <r>   -3.6600    1.0000 </r>
       <r>   -0.8397    1.0000 </r>
       <r>    1.7899    1.0000 </r>
       <r>    3.7452    1.0000 </r>
       <r>    7.6726    0.0000 </r>
       <r>    9.9670    0.0000 </r>
       <r>   11.0037    0.0000 </r>
       <r>   12.3085    0.0000 </r>
      </set>
      <set comment="kpoint 49">
       <r>   -4.1642    1.0000 </r>
       <r>   -0.5979    1.0000 </r>
       <r>    2.7809    1.0000 </r>
       <r>    4.1472    1.0000 </r>
       <r>    7.9588    0.0000 </r>
       <r>    8.9553    0.0000 </r>
       <r>    9.8329    0.0000 </r>
       <r>   12.3938    0.0000 </r>
      </set>
      <set comment="kpoint 50">
       <r>   -4.5498    1.0000 </r>
       <r>   -0.3239    1.0000 </r>
       <r>    3.8998    1.0000 </r>
       <r>    4.3680    1.0000 </r>
       <r>    7.4474    0.0000 </r>
       <r>    8.7921    0.0000 </r>
       <r>    9.2257    0.0000 </r>
       <r>   12.6239    0.0000 </r>
      </set>
      <set comment="kpoint 51">
       <r>   -3.1134    1.0000 </r>
       <r>   -1.2540    1.0000 </r>
       <r>    2.6862    1.0000 </r>
       <r>    2.7895    1.0000 </r>
       <r>    6.1939    0.0000 </r>
       <r>    6.6535    0.0000 </r>
       <r>   14.3497    0.0000 </r>
       <r>   14.3593    0.0000 </r>
      </set>
      <set comment="kpoint 52">
       <r>   -2.5071    1.0000 </r>
       <r>   -1.8946    1.0000 </r>
       <r>    2.4012    1.0000 </r>
       <r>    2.6778    1.0000 </r>
       <r>    6.4516    0.0000 </r>
       <r>    6.8282    0.0000 </r>
       <r>   14.3134    0.0000 </r>
       <r>   14.8267    0.0000 </r>
      </set>
      <set comment="kpoint 53">
       <r>   -2.5037    1.0000 </r>
       <r>   -1.8262    1.0000 </r>
       <r>    1.8004    1.0000 </r>
       <r>    2.8177    1.0000 </r>
       <r>    6.6209    0.0000 </r>
       <r>    8.0526    0.0000 </r>
       <r>   13.3168    0.0000 </r>
       <r>   14.0119    0.0000 </r>
      </set>
      <set comment="kpoint 54">
       <r>   -2.9919    1.0000 </r>
       <r>   -1.3314    1.0000 </r>
       <r>    1.5352    1.0000 </r>
       <r>    3.0989    1.0000 </r>
       <r>    6.9474    0.0000 </r>
       <r>    9.6671    0.0000 </r>
       <r>   11.6723    0.0000 </r>
       <r>   12.7004    0.0000 </r>
      </set>
      <set comment="kpoint 55">
       <r>   -3.4090    1.0000 </r>
       <r>   -1.1812    1.0000 </r>
       <r>    1.9316    1.0000 </r>
       <r>    3.4905    1.0000 </r>
       <r>    7.4040    0.0000 </r>
       <r>   10.1248    0.0000 </r>
       <r>   11.1545    0.0000 </r>
       <r>   11.5497    0.0000 </r>
      </set>
      <set comment="kpoint 56">
       <r>   -3.7575    1.0000 </r>
       <r>   -1.2118    1.0000 </r>
       <r>    2.8279    1.0000 </r>
       <r>    3.9199    1.0000 </r>
       <r>    7.7817    0.0000 </r>
       <r>    8.9542    0.0000 </r>
       <r>    9.8773    0.0000 </r>
       <r>   13.3654    0.0000 </r>
      </set>
      <set comment="kpoint 57">
       <r>   -4.0316    1.0000 </r>
       <r>   -1.1702    1.0000 </r>
       <r>    3.8351    1.0000 </r>
       <r>    4.2207    1.0000 </r>
       <r>    7.3388    0.0000 </r>
       <r>    8.7521    0.0000 </r>
       <r>    9.0976    0.0000 </r>
       <r>   13.3204    0.0000 </r>
      </set>
      <set comment="kpoint 58">
       <r>   -2.5288    1.0000 </r>
       <r>   -1.9068    1.0000 </r>
       <r>    2.6299    1.0000 </r>
       <r>    2.7363    1.0000 </r>
       <r>    6.2463    0.0000 </r>
       <r>    6.4423    0.0000 </r>
       <r>   15.0045    0.0000 </r>
       <r>   15.0469    0.0000 </r>
      </set>
      <set comment="kpoint 59">
       <r>   -3.0809    1.0000 </r>
       <r>   -1.2612    1.0000 </r>
       <r>    2.4616    1.0000 </r>
       <r>    2.7383    1.0000 </r>
       <r>    6.4498    0.0000 </r>
       <r>    6.9841    0.0000 </r>
       <r>   13.5995    0.0000 </r>
       <r>   14.3471    0.0000 </r>
      </set>
      <set comment="kpoint 60">
       <r>   -3.5113    1.0000 </r>
       <r>   -0.7385    1.0000 </r>
       <r>    2.0905    1.0000 </r>
       <r>    2.9921    1.0000 </r>
       <r>    6.7966    0.0000 </r>
       <r>    8.3152    0.0000 </r>
       <r>   11.9428    0.0000 </r>
       <r>   12.8914    0.0000 </r>
      </set>
      <set comment="kpoint 61">
       <r>   -3.8090    1.0000 </r>
       <r>   -0.6366    1.0000 </r>
       <r>    2.2633    1.0000 </r>
       <r>    3.3725    1.0000 </r>
       <r>    7.2648    0.0000 </r>
       <r>   10.0166    0.0000 </r>
       <r>   10.3833    0.0000 </r>
       <r>   11.3452    0.0000 </r>
      </set>
      <set comment="kpoint 62">
       <r>   -3.9776    1.0000 </r>
       <r>   -0.8923    1.0000 </r>
       <r>    2.9935    1.0000 </r>
       <r>    3.8261    1.0000 </r>
       <r>    7.7055    0.0000 </r>
       <r>    9.0438    0.0000 </r>
       <r>   10.0089    0.0000 </r>
       <r>   11.9471    0.0000 </r>
      </set>
      <set comment="kpoint 63">
       <r>   -3.6567    1.0000 </r>
       <r>   -0.5758    1.0000 </r>
       <r>    2.7987    1.0000 </r>
       <r>    2.8954    1.0000 </r>
       <r>    6.2032    0.0000 </r>
       <r>    6.9598    0.0000 </r>
       <r>   13.5968    0.0000 </r>
       <r>   13.6110    0.0000 </r>
      </set>
      <set comment="kpoint 64">
       <r>   -4.1095    1.0000 </r>
       <r>    0.0539    1.0000 </r>
       <r>    2.7582    1.0000 </r>
       <r>    3.0450    1.0000 </r>
       <r>    6.5785    0.0000 </r>
       <r>    7.6179    0.0000 </r>
       <r>   12.1745    0.0000 </r>
       <r>   12.8394    0.0000 </r>
      </set>
      <set comment="kpoint 65">
       <r>   -4.4132    1.0000 </r>
       <r>    0.3296    1.0000 </r>
       <r>    2.7340    1.0000 </r>
       <r>    3.4131    1.0000 </r>
       <r>    7.1772    0.0000 </r>
       <r>    8.9311    0.0000 </r>
       <r>   10.6229    0.0000 </r>
       <r>   11.4953    0.0000 </r>
      </set>
      <set comment="kpoint 66">
       <r>   -4.5599    1.0000 </r>
       <r>    0.0907    1.0000 </r>
       <r>    3.2405    1.0000 </r>
       <r>    3.8958    1.0000 </r>
       <r>    7.7155    0.0000 </r>
       <r>    9.1989    0.0000 </r>
       <r>   10.1784    0.0000 </r>
       <r>   10.7059    0.0000 </r>
      </set>
      <set comment="kpoint 67">
       <r>   -4.6040    1.0000 </r>
       <r>    0.8291    1.0000 </r>
       <r>    3.1894    1.0000 </r>
       <r>    3.2612    1.0000 </r>
       <r>    6.4177    0.0000 </r>
       <r>    7.8270    0.0000 </r>
       <r>   12.0817    0.0000 </r>
       <r>   12.1406    0.0000 </r>
      </set>
      <set comment="kpoint 68">
       <r>   -4.9500    1.0000 </r>
       <r>    1.3683    1.0000 </r>
       <r>    3.2663    1.0000 </r>
       <r>    3.6102    1.0000 </r>
       <r>    6.9252    0.0000 </r>
       <r>    8.5835    0.0000 </r>
       <r>   10.8267    0.0000 </r>
       <r>   11.3585    0.0000 </r>
      </set>
      <set comment="kpoint 69">
       <r>   -5.1323    1.0000 </r>
       <r>    1.3320    1.0000 </r>
       <r>    3.5448    1.0000 </r>
       <r>    4.1248    1.0000 </r>
       <r>    7.6791    0.0000 </r>
       <r>    9.2474    0.0000 </r>
       <r>   10.0162    0.0000 </r>
       <r>   10.2772    0.0000 </r>
      </set>
      <set comment="kpoint 70">
       <r>   -5.3468    1.0000 </r>
       <r>    2.2489    1.0000 </r>
       <r>    3.7920    1.0000 </r>
       <r>    3.8170    1.0000 </r>
       <r>    6.8559    0.0000 </r>
       <r>    8.9495    0.0000 </r>
       <r>   10.6453    0.0000 </r>
       <r>   10.7289    0.0000 </r>
      </set>
      <set comment="kpoint 71">
       <r>   -5.5805    1.0000 </r>
       <r>    2.6196    1.0000 </r>
       <r>    3.9400    1.0000 </r>
       <r>    4.4081    1.0000 </r>
       <r>    7.4409    0.0000 </r>
       <r>    9.2437    0.0000 </r>
       <r>    9.9689    0.0000 </r>
       <r>   10.0476    0.0000 </r>
      </set>
      <set comment="kpoint 72">
       <r>   -5.8697    1.0000 </r>
       <r>    3.6125    1.0000 </r>
       <r>    4.5186    1.0000 </r>
       <r>    4.5708    1.0000 </r>
       <r>    7.4297    0.0000 </r>
       <r>    9.1806    0.0000 </r>
       <r>    9.4194    0.0000 </r>
       <r>    9.8947    0.0000 </r>
      </set>
      <set comment="kpoint 73">
       <r>   -6.0460    1.0000 </r>
       <r>    3.8878    1.0000 </r>
       <r>    5.1972    1.0000 </r>
       <r>    5.1972    1.0000 </r>
       <r>    7.8742    0.0000 </r>
       <r>    8.4370    0.0000 </r>
       <r>    8.4370    0.0000 </r>
       <r>    9.8881    0.0000 </r>
      </set>
      <set comment="kpoint 74">
       <r>   -5.8714    1.0000 </r>
       <r>    3.2644    1.0000 </r>
       <r>    4.3555    1.0000 </r>
       <r>    5.2654    1.0000 </r>
       <r>    8.2146    0.0000 </r>
       <r>    8.4271    0.0000 </r>
       <r>    8.6837    0.0000 </r>
       <r>   10.5489    0.0000 </r>
      </set>
      <set comment="kpoint 75">
       <r>   -5.5280    1.0000 </r>
       <r>    2.2213    1.0000 </r>
       <r>    3.5950    1.0000 </r>
       <r>    5.0562    1.0000 </r>
       <r>    8.3393    0.0000 </r>
       <r>    8.7736    0.0000 </r>
       <r>    9.0452    0.0000 </r>
       <r>   11.0132    0.0000 </r>
      </set>
      <set comment="kpoint 76">
       <r>   -5.0332    1.0000 </r>
       <r>    0.9204    1.0000 </r>
       <r>    3.2371    1.0000 </r>
       <r>    4.7216    1.0000 </r>
       <r>    8.0861    0.0000 </r>
       <r>    9.1264    0.0000 </r>
       <r>    9.2980    0.0000 </r>
       <r>   11.6267    0.0000 </r>
      </set>
      <set comment="kpoint 77">
       <r>   -4.4377    1.0000 </r>
       <r>   -0.2820    1.0000 </r>
       <r>    3.0924    1.0000 </r>
       <r>    4.3900    1.0000 </r>
       <r>    7.8471    0.0000 </r>
       <r>    9.1640    0.0000 </r>
       <r>    9.2873    0.0000 </r>
       <r>   12.6957    0.0000 </r>
      </set>
      <set comment="kpoint 78">
       <r>   -3.9164    1.0000 </r>
       <r>   -1.1203    1.0000 </r>
       <r>    3.1043    1.0000 </r>
       <r>    4.1260    1.0000 </r>
       <r>    7.6815    0.0000 </r>
       <r>    9.0045    0.0000 </r>
       <r>    9.3955    0.0000 </r>
       <r>   13.5961    0.0000 </r>
      </set>
      <set comment="kpoint 79">
       <r>   -3.9134    1.0000 </r>
       <r>   -1.1258    1.0000 </r>
       <r>    3.2512    1.0000 </r>
       <r>    3.9625    1.0000 </r>
       <r>    7.6151    0.0000 </r>
       <r>    8.9488    0.0000 </r>
       <r>    9.5659    0.0000 </r>
       <r>   12.7371    0.0000 </r>
      </set>
      <set comment="kpoint 80">
       <r>   -4.4328    1.0000 </r>
       <r>   -0.2929    1.0000 </r>
       <r>    3.5147    1.0000 </r>
       <r>    3.9174    1.0000 </r>
       <r>    7.6494    0.0000 </r>
       <r>    8.9972    0.0000 </r>
       <r>    9.7957    0.0000 </r>
       <r>   11.4407    0.0000 </r>
      </set>
      <set comment="kpoint 81">
       <r>   -5.0290    1.0000 </r>
       <r>    0.9164    1.0000 </r>
       <r>    3.8689    1.0000 </r>
       <r>    3.9991    1.0000 </r>
       <r>    7.7176    0.0000 </r>
       <r>    9.0540    0.0000 </r>
       <r>    9.9730    0.0000 </r>
       <r>   10.4967    0.0000 </r>
      </set>
      <set comment="kpoint 82">
       <r>   -5.5250    1.0000 </r>
       <r>    2.2789    1.0000 </r>
       <r>    4.2053    1.0000 </r>
       <r>    4.2609    1.0000 </r>
       <r>    7.6181    0.0000 </r>
       <r>    9.0412    0.0000 </r>
       <r>    9.8765    0.0000 </r>
       <r>   10.2064    0.0000 </r>
      </set>
      <set comment="kpoint 83">
       <r>   -5.7556    1.0000 </r>
       <r>    2.8234    1.0000 </r>
       <r>    4.5505    1.0000 </r>
       <r>    4.7371    1.0000 </r>
       <r>    7.8556    0.0000 </r>
       <r>    8.5568    0.0000 </r>
       <r>    9.3345    0.0000 </r>
       <r>   10.5627    0.0000 </r>
      </set>
      <set comment="kpoint 84">
       <r>   -5.4688    1.0000 </r>
       <r>    2.1829    1.0000 </r>
       <r>    3.5994    1.0000 </r>
       <r>    4.6706    1.0000 </r>
       <r>    7.9526    0.0000 </r>
       <r>    8.8830    0.0000 </r>
       <r>    9.8125    0.0000 </r>
       <r>   10.2918    0.0000 </r>
      </set>
      <set comment="kpoint 85">
       <r>   -5.0235    1.0000 </r>
       <r>    1.2267    1.0000 </r>
       <r>    2.8794    1.0000 </r>
       <r>    4.4062    1.0000 </r>
       <r>    8.3446    0.0000 </r>
       <r>    8.8620    0.0000 </r>
       <r>   10.1380    0.0000 </r>
       <r>   10.3757    0.0000 </r>
      </set>
      <set comment="kpoint 86">
       <r>   -4.4533    1.0000 </r>
       <r>    0.0978    1.0000 </r>
       <r>    2.5617    1.0000 </r>
       <r>    4.0652    1.0000 </r>
       <r>    8.3959    0.0000 </r>
       <r>    8.7771    0.0000 </r>
       <r>   10.4672    0.0000 </r>
       <r>   10.8845    0.0000 </r>
      </set>
      <set comment="kpoint 87">
       <r>   -3.8690    1.0000 </r>
       <r>   -0.8578    1.0000 </r>
       <r>    2.4649    1.0000 </r>
       <r>    3.7893    1.0000 </r>
       <r>    8.2160    0.0000 </r>
       <r>    8.7287    0.0000 </r>
       <r>   10.5274    0.0000 </r>
       <r>   12.0823    0.0000 </r>
      </set>
      <set comment="kpoint 88">
       <r>   -3.6401    1.0000 </r>
       <r>   -1.1858    1.0000 </r>
       <r>    2.5034    1.0000 </r>
       <r>    3.6547    1.0000 </r>
       <r>    8.0437    0.0000 </r>
       <r>    8.8160    0.0000 </r>
       <r>   10.5557    0.0000 </r>
       <r>   12.6208    0.0000 </r>
      </set>
      <set comment="kpoint 89">
       <r>   -4.0451    1.0000 </r>
       <r>   -0.5913    1.0000 </r>
       <r>    2.6359    1.0000 </r>
       <r>    3.7014    1.0000 </r>
       <r>    7.9571    0.0000 </r>
       <r>    9.0257    0.0000 </r>
       <r>   10.6225    0.0000 </r>
       <r>   11.1797    0.0000 </r>
      </set>
      <set comment="kpoint 90">
       <r>   -4.6481    1.0000 </r>
       <r>    0.4669    1.0000 </r>
       <r>    2.8628    1.0000 </r>
       <r>    3.9186    1.0000 </r>
       <r>    7.9109    0.0000 </r>
       <r>    9.2759    0.0000 </r>
       <r>   10.0283    0.0000 </r>
       <r>   10.7296    0.0000 </r>
      </set>
      <set comment="kpoint 91">
       <r>   -5.1843    1.0000 </r>
       <r>    1.6364    1.0000 </r>
       <r>    3.2506    1.0000 </r>
       <r>    4.2178    1.0000 </r>
       <r>    7.6953    0.0000 </r>
       <r>    9.2479    0.0000 </r>
       <r>    9.8418    0.0000 </r>
       <r>   10.5245    0.0000 </r>
      </set>
      <set comment="kpoint 92">
       <r>   -5.2389    1.0000 </r>
       <r>    1.7272    1.0000 </r>
       <r>    3.7644    1.0000 </r>
       <r>    3.8816    1.0000 </r>
       <r>    7.3469    0.0000 </r>
       <r>    9.2739    0.0000 </r>
       <r>   10.0476    0.0000 </r>
       <r>   10.4455    0.0000 </r>
      </set>
      <set comment="kpoint 93">
       <r>   -4.8465    1.0000 </r>
       <r>    1.0805    1.0000 </r>
       <r>    2.9403    1.0000 </r>
       <r>    3.7674    1.0000 </r>
       <r>    7.4592    0.0000 </r>
       <r>    8.9844    0.0000 </r>
       <r>   10.0995    0.0000 </r>
       <r>   11.2646    0.0000 </r>
      </set>
      <set comment="kpoint 94">
       <r>   -4.3142    1.0000 </r>
       <r>    0.2417    1.0000 </r>
       <r>    2.3299    1.0000 </r>
       <r>    3.4562    1.0000 </r>
       <r>    7.9394    0.0000 </r>
       <r>    9.1345    0.0000 </r>
       <r>    9.7952    0.0000 </r>
       <r>   11.9408    0.0000 </r>
      </set>
      <set comment="kpoint 95">
       <r>   -3.7106    1.0000 </r>
       <r>   -0.6448    1.0000 </r>
       <r>    1.9885    1.0000 </r>
       <r>    3.1925    1.0000 </r>
       <r>    8.1454    0.0000 </r>
       <r>    9.4257    0.0000 </r>
       <r>   10.1663    0.0000 </r>
       <r>   12.0927    0.0000 </r>
      </set>
      <set comment="kpoint 96">
       <r>   -3.2976    1.0000 </r>
       <r>   -1.1878    1.0000 </r>
       <r>    1.8176    1.0000 </r>
       <r>    3.1201    1.0000 </r>
       <r>    8.3138    0.0000 </r>
       <r>    9.1360    0.0000 </r>
       <r>   11.6302    0.0000 </r>
       <r>   12.0593    0.0000 </r>
      </set>
      <set comment="kpoint 97">
       <r>   -3.5396    1.0000 </r>
       <r>   -0.8740    1.0000 </r>
       <r>    1.7960    1.0000 </r>
       <r>    3.2627    1.0000 </r>
       <r>    8.5896    0.0000 </r>
       <r>    8.9370    0.0000 </r>
       <r>   11.0531    0.0000 </r>
       <r>   12.0318    0.0000 </r>
      </set>
      <set comment="kpoint 98">
       <r>   -4.1282    1.0000 </r>
       <r>   -0.0580    1.0000 </r>
       <r>    1.9993    1.0000 </r>
       <r>    3.5700    1.0000 </r>
       <r>    8.7164    0.0000 </r>
       <r>    8.9640    0.0000 </r>
       <r>    9.8818    0.0000 </r>
       <r>   11.8329    0.0000 </r>
      </set>
      <set comment="kpoint 99">
       <r>   -4.6931    1.0000 </r>
       <r>    0.7361    1.0000 </r>
       <r>    2.5794    1.0000 </r>
       <r>    3.9309    1.0000 </r>
       <r>    8.1317    0.0000 </r>
       <r>    9.2613    0.0000 </r>
       <r>    9.6374    0.0000 </r>
       <r>   11.1373    0.0000 </r>
      </set>
      <set comment="kpoint 100">
       <r>   -4.5072    1.0000 </r>
       <r>    0.5742    1.0000 </r>
       <r>    2.8967    1.0000 </r>
       <r>    3.3430    1.0000 </r>
       <r>    6.8599    0.0000 </r>
       <r>    8.3840    0.0000 </r>
       <r>   11.3252    0.0000 </r>
       <r>   11.6420    0.0000 </r>
      </set>
      <set comment="kpoint 101">
       <r>   -4.0205    1.0000 </r>
       <r>   -0.0774    1.0000 </r>
       <r>    2.4602    1.0000 </r>
       <r>    3.0203    1.0000 </r>
       <r>    7.1044    0.0000 </r>
       <r>    8.1051    0.0000 </r>
       <r>   11.2783    0.0000 </r>
       <r>   12.8072    0.0000 </r>
      </set>
      <set comment="kpoint 102">
       <r>   -3.4276    1.0000 </r>
       <r>   -0.7849    1.0000 </r>
       <r>    1.9995    1.0000 </r>
       <r>    2.6768    1.0000 </r>
       <r>    7.6701    0.0000 </r>
       <r>    8.4629    0.0000 </r>
       <r>   10.9414    0.0000 </r>
       <r>   13.5709    0.0000 </r>
      </set>
      <set comment="kpoint 103">
       <r>   -2.8930    1.0000 </r>
       <r>   -1.3660    1.0000 </r>
       <r>    1.5668    1.0000 </r>
       <r>    2.6268    1.0000 </r>
       <r>    7.8754    0.0000 </r>
       <r>    9.7378    0.0000 </r>
       <r>   10.6455    0.0000 </r>
       <r>   12.7683    0.0000 </r>
      </set>
      <set comment="kpoint 104">
       <r>   -2.9689    1.0000 </r>
       <r>   -1.2785    1.0000 </r>
       <r>    1.3653    1.0000 </r>
       <r>    2.8222    1.0000 </r>
       <r>    8.1523    0.0000 </r>
       <r>   10.2373    0.0000 </r>
       <r>   11.1147    0.0000 </r>
       <r>   11.5616    0.0000 </r>
      </set>
      <set comment="kpoint 105">
       <r>   -3.5293    1.0000 </r>
       <r>   -0.7336    1.0000 </r>
       <r>    1.5708    1.0000 </r>
       <r>    3.1849    1.0000 </r>
       <r>    8.5473    0.0000 </r>
       <r>    9.4334    0.0000 </r>
       <r>   10.4247    0.0000 </r>
       <r>   12.6144    0.0000 </r>
      </set>
      <set comment="kpoint 106">
       <r>   -4.0989    1.0000 </r>
       <r>   -0.2798    1.0000 </r>
       <r>    2.2610    1.0000 </r>
       <r>    3.6141    1.0000 </r>
       <r>    8.3300    0.0000 </r>
       <r>    8.9895    0.0000 </r>
       <r>   10.4264    0.0000 </r>
       <r>   11.3178    0.0000 </r>
      </set>
      <set comment="kpoint 107">
       <r>   -3.5807    1.0000 </r>
       <r>   -0.6518    1.0000 </r>
       <r>    2.3274    1.0000 </r>
       <r>    2.9858    1.0000 </r>
       <r>    6.5274    0.0000 </r>
       <r>    7.6792    0.0000 </r>
       <r>   12.8433    0.0000 </r>
       <r>   12.9237    0.0000 </r>
      </set>
      <set comment="kpoint 108">
       <r>   -3.0187    1.0000 </r>
       <r>   -1.2804    1.0000 </r>
       <r>    2.1874    1.0000 </r>
       <r>    2.5868    1.0000 </r>
       <r>    6.9374    0.0000 </r>
       <r>    7.5470    0.0000 </r>
       <r>   12.6141    0.0000 </r>
       <r>   14.2942    0.0000 </r>
      </set>
      <set comment="kpoint 109">
       <r>   -2.4198    1.0000 </r>
       <r>   -1.8507    1.0000 </r>
       <r>    1.8889    1.0000 </r>
       <r>    2.2869    1.0000 </r>
       <r>    7.5656    0.0000 </r>
       <r>    8.1556    0.0000 </r>
       <r>   12.2781    0.0000 </r>
       <r>   13.0135    0.0000 </r>
      </set>
      <set comment="kpoint 110">
       <r>   -2.5610    1.0000 </r>
       <r>   -1.6682    1.0000 </r>
       <r>    1.4647    1.0000 </r>
       <r>    2.5150    1.0000 </r>
       <r>    7.8185    0.0000 </r>
       <r>    9.6788    0.0000 </r>
       <r>   11.2812    0.0000 </r>
       <r>   12.0377    0.0000 </r>
      </set>
      <set comment="kpoint 111">
       <r>   -3.0852    1.0000 </r>
       <r>   -1.2563    1.0000 </r>
       <r>    1.5356    1.0000 </r>
       <r>    2.9197    1.0000 </r>
       <r>    8.2076    0.0000 </r>
       <r>    9.6800    0.0000 </r>
       <r>   11.4753    0.0000 </r>
       <r>   11.9233    0.0000 </r>
      </set>
      <set comment="kpoint 112">
       <r>   -3.5710    1.0000 </r>
       <r>   -1.0558    1.0000 </r>
       <r>    2.1411    1.0000 </r>
       <r>    3.4212    1.0000 </r>
       <r>    8.4316    0.0000 </r>
       <r>    8.6980    0.0000 </r>
       <r>   11.2759    0.0000 </r>
       <r>   11.8366    0.0000 </r>
      </set>
      <set comment="kpoint 113">
       <r>   -2.5036    1.0000 </r>
       <r>   -1.8720    1.0000 </r>
       <r>    2.0870    1.0000 </r>
       <r>    2.8300    1.0000 </r>
       <r>    6.3826    0.0000 </r>
       <r>    7.3690    0.0000 </r>
       <r>   14.1880    0.0000 </r>
       <r>   14.3870    0.0000 </r>
      </set>
      <set comment="kpoint 114">
       <r>   -2.4680    1.0000 </r>
       <r>   -1.8739    1.0000 </r>
       <r>    2.1324    1.0000 </r>
       <r>    2.4998    1.0000 </r>
       <r>    6.9143    0.0000 </r>
       <r>    7.4238    0.0000 </r>
       <r>   13.3239    0.0000 </r>
       <r>   14.0458    0.0000 </r>
      </set>
      <set comment="kpoint 115">
       <r>   -2.9324    1.0000 </r>
       <r>   -1.3186    1.0000 </r>
       <r>    1.9203    1.0000 </r>
       <r>    2.4235    1.0000 </r>
       <r>    7.5987    0.0000 </r>
       <r>    8.2601    0.0000 </r>
       <r>   11.5888    0.0000 </r>
       <r>   13.7428    0.0000 </r>
      </set>
      <set comment="kpoint 116">
       <r>   -3.3008    1.0000 </r>
       <r>   -1.0068    1.0000 </r>
       <r>    1.7507    1.0000 </r>
       <r>    2.8542    1.0000 </r>
       <r>    7.9866    0.0000 </r>
       <r>    9.7880    0.0000 </r>
       <r>   10.1326    0.0000 </r>
       <r>   12.8821    0.0000 </r>
      </set>
      <set comment="kpoint 117">
       <r>   -3.0550    1.0000 </r>
       <r>   -1.2717    1.0000 </r>
       <r>    2.1668    1.0000 </r>
       <r>    2.8821    1.0000 </r>
       <r>    6.4310    0.0000 </r>
       <r>    7.4730    0.0000 </r>
       <r>   13.5899    0.0000 </r>
       <r>   13.6222    0.0000 </r>
      </set>
      <set comment="kpoint 118">
       <r>   -3.5392    1.0000 </r>
       <r>   -0.6771    1.0000 </r>
       <r>    2.2969    1.0000 </r>
       <r>    2.7607    1.0000 </r>
       <r>    6.9975    0.0000 </r>
       <r>    7.7783    0.0000 </r>
       <r>   11.9300    0.0000 </r>
       <r>   13.5896    0.0000 </r>
      </set>
      <set comment="kpoint 119">
       <r>   -3.8907    1.0000 </r>
       <r>   -0.2639    1.0000 </r>
       <r>    2.1357    1.0000 </r>
       <r>    3.0280    1.0000 </r>
       <r>    7.7838    0.0000 </r>
       <r>    8.7576    0.0000 </r>
       <r>   10.3410    0.0000 </r>
       <r>   12.7588    0.0000 </r>
      </set>
      <set comment="kpoint 120">
       <r>   -4.0666    1.0000 </r>
       <r>   -0.0325    1.0000 </r>
       <r>    2.5708    1.0000 </r>
       <r>    3.1401    1.0000 </r>
       <r>    6.6714    0.0000 </r>
       <r>    7.9854    0.0000 </r>
       <r>   12.0752    0.0000 </r>
       <r>   12.2715    0.0000 </r>
      </set>
      <set comment="kpoint 121">
       <r>   -4.4576    1.0000 </r>
       <r>    0.5098    1.0000 </r>
       <r>    2.6755    1.0000 </r>
       <r>    3.3601    1.0000 </r>
       <r>    7.2595    0.0000 </r>
       <r>    8.5163    0.0000 </r>
       <r>   10.6616    0.0000 </r>
       <r>   12.0285    0.0000 </r>
      </set>
      <set comment="kpoint 122">
       <r>   -4.8989    1.0000 </r>
       <r>    1.1609    1.0000 </r>
[...]
       <r>   -1.3175    1.0000 </r>
       <r>    1.4962    1.0000 </r>
       <r>    3.0242    1.0000 </r>
       <r>    7.4879    0.0000 </r>
       <r>   10.4052    0.0000 </r>
       <r>   10.8219    0.0000 </r>
       <r>   12.6615    0.0000 </r>
      </set>
      <set comment="kpoint 172">
       <r>   -2.8748    1.0000 </r>
       <r>   -1.4242    1.0000 </r>
       <r>    1.2700    1.0000 </r>
       <r>    3.2792    1.0000 </r>
       <r>    6.9024    0.0000 </r>
       <r>   10.4202    0.0000 </r>
       <r>   12.2128    0.0000 </r>
       <r>   12.5285    0.0000 </r>
      </set>
      <set comment="kpoint 173">
       <r>   -4.6075    1.0000 </r>
       <r>   -0.3472    1.0000 </r>
       <r>    4.4193    1.0000 </r>
       <r>    4.4193    1.0000 </r>
       <r>    7.0206    0.0000 </r>
       <r>    8.9310    0.0000 </r>
       <r>    8.9310    0.0000 </r>
       <r>   13.2792    0.0000 </r>
      </set>
      <set comment="kpoint 174">
       <r>   -4.3333    1.0000 </r>
       <r>   -0.6578    1.0000 </r>
       <r>    3.6454    1.0000 </r>
       <r>    4.3828    1.0000 </r>
       <r>    7.4902    0.0000 </r>
       <r>    8.9610    0.0000 </r>
       <r>    9.0413    0.0000 </r>
       <r>   13.2233    0.0000 </r>
      </set>
      <set comment="kpoint 175">
       <r>   -3.9289    1.0000 </r>
       <r>   -0.8632    1.0000 </r>
       <r>    2.5225    1.0000 </r>
       <r>    4.0637    1.0000 </r>
       <r>    7.7493    0.0000 </r>
       <r>    9.4888    0.0000 </r>
       <r>    9.7632    0.0000 </r>
       <r>   13.2486    0.0000 </r>
      </set>
      <set comment="kpoint 176">
       <r>   -3.4238    1.0000 </r>
       <r>   -1.0563    1.0000 </r>
       <r>    1.6189    1.0000 </r>
       <r>    3.6507    1.0000 </r>
       <r>    7.3388    0.0000 </r>
       <r>   10.8340    0.0000 </r>
       <r>   10.8941    0.0000 </r>
       <r>   12.3100    0.0000 </r>
      </set>
      <set comment="kpoint 177">
       <r>   -4.1528    1.0000 </r>
       <r>   -0.9486    1.0000 </r>
       <r>    3.8221    1.0000 </r>
       <r>    4.1124    1.0000 </r>
       <r>    7.4465    0.0000 </r>
       <r>    8.7351    0.0000 </r>
       <r>    9.2602    0.0000 </r>
       <r>   12.9439    0.0000 </r>
      </set>
      <set comment="kpoint 178">
       <r>   -3.8569    1.0000 </r>
       <r>   -1.1035    1.0000 </r>
       <r>    2.9522    1.0000 </r>
       <r>    3.9051    1.0000 </r>
       <r>    7.9737    0.0000 </r>
       <r>    8.6367    0.0000 </r>
       <r>    9.9344    0.0000 </r>
       <r>   12.8277    0.0000 </r>
      </set>
      <set comment="kpoint 179">
       <r>   -3.4712    1.0000 </r>
       <r>   -1.1655    1.0000 </r>
       <r>    2.0366    1.0000 </r>
       <r>    3.4696    1.0000 </r>
       <r>    7.9480    0.0000 </r>
       <r>    9.2642    0.0000 </r>
       <r>   11.2257    0.0000 </r>
       <r>   12.4382    0.0000 </r>
      </set>
      <set comment="kpoint 180">
       <r>   -3.6973    1.0000 </r>
       <r>   -1.2003    1.0000 </r>
       <r>    2.6528    1.0000 </r>
       <r>    3.8303    1.0000 </r>
       <r>    7.5614    0.0000 </r>
       <r>    9.4703    0.0000 </r>
       <r>    9.9524    0.0000 </r>
       <r>   12.5536    0.0000 </r>
      </set>
      <set comment="kpoint 181">
       <r>   -4.0903    1.0000 </r>
       <r>   -1.1976    1.0000 </r>
       <r>    4.3216    1.0000 </r>
       <r>    4.3216    1.0000 </r>
       <r>    6.9068    0.0000 </r>
       <r>    8.8458    0.0000 </r>
       <r>    8.8458    0.0000 </r>
       <r>   13.1784    0.0000 </r>
      </set>
      <set comment="kpoint 182">
       <r>   -3.9324    1.0000 </r>
       <r>   -1.2776    1.0000 </r>
       <r>    3.6765    1.0000 </r>
       <r>    4.1962    1.0000 </r>
       <r>    7.4139    0.0000 </r>
       <r>    8.7959    0.0000 </r>
       <r>    9.1080    0.0000 </r>
       <r>   13.4328    0.0000 </r>
      </set>
     </set>
    </set>
   </array>
  </eigenvalues>
  <separator name="orbital magnetization" >
   <v name="MAGDIPOLOUT">      0.00000000      0.00000000      0.00000000</v>
  </separator>
  <dos>
   <i name="efermi">      5.66270205 </i>
   <total>
    <array>
     <dimension dim="1">gridpoints</dimension>
     <dimension dim="2">spin</dimension>
     <field>energy</field>
     <field>total</field>
     <field>integrated</field>
     <set>
      <set comment="spin 1">
       <r>    -7.2854     0.0000     0.0000 </r>
       <r>    -7.2074     0.0000     0.0000 </r>
       <r>    -7.1294     0.0000     0.0000 </r>
       <r>    -7.0514     0.0000     0.0000 </r>
       <r>    -6.9734     0.0000     0.0000 </r>
       <r>    -6.8954     0.0000     0.0000 </r>
       <r>    -6.8174     0.0000     0.0000 </r>
       <r>    -6.7395     0.0000     0.0000 </r>
       <r>    -6.6615     0.0000     0.0000 </r>
       <r>    -6.5835     0.0000     0.0000 </r>
       <r>    -6.5055     0.0000     0.0000 </r>
       <r>    -6.4275     0.0000     0.0000 </r>
       <r>    -6.3495     0.0000     0.0000 </r>
       <r>    -6.2715     0.0025     0.0002 </r>
       <r>    -6.1936     0.0387     0.0032 </r>
       <r>    -6.1156     0.1058     0.0115 </r>
       <r>    -6.0376     0.1421     0.0225 </r>
       <r>    -5.9596     0.1948     0.0377 </r>
       <r>    -5.8816     0.1760     0.0515 </r>
       <r>    -5.8036     0.2765     0.0730 </r>
       <r>    -5.7256     0.2205     0.0902 </r>
       <r>    -5.6477     0.2803     0.1121 </r>
       <r>    -5.5697     0.3025     0.1357 </r>
       <r>    -5.4917     0.3421     0.1624 </r>
       <r>    -5.4137     0.3197     0.1873 </r>
       <r>    -5.3357     0.2864     0.2096 </r>
       <r>    -5.2577     0.4790     0.2470 </r>
       <r>    -5.1797     0.3754     0.2762 </r>
       <r>    -5.1018     0.3836     0.3062 </r>
       <r>    -5.0238     0.3574     0.3340 </r>
       <r>    -4.9458     0.5557     0.3774 </r>
       <r>    -4.8678     0.4161     0.4098 </r>
       <r>    -4.7898     0.5288     0.4511 </r>
       <r>    -4.7118     0.4758     0.4882 </r>
       <r>    -4.6338     0.4788     0.5255 </r>
       <r>    -4.5559     0.4935     0.5640 </r>
       <r>    -4.4779     0.6819     0.6172 </r>
       <r>    -4.3999     0.6703     0.6694 </r>
       <r>    -4.3219     0.4928     0.7079 </r>
       <r>    -4.2439     0.6155     0.7559 </r>
       <r>    -4.1659     0.6653     0.8078 </r>
       <r>    -4.0879     0.8323     0.8727 </r>
       <r>    -4.0100     0.7923     0.9345 </r>
       <r>    -3.9320     0.8536     1.0010 </r>
       <r>    -3.8540     1.1678     1.0921 </r>
       <r>    -3.7760     0.5671     1.1363 </r>
       <r>    -3.6980     0.7524     1.1950 </r>
       <r>    -3.6200     1.0353     1.2757 </r>
       <r>    -3.5420     0.7219     1.3320 </r>
       <r>    -3.4641     0.7349     1.3893 </r>
       <r>    -3.3861     0.8432     1.4551 </r>
       <r>    -3.3081     0.8175     1.5188 </r>
       <r>    -3.2301     0.5079     1.5585 </r>
       <r>    -3.1521     0.3543     1.5861 </r>
       <r>    -3.0741     0.6473     1.6366 </r>
       <r>    -2.9961     0.8486     1.7027 </r>
       <r>    -2.9182     0.7301     1.7597 </r>
       <r>    -2.8402     0.5281     1.8009 </r>
       <r>    -2.7622     0.3380     1.8272 </r>
       <r>    -2.6842     0.2377     1.8458 </r>
       <r>    -2.6062     0.2786     1.8675 </r>
       <r>    -2.5282     0.4726     1.9043 </r>
       <r>    -2.4502     0.6425     1.9545 </r>
       <r>    -2.3723     0.3489     1.9817 </r>
       <r>    -2.2943     0.2214     1.9989 </r>
       <r>    -2.2163     0.0138     2.0000 </r>
       <r>    -2.1383     0.0000     2.0000 </r>
       <r>    -2.0603     0.0000     2.0000 </r>
       <r>    -1.9823     0.0029     2.0002 </r>
       <r>    -1.9043     0.1836     2.0145 </r>
       <r>    -1.8264     0.7233     2.0710 </r>
       <r>    -1.7484     0.4694     2.1076 </r>
       <r>    -1.6704     0.2223     2.1249 </r>
       <r>    -1.5924     0.2497     2.1444 </r>
       <r>    -1.5144     0.2075     2.1606 </r>
       <r>    -1.4364     0.3193     2.1855 </r>
       <r>    -1.3584     0.6484     2.2360 </r>
       <r>    -1.2805     1.3814     2.3438 </r>
       <r>    -1.2025     1.5270     2.4628 </r>
       <r>    -1.1245     1.4038     2.5723 </r>
       <r>    -1.0465     1.1664     2.6633 </r>
       <r>    -0.9685     0.7827     2.7243 </r>
       <r>    -0.8905     0.9020     2.7947 </r>
       <r>    -0.8125     0.9907     2.8719 </r>
       <r>    -0.7346     0.4421     2.9064 </r>
       <r>    -0.6566     0.7613     2.9658 </r>
       <r>    -0.5786     1.1422     3.0548 </r>
       <r>    -0.5006     0.4534     3.0902 </r>
       <r>    -0.4226     0.2073     3.1064 </r>
       <r>    -0.3446     0.4267     3.1396 </r>
       <r>    -0.2666     0.8248     3.2040 </r>
       <r>    -0.1887     0.5582     3.2475 </r>
       <r>    -0.1107     0.1341     3.2580 </r>
       <r>    -0.0327     0.3266     3.2834 </r>
       <r>     0.0453     0.5871     3.3292 </r>
       <r>     0.1233     0.8227     3.3934 </r>
       <r>     0.2013     0.2006     3.4090 </r>
       <r>     0.2793     0.1463     3.4204 </r>
       <r>     0.3572     0.2182     3.4374 </r>
       <r>     0.4352     0.3077     3.4614 </r>
       <r>     0.5132     0.6787     3.5144 </r>
       <r>     0.5912     0.2892     3.5369 </r>
       <r>     0.6692     0.0526     3.5410 </r>
       <r>     0.7472     0.2425     3.5599 </r>
       <r>     0.8252     0.3216     3.5850 </r>
       <r>     0.9031     0.4216     3.6179 </r>
       <r>     0.9811     0.3417     3.6445 </r>
       <r>     1.0591     0.0653     3.6496 </r>
       <r>     1.1371     0.1429     3.6608 </r>
       <r>     1.2151     0.1586     3.6731 </r>
       <r>     1.2931     0.4466     3.7080 </r>
       <r>     1.3711     0.9291     3.7804 </r>
       <r>     1.4490     0.8109     3.8437 </r>
       <r>     1.5270     1.2132     3.9383 </r>
       <r>     1.6050     1.2496     4.0357 </r>
       <r>     1.6830     1.0386     4.1167 </r>
       <r>     1.7610     1.1201     4.2041 </r>
       <r>     1.8390     1.2086     4.2983 </r>
       <r>     1.9170     1.1725     4.3898 </r>
       <r>     1.9949     1.0200     4.4693 </r>
       <r>     2.0729     0.9498     4.5434 </r>
       <r>     2.1509     0.8805     4.6121 </r>
       <r>     2.2289     1.1166     4.6991 </r>
       <r>     2.3069     1.4706     4.8138 </r>
       <r>     2.3849     1.1564     4.9040 </r>
       <r>     2.4629     0.9105     4.9750 </r>
       <r>     2.5408     1.2803     5.0748 </r>
       <r>     2.6188     1.2480     5.1722 </r>
       <r>     2.6968     1.3657     5.2787 </r>
       <r>     2.7748     1.5543     5.3999 </r>
       <r>     2.8528     1.6339     5.5273 </r>
       <r>     2.9308     1.6957     5.6596 </r>
       <r>     3.0088     1.4737     5.7745 </r>
       <r>     3.0867     1.3951     5.8833 </r>
       <r>     3.1647     1.1862     5.9758 </r>
       <r>     3.2427     1.6516     6.1046 </r>
       <r>     3.3207     1.5847     6.2282 </r>
       <r>     3.3987     1.5581     6.3497 </r>
       <r>     3.4767     1.1676     6.4407 </r>
       <r>     3.5547     1.0948     6.5261 </r>
       <r>     3.6326     1.5330     6.6457 </r>
       <r>     3.7106     1.4168     6.7562 </r>
       <r>     3.7886     1.3307     6.8599 </r>
       <r>     3.8666     1.1343     6.9484 </r>
       <r>     3.9446     1.3431     7.0531 </r>
       <r>     4.0226     1.0918     7.1383 </r>
       <r>     4.1006     1.3538     7.2439 </r>
       <r>     4.1785     1.2694     7.3429 </r>
       <r>     4.2565     0.9832     7.4195 </r>
       <r>     4.3345     0.9422     7.4930 </r>
       <r>     4.4125     1.2948     7.5940 </r>
       <r>     4.4905     0.7917     7.6557 </r>
       <r>     4.5685     0.5379     7.6977 </r>
       <r>     4.6465     0.5175     7.7380 </r>
       <r>     4.7244     0.5727     7.7827 </r>
       <r>     4.8024     0.5762     7.8276 </r>
       <r>     4.8804     0.4738     7.8646 </r>
       <r>     4.9584     0.3468     7.8916 </r>
       <r>     5.0364     0.2934     7.9145 </r>
       <r>     5.1144     0.3189     7.9394 </r>
       <r>     5.1924     0.2050     7.9554 </r>
       <r>     5.2703     0.2861     7.9777 </r>
       <r>     5.3483     0.1330     7.9881 </r>
       <r>     5.4263     0.1040     7.9962 </r>
       <r>     5.5043     0.0473     7.9999 </r>
       <r>     5.5823     0.0019     8.0000 </r>
       <r>     5.6603     0.0000     8.0000 </r>
       <r>     5.7383     0.0000     8.0000 </r>
       <r>     5.8162     0.0000     8.0000 </r>
       <r>     5.8942     0.0000     8.0000 </r>
       <r>     5.9722     0.0000     8.0000 </r>
       <r>     6.0502     0.0000     8.0000 </r>
       <r>     6.1282     0.0043     8.0003 </r>
       <r>     6.2062     0.1129     8.0091 </r>
       <r>     6.2842     0.1857     8.0236 </r>
       <r>     6.3621     0.0881     8.0305 </r>
       <r>     6.4401     0.3646     8.0589 </r>
       <r>     6.5181     0.4902     8.0972 </r>
       <r>     6.5961     0.3357     8.1233 </r>
       <r>     6.6741     0.5259     8.1643 </r>
       <r>     6.7521     0.3699     8.1932 </r>
       <r>     6.8301     0.3865     8.2233 </r>
       <r>     6.9080     0.6578     8.2746 </r>
       <r>     6.9860     1.0196     8.3541 </r>
       <r>     7.0640     0.5944     8.4005 </r>
       <r>     7.1420     0.7859     8.4618 </r>
       <r>     7.2200     0.8081     8.5248 </r>
       <r>     7.2980     1.0416     8.6060 </r>
       <r>     7.3760     0.8579     8.6729 </r>
       <r>     7.4539     1.3436     8.7777 </r>
       <r>     7.5319     1.3239     8.8810 </r>
       <r>     7.6099     1.1537     8.9709 </r>
       <r>     7.6879     1.8883     9.1182 </r>
       <r>     7.7659     1.9063     9.2669 </r>
       <r>     7.8439     1.4337     9.3787 </r>
       <r>     7.9218     1.2938     9.4796 </r>
       <r>     7.9998     1.5147     9.5977 </r>
       <r>     8.0778     1.4509     9.7109 </r>
       <r>     8.1558     1.3454     9.8158 </r>
       <r>     8.2338     1.2708     9.9149 </r>
       <r>     8.3118     0.8897     9.9843 </r>
       <r>     8.3898     1.4519    10.0975 </r>
       <r>     8.4677     1.0628    10.1804 </r>
       <r>     8.5457     0.8307    10.2452 </r>
       <r>     8.6237     1.2267    10.3408 </r>
       <r>     8.7017     1.1430    10.4300 </r>
       <r>     8.7797     2.3970    10.6169 </r>
       <r>     8.8577     2.4344    10.8067 </r>
       <r>     8.9357     1.8734    10.9528 </r>
       <r>     9.0136     2.0503    11.1127 </r>
       <r>     9.0916     1.7279    11.2475 </r>
       <r>     9.1696     1.6358    11.3751 </r>
       <r>     9.2476     1.7574    11.5121 </r>
       <r>     9.3256     1.6549    11.6412 </r>
       <r>     9.4036     1.2356    11.7375 </r>
       <r>     9.4816     1.2381    11.8341 </r>
       <r>     9.5595     1.2863    11.9344 </r>
       <r>     9.6375     1.4952    12.0510 </r>
       <r>     9.7155     1.0443    12.1324 </r>
       <r>     9.7935     1.3995    12.2416 </r>
       <r>     9.8715     1.4151    12.3519 </r>
       <r>     9.9495     0.7763    12.4125 </r>
       <r>    10.0275     1.5777    12.5355 </r>
       <r>    10.1054     1.6228    12.6621 </r>
       <r>    10.1834     1.3400    12.7666 </r>
       <r>    10.2614     1.0154    12.8458 </r>
       <r>    10.3394     1.1517    12.9356 </r>
       <r>    10.4174     1.5275    13.0547 </r>
       <r>    10.4954     1.2642    13.1533 </r>
       <r>    10.5734     1.1742    13.2449 </r>
       <r>    10.6513     1.2295    13.3408 </r>
       <r>    10.7293     1.5056    13.4582 </r>
       <r>    10.8073     1.2632    13.5567 </r>
       <r>    10.8853     0.9855    13.6335 </r>
       <r>    10.9633     0.8264    13.6980 </r>
       <r>    11.0413     1.1390    13.7868 </r>
       <r>    11.1193     1.2190    13.8819 </r>
       <r>    11.1972     1.1354    13.9704 </r>
       <r>    11.2752     0.9941    14.0479 </r>
       <r>    11.3532     1.3948    14.1567 </r>
       <r>    11.4312     1.0914    14.2418 </r>
       <r>    11.5092     1.1295    14.3299 </r>
       <r>    11.5872     0.9150    14.4013 </r>
       <r>    11.6652     0.8081    14.4643 </r>
       <r>    11.7431     0.9866    14.5412 </r>
       <r>    11.8211     0.7313    14.5983 </r>
       <r>    11.8991     0.7958    14.6603 </r>
       <r>    11.9771     1.0590    14.7429 </r>
       <r>    12.0551     1.2260    14.8385 </r>
       <r>    12.1331     1.1868    14.9311 </r>
       <r>    12.2111     0.7180    14.9871 </r>
       <r>    12.2890     0.9301    15.0596 </r>
       <r>    12.3670     0.8250    15.1239 </r>
       <r>    12.4450     0.3719    15.1530 </r>
       <r>    12.5230     0.3568    15.1808 </r>
       <r>    12.6010     0.6036    15.2278 </r>
       <r>    12.6790     0.9913    15.3052 </r>
       <r>    12.7570     0.8240    15.3694 </r>
       <r>    12.8349     0.7455    15.4276 </r>
       <r>    12.9129     0.9206    15.4993 </r>
       <r>    12.9909     0.4051    15.5309 </r>
       <r>    13.0689     0.4984    15.5698 </r>
       <r>    13.1469     0.4030    15.6012 </r>
       <r>    13.2249     0.2843    15.6234 </r>
       <r>    13.3029     0.4354    15.6574 </r>
       <r>    13.3808     0.5887    15.7033 </r>
       <r>    13.4588     0.3281    15.7289 </r>
       <r>    13.5368     0.3273    15.7544 </r>
       <r>    13.6148     0.9355    15.8273 </r>
       <r>    13.6928     0.4397    15.8616 </r>
       <r>    13.7708     0.1333    15.8720 </r>
       <r>    13.8488     0.0380    15.8750 </r>
       <r>    13.9267     0.0017    15.8751 </r>
       <r>    14.0047     0.0951    15.8825 </r>
       <r>    14.0827     0.2294    15.9004 </r>
       <r>    14.1607     0.0498    15.9043 </r>
       <r>    14.2387     0.0765    15.9103 </r>
       <r>    14.3167     0.2826    15.9323 </r>
       <r>    14.3947     0.4336    15.9661 </r>
       <r>    14.4726     0.0775    15.9722 </r>
       <r>    14.5506     0.0008    15.9722 </r>
       <r>    14.6286     0.0000    15.9722 </r>
       <r>    14.7066     0.0001    15.9722 </r>
       <r>    14.7846     0.0208    15.9738 </r>
       <r>    14.8626     0.1297    15.9840 </r>
       <r>    14.9406     0.0307    15.9864 </r>
       <r>    15.0185     0.0739    15.9921 </r>
       <r>    15.0965     0.0935    15.9994 </r>
       <r>    15.1745     0.0075    16.0000 </r>
       <r>    15.2525     0.0000    16.0000 </r>
       <r>    15.3305     0.0000    16.0000 </r>
       <r>    15.4085     0.0000    16.0000 </r>
       <r>    15.4865     0.0000    16.0000 </r>
       <r>    15.5644     0.0000    16.0000 </r>
       <r>    15.6424     0.0000    16.0000 </r>
       <r>    15.7204     0.0000    16.0000 </r>
       <r>    15.7984     0.0000    16.0000 </r>
       <r>    15.8764     0.0000    16.0000 </r>
       <r>    15.9544     0.0000    16.0000 </r>
       <r>    16.0324     0.0000    16.0000 </r>
       <r>    16.1103     0.0000    16.0000 </r>
      </set>
     </set>
    </array>
   </total>
  </dos>
 </calculation>
 <structure name="finalpos" >
  <crystal>
   <varray name="basis" >
    <v>       3.36487406       0.00000000       1.94271067 </v>
    <v>       1.12162469       3.17243494       1.94271067 </v>
    <v>       0.00000000       0.00000000       3.88542134 </v>
   </varray>
   <i name="volume">     41.47626679 </i>
   <varray name="rec_basis" >
    <v>       0.29718794      -0.10507176       0.00000000 </v>
    <v>       0.00000000       0.31521529       0.00000000 </v>
    <v>      -0.14859397      -0.10507176       0.25737234 </v>
   </varray>
  </crystal>
  <varray name="positions" >
   <v>       0.87500000       0.87500000       0.87500000 </v>
   <v>       0.12500000       0.12500000       0.12500000 </v>
  </varray>
 </structure>
</modeling>
