unknown system                          
           1
     3.364874    0.000000    1.942711
     1.121625    3.172435    1.942711
     0.000000    0.000000    3.885421
   Si
     2
Direct configuration=     1
   0.87500000  0.87500000  0.87500000
   0.12500000  0.12500000  0.12500000
