   1   1   0   0
  0.1407198E+02  0.2634263E-09  0.2634263E-09  0.2634263E-09  0.5000000E-15
  1.000000000000000E-004
  CAR 
 unknown system                          
     37.12187465     -6.12757808  301     10.40515843      1.00000000
     -6.128  0.0000E+00  0.0000E+00
     -5.983  0.0000E+00  0.0000E+00
     -5.839  0.0000E+00  0.0000E+00
     -5.695  0.0000E+00  0.0000E+00
     -5.551  0.0000E+00  0.0000E+00
     -5.407  0.0000E+00  0.0000E+00
     -5.263  0.0000E+00  0.0000E+00
     -5.118  0.0000E+00  0.0000E+00
     -4.974  0.0000E+00  0.0000E+00
     -4.830  0.0000E+00  0.0000E+00
     -4.686  0.0000E+00  0.0000E+00
     -4.542  0.0000E+00  0.0000E+00
     -4.398  0.1311E-14  0.1890E-15
     -4.253  0.4932E-06  0.7110E-07
     -4.109  0.9654E-04  0.1399E-04
     -3.965  0.5348E-04  0.2170E-04
     -3.821  0.1191E-02  0.1934E-03
     -3.677  0.1175E-03  0.2103E-03
     -3.533  0.5210E-03  0.2854E-03
     -3.388  0.1109E-02  0.4453E-03
     -3.244  0.1394E-02  0.6462E-03
     -3.100  0.9448E-03  0.7824E-03
     -2.956  0.3194E-03  0.8284E-03
     -2.812  0.2332E-02  0.1165E-02
     -2.668  0.1942E-03  0.1193E-02
     -2.523  0.7886E-03  0.1306E-02
     -2.379  0.1032E-02  0.1455E-02
     -2.235  0.3975E-02  0.2028E-02
     -2.091  0.3265E-03  0.2075E-02
     -1.947  0.3048E-03  0.2119E-02
     -1.803  0.3085E-02  0.2564E-02
     -1.658  0.6937E-03  0.2664E-02
     -1.514  0.2385E-02  0.3008E-02
     -1.370  0.3038E-03  0.3052E-02
     -1.226  0.2276E-02  0.3380E-02
     -1.082  0.8220E-03  0.3498E-02
     -0.938  0.1689E-02  0.3742E-02
     -0.793  0.5093E-02  0.4476E-02
     -0.649  0.2411E-02  0.4823E-02
     -0.505  0.2095E-07  0.4823E-02
     -0.361  0.1992E-03  0.4852E-02
     -0.217  0.4754E-02  0.5537E-02
     -0.073  0.3153E-03  0.5583E-02
      0.072  0.9852E-03  0.5725E-02
      0.216  0.2791E-02  0.6127E-02
      0.360  0.2217E-02  0.6447E-02
      0.504  0.2702E-02  0.6836E-02
      0.648  0.5918E-03  0.6922E-02
      0.792  0.7192E-02  0.7959E-02
      0.936  0.5325E-03  0.8035E-02
      1.081  0.2107E-02  0.8339E-02
      1.225  0.2484E-02  0.8697E-02
      1.369  0.2524E-02  0.9061E-02
      1.513  0.2090E-02  0.9362E-02
      1.657  0.5041E-03  0.9435E-02
      1.801  0.4795E-02  0.1013E-01
      1.946  0.2242E-03  0.1016E-01
      2.090  0.7222E-03  0.1026E-01
      2.234  0.4238E-02  0.1087E-01
      2.378  0.4522E-02  0.1153E-01
      2.522  0.2141E-02  0.1183E-01
      2.666  0.5790E-03  0.1192E-01
      2.811  0.9590E-02  0.1330E-01
      2.955  0.1056E-02  0.1345E-01
      3.099  0.4138E-02  0.1405E-01
      3.243  0.1427E-02  0.1425E-01
      3.387  0.1079E-02  0.1441E-01
      3.531  0.1335E-04  0.1441E-01
      3.676  0.2522E-02  0.1478E-01
      3.820  0.5132E-02  0.1552E-01
      3.964  0.2512E-02  0.1588E-01
      4.108  0.1156E-02  0.1604E-01
      4.252  0.5120E-02  0.1678E-01
      4.396  0.3909E-02  0.1735E-01
      4.541  0.4991E-02  0.1807E-01
      4.685  0.2595E-02  0.1844E-01
      4.829  0.8008E-03  0.1856E-01
      4.973  0.3355E-02  0.1904E-01
      5.117  0.3915E-02  0.1960E-01
      5.261  0.5247E-02  0.2036E-01
      5.406  0.5542E-02  0.2116E-01
      5.550  0.2455E-02  0.2151E-01
      5.694  0.6520E-03  0.2161E-01
      5.838  0.4480E-02  0.2225E-01
      5.982  0.1451E-02  0.2246E-01
      6.126  0.1962E-02  0.2274E-01
      6.271  0.2636E-02  0.2312E-01
      6.415  0.1770E-02  0.2338E-01
      6.559  0.5462E-02  0.2417E-01
      6.703  0.4070E-02  0.2475E-01
      6.847  0.7240E-02  0.2580E-01
      6.991  0.2153E-02  0.2611E-01
      7.136  0.2404E-02  0.2645E-01
      7.280  0.8809E-02  0.2772E-01
      7.424  0.2077E-02  0.2802E-01
      7.568  0.4301E-03  0.2809E-01
      7.712  0.5403E-02  0.2886E-01
      7.856  0.4184E-02  0.2947E-01
      8.001  0.2310E-02  0.2980E-01
      8.145  0.4262E-02  0.3042E-01
      8.289  0.6616E-02  0.3137E-01
      8.433  0.2929E-02  0.3179E-01
      8.577  0.2120E-02  0.3210E-01
      8.721  0.3424E-02  0.3259E-01
      8.866  0.3077E-02  0.3303E-01
      9.010  0.4627E-02  0.3370E-01
      9.154  0.5378E-02  0.3448E-01
      9.298  0.4139E-02  0.3507E-01
      9.442  0.1935E-02  0.3535E-01
      9.586  0.7848E-02  0.3648E-01
      9.731  0.3983E-02  0.3706E-01
      9.875  0.2618E-02  0.3744E-01
     10.019  0.1329E-02  0.3763E-01
     10.163  0.7116E-02  0.3865E-01
     10.307  0.5276E-02  0.3941E-01
     10.451  0.6053E-02  0.4029E-01
     10.596  0.7489E-02  0.4137E-01
     10.740  0.5602E-02  0.4217E-01
     10.884  0.9109E-03  0.4230E-01
     11.028  0.4301E-02  0.4292E-01
     11.172  0.4809E-02  0.4362E-01
     11.316  0.2494E-02  0.4398E-01
     11.461  0.4989E-02  0.4470E-01
     11.605  0.6931E-02  0.4570E-01
     11.749  0.3372E-03  0.4574E-01
     11.893  0.2612E-02  0.4612E-01
     12.037  0.3016E-02  0.4656E-01
     12.181  0.2837E-02  0.4697E-01
     12.326  0.4100E-02  0.4756E-01
     12.470  0.6699E-02  0.4852E-01
     12.614  0.5557E-02  0.4932E-01
     12.758  0.2932E-02  0.4975E-01
     12.902  0.5871E-02  0.5059E-01
     13.046  0.7232E-02  0.5163E-01
     13.191  0.5639E-02  0.5245E-01
     13.335  0.5190E-02  0.5320E-01
     13.479  0.8489E-04  0.5321E-01
     13.623  0.2492E-03  0.5324E-01
     13.767  0.6966E-02  0.5425E-01
     13.911  0.5078E-02  0.5498E-01
     14.055  0.3629E-02  0.5550E-01
     14.200  0.8073E-02  0.5667E-01
     14.344  0.4549E-02  0.5732E-01
     14.488  0.7388E-02  0.5839E-01
     14.632  0.4598E-02  0.5905E-01
     14.776  0.5354E-02  0.5982E-01
     14.920  0.3937E-03  0.5988E-01
     15.065  0.2593E-02  0.6025E-01
     15.209  0.1289E-01  0.6211E-01
     15.353  0.1546E-03  0.6213E-01
     15.497  0.2019E-02  0.6242E-01
     15.641  0.1879E-02  0.6270E-01
     15.785  0.5895E-02  0.6355E-01
     15.930  0.5268E-02  0.6431E-01
     16.074  0.6331E-02  0.6522E-01
     16.218  0.6123E-02  0.6610E-01
     16.362  0.1001E-01  0.6754E-01
     16.506  0.3014E-02  0.6798E-01
     16.650  0.7397E-02  0.6904E-01
     16.795  0.5013E-02  0.6977E-01
     16.939  0.5036E-02  0.7049E-01
     17.083  0.4876E-02  0.7120E-01
     17.227  0.1265E-02  0.7138E-01
     17.371  0.6684E-02  0.7234E-01
     17.515  0.4914E-02  0.7305E-01
     17.660  0.5142E-02  0.7379E-01
     17.804  0.1137E-01  0.7543E-01
     17.948  0.3118E-02  0.7588E-01
     18.092  0.1119E-01  0.7749E-01
     18.236  0.2279E-02  0.7782E-01
     18.380  0.1062E-05  0.7782E-01
     18.525  0.1372E-02  0.7802E-01
     18.669  0.1251E-01  0.7982E-01
     18.813  0.9739E-02  0.8123E-01
     18.957  0.4507E-02  0.8188E-01
     19.101  0.8240E-02  0.8306E-01
     19.245  0.3343E-02  0.8355E-01
     19.390  0.5235E-03  0.8362E-01
     19.534  0.4756E-03  0.8369E-01
     19.678  0.3764E-02  0.8423E-01
     19.822  0.9185E-03  0.8436E-01
     19.966  0.2635E-02  0.8474E-01
     20.110  0.1814E-02  0.8501E-01
     20.255  0.5329E-02  0.8577E-01
     20.399  0.4891E-02  0.8648E-01
     20.543  0.9520E-02  0.8785E-01
     20.687  0.1316E-01  0.8975E-01
     20.831  0.9957E-02  0.9118E-01
     20.975  0.6742E-02  0.9216E-01
     21.120  0.3666E-02  0.9269E-01
     21.264  0.5539E-02  0.9348E-01
     21.408  0.5951E-03  0.9357E-01
     21.552  0.6607E-02  0.9452E-01
     21.696  0.6843E-03  0.9462E-01
     21.840  0.2089E-02  0.9492E-01
     21.985  0.9970E-02  0.9636E-01
     22.129  0.1141E-01  0.9800E-01
     22.273  0.6600E-02  0.9895E-01
     22.417  0.5371E-02  0.9973E-01
     22.561  0.4786E-02  0.1004E+00
     22.705  0.2762E-02  0.1008E+00
     22.850  0.1603E-01  0.1031E+00
     22.994  0.5864E-02  0.1040E+00
     23.138  0.3292E-02  0.1044E+00
     23.282  0.5569E-02  0.1053E+00
     23.426  0.6763E-02  0.1062E+00
     23.570  0.3412E-02  0.1067E+00
     23.715  0.6745E-02  0.1077E+00
     23.859  0.8599E-02  0.1089E+00
     24.003  0.5257E-02  0.1097E+00
     24.147  0.5221E-02  0.1104E+00
     24.291  0.1068E-01  0.1120E+00
     24.435  0.2071E-02  0.1123E+00
     24.580  0.9907E-02  0.1137E+00
     24.724  0.9633E-02  0.1151E+00
     24.868  0.1444E-02  0.1153E+00
     25.012  0.1425E-02  0.1155E+00
     25.156  0.7213E-02  0.1165E+00
     25.300  0.4677E-02  0.1172E+00
     25.445  0.8617E-02  0.1185E+00
     25.589  0.2627E-02  0.1188E+00
     25.733  0.1871E-02  0.1191E+00
     25.877  0.1344E-01  0.1210E+00
     26.021  0.8353E-02  0.1223E+00
     26.165  0.2614E-02  0.1226E+00
     26.310  0.4331E-02  0.1233E+00
     26.454  0.1046E-02  0.1234E+00
     26.598  0.1543E-02  0.1236E+00
     26.742  0.5707E-02  0.1245E+00
     26.886  0.1374E-01  0.1264E+00
     27.030  0.7977E-02  0.1276E+00
     27.175  0.5688E-02  0.1284E+00
     27.319  0.7035E-02  0.1294E+00
     27.463  0.6779E-02  0.1304E+00
     27.607  0.2579E-02  0.1308E+00
     27.751  0.8922E-02  0.1321E+00
     27.895  0.8226E-02  0.1332E+00
     28.039  0.6291E-02  0.1341E+00
     28.184  0.7167E-02  0.1352E+00
     28.328  0.6040E-02  0.1360E+00
     28.472  0.6038E-02  0.1369E+00
     28.616  0.9348E-02  0.1383E+00
     28.760  0.4320E-02  0.1389E+00
     28.904  0.3223E-02  0.1394E+00
     29.049  0.1186E-03  0.1394E+00
     29.193  0.8830E-02  0.1406E+00
     29.337  0.1237E-02  0.1408E+00
     29.481  0.4938E-02  0.1415E+00
     29.625  0.6657E-02  0.1425E+00
     29.769  0.2756E-02  0.1429E+00
     29.914  0.9533E-02  0.1443E+00
     30.058  0.1794E-01  0.1469E+00
     30.202  0.1064E-01  0.1484E+00
     30.346  0.2191E-02  0.1487E+00
     30.490  0.5791E-02  0.1495E+00
     30.634  0.3506E-02  0.1500E+00
     30.779  0.1204E-01  0.1518E+00
     30.923  0.3039E-02  0.1522E+00
     31.067  0.6730E-02  0.1532E+00
     31.211  0.2629E-02  0.1536E+00
     31.355  0.3467E-02  0.1541E+00
     31.499  0.6463E-02  0.1550E+00
     31.644  0.7869E-02  0.1561E+00
     31.788  0.4985E-02  0.1569E+00
     31.932  0.2450E-02  0.1572E+00
     32.076  0.2893E-02  0.1576E+00
     32.220  0.1789E-02  0.1579E+00
     32.364  0.3451E-02  0.1584E+00
     32.509  0.4117E-05  0.1584E+00
     32.653  0.1217E-08  0.1584E+00
     32.797  0.7991E-03  0.1585E+00
     32.941  0.5297E-02  0.1593E+00
     33.085  0.1555E-02  0.1595E+00
     33.229  0.6872E-03  0.1596E+00
     33.374  0.6957E-06  0.1596E+00
     33.518  0.2157E-15  0.1596E+00
     33.662  0.4785E-07  0.1596E+00
     33.806  0.4896E-03  0.1596E+00
     33.950  0.3441E-03  0.1597E+00
     34.094  0.7181E-08  0.1597E+00
     34.239  0.0000E+00  0.1597E+00
     34.383  0.0000E+00  0.1597E+00
     34.527  0.2744E-09  0.1597E+00
     34.671  0.1254E-03  0.1597E+00
     34.815  0.4996E-03  0.1598E+00
     34.959  0.3277E-03  0.1598E+00
     35.104  0.3556E-03  0.1599E+00
     35.248  0.7723E-03  0.1600E+00
     35.392  0.3946E-05  0.1600E+00
     35.536  0.1049E-13  0.1600E+00
     35.680  0.0000E+00  0.1600E+00
     35.824  0.0000E+00  0.1600E+00
     35.969  0.0000E+00  0.1600E+00
     36.113  0.0000E+00  0.1600E+00
     36.257  0.0000E+00  0.1600E+00
     36.401  0.0000E+00  0.1600E+00
     36.545  0.0000E+00  0.1600E+00
     36.689  0.0000E+00  0.1600E+00
     36.834  0.0000E+00  0.1600E+00
     36.978  0.0000E+00  0.1600E+00
     37.122  0.0000E+00  0.1600E+00
