    1    1  100    1
  0.1407198E+02  0.2634263E-09  0.2634263E-09  0.2634263E-09  0.5000000E-15
  1.000000000000000E-004
  CAR 
 unknown system                          
      4     56      8
 
  0.0000000E+00  0.0000000E+00  0.0000000E+00  0.7513148E-03
    1       -4.161694   1.000000
    2       22.314159   0.000000
    3       22.314160   0.000000
    4       22.314160   0.000000
    5       23.152298   0.000000
    6       23.152298   0.000000
    7       23.152298   0.000000
    8       26.918175   0.000000
 
  0.9090909E-01  0.0000000E+00  0.0000000E+00  0.9015778E-02
    1       -3.901942   1.000000
    2       19.590090   0.000000
    3       20.506304   0.000000
    4       21.923512   0.000000
    5       22.352364   0.000000
    6       24.180968   0.000000
    7       25.386677   0.000000
    8       25.741994   0.000000
 
  0.1818182E+00  0.0000000E+00  0.0000000E+00  0.9015778E-02
    1       -3.124594   1.000000
    2       15.694511   0.000000
    3       18.777079   0.000000
    4       20.877733   0.000000
    5       20.988112   0.000000
    6       23.106164   0.000000
    7       26.591820   0.000000
    8       26.923079   0.000000
 
  0.2727273E+00  0.0000000E+00  0.0000000E+00  0.9015778E-02
    1       -1.835496   1.000000
    2       11.792404   0.000000
    3       17.476108   0.000000
    4       19.549875   0.000000
    5       19.991056   0.000000
    6       21.900740   0.000000
    7       27.780980   0.000000
    8       28.091515   0.000000
 
  0.3636364E+00  0.0000000E+00  0.0000000E+00  0.9015778E-02
    1       -0.044379   1.000000
    2        8.191835   1.000000
    3       16.609859   0.000000
    4       18.610286   0.000000
    5       19.234719   0.000000
    6       21.044235   0.000000
    7       29.140427   0.000000
    8       29.844283   0.000000
 
  0.4545455E+00  0.0000000E+00  0.0000000E+00  0.9015778E-02
    1        2.232822   1.000000
    2        4.997024   1.000000
    3       16.177156   0.000000
    4       18.124877   0.000000
    5       18.836772   0.000000
    6       20.599982   0.000000
    7       30.696180   0.000000
    8       31.488507   0.000000
 
  0.9090909E-01  0.9090909E-01  0.0000000E+00  0.1803156E-01
    1       -3.383380   1.000000
    2       17.569075   0.000000
    3       18.025891   0.000000
    4       20.132806   0.000000
    5       22.860917   0.000000
    6       24.226240   0.000000
    7       25.408542   0.000000
    8       26.645043   0.000000
 
  0.1818182E+00  0.9090909E-01  0.1387779E-16  0.3606311E-01
    1       -2.350155   1.000000
    2       13.877110   0.000000
    3       16.263624   0.000000
    4       18.757147   0.000000
    5       22.161186   0.000000
    6       23.691505   0.000000
    7       25.992487   0.000000
    8       28.499259   0.000000
 
  0.2727273E+00  0.9090909E-01 -0.2775558E-16  0.3606311E-01
    1       -0.809963   1.000000
    2       10.124403   1.000000
    3       15.123073   0.000000
    4       17.690332   0.000000
    5       21.213134   0.000000
    6       23.206827   0.000000
    7       26.898380   0.000000
    8       30.405704   0.000000
 
  0.3636364E+00  0.9090909E-01 -0.2775558E-16  0.3606311E-01
    1        1.225190   1.000000
    2        6.723848   1.000000
    3       14.435235   0.000000
    4       17.028308   0.000000
    5       20.576428   0.000000
    6       22.768637   0.000000
    7       28.455701   0.000000
    8       31.528621   0.000000
 
  0.4545455E+00  0.9090909E-01  0.2775558E-16  0.1803156E-01
    1        3.621764   1.000000
    2        3.868103   1.000000
    3       14.205493   0.000000
    4       16.805096   0.000000
    5       20.357767   0.000000
    6       22.602387   0.000000
    7       30.151231   0.000000
    8       30.582249   0.000000
 
  0.1818182E+00  0.1818182E+00  0.0000000E+00  0.1803156E-01
    1       -1.065795   1.000000
    2       12.365975   0.000000
    3       12.607332   0.000000
    4       17.513398   0.000000
    5       22.830904   0.000000
    6       23.631793   0.000000
    7       27.722948   0.000000
    8       28.792048   0.000000
 
  0.2727273E+00  0.1818182E+00 -0.1387779E-16  0.3606311E-01
    1        0.718883   1.000000
    2        8.916031   1.000000
    3       11.542786   0.000000
    4       16.651573   0.000000
    5       22.425412   0.000000
    6       24.506909   0.000000
    7       27.885803   0.000000
    8       30.662608   0.000000
 
  0.3636364E+00  0.1818182E+00  0.4163336E-16  0.3606311E-01
    1        2.988245   1.000000
    2        5.738819   1.000000
    3       11.064245   0.000000
    4       16.209942   0.000000
    5       22.040034   0.000000
    6       25.429787   0.000000
    7       28.218853   0.000000
    8       30.148156   0.000000
 
  0.2727273E+00  0.2727273E+00  0.0000000E+00  0.1803156E-01
    1        2.739018   1.000000
    2        8.107506   1.000000
    3        8.272518   1.000000
    4       16.007812   0.000000
    5       23.789998   0.000000
    6       24.554893   0.000000
    7       28.562048   0.000000
    8       30.991432   0.000000
 
  0.3636364E+00  0.2727273E+00  0.5551115E-16  0.1803156E-01
    1        5.134053   1.000000
    2        5.340211   1.000000
    3        7.949461   1.000000
    4       15.788289   0.000000
    5       23.899546   0.000000
    6       25.900015   0.000000
    7       26.876539   0.000000
    8       31.847549   0.000000
 
  0.9090909E-01  0.9090909E-01  0.9090909E-01  0.6010518E-02
    1       -2.607989   1.000000
    2       15.708055   0.000000
    3       16.425041   0.000000
    4       16.425041   0.000000
    5       24.904720   0.000000
    6       24.904720   0.000000
    7       26.757222   0.000000
    8       26.757222   0.000000
 
  0.1818182E+00  0.9090909E-01  0.9090909E-01  0.1803156E-01
    1       -1.322052   1.000000
    2       12.261048   0.000000
    3       14.620460   0.000000
    4       15.078368   0.000000
    5       24.674391   0.000000
    6       25.139622   0.000000
    7       27.990717   0.000000
    8       28.153208   0.000000
 
  0.2727273E+00  0.9090909E-01  0.9090909E-01  0.1803156E-01
    1        0.464936   1.000000
    2        8.680784   1.000000
    3       13.693837   0.000000
    4       14.147330   0.000000
    5       24.228887   0.000000
    6       24.541778   0.000000
    7       29.548895   0.000000
    8       29.996159   0.000000
 
  0.3636364E+00  0.9090909E-01  0.9090909E-01  0.1803156E-01
    1        2.737362   1.000000
    2        5.493695   1.000000
    3       13.232283   0.000000
    4       13.674027   0.000000
    5       23.931257   0.000000
    6       24.184161   0.000000
    7       31.012478   0.000000
    8       31.720014   0.000000
 
 -0.9090909E-01  0.9090909E-01  0.9090909E-01  0.4507889E-02
    1       -3.642477   1.000000
    2       19.035223   0.000000
    3       19.035223   0.000000
    4       20.529400   0.000000
    5       23.138714   0.000000
    6       23.652931   0.000000
    7       25.174910   0.000000
    8       25.174911   0.000000
 
  0.1818182E+00  0.1818182E+00  0.9090909E-01  0.1803156E-01
    1        0.210810   1.000000
    2       10.973005   0.000000
    3       11.207370   0.000000
    4       13.721942   0.000000
    5       25.793706   0.000000
    6       26.635282   0.000000
    7       28.757309   0.000000
    8       29.591453   0.000000
 
  0.2727273E+00  0.1818182E+00  0.9090909E-01  0.3606311E-01
    1        2.236638   1.000000
    2        7.706535   1.000000
    3       10.376732   0.789307
    4       13.019873   0.000000
    5       25.859843   0.000000
    6       27.224885   0.000000
    7       29.838596   0.000000
    8       31.365425   0.000000
 
  0.3636364E+00  0.1818182E+00  0.9090909E-01  0.1803156E-01
    1        4.634379   1.000000
    2        4.853567   1.000000
    3       10.135124   1.000000
    4       12.785245   0.000000
    5       25.758151   0.000000
    6       27.432197   0.000000
    7       30.745924   0.000000
    8       31.607666   0.000000
 
 -0.1818182E+00  0.1818182E+00  0.9090909E-01  0.1803156E-01
    1       -2.866065   1.000000
    2       15.822913   0.000000
    3       17.306762   0.000000
    4       19.659571   0.000000
    5       21.888221   0.000000
    6       22.752452   0.000000
    7       25.413931   0.000000
    8       27.656441   0.000000
 
  0.2727273E+00  0.2727273E+00  0.9090909E-01  0.1803156E-01
    1        4.489509   1.000000
    2        7.135451   1.000000
    3        7.308183   1.000000
    4       12.551589   0.000000
    5       27.177602   0.000000
    6       28.327692   0.000000
    7       30.026058   0.000000
    8       32.260354   0.000000
 
 -0.2727273E+00  0.2727273E+00  0.9090909E-01  0.1803156E-01
    1       -1.578577   1.000000
    2       12.007407   0.000000
    3       15.966654   0.000000
    4       18.605863   0.000000
    5       21.511951   0.000000
    6       22.035081   0.000000
    7       25.179832   0.000000
    8       30.880123   0.000000
 
 -0.1818182E+00  0.2727273E+00  0.9090909E-01  0.1803156E-01
    1       -1.835369   1.000000
    2       14.126319   0.000000
    3       14.336605   0.000000
    4       19.171932   0.000000
    5       20.695990   0.000000
    6       22.396081   0.000000
    7       27.122824   0.000000
    8       28.014839   0.000000
 
 -0.3636364E+00  0.3636364E+00  0.9090909E-01  0.1803156E-01
    1        0.210272   1.000000
    2        8.428933   1.000000
    3       15.064354   0.000000
    4       17.752490   0.000000
    5       20.618833   0.000000
    6       22.168159   0.000000
    7       25.775776   0.000000
    8       31.219231   0.000000
 
 -0.2727273E+00  0.3636364E+00  0.9090909E-01  0.3606311E-01
    1       -0.299016   1.000000
    2       10.576366   0.000001
    3       13.072150   0.000000
    4       18.546838   0.000000
    5       20.796289   0.000000
    6       21.951304   0.000000
    7       26.816562   0.000000
    8       30.036566   0.000000
 
 -0.4545455E+00  0.4545455E+00  0.9090909E-01  0.1803156E-01
    1        2.484578   1.000000
    2        5.242963   1.000000
    3       14.611141   0.000000
    4       17.306262   0.000000
    5       20.161294   0.000000
    6       22.082310   0.000000
    7       27.330734   0.000000
    8       29.502857   0.000000
 
 -0.3636364E+00  0.4545455E+00  0.9090909E-01  0.3606311E-01
    1        1.730754   1.000000
    2        7.206740   1.000000
    3       12.366162   0.000000
    4       17.952329   0.000000
    5       20.466538   0.000000
    6       22.979727   0.000000
    7       26.270147   0.000000
    8       29.131556   0.000000
 
 -0.2727273E+00  0.4545455E+00  0.9090909E-01  0.1803156E-01
    1        1.478533   1.000000
    2        9.538781   1.000000
    3        9.694492   1.000000
    4       18.845535   0.000000
    5       20.905006   0.000000
    6       21.456965   0.000000
    7       27.451183   0.000000
    8       29.982607   0.000000
 
 -0.4545455E+00 -0.4545455E+00  0.9090909E-01  0.1803156E-01
    1        4.128638   1.000000
    2        4.355400   1.000000
    3       12.130448   0.000000
    4       17.740673   0.000000
    5       20.280180   0.000000
    6       23.819162   0.000000
    7       26.032405   0.000000
    8       28.120772   0.000000
 
 -0.3636364E+00 -0.4545455E+00  0.9090909E-01  0.3606311E-01
    1        3.738067   1.000000
    2        6.469443   1.000000
    3        9.135827   1.000000
    4       18.661699   0.000000
    5       20.820896   0.000000
    6       22.788160   0.000000
    7       25.118407   0.000000
    8       30.722919   0.000000
 
 -0.3636364E+00 -0.3636364E+00  0.9090909E-01  0.6010518E-02
    1        6.046815   1.000000
    2        6.308630   1.000000
    3        6.308630   1.000000
    4       18.728767   0.000000
    5       22.471461   0.000000
    6       22.759643   0.000000
    7       22.759643   0.000000
    8       33.798286   0.000000
 
  0.1818182E+00  0.1818182E+00  0.1818182E+00  0.6010518E-02
    1        1.985041   1.000000
    2        9.934370   1.000000
    3       10.252724   0.999992
    4       10.252724   0.999992
    5       28.505816   0.000000
    6       28.505816   0.000000
    7       30.352791   0.000000
    8       30.352791   0.000000
 
  0.2727273E+00  0.1818182E+00  0.1818182E+00  0.1803156E-01
    1        4.242046   1.000000
    2        6.974226   1.000000
    3        9.569047   1.000000
    4        9.771940   1.000000
    5       29.117929   0.000000
    6       29.381617   0.000000
    7       31.667603   0.000000
    8       32.027475   0.000000
 
 -0.1818182E+00  0.1818182E+00  0.1818182E+00  0.4507889E-02
    1       -2.092513   1.000000
    2       15.548058   0.000000
    3       15.548058   0.000000
    4       17.648579   0.000000
    5       19.058453   0.000000
    6       25.169141   0.000000
    7       26.922620   0.000000
    8       26.922621   0.000000
 
  0.2727273E+00  0.2727273E+00  0.1818182E+00  0.6010518E-02
    1        6.538978   1.000000
    2        6.823155   1.000000
    3        6.823155   1.000000
    4        9.434002   1.000000
    5       30.302410   0.000000
    6       31.420955   0.000000
    7       31.420955   0.000000
    8       33.118280   0.000000
 
 -0.2727273E+00  0.2727273E+00  0.1818182E+00  0.1803156E-01
    1       -0.809739   1.000000
    2       12.596024   0.000000
    3       14.184989   0.000000
    4       16.792102   0.000000
    5       18.618020   0.000000
    6       24.626534   0.000000
    7       26.868807   0.000000
    8       29.663318   0.000000
 
 -0.3636364E+00  0.3636364E+00  0.1818182E+00  0.1803156E-01
    1        0.972166   1.000000
    2        9.129887   1.000000
    3       13.267804   0.000000
    4       15.937044   0.000000
    5       19.876458   0.000000
    6       23.803674   0.000000
    7       25.768513   0.000000
    8       28.674862   0.000000
 
 -0.2727273E+00  0.3636364E+00  0.1818182E+00  0.1803156E-01
    1        0.718665   1.000000
    2       11.352394   0.000000
    3       11.483120   0.000000
    4       16.889701   0.000000
    5       17.729299   0.000000
    6       24.420222   0.000000
    7       26.800945   0.000000
    8       29.364536   0.000000
 
 -0.4545455E+00  0.4545455E+00  0.1818182E+00  0.1803156E-01
    1        3.237007   1.000000
    2        5.976575   1.000000
    3       12.807768   0.000000
    4       15.471028   0.000000
    5       21.514119   0.000000
    6       23.367453   0.000000
    7       24.230724   0.000000
    8       27.745926   0.000000
 
 -0.3636364E+00  0.4545455E+00  0.1818182E+00  0.3606311E-01
    1        2.737036   1.000000
    2        8.156892   1.000000
    3       10.706546   0.000000
    4       16.532385   0.000000
    5       19.021923   0.000000
    6       23.397789   0.000000
    7       24.693533   0.000000
    8       29.930371   0.000000
 
 -0.4545455E+00 -0.4545455E+00  0.1818182E+00  0.1803156E-01
    1        5.132671   1.000000
    2        5.325608   1.000000
    3       10.467410   0.039141
    4       16.317511   0.000000
    5       20.604941   0.000000
    6       21.819935   0.000000
    7       24.108876   0.000000
    8       29.899669   0.000000
 
 -0.3636364E+00 -0.4545455E+00  0.1818182E+00  0.1803156E-01
    1        4.976672   1.000000
    2        7.601636   1.000000
    3        7.741535   1.000000
    4       17.996413   0.000000
    5       18.971977   0.000000
    6       21.107499   0.000000
    7       24.061080   0.000000
    8       32.827182   0.000000
 
 -0.2727273E+00  0.2727273E+00  0.2727273E+00  0.4507889E-02
    1        0.464797   1.000000
    2       12.809107   0.000000
    3       12.809107   0.000000
    4       15.095841   0.000000
    5       15.934652   0.000000
    6       26.443691   0.000000
    7       27.664440   0.000000
    8       29.156807   0.000000
 
 -0.3636364E+00  0.3636364E+00  0.2727273E+00  0.1803156E-01
    1        2.234252   1.000000
    2       10.224311   1.000000
    3       11.884155   0.000000
    4       14.472815   0.000000
    5       16.209042   0.000000
    6       23.463040   0.000000
    7       27.450791   0.000000
    8       29.961283   0.000000
 
 -0.4545455E+00  0.4545455E+00  0.2727273E+00  0.1803156E-01
    1        4.480435   1.000000
    2        7.180513   1.000000
    3       11.420940   0.000000
    4       14.015151   0.000000
    5       18.088918   0.000000
    6       20.675172   0.000000
    7       27.051998   0.000000
    8       30.074281   0.000000
 
 -0.3636364E+00  0.4545455E+00  0.2727273E+00  0.1803156E-01
    1        4.232495   1.000000
    2        9.453987   1.000000
    3        9.559722   1.000000
    4       15.140491   0.000000
    5       15.715529   0.000000
    6       20.423311   0.000000
    7       27.813950   0.000000
    8       32.221131   0.000000
 
 -0.4545455E+00 -0.4545455E+00  0.2727273E+00  0.1803156E-01
    1        6.609092   1.000000
    2        6.763167   1.000000
    3        9.268650   1.000000
    4       15.135574   0.000000
    5       17.412562   0.000000
    6       17.990135   0.000000
    7       27.696755   0.000000
    8       32.837883   0.000000
 
 -0.3636364E+00  0.3636364E+00  0.3636364E+00  0.4507889E-02
    1        3.983508   1.000000
    2       10.956470   0.000000
    3       10.956470   0.000000
    4       13.253760   0.000000
    5       13.837216   0.000000
    6       20.194827   0.000000
    7       31.035283   0.000000
    8       32.017168   0.000000
 
 -0.4545455E+00  0.4545455E+00  0.3636364E+00  0.1803156E-01
    1        6.192719   1.000000
    2        8.784103   1.000000
    3       10.491592   0.007248
    4       13.005544   0.000000
    5       14.738730   0.000000
    6       17.239929   0.000000
    7       31.068488   0.000000
    8       32.946506   0.000000
 
 -0.4545455E+00 -0.4545455E+00  0.3636364E+00  0.6010518E-02
    1        8.437556   1.000000
    2        8.594440   1.000000
    3        8.594440   1.000000
    4       14.042545   0.000000
    5       14.703911   0.000000
    6       14.703911   0.000000
    7       31.619791   0.000000
    8       35.155990   0.000000
 
 -0.4545455E+00  0.4545455E+00  0.4545455E+00  0.4507889E-02
    1        8.298387   1.000000
    2       10.025844   1.000000
    3       10.025844   1.000000
    4       12.270467   0.000000
    5       12.782157   0.000000
    6       14.286925   0.000000
    7       34.700760   0.000000
    8       34.957321   0.000000
