       N       E                     dE             d eps       ncg     rms          rms(c)
DAV:   1    -0.357461968123E+01   -0.35746E+01   -0.13751E+03   976   0.265E+02
DAV:   2    -0.488989245735E+01   -0.13153E+01   -0.12497E+01  1336   0.222E+01
DAV:   3    -0.489516084127E+01   -0.52684E-02   -0.52682E-02   992   0.144E+00
DAV:   4    -0.489516499529E+01   -0.41540E-05   -0.41529E-05  1448   0.395E-02
DAV:   5    -0.489516499506E+01    0.23635E-09   -0.52729E-09   992   0.293E-04    0.278E+00
DAV:   6    -0.488351659429E+01    0.11648E-01   -0.37468E-03   944   0.271E-01    0.154E+00
DAV:   7    -0.487688111043E+01    0.66355E-02   -0.74740E-03   976   0.382E-01    0.135E-01
DAV:   8    -0.487685894685E+01    0.22164E-04   -0.33088E-05  1288   0.428E-02    0.113E-02
DAV:   9    -0.487685948349E+01   -0.53664E-06   -0.39681E-07   992   0.357E-03
   1 F= -.48768595E+01 E0= -.48764245E+01  d E =-.487686E+01
