<?xml version="1.0" encoding="ISO-8859-1"?>
<modeling>
 <generator>
  <i name="program" type="string">vasp </i>
  <i name="version" type="string">6.2.0  </i>
  <i name="subversion" type="string">18Jan21 (build Aug 12 2022 13:00:08) complex                          parallel </i>
  <i name="platform" type="string">LinuxIFC </i>
  <i name="date" type="string">2024 11 05 </i>
  <i name="time" type="string">05:29:03 </i>
 </generator>
 <incar>
  <i type="int" name="ISTART">     0</i>
  <i type="string" name="PREC">Accurate      (Accurate strictly avoids</i>
  <i type="logical" name="ADDGRID"> T  </i>
  <i type="int" name="ISPIN">     1</i>
  <i type="int" name="NELM">    90</i>
  <i type="int" name="NELMIN">     6</i>
  <i type="int" name="IBRION">     2</i>
  <i name="EDIFF">      0.00000100</i>
  <i name="EDIFFG">     -0.00200000</i>
  <i type="int" name="NSW">   100</i>
  <i type="int" name="ISIF">     2</i>
  <i type="int" name="ISYM">     2</i>
  <i name="ENCUT">    350.00000000</i>
  <i type="logical" name="LREAL"> F  </i>
  <i type="int" name="ISMEAR">     0</i>
  <i name="SIGMA">      0.05000000</i>
  <i type="logical" name="LWAVE"> F  </i>
  <i type="logical" name="LCHARG"> F  </i>
  <i type="logical" name="LASPH"> T  </i>
 </incar>
 <primitive_cell>
  <structure name="primitive_cell" >
   <crystal>
    <varray name="basis" >
     <v>       1.52089226       1.52089226       1.52089226 </v>
     <v>       1.52089226      -1.52089226      -1.52089226 </v>
     <v>      -1.52089226       1.52089226      -1.52089226 </v>
    </varray>
    <i name="volume">     14.07198420 </i>
    <varray name="rec_basis" >
     <v>       0.32875439       0.32875439       0.00000000 </v>
     <v>       0.32875439       0.00000000      -0.32875439 </v>
     <v>       0.00000000       0.32875439      -0.32875439 </v>
    </varray>
   </crystal>
   <varray name="positions" >
    <v>       0.00000000       0.00000000       0.00000000 </v>
   </varray>
  </structure>
  <varray name="primitive_index" >
   <v type="int" >        1 </v>
  </varray>
 </primitive_cell>
 <kpoints>
  <generation param="Monkhorst-Pack">
   <v type="int" name="divisions">      11       11       11 </v>
   <v name="usershift">      0.00000000       0.00000000       0.00000000 </v>
   <v name="genvec1">      0.09090909       0.00000000       0.00000000 </v>
   <v name="genvec2">      0.00000000       0.09090909       0.00000000 </v>
   <v name="genvec3">      0.00000000       0.00000000       0.09090909 </v>
   <v name="shift">      0.00000000       0.00000000       0.00000000 </v>
  </generation>
  <varray name="kpointlist" >
   <v>       0.00000000       0.00000000       0.00000000 </v>
   <v>       0.09090909       0.00000000       0.00000000 </v>
   <v>       0.18181818       0.00000000       0.00000000 </v>
   <v>       0.27272727       0.00000000       0.00000000 </v>
   <v>       0.36363636       0.00000000       0.00000000 </v>
   <v>       0.45454545       0.00000000       0.00000000 </v>
   <v>       0.09090909       0.09090909       0.00000000 </v>
   <v>       0.18181818       0.09090909       0.00000000 </v>
   <v>       0.27272727       0.09090909      -0.00000000 </v>
   <v>       0.36363636       0.09090909      -0.00000000 </v>
   <v>       0.45454545       0.09090909       0.00000000 </v>
   <v>       0.18181818       0.18181818       0.00000000 </v>
   <v>       0.27272727       0.18181818      -0.00000000 </v>
   <v>       0.36363636       0.18181818       0.00000000 </v>
   <v>       0.27272727       0.27272727       0.00000000 </v>
   <v>       0.36363636       0.27272727       0.00000000 </v>
   <v>       0.09090909       0.09090909       0.09090909 </v>
   <v>       0.18181818       0.09090909       0.09090909 </v>
   <v>       0.27272727       0.09090909       0.09090909 </v>
   <v>       0.36363636       0.09090909       0.09090909 </v>
   <v>      -0.09090909       0.09090909       0.09090909 </v>
   <v>       0.18181818       0.18181818       0.09090909 </v>
   <v>       0.27272727       0.18181818       0.09090909 </v>
   <v>       0.36363636       0.18181818       0.09090909 </v>
   <v>      -0.18181818       0.18181818       0.09090909 </v>
   <v>       0.27272727       0.27272727       0.09090909 </v>
   <v>      -0.27272727       0.27272727       0.09090909 </v>
   <v>      -0.18181818       0.27272727       0.09090909 </v>
   <v>      -0.36363636       0.36363636       0.09090909 </v>
   <v>      -0.27272727       0.36363636       0.09090909 </v>
   <v>      -0.45454545       0.45454545       0.09090909 </v>
   <v>      -0.36363636       0.45454545       0.09090909 </v>
   <v>      -0.27272727       0.45454545       0.09090909 </v>
   <v>      -0.45454545      -0.45454545       0.09090909 </v>
   <v>      -0.36363636      -0.45454545       0.09090909 </v>
   <v>      -0.36363636      -0.36363636       0.09090909 </v>
   <v>       0.18181818       0.18181818       0.18181818 </v>
   <v>       0.27272727       0.18181818       0.18181818 </v>
   <v>      -0.18181818       0.18181818       0.18181818 </v>
   <v>       0.27272727       0.27272727       0.18181818 </v>
   <v>      -0.27272727       0.27272727       0.18181818 </v>
   <v>      -0.36363636       0.36363636       0.18181818 </v>
   <v>      -0.27272727       0.36363636       0.18181818 </v>
   <v>      -0.45454545       0.45454545       0.18181818 </v>
   <v>      -0.36363636       0.45454545       0.18181818 </v>
   <v>      -0.45454545      -0.45454545       0.18181818 </v>
   <v>      -0.36363636      -0.45454545       0.18181818 </v>
   <v>      -0.27272727       0.27272727       0.27272727 </v>
   <v>      -0.36363636       0.36363636       0.27272727 </v>
   <v>      -0.45454545       0.45454545       0.27272727 </v>
   <v>      -0.36363636       0.45454545       0.27272727 </v>
   <v>      -0.45454545      -0.45454545       0.27272727 </v>
   <v>      -0.36363636       0.36363636       0.36363636 </v>
   <v>      -0.45454545       0.45454545       0.36363636 </v>
   <v>      -0.45454545      -0.45454545       0.36363636 </v>
   <v>      -0.45454545       0.45454545       0.45454545 </v>
  </varray>
  <varray name="weights" >
   <v>       0.00075131 </v>
   <v>       0.00901578 </v>
   <v>       0.00901578 </v>
   <v>       0.00901578 </v>
   <v>       0.00901578 </v>
   <v>       0.00901578 </v>
   <v>       0.01803156 </v>
   <v>       0.03606311 </v>
   <v>       0.03606311 </v>
   <v>       0.03606311 </v>
   <v>       0.01803156 </v>
   <v>       0.01803156 </v>
   <v>       0.03606311 </v>
   <v>       0.03606311 </v>
   <v>       0.01803156 </v>
   <v>       0.01803156 </v>
   <v>       0.00601052 </v>
   <v>       0.01803156 </v>
   <v>       0.01803156 </v>
   <v>       0.01803156 </v>
   <v>       0.00450789 </v>
   <v>       0.01803156 </v>
   <v>       0.03606311 </v>
   <v>       0.01803156 </v>
   <v>       0.01803156 </v>
   <v>       0.01803156 </v>
   <v>       0.01803156 </v>
   <v>       0.01803156 </v>
   <v>       0.01803156 </v>
   <v>       0.03606311 </v>
   <v>       0.01803156 </v>
   <v>       0.03606311 </v>
   <v>       0.01803156 </v>
   <v>       0.01803156 </v>
   <v>       0.03606311 </v>
   <v>       0.00601052 </v>
   <v>       0.00601052 </v>
   <v>       0.01803156 </v>
   <v>       0.00450789 </v>
   <v>       0.00601052 </v>
   <v>       0.01803156 </v>
   <v>       0.01803156 </v>
   <v>       0.01803156 </v>
   <v>       0.01803156 </v>
   <v>       0.03606311 </v>
   <v>       0.01803156 </v>
   <v>       0.01803156 </v>
   <v>       0.00450789 </v>
   <v>       0.01803156 </v>
   <v>       0.01803156 </v>
   <v>       0.01803156 </v>
   <v>       0.01803156 </v>
   <v>       0.00450789 </v>
   <v>       0.01803156 </v>
   <v>       0.00601052 </v>
   <v>       0.00450789 </v>
  </varray>
 </kpoints>
 <parameters>
  <separator name="general" >
   <i type="string" name="SYSTEM">unknown system</i>
   <i type="logical" name="LCOMPAT"> F  </i>
  </separator>
  <separator name="electronic" >
   <i type="string" name="PREC">accura</i>
   <i name="ENMAX">    350.00000000</i>
   <i name="ENAUG">    322.06900000</i>
   <i name="EDIFF">      0.00000100</i>
   <i type="int" name="IALGO">    38</i>
   <i type="int" name="IWAVPR">    11</i>
   <i type="int" name="NBANDS">     8</i>
   <i type="int" name="NBANDSLOW">    -1</i>
   <i type="int" name="NBANDSHIGH">    -1</i>
   <i name="NELECT">      4.00000000</i>
   <i type="int" name="TURBO">     0</i>
   <i type="int" name="IRESTART">     0</i>
   <i type="int" name="NREBOOT">     0</i>
   <i type="int" name="NMIN">     0</i>
   <i name="EREF">      0.00000000</i>
   <separator name="electronic smearing" >
    <i type="int" name="ISMEAR">     0</i>
    <i name="SIGMA">      0.05000000</i>
    <i name="KSPACING">      0.50000000</i>
    <i type="logical" name="KGAMMA"> T  </i>
    <i type="logical" name="KBLOWUP"> T  </i>
   </separator>
   <separator name="electronic projectors" >
    <i type="logical" name="LREAL"> F  </i>
    <v name="ROPT">      0.00000000</v>
    <i type="int" name="LMAXPAW">  -100</i>
    <i type="int" name="LMAXMIX">     2</i>
    <i type="logical" name="NLSPLINE"> F  </i>
   </separator>
   <separator name="electronic startup" >
    <i type="int" name="ISTART">     0</i>
    <i type="int" name="ICHARG">     2</i>
    <i type="int" name="INIWAV">     1</i>
   </separator>
   <separator name="electronic spin" >
    <i type="int" name="ISPIN">     1</i>
    <i type="logical" name="LNONCOLLINEAR"> F  </i>
    <v name="MAGMOM">      1.00000000</v>
    <i name="NUPDOWN">     -1.00000000</i>
    <i type="logical" name="LSORBIT"> F  </i>
    <v name="SAXIS">      0.00000000      0.00000000      1.00000000</v>
    <i type="logical" name="LSPIRAL"> F  </i>
    <v name="QSPIRAL">      0.00000000      0.00000000      0.00000000</v>
    <i type="logical" name="LZEROZ"> F  </i>
   </separator>
   <separator name="electronic exchange-correlation" >
    <i type="logical" name="LASPH"> T  </i>
    <i type="logical" name="LMETAGGA"> F  </i>
   </separator>
   <separator name="electronic convergence" >
    <i type="int" name="NELM">    90</i>
    <i type="int" name="NELMDL">    -5</i>
    <i type="int" name="NELMIN">     6</i>
    <i name="ENINI">    350.00000000</i>
    <separator name="electronic convergence detail" >
     <i type="logical" name="LDIAG"> T  </i>
     <i type="logical" name="LSUBROT"> F  </i>
     <i name="WEIMIN">      0.00100000</i>
     <i name="EBREAK">      0.00000003</i>
     <i name="DEPER">      0.30000000</i>
     <i type="int" name="NRMM">     4</i>
     <i name="TIME">      0.40000000</i>
    </separator>
   </separator>
   <separator name="electronic mixer" >
    <i name="AMIX">      0.40000000</i>
    <i name="BMIX">      1.00000000</i>
    <i name="AMIN">      0.10000000</i>
    <i name="AMIX_MAG">      1.60000000</i>
    <i name="BMIX_MAG">      1.00000000</i>
    <separator name="electronic mixer details" >
     <i type="int" name="IMIX">     4</i>
     <i type="logical" name="MIXFIRST"> F  </i>
     <i type="int" name="MAXMIX">   -45</i>
     <i name="WC">    100.00000000</i>
     <i type="int" name="INIMIX">     1</i>
     <i type="int" name="MIXPRE">     1</i>
     <i type="int" name="MREMOVE">     5</i>
    </separator>
   </separator>
   <separator name="electronic dipolcorrection" >
    <i type="logical" name="LDIPOL"> F  </i>
    <i type="logical" name="LMONO"> F  </i>
    <i type="int" name="IDIPOL">     0</i>
    <i name="EPSILON">      1.00000000</i>
    <v name="DIPOL">   -100.00000000   -100.00000000   -100.00000000</v>
    <i name="EFIELD">      0.00000000</i>
   </separator>
  </separator>
  <separator name="grids" >
   <i type="int" name="NGX">    16</i>
   <i type="int" name="NGY">    16</i>
   <i type="int" name="NGZ">    16</i>
   <i type="int" name="NGXF">    32</i>
   <i type="int" name="NGYF">    32</i>
   <i type="int" name="NGZF">    32</i>
   <i type="logical" name="ADDGRID"> T  </i>
  </separator>
  <separator name="ionic" >
   <i type="int" name="NSW">   100</i>
   <i type="int" name="IBRION">     2</i>
   <i type="int" name="MDALGO">     0</i>
   <i type="int" name="ISIF">     2</i>
   <i name="PSTRESS">      0.00000000</i>
   <i name="EDIFFG">     -0.00200000</i>
   <i type="int" name="NFREE">     1</i>
   <i name="POTIM">      0.50000000</i>
   <i name="SMASS">     -3.00000000</i>
   <i name="SCALEE">      1.00000000</i>
  </separator>
  <separator name="ionic md" >
   <i name="TEBEG">      0.00010000</i>
   <i name="TEEND">      0.00010000</i>
   <i type="int" name="NBLOCK">     1</i>
   <i type="int" name="KBLOCK">   100</i>
   <i type="int" name="NPACO">   256</i>
   <i name="APACO">     16.00000000</i>
  </separator>
  <separator name="symmetry" >
   <i type="int" name="ISYM">     2</i>
   <i name="SYMPREC">      0.00001000</i>
  </separator>
  <separator name="dos" >
   <i type="int" name="LORBIT">     0</i>
   <v name="RWIGS">     -1.00000000</v>
   <i type="int" name="NEDOS">   301</i>
   <i name="EMIN">     10.00000000</i>
   <i name="EMAX">    -10.00000000</i>
   <i name="EFERMI">      0.00000000</i>
  </separator>
  <separator name="writing" >
   <i type="int" name="NWRITE">     2</i>
   <i type="logical" name="LWAVE"> F  </i>
   <i type="logical" name="LDOWNSAMPLE"> F  </i>
   <i type="logical" name="LCHARG"> F  </i>
   <i type="logical" name="LPARD"> F  </i>
   <i type="logical" name="LVTOT"> F  </i>
   <i type="logical" name="LVHAR"> F  </i>
   <i type="logical" name="LELF"> F  </i>
   <i type="logical" name="LOPTICS"> F  </i>
   <v name="STM">      0.00000000      0.00000000      0.00000000      0.00000000      0.00000000      0.00000000      0.00000000</v>
  </separator>
  <separator name="performance" >
   <i type="int" name="NPAR">     4</i>
   <i type="int" name="NSIM">     4</i>
   <i type="int" name="NBLK">    -1</i>
   <i type="logical" name="LPLANE"> T  </i>
   <i type="logical" name="LSCALAPACK"> T  </i>
   <i type="logical" name="LSCAAWARE"> F  </i>
   <i type="logical" name="LSCALU"> F  </i>
   <i type="logical" name="LASYNC"> F  </i>
   <i type="logical" name="LORBITALREAL"> F  </i>
  </separator>
  <separator name="miscellaneous" >
   <i type="int" name="IDIOT">     3</i>
   <i type="int" name="PHON_NSTRUCT">    -1</i>
   <i type="logical" name="LMUSIC"> F  </i>
   <v name="POMASS">     28.08500000</v>
   <v name="DARWINR">      0.00000000</v>
   <v name="DARWINV">      1.00000000</v>
   <i type="logical" name="LCORR"> T  </i>
  </separator>
  <i type="logical" name="GGA_COMPAT"> T  </i>
  <i type="logical" name="LBERRY"> F  </i>
  <i type="int" name="ICORELEVEL">     0</i>
  <i type="logical" name="LDAU"> F  </i>
  <i type="int" name="I_CONSTRAINED_M">     0</i>
  <separator name="electronic exchange-correlation" >
   <i type="string" name="GGA">--</i>
   <i type="int" name="VOSKOWN">     0</i>
   <i type="logical" name="LHFCALC"> F  </i>
   <i type="string" name="PRECFOCK"></i>
   <i type="logical" name="LSYMGRAD"> F  </i>
   <i type="logical" name="LHFONE"> F  </i>
   <i type="logical" name="LRHFCALC"> F  </i>
   <i type="logical" name="LTHOMAS"> F  </i>
   <i type="logical" name="LMODELHF"> F  </i>
   <i type="logical" name="LFOCKACE"> F  </i>
   <i name="ENCUT4O">     -1.00000000</i>
   <i type="int" name="EXXOEP">     0</i>
   <i type="int" name="FOURORBIT">     0</i>
   <i name="AEXX">      0.00000000</i>
   <i name="HFALPHA">      0.00000000</i>
   <i name="MCALPHA">      0.00000000</i>
   <i name="ALDAX">      1.00000000</i>
   <i name="AGGAX">      1.00000000</i>
   <i name="ALDAC">      1.00000000</i>
   <i name="AGGAC">      1.00000000</i>
   <i type="int" name="NKREDX">     1</i>
   <i type="int" name="NKREDY">     1</i>
   <i type="int" name="NKREDZ">     1</i>
   <i type="logical" name="SHIFTRED"> F  </i>
   <i type="logical" name="ODDONLY"> F  </i>
   <i type="logical" name="EVENONLY"> F  </i>
   <i type="int" name="LMAXFOCK">     0</i>
   <i type="int" name="NMAXFOCKAE">     0</i>
   <i type="logical" name="LFOCKAEDFT"> F  </i>
   <i name="HFSCREEN">      0.00000000</i>
   <i name="HFSCREENC">      0.00000000</i>
   <i type="int" name="NBANDSGWLOW">     0</i>
  </separator>
  <separator name="vdW DFT" >
   <i type="logical" name="LUSE_VDW"> F  </i>
   <i name="Zab_VDW">     -0.84910000</i>
   <i name="PARAM1">      0.12340000</i>
   <i name="PARAM2">      1.00000000</i>
   <i name="PARAM3">      0.00000000</i>
  </separator>
  <separator name="model GW" >
   <i type="int" name="MODEL_GW">     0</i>
   <i name="MODEL_EPS0">      8.44319052</i>
   <i name="MODEL_ALPHA">      1.00000000</i>
  </separator>
  <separator name="linear response parameters" >
   <i type="logical" name="LEPSILON"> F  </i>
   <i type="logical" name="LRPA"> F  </i>
   <i type="logical" name="LNABLA"> F  </i>
   <i type="logical" name="LVEL"> F  </i>
   <i type="int" name="KINTER">     0</i>
   <i name="CSHIFT">      0.10000000</i>
   <i name="OMEGAMAX">     -1.00000000</i>
   <i name="DEG_THRESHOLD">      0.00200000</i>
   <i name="RTIME">     -0.10000000</i>
   <i name="WPLASMAI">      0.00000000</i>
   <v name="DFIELD">      0.00000000      0.00000000      0.00000000</v>
   <v name="WPLASMA">      0.00000000      0.00000000      0.00000000      0.00000000      0.00000000      0.00000000      0.00000000      0.00000000      0.00000000</v>
  </separator>
  <separator name="orbital magnetization" >
   <i type="logical" name="NUCIND"> F  </i>
   <v name="MAGPOS">      0.00000000      0.00000000      0.00000000</v>
   <i type="logical" name="LNICSALL"> T  </i>
   <i type="logical" name="ORBITALMAG"> F  </i>
   <i type="logical" name="LMAGBLOCH"> F  </i>
   <i type="logical" name="LCHIMAG"> F  </i>
   <i type="logical" name="LGAUGE"> T  </i>
   <i type="int" name="MAGATOM">     0</i>
   <v name="MAGDIPOL">      0.00000000      0.00000000      0.00000000</v>
   <v name="AVECCONST">      0.00000000      0.00000000      0.00000000</v>
  </separator>
  <separator name="response functions" >
   <i type="logical" name="LFINITE_TEMPERATURE"> F  </i>
   <i type="logical" name="LADDER"> F  </i>
   <i type="logical" name="LRPAFORCE"> F  </i>
   <i type="logical" name="LFXC"> F  </i>
   <i type="logical" name="LHARTREE"> T  </i>
   <i type="int" name="IBSE">     0</i>
   <v type="int" name="KPOINT">    -1     0     0     0</v>
   <i type="logical" name="LTCTC"> F  </i>
   <i type="logical" name="LTCTE"> F  </i>
   <i type="logical" name="LTETE"> F  </i>
   <i type="logical" name="LTRIPLET"> F  </i>
   <i type="logical" name="LFXCEPS"> F  </i>
   <i type="logical" name="LFXHEG"> F  </i>
   <i type="int" name="NATURALO">     2</i>
   <i type="logical" name="LHOLEGF"> F  </i>
   <i type="logical" name="L2ORDER"> F  </i>
   <i type="logical" name="LDMP1"> F  </i>
   <i type="logical" name="LMP2LT"> F  </i>
   <i type="logical" name="LSMP2LT"> F  </i>
   <i type="logical" name="LGWLF"> F  </i>
   <i name="ENCUTGW">     -2.00000000</i>
   <i name="ENCUTGWSOFT">     -2.00000000</i>
   <i name="ENCUTLF">     -1.00000000</i>
   <i type="logical" name="LESF_SPLINES"> F  </i>
   <i type="int" name="LMAXMP2">    -1</i>
   <i name="SCISSOR">      0.00000000</i>
   <i type="int" name="NOMEGA">     0</i>
   <i type="int" name="NOMEGAR">     0</i>
   <i type="int" name="NBANDSGW">    -1</i>
   <i type="int" name="NBANDSO">    -1</i>
   <i type="int" name="NBANDSV">    -1</i>
   <i type="int" name="NELM">    90</i>
   <i type="int" name="NELMHF">     1</i>
   <i type="int" name="DIM">     3</i>
   <i type="int" name="IESPILON">     4</i>
   <i type="int" name="ANTIRES">     0</i>
   <i name="OMEGAMAX">    -30.00000000</i>
   <i name="OMEGAMIN">    -30.00000000</i>
   <i name="OMEGATL">   -200.00000000</i>
   <i type="int" name="OMEGAGRID">     0</i>
   <i name="CSHIFT">     -0.10000000</i>
   <i type="logical" name="LSELFENERGY"> F  </i>
   <i type="logical" name="LSPECTRAL"> F  </i>
   <i type="logical" name="LSPECTRALGW"> F  </i>
   <i type="logical" name="LSINGLES"> F  </i>
   <i type="logical" name="LFERMIGW"> F  </i>
   <i type="logical" name="ODDONLYGW"> F  </i>
   <i type="logical" name="EVENONLYGW"> F  </i>
   <i type="int" name="NKREDLFX">     1</i>
   <i type="int" name="NKREDLFY">     1</i>
   <i type="int" name="NKREDLFZ">     1</i>
   <i type="int" name="MAXMEM">  2800</i>
   <i type="int" name="TELESCOPE">     0</i>
   <i type="int" name="NTAUPAR">    -1</i>
   <i type="int" name="NOMEGAPAR">    -1</i>
   <i name="DAMP_NEWTON">      0.80000001</i>
   <i name="LAMBDA">      1.00000000</i>
  </separator>
  <separator name="External order field" >
   <i name="OFIELD_KAPPA">      0.00000000</i>
   <v name="OFIELD_K">      0.00000000      0.00000000      0.00000000</v>
   <i name="OFIELD_Q6_NEAR">      0.00000000</i>
   <i name="OFIELD_Q6_FAR">      0.00000000</i>
   <i name="OFIELD_A">      0.00000000</i>
  </separator>
 </parameters>
 <atominfo>
  <atoms>       1 </atoms>
  <types>       1 </types>
  <array name="atoms" >
   <dimension dim="1">ion</dimension>
   <field type="string">element</field>
   <field type="int">atomtype</field>
   <set>
    <rc><c>Si</c><c>   1</c></rc>
   </set>
  </array>
  <array name="atomtypes" >
   <dimension dim="1">type</dimension>
   <field type="int">atomspertype</field>
   <field type="string">element</field>
   <field>mass</field>
   <field>valence</field>
   <field type="string">pseudopotential</field>
   <set>
    <rc><c>   1</c><c>Si</c><c>     28.08500000</c><c>      4.00000000</c><c>  PAW_PBE Si 05Jan2001                  </c></rc>
   </set>
  </array>
 </atominfo>
 <structure name="initialpos" >
  <crystal>
   <varray name="basis" >
    <v>       1.52089226       1.52089226       1.52089226 </v>
    <v>       1.52089226      -1.52089226      -1.52089226 </v>
    <v>      -1.52089226       1.52089226      -1.52089226 </v>
   </varray>
   <i name="volume">     14.07198420 </i>
   <varray name="rec_basis" >
    <v>       0.32875439       0.32875439       0.00000000 </v>
    <v>       0.32875439       0.00000000      -0.32875439 </v>
    <v>       0.00000000       0.32875439      -0.32875439 </v>
   </varray>
  </crystal>
  <varray name="positions" >
   <v>       0.00000000       0.00000000       0.00000000 </v>
  </varray>
 </structure>
 <calculation>
  <scstep>
   <time name="dav">    0.16    0.16</time>
   <time name="total">    0.34    0.34</time>
   <energy>
    <i name="alphaZ">      2.39220925 </i>
    <i name="ewald">   -137.82485074 </i>
    <i name="hartreedc">     -0.51046469 </i>
    <i name="XCdc">     -8.73378796 </i>
    <i name="pawpsdc">     88.12379961 </i>
    <i name="pawaedc">    -70.53051779 </i>
    <i name="eentropy">     -0.00068637 </i>
    <i name="bandstr">     20.44405194 </i>
    <i name="atom">    103.06562707 </i>
    <i name="e_fr_energy">     -3.57461968 </i>
    <i name="e_wo_entrp">     -3.57393331 </i>
    <i name="e_0_energy">     -3.57427650 </i>
   </energy>
  </scstep>
  <scstep>
   <time name="dav">    0.23    0.24</time>
   <time name="total">    0.23    0.24</time>
   <energy>
    <i name="e_fr_energy">     -4.88989246 </i>
    <i name="e_wo_entrp">     -4.88907242 </i>
    <i name="e_0_energy">     -4.88948244 </i>
   </energy>
  </scstep>
  <scstep>
   <time name="dav">    0.17    0.18</time>
   <time name="total">    0.17    0.18</time>
   <energy>
    <i name="e_fr_energy">     -4.89516084 </i>
    <i name="e_wo_entrp">     -4.89433536 </i>
    <i name="e_0_energy">     -4.89474810 </i>
   </energy>
  </scstep>
  <scstep>
   <time name="dav">    0.25    0.26</time>
   <time name="total">    0.25    0.26</time>
   <energy>
    <i name="e_fr_energy">     -4.89516500 </i>
    <i name="e_wo_entrp">     -4.89433951 </i>
    <i name="e_0_energy">     -4.89475225 </i>
   </energy>
  </scstep>
  <scstep>
   <time name="dav">    0.16    0.17</time>
   <time name="total">    0.18    0.19</time>
   <energy>
    <i name="e_fr_energy">     -4.89516500 </i>
    <i name="e_wo_entrp">     -4.89433951 </i>
    <i name="e_0_energy">     -4.89475225 </i>
   </energy>
  </scstep>
  <scstep>
   <time name="dav">    0.16    0.16</time>
   <time name="total">    0.34    0.35</time>
   <energy>
    <i name="e_fr_energy">     -4.88351659 </i>
    <i name="e_wo_entrp">     -4.88267448 </i>
    <i name="e_0_energy">     -4.88309554 </i>
   </energy>
  </scstep>
  <scstep>
   <time name="dav">    0.16    0.16</time>
   <time name="total">    0.35    0.36</time>
   <energy>
    <i name="e_fr_energy">     -4.87688111 </i>
    <i name="e_wo_entrp">     -4.87601243 </i>
    <i name="e_0_energy">     -4.87644677 </i>
   </energy>
  </scstep>
  <scstep>
   <time name="dav">    0.22    0.22</time>
   <time name="total">    0.41    0.42</time>
   <energy>
    <i name="e_fr_energy">     -4.87685895 </i>
    <i name="e_wo_entrp">     -4.87598923 </i>
    <i name="e_0_energy">     -4.87642409 </i>
   </energy>
  </scstep>
  <scstep>
   <time name="dav">    0.17    0.17</time>
   <time name="total">    0.34    0.35</time>
   <energy>
    <i name="alphaZ">      2.39220925 </i>
    <i name="ewald">   -137.82485074 </i>
    <i name="hartreedc">     -0.37001897 </i>
    <i name="XCdc">     -8.66898865 </i>
    <i name="pawpsdc">    322.02313819 </i>
    <i name="pawaedc">   -304.45190888 </i>
    <i name="eentropy">     -0.00086996 </i>
    <i name="bandstr">     18.95880320 </i>
    <i name="atom">    103.06562707 </i>
    <i name="e_fr_energy">     -4.87685948 </i>
    <i name="e_wo_entrp">     -4.87598952 </i>
    <i name="e_0_energy">     -4.87642450 </i>
   </energy>
  </scstep>
  <structure>
   <crystal>
    <varray name="basis" >
     <v>       1.52089226       1.52089226       1.52089226 </v>
     <v>       1.52089226      -1.52089226      -1.52089226 </v>
     <v>      -1.52089226       1.52089226      -1.52089226 </v>
    </varray>
    <i name="volume">     14.07198420 </i>
    <varray name="rec_basis" >
     <v>       0.32875439       0.32875439       0.00000000 </v>
     <v>       0.32875439       0.00000000      -0.32875439 </v>
     <v>       0.00000000       0.32875439      -0.32875439 </v>
    </varray>
   </crystal>
   <varray name="positions" >
    <v>       0.00000000       0.00000000       0.00000000 </v>
   </varray>
  </structure>
  <varray name="forces" >
   <v>       0.00000000       0.00000000      -0.00000000 </v>
  </varray>
  <varray name="stress" >
   <v>      37.03546568       0.00000000      -0.00000000 </v>
   <v>       0.00000000      37.03546568       0.00000000 </v>
   <v>      -0.00000000       0.00000000      37.03546568 </v>
  </varray>
  <energy>
   <i name="e_fr_energy">     -4.87685948 </i>
   <i name="e_wo_entrp">     -4.87598952 </i>
   <i name="e_0_energy">     -4.87642450 </i>
  </energy>
  <time name="totalsc">    3.22    3.38</time>
  <eigenvalues>
   <array>
    <dimension dim="1">band</dimension>
    <dimension dim="2">kpoint</dimension>
    <dimension dim="3">spin</dimension>
    <field>eigene</field>
    <field>occ</field>
    <set>
     <set comment="spin 1">
      <set comment="kpoint 1">
       <r>   -4.1617    1.0000 </r>
       <r>   22.3142    0.0000 </r>
       <r>   22.3142    0.0000 </r>
       <r>   22.3142    0.0000 </r>
       <r>   23.1523    0.0000 </r>
       <r>   23.1523    0.0000 </r>
       <r>   23.1523    0.0000 </r>
       <r>   26.9182    0.0000 </r>
      </set>
      <set comment="kpoint 2">
       <r>   -3.9019    1.0000 </r>
       <r>   19.5901    0.0000 </r>
       <r>   20.5063    0.0000 </r>
       <r>   21.9235    0.0000 </r>
       <r>   22.3524    0.0000 </r>
       <r>   24.1810    0.0000 </r>
       <r>   25.3867    0.0000 </r>
       <r>   25.7420    0.0000 </r>
      </set>
      <set comment="kpoint 3">
       <r>   -3.1246    1.0000 </r>
       <r>   15.6945    0.0000 </r>
       <r>   18.7771    0.0000 </r>
       <r>   20.8777    0.0000 </r>
       <r>   20.9881    0.0000 </r>
       <r>   23.1062    0.0000 </r>
       <r>   26.5918    0.0000 </r>
       <r>   26.9231    0.0000 </r>
      </set>
      <set comment="kpoint 4">
       <r>   -1.8355    1.0000 </r>
       <r>   11.7924    0.0000 </r>
       <r>   17.4761    0.0000 </r>
       <r>   19.5499    0.0000 </r>
       <r>   19.9911    0.0000 </r>
       <r>   21.9007    0.0000 </r>
       <r>   27.7810    0.0000 </r>
       <r>   28.0915    0.0000 </r>
      </set>
      <set comment="kpoint 5">
       <r>   -0.0444    1.0000 </r>
       <r>    8.1918    1.0000 </r>
       <r>   16.6099    0.0000 </r>
       <r>   18.6103    0.0000 </r>
       <r>   19.2347    0.0000 </r>
       <r>   21.0442    0.0000 </r>
       <r>   29.1404    0.0000 </r>
       <r>   29.8443    0.0000 </r>
      </set>
      <set comment="kpoint 6">
       <r>    2.2328    1.0000 </r>
       <r>    4.9970    1.0000 </r>
       <r>   16.1772    0.0000 </r>
       <r>   18.1249    0.0000 </r>
       <r>   18.8368    0.0000 </r>
       <r>   20.6000    0.0000 </r>
       <r>   30.6962    0.0000 </r>
       <r>   31.4885    0.0000 </r>
      </set>
      <set comment="kpoint 7">
       <r>   -3.3834    1.0000 </r>
       <r>   17.5691    0.0000 </r>
       <r>   18.0259    0.0000 </r>
       <r>   20.1328    0.0000 </r>
       <r>   22.8609    0.0000 </r>
       <r>   24.2262    0.0000 </r>
       <r>   25.4085    0.0000 </r>
       <r>   26.6450    0.0000 </r>
      </set>
      <set comment="kpoint 8">
       <r>   -2.3502    1.0000 </r>
       <r>   13.8771    0.0000 </r>
       <r>   16.2636    0.0000 </r>
       <r>   18.7571    0.0000 </r>
       <r>   22.1612    0.0000 </r>
       <r>   23.6915    0.0000 </r>
       <r>   25.9925    0.0000 </r>
       <r>   28.4993    0.0000 </r>
      </set>
      <set comment="kpoint 9">
       <r>   -0.8100    1.0000 </r>
       <r>   10.1244    1.0000 </r>
       <r>   15.1231    0.0000 </r>
       <r>   17.6903    0.0000 </r>
       <r>   21.2131    0.0000 </r>
       <r>   23.2068    0.0000 </r>
       <r>   26.8984    0.0000 </r>
       <r>   30.4057    0.0000 </r>
      </set>
      <set comment="kpoint 10">
       <r>    1.2252    1.0000 </r>
       <r>    6.7238    1.0000 </r>
       <r>   14.4352    0.0000 </r>
       <r>   17.0283    0.0000 </r>
       <r>   20.5764    0.0000 </r>
       <r>   22.7686    0.0000 </r>
       <r>   28.4557    0.0000 </r>
       <r>   31.5286    0.0000 </r>
      </set>
      <set comment="kpoint 11">
       <r>    3.6218    1.0000 </r>
       <r>    3.8681    1.0000 </r>
       <r>   14.2055    0.0000 </r>
       <r>   16.8051    0.0000 </r>
       <r>   20.3578    0.0000 </r>
       <r>   22.6024    0.0000 </r>
       <r>   30.1512    0.0000 </r>
       <r>   30.5822    0.0000 </r>
      </set>
      <set comment="kpoint 12">
       <r>   -1.0658    1.0000 </r>
       <r>   12.3660    0.0000 </r>
       <r>   12.6073    0.0000 </r>
       <r>   17.5134    0.0000 </r>
       <r>   22.8309    0.0000 </r>
       <r>   23.6318    0.0000 </r>
       <r>   27.7229    0.0000 </r>
       <r>   28.7920    0.0000 </r>
      </set>
      <set comment="kpoint 13">
       <r>    0.7189    1.0000 </r>
       <r>    8.9160    1.0000 </r>
       <r>   11.5428    0.0000 </r>
       <r>   16.6516    0.0000 </r>
       <r>   22.4254    0.0000 </r>
       <r>   24.5069    0.0000 </r>
       <r>   27.8858    0.0000 </r>
       <r>   30.6626    0.0000 </r>
      </set>
      <set comment="kpoint 14">
       <r>    2.9882    1.0000 </r>
       <r>    5.7388    1.0000 </r>
       <r>   11.0642    0.0000 </r>
       <r>   16.2099    0.0000 </r>
       <r>   22.0400    0.0000 </r>
       <r>   25.4298    0.0000 </r>
       <r>   28.2189    0.0000 </r>
       <r>   30.1482    0.0000 </r>
      </set>
      <set comment="kpoint 15">
       <r>    2.7390    1.0000 </r>
       <r>    8.1075    1.0000 </r>
       <r>    8.2725    1.0000 </r>
       <r>   16.0078    0.0000 </r>
       <r>   23.7900    0.0000 </r>
       <r>   24.5549    0.0000 </r>
       <r>   28.5620    0.0000 </r>
       <r>   30.9914    0.0000 </r>
      </set>
      <set comment="kpoint 16">
       <r>    5.1341    1.0000 </r>
       <r>    5.3402    1.0000 </r>
       <r>    7.9495    1.0000 </r>
       <r>   15.7883    0.0000 </r>
       <r>   23.8995    0.0000 </r>
       <r>   25.9000    0.0000 </r>
       <r>   26.8765    0.0000 </r>
       <r>   31.8475    0.0000 </r>
      </set>
      <set comment="kpoint 17">
       <r>   -2.6080    1.0000 </r>
       <r>   15.7081    0.0000 </r>
       <r>   16.4250    0.0000 </r>
       <r>   16.4250    0.0000 </r>
       <r>   24.9047    0.0000 </r>
       <r>   24.9047    0.0000 </r>
       <r>   26.7572    0.0000 </r>
       <r>   26.7572    0.0000 </r>
      </set>
      <set comment="kpoint 18">
       <r>   -1.3221    1.0000 </r>
       <r>   12.2610    0.0000 </r>
       <r>   14.6205    0.0000 </r>
       <r>   15.0784    0.0000 </r>
       <r>   24.6744    0.0000 </r>
       <r>   25.1396    0.0000 </r>
       <r>   27.9907    0.0000 </r>
       <r>   28.1532    0.0000 </r>
      </set>
      <set comment="kpoint 19">
       <r>    0.4649    1.0000 </r>
       <r>    8.6808    1.0000 </r>
       <r>   13.6938    0.0000 </r>
       <r>   14.1473    0.0000 </r>
       <r>   24.2289    0.0000 </r>
       <r>   24.5418    0.0000 </r>
       <r>   29.5489    0.0000 </r>
       <r>   29.9962    0.0000 </r>
      </set>
      <set comment="kpoint 20">
       <r>    2.7374    1.0000 </r>
       <r>    5.4937    1.0000 </r>
       <r>   13.2323    0.0000 </r>
       <r>   13.6740    0.0000 </r>
       <r>   23.9313    0.0000 </r>
       <r>   24.1842    0.0000 </r>
       <r>   31.0125    0.0000 </r>
       <r>   31.7200    0.0000 </r>
      </set>
      <set comment="kpoint 21">
       <r>   -3.6425    1.0000 </r>
       <r>   19.0352    0.0000 </r>
       <r>   19.0352    0.0000 </r>
       <r>   20.5294    0.0000 </r>
       <r>   23.1387    0.0000 </r>
       <r>   23.6529    0.0000 </r>
       <r>   25.1749    0.0000 </r>
       <r>   25.1749    0.0000 </r>
      </set>
      <set comment="kpoint 22">
       <r>    0.2108    1.0000 </r>
       <r>   10.9730    0.0000 </r>
       <r>   11.2074    0.0000 </r>
       <r>   13.7219    0.0000 </r>
       <r>   25.7937    0.0000 </r>
       <r>   26.6353    0.0000 </r>
       <r>   28.7573    0.0000 </r>
       <r>   29.5915    0.0000 </r>
      </set>
      <set comment="kpoint 23">
       <r>    2.2366    1.0000 </r>
       <r>    7.7065    1.0000 </r>
       <r>   10.3767    0.7893 </r>
       <r>   13.0199    0.0000 </r>
       <r>   25.8598    0.0000 </r>
       <r>   27.2249    0.0000 </r>
       <r>   29.8386    0.0000 </r>
       <r>   31.3654    0.0000 </r>
      </set>
      <set comment="kpoint 24">
       <r>    4.6344    1.0000 </r>
       <r>    4.8536    1.0000 </r>
       <r>   10.1351    1.0000 </r>
       <r>   12.7852    0.0000 </r>
       <r>   25.7582    0.0000 </r>
       <r>   27.4322    0.0000 </r>
       <r>   30.7459    0.0000 </r>
       <r>   31.6077    0.0000 </r>
      </set>
      <set comment="kpoint 25">
       <r>   -2.8661    1.0000 </r>
       <r>   15.8229    0.0000 </r>
       <r>   17.3068    0.0000 </r>
       <r>   19.6596    0.0000 </r>
       <r>   21.8882    0.0000 </r>
       <r>   22.7525    0.0000 </r>
       <r>   25.4139    0.0000 </r>
       <r>   27.6564    0.0000 </r>
      </set>
      <set comment="kpoint 26">
       <r>    4.4895    1.0000 </r>
       <r>    7.1355    1.0000 </r>
       <r>    7.3082    1.0000 </r>
       <r>   12.5516    0.0000 </r>
       <r>   27.1776    0.0000 </r>
       <r>   28.3277    0.0000 </r>
       <r>   30.0261    0.0000 </r>
       <r>   32.2604    0.0000 </r>
      </set>
      <set comment="kpoint 27">
       <r>   -1.5786    1.0000 </r>
       <r>   12.0074    0.0000 </r>
       <r>   15.9667    0.0000 </r>
       <r>   18.6059    0.0000 </r>
       <r>   21.5120    0.0000 </r>
       <r>   22.0351    0.0000 </r>
       <r>   25.1798    0.0000 </r>
       <r>   30.8801    0.0000 </r>
      </set>
      <set comment="kpoint 28">
       <r>   -1.8354    1.0000 </r>
       <r>   14.1263    0.0000 </r>
       <r>   14.3366    0.0000 </r>
       <r>   19.1719    0.0000 </r>
       <r>   20.6960    0.0000 </r>
       <r>   22.3961    0.0000 </r>
       <r>   27.1228    0.0000 </r>
       <r>   28.0148    0.0000 </r>
      </set>
      <set comment="kpoint 29">
       <r>    0.2103    1.0000 </r>
       <r>    8.4289    1.0000 </r>
       <r>   15.0644    0.0000 </r>
       <r>   17.7525    0.0000 </r>
       <r>   20.6188    0.0000 </r>
       <r>   22.1682    0.0000 </r>
       <r>   25.7758    0.0000 </r>
       <r>   31.2192    0.0000 </r>
      </set>
      <set comment="kpoint 30">
       <r>   -0.2990    1.0000 </r>
       <r>   10.5764    0.0000 </r>
       <r>   13.0721    0.0000 </r>
       <r>   18.5468    0.0000 </r>
       <r>   20.7963    0.0000 </r>
       <r>   21.9513    0.0000 </r>
       <r>   26.8166    0.0000 </r>
       <r>   30.0366    0.0000 </r>
      </set>
      <set comment="kpoint 31">
       <r>    2.4846    1.0000 </r>
       <r>    5.2430    1.0000 </r>
       <r>   14.6111    0.0000 </r>
       <r>   17.3063    0.0000 </r>
       <r>   20.1613    0.0000 </r>
       <r>   22.0823    0.0000 </r>
       <r>   27.3307    0.0000 </r>
       <r>   29.5029    0.0000 </r>
      </set>
      <set comment="kpoint 32">
       <r>    1.7308    1.0000 </r>
       <r>    7.2067    1.0000 </r>
       <r>   12.3662    0.0000 </r>
       <r>   17.9523    0.0000 </r>
       <r>   20.4665    0.0000 </r>
       <r>   22.9797    0.0000 </r>
       <r>   26.2701    0.0000 </r>
       <r>   29.1316    0.0000 </r>
      </set>
      <set comment="kpoint 33">
       <r>    1.4785    1.0000 </r>
       <r>    9.5388    1.0000 </r>
       <r>    9.6945    1.0000 </r>
       <r>   18.8455    0.0000 </r>
       <r>   20.9050    0.0000 </r>
       <r>   21.4570    0.0000 </r>
       <r>   27.4512    0.0000 </r>
       <r>   29.9826    0.0000 </r>
      </set>
      <set comment="kpoint 34">
       <r>    4.1286    1.0000 </r>
       <r>    4.3554    1.0000 </r>
       <r>   12.1304    0.0000 </r>
       <r>   17.7407    0.0000 </r>
       <r>   20.2802    0.0000 </r>
       <r>   23.8192    0.0000 </r>
       <r>   26.0324    0.0000 </r>
       <r>   28.1208    0.0000 </r>
      </set>
      <set comment="kpoint 35">
       <r>    3.7381    1.0000 </r>
       <r>    6.4694    1.0000 </r>
       <r>    9.1358    1.0000 </r>
       <r>   18.6617    0.0000 </r>
       <r>   20.8209    0.0000 </r>
       <r>   22.7882    0.0000 </r>
       <r>   25.1184    0.0000 </r>
       <r>   30.7229    0.0000 </r>
      </set>
      <set comment="kpoint 36">
       <r>    6.0468    1.0000 </r>
       <r>    6.3086    1.0000 </r>
       <r>    6.3086    1.0000 </r>
       <r>   18.7288    0.0000 </r>
       <r>   22.4715    0.0000 </r>
       <r>   22.7596    0.0000 </r>
       <r>   22.7596    0.0000 </r>
       <r>   33.7983    0.0000 </r>
      </set>
      <set comment="kpoint 37">
       <r>    1.9850    1.0000 </r>
       <r>    9.9344    1.0000 </r>
       <r>   10.2527    1.0000 </r>
       <r>   10.2527    1.0000 </r>
       <r>   28.5058    0.0000 </r>
       <r>   28.5058    0.0000 </r>
       <r>   30.3528    0.0000 </r>
       <r>   30.3528    0.0000 </r>
      </set>
      <set comment="kpoint 38">
       <r>    4.2420    1.0000 </r>
       <r>    6.9742    1.0000 </r>
       <r>    9.5690    1.0000 </r>
       <r>    9.7719    1.0000 </r>
       <r>   29.1179    0.0000 </r>
       <r>   29.3816    0.0000 </r>
       <r>   31.6676    0.0000 </r>
       <r>   32.0275    0.0000 </r>
      </set>
      <set comment="kpoint 39">
       <r>   -2.0925    1.0000 </r>
       <r>   15.5481    0.0000 </r>
       <r>   15.5481    0.0000 </r>
       <r>   17.6486    0.0000 </r>
       <r>   19.0585    0.0000 </r>
       <r>   25.1691    0.0000 </r>
       <r>   26.9226    0.0000 </r>
       <r>   26.9226    0.0000 </r>
      </set>
      <set comment="kpoint 40">
       <r>    6.5390    1.0000 </r>
       <r>    6.8232    1.0000 </r>
       <r>    6.8232    1.0000 </r>
       <r>    9.4340    1.0000 </r>
       <r>   30.3024    0.0000 </r>
       <r>   31.4210    0.0000 </r>
       <r>   31.4210    0.0000 </r>
       <r>   33.1183    0.0000 </r>
      </set>
      <set comment="kpoint 41">
       <r>   -0.8097    1.0000 </r>
       <r>   12.5960    0.0000 </r>
       <r>   14.1850    0.0000 </r>
       <r>   16.7921    0.0000 </r>
       <r>   18.6180    0.0000 </r>
       <r>   24.6265    0.0000 </r>
       <r>   26.8688    0.0000 </r>
       <r>   29.6633    0.0000 </r>
      </set>
      <set comment="kpoint 42">
       <r>    0.9722    1.0000 </r>
       <r>    9.1299    1.0000 </r>
       <r>   13.2678    0.0000 </r>
       <r>   15.9370    0.0000 </r>
       <r>   19.8765    0.0000 </r>
       <r>   23.8037    0.0000 </r>
       <r>   25.7685    0.0000 </r>
       <r>   28.6749    0.0000 </r>
      </set>
      <set comment="kpoint 43">
       <r>    0.7187    1.0000 </r>
       <r>   11.3524    0.0000 </r>
       <r>   11.4831    0.0000 </r>
       <r>   16.8897    0.0000 </r>
       <r>   17.7293    0.0000 </r>
       <r>   24.4202    0.0000 </r>
       <r>   26.8009    0.0000 </r>
       <r>   29.3645    0.0000 </r>
      </set>
      <set comment="kpoint 44">
       <r>    3.2370    1.0000 </r>
       <r>    5.9766    1.0000 </r>
       <r>   12.8078    0.0000 </r>
       <r>   15.4710    0.0000 </r>
       <r>   21.5141    0.0000 </r>
       <r>   23.3675    0.0000 </r>
       <r>   24.2307    0.0000 </r>
       <r>   27.7459    0.0000 </r>
      </set>
      <set comment="kpoint 45">
       <r>    2.7370    1.0000 </r>
       <r>    8.1569    1.0000 </r>
       <r>   10.7065    0.0000 </r>
       <r>   16.5324    0.0000 </r>
       <r>   19.0219    0.0000 </r>
       <r>   23.3978    0.0000 </r>
       <r>   24.6935    0.0000 </r>
       <r>   29.9304    0.0000 </r>
      </set>
      <set comment="kpoint 46">
       <r>    5.1327    1.0000 </r>
       <r>    5.3256    1.0000 </r>
       <r>   10.4674    0.0391 </r>
       <r>   16.3175    0.0000 </r>
       <r>   20.6049    0.0000 </r>
       <r>   21.8199    0.0000 </r>
       <r>   24.1089    0.0000 </r>
       <r>   29.8997    0.0000 </r>
      </set>
      <set comment="kpoint 47">
       <r>    4.9767    1.0000 </r>
       <r>    7.6016    1.0000 </r>
       <r>    7.7415    1.0000 </r>
       <r>   17.9964    0.0000 </r>
       <r>   18.9720    0.0000 </r>
       <r>   21.1075    0.0000 </r>
       <r>   24.0611    0.0000 </r>
       <r>   32.8272    0.0000 </r>
      </set>
      <set comment="kpoint 48">
       <r>    0.4648    1.0000 </r>
       <r>   12.8091    0.0000 </r>
       <r>   12.8091    0.0000 </r>
       <r>   15.0958    0.0000 </r>
       <r>   15.9347    0.0000 </r>
       <r>   26.4437    0.0000 </r>
       <r>   27.6644    0.0000 </r>
       <r>   29.1568    0.0000 </r>
      </set>
      <set comment="kpoint 49">
       <r>    2.2343    1.0000 </r>
       <r>   10.2243    1.0000 </r>
       <r>   11.8842    0.0000 </r>
       <r>   14.4728    0.0000 </r>
       <r>   16.2090    0.0000 </r>
       <r>   23.4630    0.0000 </r>
       <r>   27.4508    0.0000 </r>
       <r>   29.9613    0.0000 </r>
      </set>
      <set comment="kpoint 50">
       <r>    4.4804    1.0000 </r>
       <r>    7.1805    1.0000 </r>
       <r>   11.4209    0.0000 </r>
       <r>   14.0152    0.0000 </r>
       <r>   18.0889    0.0000 </r>
       <r>   20.6752    0.0000 </r>
       <r>   27.0520    0.0000 </r>
       <r>   30.0743    0.0000 </r>
      </set>
      <set comment="kpoint 51">
       <r>    4.2325    1.0000 </r>
       <r>    9.4540    1.0000 </r>
       <r>    9.5597    1.0000 </r>
       <r>   15.1405    0.0000 </r>
       <r>   15.7155    0.0000 </r>
       <r>   20.4233    0.0000 </r>
       <r>   27.8140    0.0000 </r>
       <r>   32.2211    0.0000 </r>
      </set>
      <set comment="kpoint 52">
       <r>    6.6091    1.0000 </r>
       <r>    6.7632    1.0000 </r>
       <r>    9.2687    1.0000 </r>
       <r>   15.1356    0.0000 </r>
       <r>   17.4126    0.0000 </r>
       <r>   17.9901    0.0000 </r>
       <r>   27.6968    0.0000 </r>
       <r>   32.8379    0.0000 </r>
      </set>
      <set comment="kpoint 53">
       <r>    3.9835    1.0000 </r>
       <r>   10.9565    0.0000 </r>
       <r>   10.9565    0.0000 </r>
       <r>   13.2538    0.0000 </r>
       <r>   13.8372    0.0000 </r>
       <r>   20.1948    0.0000 </r>
       <r>   31.0353    0.0000 </r>
       <r>   32.0172    0.0000 </r>
      </set>
      <set comment="kpoint 54">
       <r>    6.1927    1.0000 </r>
       <r>    8.7841    1.0000 </r>
       <r>   10.4916    0.0072 </r>
       <r>   13.0055    0.0000 </r>
       <r>   14.7387    0.0000 </r>
       <r>   17.2399    0.0000 </r>
       <r>   31.0685    0.0000 </r>
       <r>   32.9465    0.0000 </r>
      </set>
      <set comment="kpoint 55">
       <r>    8.4376    1.0000 </r>
       <r>    8.5944    1.0000 </r>
       <r>    8.5944    1.0000 </r>
       <r>   14.0425    0.0000 </r>
       <r>   14.7039    0.0000 </r>
       <r>   14.7039    0.0000 </r>
       <r>   31.6198    0.0000 </r>
       <r>   35.1560    0.0000 </r>
      </set>
      <set comment="kpoint 56">
       <r>    8.2984    1.0000 </r>
       <r>   10.0258    1.0000 </r>
       <r>   10.0258    1.0000 </r>
       <r>   12.2705    0.0000 </r>
       <r>   12.7822    0.0000 </r>
       <r>   14.2869    0.0000 </r>
       <r>   34.7008    0.0000 </r>
       <r>   34.9573    0.0000 </r>
      </set>
     </set>
    </set>
   </array>
  </eigenvalues>
  <separator name="orbital magnetization" >
   <v name="MAGDIPOLOUT">      0.00000000      0.00000000      0.00000000</v>
  </separator>
  <dos>
   <i name="efermi">     10.40515843 </i>
   <total>
    <array>
     <dimension dim="1">gridpoints</dimension>
     <dimension dim="2">spin</dimension>
     <field>energy</field>
     <field>total</field>
     <field>integrated</field>
     <set>
      <set comment="spin 1">
       <r>    -6.1276     0.0000     0.0000 </r>
       <r>    -5.9834     0.0000     0.0000 </r>
       <r>    -5.8392     0.0000     0.0000 </r>
       <r>    -5.6951     0.0000     0.0000 </r>
       <r>    -5.5509     0.0000     0.0000 </r>
       <r>    -5.4068     0.0000     0.0000 </r>
       <r>    -5.2626     0.0000     0.0000 </r>
       <r>    -5.1184     0.0000     0.0000 </r>
       <r>    -4.9743     0.0000     0.0000 </r>
       <r>    -4.8301     0.0000     0.0000 </r>
       <r>    -4.6859     0.0000     0.0000 </r>
       <r>    -4.5418     0.0000     0.0000 </r>
       <r>    -4.3976     0.0000     0.0000 </r>
       <r>    -4.2534     0.0000     0.0000 </r>
       <r>    -4.1093     0.0097     0.0014 </r>
       <r>    -3.9651     0.0053     0.0022 </r>
       <r>    -3.8209     0.1191     0.0193 </r>
       <r>    -3.6768     0.0118     0.0210 </r>
       <r>    -3.5326     0.0521     0.0285 </r>
       <r>    -3.3884     0.1109     0.0445 </r>
       <r>    -3.2443     0.1394     0.0646 </r>
       <r>    -3.1001     0.0945     0.0782 </r>
       <r>    -2.9560     0.0319     0.0828 </r>
       <r>    -2.8118     0.2332     0.1165 </r>
       <r>    -2.6676     0.0194     0.1193 </r>
       <r>    -2.5235     0.0789     0.1306 </r>
       <r>    -2.3793     0.1032     0.1455 </r>
       <r>    -2.2351     0.3975     0.2028 </r>
       <r>    -2.0910     0.0326     0.2075 </r>
       <r>    -1.9468     0.0305     0.2119 </r>
       <r>    -1.8026     0.3085     0.2564 </r>
       <r>    -1.6585     0.0694     0.2664 </r>
       <r>    -1.5143     0.2385     0.3008 </r>
       <r>    -1.3701     0.0304     0.3052 </r>
       <r>    -1.2260     0.2276     0.3380 </r>
       <r>    -1.0818     0.0822     0.3498 </r>
       <r>    -0.9376     0.1689     0.3742 </r>
       <r>    -0.7935     0.5093     0.4476 </r>
       <r>    -0.6493     0.2411     0.4823 </r>
       <r>    -0.5051     0.0000     0.4823 </r>
       <r>    -0.3610     0.0199     0.4852 </r>
       <r>    -0.2168     0.4754     0.5537 </r>
       <r>    -0.0727     0.0315     0.5583 </r>
       <r>     0.0715     0.0985     0.5725 </r>
       <r>     0.2157     0.2791     0.6127 </r>
       <r>     0.3598     0.2217     0.6447 </r>
       <r>     0.5040     0.2702     0.6836 </r>
       <r>     0.6482     0.0592     0.6922 </r>
       <r>     0.7923     0.7192     0.7959 </r>
       <r>     0.9365     0.0533     0.8035 </r>
       <r>     1.0807     0.2107     0.8339 </r>
       <r>     1.2248     0.2484     0.8697 </r>
       <r>     1.3690     0.2524     0.9061 </r>
       <r>     1.5132     0.2090     0.9362 </r>
       <r>     1.6573     0.0504     0.9435 </r>
       <r>     1.8015     0.4795     1.0126 </r>
       <r>     1.9457     0.0224     1.0159 </r>
       <r>     2.0898     0.0722     1.0263 </r>
       <r>     2.2340     0.4238     1.0874 </r>
       <r>     2.3781     0.4522     1.1526 </r>
       <r>     2.5223     0.2141     1.1834 </r>
       <r>     2.6665     0.0579     1.1918 </r>
       <r>     2.8106     0.9590     1.3300 </r>
       <r>     2.9548     0.1056     1.3452 </r>
       <r>     3.0990     0.4138     1.4049 </r>
       <r>     3.2431     0.1427     1.4255 </r>
       <r>     3.3873     0.1079     1.4410 </r>
       <r>     3.5315     0.0013     1.4412 </r>
       <r>     3.6756     0.2522     1.4776 </r>
       <r>     3.8198     0.5132     1.5516 </r>
       <r>     3.9640     0.2512     1.5878 </r>
       <r>     4.1081     0.1156     1.6044 </r>
       <r>     4.2523     0.5120     1.6782 </r>
       <r>     4.3965     0.3909     1.7346 </r>
       <r>     4.5406     0.4991     1.8065 </r>
       <r>     4.6848     0.2595     1.8440 </r>
       <r>     4.8289     0.0801     1.8555 </r>
       <r>     4.9731     0.3355     1.9039 </r>
       <r>     5.1173     0.3915     1.9603 </r>
       <r>     5.2614     0.5247     2.0359 </r>
       <r>     5.4056     0.5542     2.1158 </r>
       <r>     5.5498     0.2455     2.1512 </r>
       <r>     5.6939     0.0652     2.1606 </r>
       <r>     5.8381     0.4480     2.2252 </r>
       <r>     5.9823     0.1451     2.2461 </r>
       <r>     6.1264     0.1962     2.2744 </r>
       <r>     6.2706     0.2636     2.3124 </r>
       <r>     6.4148     0.1770     2.3380 </r>
       <r>     6.5589     0.5462     2.4167 </r>
       <r>     6.7031     0.4070     2.4754 </r>
       <r>     6.8473     0.7240     2.5797 </r>
       <r>     6.9914     0.2153     2.6108 </r>
       <r>     7.1356     0.2404     2.6454 </r>
       <r>     7.2798     0.8809     2.7724 </r>
       <r>     7.4239     0.2077     2.8024 </r>
       <r>     7.5681     0.0430     2.8086 </r>
       <r>     7.7122     0.5403     2.8865 </r>
       <r>     7.8564     0.4184     2.9468 </r>
       <r>     8.0006     0.2310     2.9801 </r>
       <r>     8.1447     0.4262     3.0415 </r>
       <r>     8.2889     0.6616     3.1369 </r>
       <r>     8.4331     0.2929     3.1791 </r>
       <r>     8.5772     0.2120     3.2097 </r>
       <r>     8.7214     0.3424     3.2591 </r>
       <r>     8.8656     0.3077     3.3034 </r>
       <r>     9.0097     0.4627     3.3701 </r>
       <r>     9.1539     0.5378     3.4477 </r>
       <r>     9.2981     0.4139     3.5073 </r>
       <r>     9.4422     0.1935     3.5352 </r>
       <r>     9.5864     0.7848     3.6484 </r>
       <r>     9.7306     0.3983     3.7058 </r>
       <r>     9.8747     0.2618     3.7435 </r>
       <r>    10.0189     0.1329     3.7627 </r>
       <r>    10.1630     0.7116     3.8653 </r>
       <r>    10.3072     0.5276     3.9413 </r>
       <r>    10.4514     0.6053     4.0286 </r>
       <r>    10.5955     0.7489     4.1366 </r>
       <r>    10.7397     0.5602     4.2173 </r>
       <r>    10.8839     0.0911     4.2305 </r>
       <r>    11.0280     0.4301     4.2925 </r>
       <r>    11.1722     0.4809     4.3618 </r>
       <r>    11.3164     0.2494     4.3978 </r>
       <r>    11.4605     0.4989     4.4697 </r>
       <r>    11.6047     0.6931     4.5696 </r>
       <r>    11.7489     0.0337     4.5745 </r>
       <r>    11.8930     0.2612     4.6121 </r>
       <r>    12.0372     0.3016     4.6556 </r>
       <r>    12.1814     0.2837     4.6965 </r>
       <r>    12.3255     0.4100     4.7556 </r>
       <r>    12.4697     0.6699     4.8522 </r>
       <r>    12.6139     0.5557     4.9323 </r>
       <r>    12.7580     0.2932     4.9746 </r>
       <r>    12.9022     0.5871     5.0592 </r>
       <r>    13.0463     0.7232     5.1635 </r>
       <r>    13.1905     0.5639     5.2448 </r>
       <r>    13.3347     0.5190     5.3196 </r>
       <r>    13.4788     0.0085     5.3208 </r>
       <r>    13.6230     0.0249     5.3244 </r>
       <r>    13.7672     0.6966     5.4248 </r>
       <r>    13.9113     0.5078     5.4980 </r>
       <r>    14.0555     0.3629     5.5503 </r>
       <r>    14.1997     0.8073     5.6667 </r>
       <r>    14.3438     0.4549     5.7323 </r>
       <r>    14.4880     0.7388     5.8388 </r>
       <r>    14.6322     0.4598     5.9051 </r>
       <r>    14.7763     0.5354     5.9823 </r>
       <r>    14.9205     0.0394     5.9880 </r>
       <r>    15.0647     0.2593     6.0254 </r>
       <r>    15.2088     1.2888     6.2112 </r>
       <r>    15.3530     0.0155     6.2134 </r>
       <r>    15.4971     0.2019     6.2425 </r>
       <r>    15.6413     0.1879     6.2696 </r>
       <r>    15.7855     0.5895     6.3546 </r>
       <r>    15.9296     0.5268     6.4305 </r>
       <r>    16.0738     0.6331     6.5218 </r>
       <r>    16.2180     0.6123     6.6101 </r>
       <r>    16.3621     1.0006     6.7543 </r>
       <r>    16.5063     0.3014     6.7978 </r>
       <r>    16.6505     0.7397     6.9044 </r>
       <r>    16.7946     0.5013     6.9767 </r>
       <r>    16.9388     0.5036     7.0493 </r>
       <r>    17.0830     0.4876     7.1196 </r>
       <r>    17.2271     0.1265     7.1378 </r>
       <r>    17.3713     0.6684     7.2342 </r>
       <r>    17.5155     0.4914     7.3050 </r>
       <r>    17.6596     0.5142     7.3791 </r>
       <r>    17.8038     1.1371     7.5430 </r>
       <r>    17.9480     0.3118     7.5880 </r>
       <r>    18.0921     1.1186     7.7493 </r>
       <r>    18.2363     0.2279     7.7821 </r>
       <r>    18.3804     0.0001     7.7821 </r>
       <r>    18.5246     0.1372     7.8019 </r>
       <r>    18.6688     1.2507     7.9822 </r>
       <r>    18.8129     0.9739     8.1226 </r>
       <r>    18.9571     0.4507     8.1876 </r>
       <r>    19.1013     0.8240     8.3064 </r>
       <r>    19.2454     0.3343     8.3546 </r>
       <r>    19.3896     0.0523     8.3621 </r>
       <r>    19.5338     0.0476     8.3690 </r>
       <r>    19.6779     0.3764     8.4233 </r>
       <r>    19.8221     0.0919     8.4365 </r>
       <r>    19.9663     0.2635     8.4745 </r>
       <r>    20.1104     0.1814     8.5006 </r>
       <r>    20.2546     0.5329     8.5774 </r>
       <r>    20.3988     0.4891     8.6480 </r>
       <r>    20.5429     0.9520     8.7852 </r>
       <r>    20.6871     1.3160     8.9749 </r>
       <r>    20.8312     0.9957     9.1185 </r>
       <r>    20.9754     0.6742     9.2157 </r>
       <r>    21.1196     0.3666     9.2685 </r>
       <r>    21.2637     0.5539     9.3484 </r>
       <r>    21.4079     0.0595     9.3570 </r>
       <r>    21.5521     0.6607     9.4522 </r>
       <r>    21.6962     0.0684     9.4621 </r>
       <r>    21.8404     0.2089     9.4922 </r>
       <r>    21.9846     0.9970     9.6359 </r>
       <r>    22.1287     1.1406     9.8003 </r>
       <r>    22.2729     0.6600     9.8955 </r>
       <r>    22.4171     0.5371     9.9729 </r>
       <r>    22.5612     0.4786    10.0419 </r>
       <r>    22.7054     0.2762    10.0817 </r>
       <r>    22.8496     1.6025    10.3128 </r>
       <r>    22.9937     0.5864    10.3973 </r>
       <r>    23.1379     0.3292    10.4447 </r>
       <r>    23.2820     0.5569    10.5250 </r>
       <r>    23.4262     0.6763    10.6225 </r>
       <r>    23.5704     0.3412    10.6717 </r>
       <r>    23.7145     0.6745    10.7690 </r>
       <r>    23.8587     0.8599    10.8929 </r>
       <r>    24.0029     0.5257    10.9687 </r>
       <r>    24.1470     0.5221    11.0440 </r>
       <r>    24.2912     1.0675    11.1979 </r>
       <r>    24.4354     0.2071    11.2277 </r>
       <r>    24.5795     0.9907    11.3706 </r>
       <r>    24.7237     0.9633    11.5094 </r>
       <r>    24.8679     0.1444    11.5302 </r>
       <r>    25.0120     0.1425    11.5508 </r>
       <r>    25.1562     0.7213    11.6548 </r>
       <r>    25.3004     0.4677    11.7222 </r>
       <r>    25.4445     0.8617    11.8464 </r>
       <r>    25.5887     0.2627    11.8843 </r>
       <r>    25.7329     0.1871    11.9113 </r>
       <r>    25.8770     1.3435    12.1050 </r>
       <r>    26.0212     0.8353    12.2254 </r>
       <r>    26.1653     0.2614    12.2631 </r>
       <r>    26.3095     0.4331    12.3255 </r>
       <r>    26.4537     0.1046    12.3406 </r>
       <r>    26.5978     0.1543    12.3628 </r>
       <r>    26.7420     0.5707    12.4451 </r>
       <r>    26.8862     1.3737    12.6432 </r>
       <r>    27.0303     0.7977    12.7582 </r>
       <r>    27.1745     0.5688    12.8402 </r>
       <r>    27.3187     0.7035    12.9416 </r>
       <r>    27.4628     0.6779    13.0393 </r>
       <r>    27.6070     0.2579    13.0765 </r>
       <r>    27.7512     0.8922    13.2051 </r>
       <r>    27.8953     0.8226    13.3237 </r>
       <r>    28.0395     0.6291    13.4144 </r>
       <r>    28.1837     0.7167    13.5177 </r>
       <r>    28.3278     0.6040    13.6048 </r>
       <r>    28.4720     0.6038    13.6919 </r>
       <r>    28.6161     0.9348    13.8266 </r>
       <r>    28.7603     0.4320    13.8889 </r>
       <r>    28.9045     0.3223    13.9354 </r>
       <r>    29.0486     0.0119    13.9371 </r>
       <r>    29.1928     0.8830    14.0644 </r>
       <r>    29.3370     0.1237    14.0822 </r>
       <r>    29.4811     0.4938    14.1534 </r>
       <r>    29.6253     0.6657    14.2494 </r>
       <r>    29.7695     0.2756    14.2891 </r>
       <r>    29.9136     0.9533    14.4265 </r>
       <r>    30.0578     1.7943    14.6852 </r>
       <r>    30.2020     1.0645    14.8387 </r>
       <r>    30.3461     0.2191    14.8702 </r>
       <r>    30.4903     0.5791    14.9537 </r>
       <r>    30.6345     0.3506    15.0043 </r>
       <r>    30.7786     1.2042    15.1779 </r>
       <r>    30.9228     0.3039    15.2217 </r>
       <r>    31.0670     0.6730    15.3187 </r>
       <r>    31.2111     0.2629    15.3566 </r>
       <r>    31.3553     0.3467    15.4066 </r>
       <r>    31.4994     0.6463    15.4998 </r>
       <r>    31.6436     0.7869    15.6132 </r>
       <r>    31.7878     0.4985    15.6851 </r>
       <r>    31.9319     0.2450    15.7204 </r>
       <r>    32.0761     0.2893    15.7621 </r>
       <r>    32.2203     0.1789    15.7879 </r>
       <r>    32.3644     0.3451    15.8377 </r>
       <r>    32.5086     0.0004    15.8377 </r>
       <r>    32.6528     0.0000    15.8377 </r>
       <r>    32.7969     0.0799    15.8492 </r>
       <r>    32.9411     0.5297    15.9256 </r>
       <r>    33.0853     0.1555    15.9480 </r>
       <r>    33.2294     0.0687    15.9579 </r>
       <r>    33.3736     0.0001    15.9579 </r>
       <r>    33.5178     0.0000    15.9579 </r>
       <r>    33.6619     0.0000    15.9579 </r>
       <r>    33.8061     0.0490    15.9650 </r>
       <r>    33.9502     0.0344    15.9699 </r>
       <r>    34.0944     0.0000    15.9699 </r>
       <r>    34.2386     0.0000    15.9699 </r>
       <r>    34.3827     0.0000    15.9699 </r>
       <r>    34.5269     0.0000    15.9699 </r>
       <r>    34.6711     0.0125    15.9718 </r>
       <r>    34.8152     0.0500    15.9790 </r>
       <r>    34.9594     0.0328    15.9837 </r>
       <r>    35.1036     0.0356    15.9888 </r>
       <r>    35.2477     0.0772    15.9999 </r>
       <r>    35.3919     0.0004    16.0000 </r>
       <r>    35.5361     0.0000    16.0000 </r>
       <r>    35.6802     0.0000    16.0000 </r>
       <r>    35.8244     0.0000    16.0000 </r>
       <r>    35.9686     0.0000    16.0000 </r>
       <r>    36.1127     0.0000    16.0000 </r>
       <r>    36.2569     0.0000    16.0000 </r>
       <r>    36.4011     0.0000    16.0000 </r>
       <r>    36.5452     0.0000    16.0000 </r>
       <r>    36.6894     0.0000    16.0000 </r>
       <r>    36.8335     0.0000    16.0000 </r>
       <r>    36.9777     0.0000    16.0000 </r>
       <r>    37.1219     0.0000    16.0000 </r>
      </set>
     </set>
    </array>
   </total>
  </dos>
 </calculation>
 <structure name="finalpos" >
  <crystal>
   <varray name="basis" >
    <v>       1.52089226       1.52089226       1.52089226 </v>
    <v>       1.52089226      -1.52089226      -1.52089226 </v>
    <v>      -1.52089226       1.52089226      -1.52089226 </v>
   </varray>
   <i name="volume">     14.07198420 </i>
   <varray name="rec_basis" >
    <v>       0.32875439       0.32875439       0.00000000 </v>
    <v>       0.32875439       0.00000000      -0.32875439 </v>
    <v>       0.00000000       0.32875439      -0.32875439 </v>
   </varray>
  </crystal>
  <varray name="positions" >
   <v>       0.00000000       0.00000000       0.00000000 </v>
  </varray>
 </structure>
</modeling>
