   1   1   0   0
  0.1386300E+02  0.2621157E-09  0.2621157E-09  0.2621157E-09  0.5000000E-15
  1.000000000000000E-004
  CAR 
 unknown system                          
     36.17367894     -6.24493098  301      9.87313908      1.00000000
     -6.245  0.0000E+00  0.0000E+00
     -6.104  0.0000E+00  0.0000E+00
     -5.962  0.0000E+00  0.0000E+00
     -5.821  0.0000E+00  0.0000E+00
     -5.679  0.0000E+00  0.0000E+00
     -5.538  0.0000E+00  0.0000E+00
     -5.397  0.0000E+00  0.0000E+00
     -5.255  0.0000E+00  0.0000E+00
     -5.114  0.0000E+00  0.0000E+00
     -4.972  0.0000E+00  0.0000E+00
     -4.831  0.0000E+00  0.0000E+00
     -4.690  0.0000E+00  0.0000E+00
     -4.548  0.1253E-14  0.1772E-15
     -4.407  0.2290E-06  0.3238E-07
     -4.265  0.4282E-04  0.6086E-05
     -4.124  0.4777E-03  0.7363E-04
     -3.983  0.2844E-03  0.1138E-03
     -3.841  0.9828E-03  0.2528E-03
     -3.700  0.5466E-03  0.3301E-03
     -3.558  0.9820E-03  0.4689E-03
     -3.417  0.4794E-03  0.5367E-03
     -3.276  0.1877E-02  0.8022E-03
     -3.134  0.4415E-03  0.8646E-03
     -2.993  0.1480E-02  0.1074E-02
     -2.851  0.1058E-02  0.1223E-02
     -2.710  0.1064E-02  0.1374E-02
     -2.569  0.1775E-02  0.1625E-02
     -2.427  0.1960E-02  0.1902E-02
     -2.286  0.9939E-03  0.2043E-02
     -2.144  0.1305E-02  0.2227E-02
     -2.003  0.1510E-02  0.2441E-02
     -1.862  0.1615E-02  0.2669E-02
     -1.720  0.2700E-02  0.3051E-02
     -1.579  0.1516E-02  0.3265E-02
     -1.437  0.1936E-02  0.3539E-02
     -1.296  0.1176E-02  0.3705E-02
     -1.155  0.1971E-02  0.3984E-02
     -1.013  0.5137E-03  0.4057E-02
     -0.872  0.3410E-02  0.4539E-02
     -0.731  0.1267E-02  0.4718E-02
     -0.589  0.3953E-02  0.5277E-02
     -0.448  0.1987E-02  0.5558E-02
     -0.306  0.8832E-03  0.5683E-02
     -0.165  0.1008E-02  0.5825E-02
     -0.024  0.3097E-02  0.6263E-02
      0.118  0.1836E-02  0.6523E-02
      0.259  0.3373E-02  0.7000E-02
      0.401  0.2209E-02  0.7312E-02
      0.542  0.1850E-02  0.7573E-02
      0.683  0.4347E-02  0.8188E-02
      0.825  0.1998E-02  0.8471E-02
      0.966  0.1959E-02  0.8748E-02
      1.108  0.1166E-02  0.8913E-02
      1.249  0.2018E-02  0.9198E-02
      1.390  0.2224E-02  0.9512E-02
      1.532  0.4866E-02  0.1020E-01
      1.673  0.1588E-02  0.1043E-01
      1.815  0.4421E-02  0.1105E-01
      1.956  0.1067E-02  0.1120E-01
      2.097  0.3318E-02  0.1167E-01
      2.239  0.2866E-02  0.1208E-01
      2.380  0.3149E-02  0.1252E-01
      2.522  0.1884E-02  0.1279E-01
      2.663  0.3040E-02  0.1322E-01
      2.804  0.3173E-02  0.1367E-01
      2.946  0.1662E-02  0.1390E-01
      3.087  0.6155E-02  0.1477E-01
      3.229  0.1035E-02  0.1492E-01
      3.370  0.2723E-02  0.1530E-01
      3.511  0.3925E-02  0.1586E-01
      3.653  0.2561E-02  0.1622E-01
      3.794  0.3675E-02  0.1674E-01
      3.936  0.3842E-02  0.1728E-01
      4.077  0.2398E-02  0.1762E-01
      4.218  0.1155E-02  0.1778E-01
      4.360  0.3537E-02  0.1828E-01
      4.501  0.3203E-02  0.1874E-01
      4.643  0.4997E-02  0.1944E-01
      4.784  0.4841E-02  0.2013E-01
      4.925  0.1206E-02  0.2030E-01
      5.067  0.3911E-02  0.2085E-01
      5.208  0.1416E-02  0.2105E-01
      5.349  0.3467E-02  0.2154E-01
      5.491  0.6094E-02  0.2240E-01
      5.632  0.2447E-02  0.2275E-01
      5.774  0.5569E-02  0.2354E-01
      5.915  0.3023E-02  0.2397E-01
      6.056  0.1947E-02  0.2424E-01
      6.198  0.4033E-02  0.2481E-01
      6.339  0.2644E-02  0.2518E-01
      6.481  0.8151E-03  0.2530E-01
      6.622  0.6952E-02  0.2628E-01
      6.763  0.3399E-02  0.2676E-01
      6.905  0.4968E-02  0.2747E-01
      7.046  0.5442E-02  0.2824E-01
      7.188  0.2498E-02  0.2859E-01
      7.329  0.3599E-02  0.2910E-01
      7.470  0.3184E-02  0.2955E-01
      7.612  0.4795E-02  0.3023E-01
      7.753  0.4428E-02  0.3085E-01
      7.895  0.5212E-02  0.3159E-01
      8.036  0.2933E-02  0.3200E-01
      8.177  0.1230E-02  0.3218E-01
      8.319  0.2025E-02  0.3246E-01
      8.460  0.7450E-02  0.3352E-01
      8.602  0.5174E-02  0.3425E-01
      8.743  0.3785E-02  0.3478E-01
      8.884  0.4394E-02  0.3541E-01
      9.026  0.4380E-02  0.3602E-01
      9.167  0.5011E-02  0.3673E-01
      9.309  0.5020E-02  0.3744E-01
      9.450  0.4349E-02  0.3806E-01
      9.591  0.5282E-02  0.3880E-01
      9.733  0.5352E-02  0.3956E-01
      9.874  0.3131E-02  0.4000E-01
     10.016  0.4756E-02  0.4068E-01
     10.157  0.2528E-02  0.4103E-01
     10.298  0.3985E-02  0.4160E-01
     10.440  0.4420E-02  0.4222E-01
     10.581  0.5057E-02  0.4294E-01
     10.723  0.5060E-02  0.4365E-01
     10.864  0.5590E-02  0.4444E-01
     11.005  0.7151E-02  0.4545E-01
     11.147  0.1896E-02  0.4572E-01
     11.288  0.3103E-02  0.4616E-01
     11.429  0.2092E-02  0.4646E-01
     11.571  0.6273E-02  0.4734E-01
     11.712  0.6907E-02  0.4832E-01
     11.854  0.2451E-02  0.4867E-01
     11.995  0.6239E-02  0.4955E-01
     12.136  0.4530E-02  0.5019E-01
     12.278  0.2170E-02  0.5050E-01
     12.419  0.3939E-02  0.5105E-01
     12.561  0.1618E-02  0.5128E-01
     12.702  0.5682E-02  0.5209E-01
     12.843  0.2987E-02  0.5251E-01
     12.985  0.7396E-02  0.5355E-01
     13.126  0.4858E-02  0.5424E-01
     13.268  0.4412E-02  0.5486E-01
     13.409  0.8683E-02  0.5609E-01
     13.550  0.4217E-02  0.5669E-01
     13.692  0.4941E-02  0.5739E-01
     13.833  0.3488E-02  0.5788E-01
     13.975  0.4372E-02  0.5850E-01
     14.116  0.4480E-02  0.5913E-01
     14.257  0.3701E-02  0.5966E-01
     14.399  0.5557E-02  0.6044E-01
     14.540  0.8466E-02  0.6164E-01
     14.682  0.2146E-02  0.6194E-01
     14.823  0.4948E-02  0.6264E-01
     14.964  0.2724E-02  0.6303E-01
     15.106  0.6992E-02  0.6401E-01
     15.247  0.4865E-02  0.6470E-01
     15.389  0.5106E-02  0.6542E-01
     15.530  0.7335E-02  0.6646E-01
     15.671  0.4246E-02  0.6706E-01
     15.813  0.5834E-02  0.6789E-01
     15.954  0.5487E-02  0.6866E-01
     16.096  0.8425E-02  0.6985E-01
     16.237  0.5992E-02  0.7070E-01
     16.378  0.1939E-02  0.7098E-01
     16.520  0.7280E-02  0.7201E-01
     16.661  0.3404E-02  0.7249E-01
     16.803  0.2360E-02  0.7282E-01
     16.944  0.3746E-02  0.7335E-01
     17.085  0.5710E-02  0.7416E-01
     17.227  0.8842E-02  0.7541E-01
     17.368  0.1295E-01  0.7724E-01
     17.509  0.8186E-02  0.7840E-01
     17.651  0.4043E-02  0.7897E-01
     17.792  0.4097E-02  0.7955E-01
     17.934  0.3942E-02  0.8010E-01
     18.075  0.7264E-02  0.8113E-01
     18.216  0.4667E-02  0.8179E-01
     18.358  0.3446E-02  0.8228E-01
     18.499  0.1961E-02  0.8256E-01
     18.641  0.3971E-02  0.8312E-01
     18.782  0.3886E-02  0.8367E-01
     18.923  0.1169E-02  0.8383E-01
     19.065  0.4820E-02  0.8451E-01
     19.206  0.6727E-02  0.8547E-01
     19.348  0.4315E-02  0.8608E-01
     19.489  0.5072E-02  0.8679E-01
     19.630  0.6904E-02  0.8777E-01
     19.772  0.6995E-02  0.8876E-01
     19.913  0.3903E-02  0.8931E-01
     20.055  0.1976E-02  0.8959E-01
     20.196  0.1035E-01  0.9105E-01
     20.337  0.4824E-02  0.9173E-01
     20.479  0.2383E-02  0.9207E-01
     20.620  0.7218E-02  0.9309E-01
     20.762  0.3753E-02  0.9362E-01
     20.903  0.6622E-02  0.9456E-01
     21.044  0.7435E-02  0.9561E-01
     21.186  0.4803E-02  0.9629E-01
     21.327  0.4731E-02  0.9696E-01
     21.469  0.6403E-02  0.9786E-01
     21.610  0.8246E-02  0.9903E-01
     21.751  0.9221E-02  0.1003E+00
     21.893  0.1395E-01  0.1023E+00
     22.034  0.7028E-02  0.1033E+00
     22.176  0.7248E-02  0.1043E+00
     22.317  0.8954E-02  0.1056E+00
     22.458  0.6358E-02  0.1065E+00
     22.600  0.2124E-02  0.1068E+00
     22.741  0.1792E-02  0.1070E+00
     22.883  0.2470E-02  0.1074E+00
     23.024  0.7771E-02  0.1085E+00
     23.165  0.8640E-02  0.1097E+00
     23.307  0.9103E-02  0.1110E+00
     23.448  0.4919E-02  0.1117E+00
     23.589  0.5739E-02  0.1125E+00
     23.731  0.5494E-02  0.1133E+00
     23.872  0.5028E-02  0.1140E+00
     24.014  0.4905E-02  0.1147E+00
     24.155  0.2299E-02  0.1150E+00
     24.296  0.6705E-02  0.1160E+00
     24.438  0.5175E-02  0.1167E+00
     24.579  0.1128E-01  0.1183E+00
     24.721  0.7265E-02  0.1193E+00
     24.862  0.4968E-02  0.1200E+00
     25.003  0.4385E-02  0.1206E+00
     25.145  0.6405E-02  0.1215E+00
     25.286  0.6347E-02  0.1224E+00
     25.428  0.5451E-02  0.1232E+00
     25.569  0.8044E-02  0.1243E+00
     25.710  0.3699E-02  0.1249E+00
     25.852  0.6736E-02  0.1258E+00
     25.993  0.4815E-02  0.1265E+00
     26.135  0.6158E-02  0.1274E+00
     26.276  0.6602E-02  0.1283E+00
     26.417  0.7877E-02  0.1294E+00
     26.559  0.7299E-02  0.1305E+00
     26.700  0.5003E-02  0.1312E+00
     26.842  0.9205E-02  0.1325E+00
     26.983  0.4749E-02  0.1331E+00
     27.124  0.7431E-02  0.1342E+00
     27.266  0.5446E-02  0.1350E+00
     27.407  0.6442E-02  0.1359E+00
     27.549  0.2645E-02  0.1362E+00
     27.690  0.5776E-02  0.1371E+00
     27.831  0.6109E-02  0.1379E+00
     27.973  0.7453E-02  0.1390E+00
     28.114  0.6061E-02  0.1398E+00
     28.256  0.4719E-02  0.1405E+00
     28.397  0.5737E-02  0.1413E+00
     28.538  0.6485E-02  0.1422E+00
     28.680  0.9603E-02  0.1436E+00
     28.821  0.6664E-02  0.1445E+00
     28.963  0.1252E-01  0.1463E+00
     29.104  0.7477E-02  0.1474E+00
     29.245  0.2705E-02  0.1477E+00
     29.387  0.6231E-02  0.1486E+00
     29.528  0.5198E-02  0.1494E+00
     29.669  0.5313E-02  0.1501E+00
     29.811  0.8462E-02  0.1513E+00
     29.952  0.8767E-02  0.1525E+00
     30.094  0.6386E-02  0.1534E+00
     30.235  0.2056E-02  0.1537E+00
     30.376  0.6053E-02  0.1546E+00
     30.518  0.4886E-02  0.1553E+00
     30.659  0.8147E-02  0.1564E+00
     30.801  0.5403E-02  0.1572E+00
     30.942  0.1669E-02  0.1574E+00
     31.083  0.4374E-02  0.1581E+00
     31.225  0.1991E-02  0.1583E+00
     31.366  0.3150E-03  0.1584E+00
     31.508  0.1751E-02  0.1586E+00
     31.649  0.2073E-02  0.1589E+00
     31.790  0.1375E-02  0.1591E+00
     31.932  0.1475E-03  0.1591E+00
     32.073  0.1517E-03  0.1592E+00
     32.215  0.3626E-03  0.1592E+00
     32.356  0.1010E-02  0.1594E+00
     32.497  0.1408E-03  0.1594E+00
     32.639  0.9958E-03  0.1595E+00
     32.780  0.5172E-03  0.1596E+00
     32.922  0.1189E-02  0.1598E+00
     33.063  0.5899E-03  0.1598E+00
     33.204  0.3189E-03  0.1599E+00
     33.346  0.4859E-05  0.1599E+00
     33.487  0.1055E-12  0.1599E+00
     33.629  0.0000E+00  0.1599E+00
     33.770  0.3156E-15  0.1599E+00
     33.911  0.3356E-06  0.1599E+00
     34.053  0.2120E-03  0.1599E+00
     34.194  0.2933E-03  0.1600E+00
     34.336  0.3307E-03  0.1600E+00
     34.477  0.1832E-05  0.1600E+00
     34.618  0.1002E-13  0.1600E+00
     34.760  0.0000E+00  0.1600E+00
     34.901  0.0000E+00  0.1600E+00
     35.043  0.0000E+00  0.1600E+00
     35.184  0.0000E+00  0.1600E+00
     35.325  0.0000E+00  0.1600E+00
     35.467  0.0000E+00  0.1600E+00
     35.608  0.0000E+00  0.1600E+00
     35.749  0.0000E+00  0.1600E+00
     35.891  0.0000E+00  0.1600E+00
     36.032  0.0000E+00  0.1600E+00
     36.174  0.0000E+00  0.1600E+00
