    1    1  100    1
  0.1386300E+02  0.2621157E-09  0.2621157E-09  0.2621157E-09  0.5000000E-15
  1.000000000000000E-004
  CAR 
 unknown system                          
      4    120      8
 
  0.0000000E+00  0.0000000E+00  0.0000000E+00  0.2962963E-03
    1       -4.316812   1.000000
    2       21.284182   0.000000
    3       21.284182   0.000000
    4       21.284182   0.000000
    5       22.436529   0.000000
    6       22.436529   0.000000
    7       22.436529   0.000000
    8       26.128056   0.000000
 
  0.6666667E-01  0.0000000E+00  0.0000000E+00  0.3555556E-02
    1       -4.180758   1.000000
    2       19.676871   0.000000
    3       20.153283   0.000000
    4       21.092557   0.000000
    5       21.990170   0.000000
    6       23.199181   0.000000
    7       23.795114   0.000000
    8       25.221024   0.000000
 
  0.1333333E+00  0.0000000E+00  0.0000000E+00  0.3555556E-02
    1       -3.773129   1.000000
    2       17.065712   0.000000
    3       18.816265   0.000000
    4       20.574057   0.000000
    5       21.013631   0.000000
    6       22.968022   0.000000
    7       25.140968   0.000000
    8       25.810969   0.000000
 
  0.2000000E+00  0.0000000E+00  0.0000000E+00  0.3555556E-02
    1       -3.095551   1.000000
    2       14.246377   0.000000
    3       17.680944   0.000000
    4       19.888937   0.000000
    5       19.958758   0.000000
    6       22.020452   0.000000
    7       26.006817   0.000000
    8       26.191096   0.000000
 
  0.2666667E+00  0.0000000E+00  0.0000000E+00  0.3555556E-02
    1       -2.150737   1.000000
    2       11.473649   0.000000
    3       16.769319   0.000000
    4       19.026417   0.000000
    5       19.207461   0.000000
    6       21.160050   0.000000
    7       26.816281   0.000000
    8       27.080631   0.000000
 
  0.3333333E+00  0.0000000E+00  0.0000000E+00  0.3555556E-02
    1       -0.942609   1.000000
    2        8.852317   1.000000
    3       16.085180   0.000000
    4       18.294160   0.000000
    5       18.638213   0.000000
    6       20.483944   0.000000
    7       27.718196   0.000000
    8       28.290514   0.000000
 
  0.4000000E+00  0.0000000E+00  0.0000000E+00  0.3555556E-02
    1        0.523102   1.000000
    2        6.430023   1.000000
    3       15.629241   0.000000
    4       17.794491   0.000000
    5       18.237358   0.000000
    6       20.020147   0.000000
    7       28.822319   0.000000
    8       29.558396   0.000000
 
  0.4666667E+00  0.0000000E+00  0.0000000E+00  0.3555556E-02
    1        2.231193   1.000000
    2        4.240133   1.000000
    3       15.401361   0.000000
    4       17.541816   0.000000
    5       18.031575   0.000000
    6       19.784429   0.000000
    7       29.898685   0.000000
    8       30.578840   0.000000
 
  0.6666667E-01  0.6666667E-01  0.0000000E+00  0.7111111E-02
    1       -3.908927   1.000000
    2       18.182244   0.000000
    3       18.728213   0.000000
    4       20.077261   0.000000
    5       22.146337   0.000000
    6       23.501744   0.000000
    7       24.457889   0.000000
    8       24.996835   0.000000
 
  0.1333333E+00  0.6666667E-01 -0.6938894E-17  0.1422222E-01
    1       -3.366320   1.000000
    2       15.711702   0.000000
    3       17.273638   0.000000
    4       19.108543   0.000000
    5       21.667928   0.000000
    6       23.058154   0.000000
    7       24.768686   0.000000
    8       26.390002   0.000000
 
  0.2000000E+00  0.6666667E-01 -0.6938894E-17  0.1422222E-01
    1       -2.555108   1.000000
    2       12.929153   0.000000
    3       16.209375   0.000000
    4       18.194235   0.000000
    5       20.936518   0.000000
    6       22.396214   0.000000
    7       25.325082   0.000000
    8       27.648329   0.000000
 
  0.2666667E+00  0.6666667E-01  0.6938894E-17  0.1422222E-01
    1       -1.478574   1.000000
    2       10.232076   0.000000
    3       15.384470   0.000000
    4       17.425390   0.000000
    5       20.233829   0.000000
    6       21.807787   0.000000
    7       26.120560   0.000000
    8       28.795952   0.000000
 
  0.3333333E+00  0.6666667E-01 -0.2081668E-16  0.1422222E-01
    1       -0.141382   1.000000
    2        7.709343   1.000000
    3       14.793452   0.000000
    4       16.854958   0.000000
    5       19.689073   0.000000
    6       21.340362   0.000000
    7       27.182019   0.000000
    8       29.906840   0.000000
 
  0.4000000E+00  0.6666667E-01  0.6938894E-17  0.1422222E-01
    1        1.448663   1.000000
    2        5.399744   1.000000
    3       14.437889   0.000000
    4       16.506230   0.000000
    5       19.350176   0.000000
    6       21.042482   0.000000
    7       28.444485   0.000000
    8       30.517341   0.000000
 
  0.4666667E+00  0.6666667E-01  0.6938894E-17  0.7111111E-02
    1        3.102682   1.000000
    2        3.504718   1.000000
    3       14.319210   0.000000
    4       16.389071   0.000000
    5       19.235552   0.000000
    6       20.940540   0.000000
    7       29.593589   0.000000
    8       29.950870   0.000000
 
  0.1333333E+00  0.1333333E+00  0.0000000E+00  0.7111111E-02
    1       -2.690068   1.000000
    2       14.349411   0.000000
    3       14.815378   0.000000
    4       18.050933   0.000000
    5       21.877453   0.000000
    6       22.976899   0.000000
    7       25.453145   0.000000
    8       26.756068   0.000000
 
  0.2000000E+00  0.1333333E+00  0.1387779E-16  0.1422222E-01
    1       -1.747078   1.000000
    2       11.820854   0.000000
    3       13.644008   0.000000
    4       17.187811   0.000000
    5       21.527196   0.000000
    6       23.029482   0.000000
    7       25.759510   0.000000
    8       28.184821   0.000000
 
  0.2666667E+00  0.1333333E+00  0.0000000E+00  0.1422222E-01
    1       -0.541253   1.000000
    2        9.225340   1.000000
    3       12.901196   0.000000
    4       16.514258   0.000000
    5       20.973621   0.000000
    6       23.261817   0.000000
    7       26.019307   0.000000
    8       29.778281   0.000000
 
  0.3333333E+00  0.1333333E+00  0.0000000E+00  0.1422222E-01
    1        0.921703   1.000000
    2        6.813423   1.000000
    3       12.408149   0.000000
    4       16.054974   0.000000
    5       20.549309   0.000000
    6       23.306047   0.000000
    7       26.808971   0.000000
    8       30.318411   0.000000
 
  0.4000000E+00  0.1333333E+00  0.0000000E+00  0.1422222E-01
    1        2.626986   1.000000
    2        4.629055   1.000000
    3       12.161374   0.000000
    4       15.822755   0.000000
    5       20.327806   0.000000
    6       23.265981   0.000000
    7       27.993543   0.000000
    8       29.427745   0.000000
 
  0.2000000E+00  0.2000000E+00  0.0000000E+00  0.7111111E-02
    1       -0.674731   1.000000
    2       10.799208   0.000000
    3       11.151342   0.000000
    4       16.419010   0.000000
    5       22.043290   0.000000
    6       22.930999   0.000000
    7       27.325127   0.000000
    8       28.253014   0.000000
 
  0.2666667E+00  0.2000000E+00  0.1387779E-16  0.1422222E-01
    1        0.657263   1.000000
    2        8.460125   1.000000
    3       10.364764   0.000000
    4       15.853631   0.000000
    5       21.898278   0.000000
    6       23.576013   0.000000
    7       27.458982   0.000000
    8       29.400509   0.000000
 
  0.3333333E+00  0.2000000E+00  0.1387779E-16  0.1422222E-01
    1        2.241199   1.000000
    2        6.170408   1.000000
    3        9.981391   0.001100
    4       15.508221   0.000000
    5       21.635745   0.000000
    6       24.482961   0.000000
    7       27.295078   0.000000
    8       29.344564   0.000000
 
  0.4000000E+00  0.2000000E+00  0.1387779E-16  0.7111111E-02
    1        3.896512   1.000000
    2        4.277250   1.000000
    3        9.854444   0.701517
    4       15.392163   0.000000
    5       21.537625   0.000000
    6       24.941744   0.000000
    7       27.265704   0.000000
    8       28.915219   0.000000
 
  0.2666667E+00  0.2666667E+00  0.0000000E+00  0.7111111E-02
    1        2.111105   1.000000
    2        7.810692   1.000000
    3        8.120433   1.000000
    4       15.401955   0.000000
    5       22.767258   0.000000
    6       23.666371   0.000000
    7       27.855467   0.000000
    8       29.711430   0.000000
 
  0.3333333E+00  0.2666667E+00  0.0000000E+00  0.1422222E-01
    1        3.805463   1.000000
    2        5.784980   1.000000
    3        7.724322   1.000000
    4       15.172577   0.000000
    5       22.890787   0.000000
    6       24.672147   0.000000
    7       26.526038   0.000000
    8       30.532839   0.000000
 
  0.3333333E+00  0.3333333E+00  0.0000000E+00  0.2370370E-02
    1        5.313842   1.000000
    2        5.819168   1.000000
    3        5.819168   1.000000
    4       15.059275   0.000000
    5       23.702524   0.000000
    6       25.140618   0.000000
    7       25.140618   0.000000
    8       32.525164   0.000000
 
  0.6666667E-01  0.6666667E-01  0.6666667E-01  0.2370370E-02
    1       -3.501847   1.000000
    2       16.714830   0.000000
    3       17.702602   0.000000
    4       17.702602   0.000000
    5       23.362992   0.000000
    6       23.362992   0.000000
    7       25.497125   0.000000
    8       25.497125   0.000000
 
  0.1333333E+00  0.6666667E-01  0.6666667E-01  0.7111111E-02
    1       -2.825159   1.000000
    2       14.432630   0.000000
    3       15.989192   0.000000
    4       16.643148   0.000000
    5       23.064311   0.000000
    6       23.729397   0.000000
    7       25.826524   0.000000
    8       26.305009   0.000000
 
  0.2000000E+00  0.6666667E-01  0.6666667E-01  0.7111111E-02
    1       -1.881562   1.000000
    2       11.714053   0.000000
    3       14.988422   0.000000
    4       15.725690   0.000000
    5       22.619906   0.000000
    6       23.169006   0.000000
    7       27.044071   0.000000
    8       27.045076   0.000000
 
  0.2666667E+00  0.6666667E-01  0.6666667E-01  0.7111111E-02
    1       -0.674944   1.000000
    2        9.104506   1.000000
    3       14.265537   0.000000
    4       15.011933   0.000000
    5       22.165823   0.000000
    6       22.603449   0.000000
    7       27.952449   0.000000
    8       28.361280   0.000000
 
  0.3333333E+00  0.6666667E-01  0.6666667E-01  0.7111111E-02
    1        0.789000   1.000000
    2        6.687284   1.000000
    3       13.786055   0.000000
    4       14.527160   0.000000
    5       21.815551   0.000000
    6       22.195233   0.000000
    7       29.033234   0.000000
    8       29.675231   0.000000
 
  0.4000000E+00  0.6666667E-01  0.6666667E-01  0.7111111E-02
    1        2.495350   1.000000
    2        4.500297   1.000000
    3       13.546402   0.000000
    4       14.282555   0.000000
    5       21.628572   0.000000
    6       21.984299   0.000000
    7       30.056412   0.000000
    8       30.704582   0.000000
 
 -0.6666667E-01  0.6666667E-01  0.6666667E-01  0.1777778E-02
    1       -4.044800   1.000000
    2       19.228856   0.000000
    3       19.228856   0.000000
    4       20.249987   0.000000
    5       22.702515   0.000000
    6       23.645668   0.000000
    7       23.783163   0.000000
    8       23.783163   0.000000
 
  0.1333333E+00  0.1333333E+00  0.6666667E-01  0.7111111E-02
    1       -2.016067   1.000000
    2       13.162987   0.000000
    3       13.676272   0.000000
    4       15.326701   0.000000
    5       23.657919   0.000000
    6       24.533672   0.000000
    7       26.143851   0.000000
    8       27.113463   0.000000
 
  0.2000000E+00  0.1333333E+00  0.6666667E-01  0.1422222E-01
    1       -0.942307   1.000000
    2       10.718342   0.000000
    3       12.590283   0.000000
    4       14.483005   0.000000
    5       23.584682   0.000000
    6       24.617038   0.000000
    7       26.952796   0.000000
    8       28.349379   0.000000
 
  0.2666667E+00  0.1333333E+00  0.6666667E-01  0.1422222E-01
    1        0.391543   1.000000
    2        8.217363   1.000000
    3       11.961735   0.000000
    4       13.878929   0.000000
    5       23.268121   0.000000
    6       24.536001   0.000000
    7       27.841336   0.000000
    8       29.781235   0.000000
 
  0.3333333E+00  0.1333333E+00  0.6666667E-01  0.1422222E-01
    1        1.977800   1.000000
    2        5.916624   1.000000
    3       11.587979   0.000000
    4       13.514133   0.000000
    5       23.016128   0.000000
    6       24.421302   0.000000
    7       28.956139   0.000000
    8       30.646515   0.000000
 
  0.4000000E+00  0.1333333E+00  0.6666667E-01  0.7111111E-02
    1        3.632663   1.000000
    2        4.022022   1.000000
    3       11.463473   0.000000
    4       13.392133   0.000000
    5       22.925411   0.000000
    6       24.371440   0.000000
    7       29.895436   0.000000
    8       30.399286   0.000000
 
 -0.1333333E+00  0.1333333E+00  0.6666667E-01  0.7111111E-02
    1       -3.637419   1.000000
    2       17.068317   0.000000
    3       17.930123   0.000000
    4       19.710589   0.000000
    5       22.082159   0.000000
    6       22.377321   0.000000
    7       24.244329   0.000000
    8       25.410311   0.000000
 
  0.2000000E+00  0.2000000E+00  0.6666667E-01  0.7111111E-02
    1        0.258822   1.000000
    2        9.811719   0.958825
    3       10.171293   0.000000
    4       13.748962   0.000000
    5       24.217755   0.000000
    6       25.220674   0.000000
    7       28.086679   0.000000
    8       28.920512   0.000000
 
  0.2666667E+00  0.2000000E+00  0.6666667E-01  0.1422222E-01
    1        1.716163   1.000000
    2        7.575293   1.000000
    3        9.503086   1.000000
    4       13.262958   0.000000
    5       24.308567   0.000000
    6       25.810856   0.000000
    7       28.589189   0.000000
    8       30.033639   0.000000
 
  0.3333333E+00  0.2000000E+00  0.6666667E-01  0.1422222E-01
    1        3.415273   1.000000
    2        5.405664   1.000000
    3        9.244007   1.000000
    4       13.019230   0.000000
    5       24.219018   0.000000
    6       26.331550   0.000000
    7       28.900030   0.000000
    8       30.248285   0.000000
 
 -0.2000000E+00  0.2000000E+00  0.6666667E-01  0.7111111E-02
    1       -2.960259   1.000000
    2       14.333232   0.000000
    3       16.786472   0.000000
    4       19.086003   0.000000
    5       21.080055   0.000000
    6       21.834928   0.000000
    7       24.296729   0.000000
    8       27.642131   0.000000
 
 -0.1333333E+00  0.2000000E+00  0.6666667E-01  0.7111111E-02
    1       -3.095491   1.000000
    2       15.673065   0.000000
    3       15.989639   0.000000
    4       19.117097   0.000000
    5       21.331858   0.000000
    6       21.831973   0.000000
    7       25.130762   0.000000
    8       26.042074   0.000000
 
  0.2666667E+00  0.2666667E+00  0.6666667E-01  0.7111111E-02
    1        3.290624   1.000000
    2        7.049643   1.000000
    3        7.366280   1.000000
    4       12.897724   0.000000
    5       25.167989   0.000000
    6       26.334832   0.000000
    7       28.842970   0.000000
    8       30.603882   0.000000
 
  0.3333333E+00  0.2666667E+00  0.6666667E-01  0.7111111E-02
    1        4.932155   1.000000
    2        5.311025   1.000000
    3        7.098323   1.000000
    4       12.775868   0.000000
    5       25.383046   0.000000
    6       27.033757   0.000000
    7       28.015116   0.000000
    8       31.388302   0.000000
 
 -0.2666667E+00  0.2666667E+00  0.6666667E-01  0.7111111E-02
    1       -2.016041   1.000000
    2       11.585658   0.000000
    3       15.856081   0.000000
    4       18.356708   0.000000
    5       20.178680   0.000000
    6       21.538191   0.000000
    7       24.541760   0.000000
    8       29.375544   0.000000
 
 -0.2000000E+00  0.2666667E+00  0.6666667E-01  0.1422222E-01
    1       -2.285314   1.000000
    2       13.124629   0.000000
    3       14.791300   0.000000
    4       18.595555   0.000000
    5       20.784205   0.000000
    6       21.417313   0.000000
    7       25.142021   0.000000
    8       27.807723   0.000000
 
 -0.3333333E+00  0.3333333E+00  0.6666667E-01  0.7111111E-02
    1       -0.808694   1.000000
    2        8.974169   1.000000
    3       15.153123   0.000000
    4       17.727859   0.000000
    5       19.470007   0.000000
    6       21.216690   0.000000
    7       25.247664   0.000000
    8       30.281201   0.000000
 
 -0.2666667E+00  0.3333333E+00  0.6666667E-01  0.1422222E-01
    1       -1.210172   1.000000
    2       10.465512   0.000000
    3       13.944930   0.000000
    4       17.974205   0.000000
    5       20.093235   0.000000
    6       21.720270   0.000000
    7       24.905935   0.000000
    8       29.668505   0.000000
 
 -0.2000000E+00  0.3333333E+00  0.6666667E-01  0.7111111E-02
    1       -1.344172   1.000000
    2       12.000004   0.000000
    3       12.328854   0.000000
    4       18.358941   0.000000
    5       20.688328   0.000000
    6       20.839543   0.000000
    7       26.785651   0.000000
    8       27.678258   0.000000
 
 -0.4000000E+00  0.4000000E+00  0.6666667E-01  0.7111111E-02
    1        0.656045   1.000000
    2        6.556596   1.000000
    3       14.682715   0.000000
    4       17.284690   0.000000
    5       18.986886   0.000000
    6       20.931191   0.000000
    7       26.339282   0.000000
    8       30.326128   0.000000
 
 -0.3333333E+00  0.4000000E+00  0.6666667E-01  0.1422222E-01
    1        0.125249   1.000000
    2        7.957594   1.000000
    3       13.338978   0.000000
    4       17.459819   0.000000
    5       19.526772   0.000000
    6       22.106939   0.000000
    7       25.079742   0.000000
    8       29.911507   0.000000
 
 -0.2666667E+00  0.4000000E+00  0.6666667E-01  0.1422222E-01
    1       -0.140764   1.000000
    2        9.581539   1.000000
    3       11.436529   0.000000
    4       17.945520   0.000000
    5       20.150179   0.000000
    6       21.404301   0.000000
    7       26.672984   0.000000
    8       28.854584   0.000000
 
 -0.4666667E+00  0.4666667E+00  0.6666667E-01  0.7111111E-02
    1        2.363137   1.000000
    2        4.369136   1.000000
    3       14.447074   0.000000
    4       17.057788   0.000000
    5       18.742806   0.000000
    6       20.769022   0.000000
    7       27.687809   0.000000
    8       29.185399   0.000000
 
 -0.4000000E+00  0.4666667E+00  0.6666667E-01  0.1422222E-01
    1        1.713152   1.000000
    2        5.655336   1.000000
    3       12.974317   0.000000
    4       17.134763   0.000000
    5       19.172993   0.000000
    6       22.273527   0.000000
    7       25.873239   0.000000
    8       28.733832   0.000000
 
 -0.3333333E+00  0.4666667E+00  0.6666667E-01  0.1422222E-01
    1        1.319129   1.000000
    2        7.189707   1.000000
    3       10.932779   0.000000
    4       17.582447   0.000000
    5       19.697653   0.000000
    6       22.397214   0.000000
    7       26.162867   0.000000
    8       28.604551   0.000000
 
 -0.2666667E+00  0.4666667E+00  0.6666667E-01  0.7111111E-02
    1        1.187401   1.000000
    2        8.814531   1.000000
    3        9.111923   1.000000
    4       17.691859   0.000000
    5       20.824948   0.000000
    6       21.067777   0.000000
    7       27.053615   0.000000
    8       28.970877   0.000000
 
 -0.4666667E+00 -0.4666667E+00  0.6666667E-01  0.7111111E-02
    1        3.368775   1.000000
    2        3.760133   1.000000
    3       12.852575   0.000000
    4       17.024412   0.000000
    5       19.053335   0.000000
    6       22.300127   0.000000
    7       26.853429   0.000000
    8       27.558850   0.000000
 
 -0.4000000E+00 -0.4666667E+00  0.6666667E-01  0.1422222E-01
    1        3.020997   1.000000
    2        5.014276   1.000000
    3       10.681903   0.000000
    4       17.385134   0.000000
    5       19.463223   0.000000
    6       23.359545   0.000000
    7       25.612048   0.000000
    8       27.900494   0.000000
 
 -0.3333333E+00 -0.4666667E+00  0.6666667E-01  0.1422222E-01
    1        2.766372   1.000000
    2        6.672754   1.000000
    3        8.594976   1.000000
    4       17.451785   0.000000
    5       20.607485   0.000000
    6       22.190188   0.000000
    7       25.496776   0.000000
    8       29.696756   0.000000
 
 -0.4000000E+00 -0.4000000E+00  0.6666667E-01  0.7111111E-02
    1        4.420942   1.000000
    2        4.786439   1.000000
    3        8.464150   1.000000
    4       17.362207   0.000000
    5       20.500828   0.000000
    6       23.296038   0.000000
    7       24.243042   0.000000
    8       29.783377   0.000000
 
 -0.3333333E+00 -0.4000000E+00  0.6666667E-01  0.7111111E-02
    1        4.448909   1.000000
    2        6.290574   1.000000
    3        6.576943   1.000000
    4       17.317442   0.000000
    5       21.707137   0.000000
    6       22.276969   0.000000
    7       23.798711   0.000000
    8       31.662479   0.000000
 
  0.1333333E+00  0.1333333E+00  0.1333333E+00  0.2370370E-02
    1       -1.076184   1.000000
    2       12.048289   0.000000
    3       12.716761   0.000000
    4       12.716761   0.000000
    5       25.313657   0.000000
    6       25.313657   0.000000
    7       27.348761   0.000000
    8       27.348761   0.000000
 
  0.2000000E+00  0.1333333E+00  0.1333333E+00  0.7111111E-02
    1        0.125801   1.000000
    2        9.840703   0.820540
    3       11.580187   0.000000
    4       11.980244   0.000000
    5       25.551942   0.000000
    6       25.886649   0.000000
    7       28.383633   0.000000
    8       28.525250   0.000000
 
  0.2666667E+00  0.1333333E+00  0.1333333E+00  0.7111111E-02
    1        1.584249   1.000000
    2        7.453667   1.000000
    3       11.062813   0.000000
    4       11.483476   0.000000
    5       25.563952   0.000000
    6       25.792898   0.000000
    7       29.592240   0.000000
    8       29.869455   0.000000
 
  0.3333333E+00  0.1333333E+00  0.1333333E+00  0.7111111E-02
    1        3.284755   1.000000
    2        5.278182   1.000000
    3       10.810385   0.000000
    4       11.233679   0.000000
    5       25.525783   0.000000
    6       25.681430   0.000000
    7       30.459422   0.000000
    8       30.999055   0.000000
 
 -0.1333333E+00  0.1333333E+00  0.1333333E+00  0.1777778E-02
    1       -3.230817   1.000000
    2       16.628504   0.000000
    3       16.628504   0.000000
    4       18.257586   0.000000
    5       20.512819   0.000000
    6       23.498363   0.000000
    7       25.029253   0.000000
    8       25.029253   0.000000
 
  0.2000000E+00  0.2000000E+00  0.1333333E+00  0.7111111E-02
    1        1.452667   1.000000
    2        9.052281   1.000000
    3        9.423402   1.000000
    4       11.178705   0.000000
    5       26.462054   0.000000
    6       27.175348   0.000000
    7       29.093175   0.000000
    8       29.568748   0.000000
 
  0.2666667E+00  0.2000000E+00  0.1333333E+00  0.1422222E-01
    1        3.030532   1.000000
    2        6.938239   1.000000
    3        8.874402   1.000000
    4       10.798285   0.000000
    5       26.776047   0.000000
    6       27.713171   0.000000
    7       29.987033   0.000000
    8       30.639528   0.000000
 
  0.3333333E+00  0.2000000E+00  0.1333333E+00  0.7111111E-02
    1        4.680258   1.000000
    2        5.056254   1.000000
    3        8.742055   1.000000
    4       10.672422   0.000000
    5       26.820503   0.000000
    6       27.880893   0.000000
    7       30.374780   0.000000
    8       31.155750   0.000000
 
 -0.2000000E+00  0.2000000E+00  0.1333333E+00  0.7111111E-02
    1       -2.554950   1.000000
    2       14.533576   0.000000
    3       15.470059   0.000000
    4       17.663237   0.000000
    5       19.633213   0.000000
    6       23.045510   0.000000
    7       25.219894   0.000000
    8       26.772476   0.000000
 
  0.2666667E+00  0.2666667E+00  0.1333333E+00  0.7111111E-02
    1        4.711590   1.000000
    2        6.549176   1.000000
    3        6.860027   1.000000
    4       10.541952   0.000000
    5       27.565213   0.000000
    6       28.821751   0.000000
    7       29.903616   0.000000
    8       31.473204   0.000000
 
 -0.2666667E+00  0.2666667E+00  0.1333333E+00  0.7111111E-02
    1       -1.612545   1.000000
    2       11.908435   0.000000
    3       14.524795   0.000000
    4       17.026113   0.000000
    5       19.829832   0.000000
    6       22.220635   0.000000
    7       24.894619   0.000000
    8       29.234835   0.000000
 
 -0.2000000E+00  0.2666667E+00  0.1333333E+00  0.7111111E-02
    1       -1.746836   1.000000
    2       13.348598   0.000000
    3       13.578184   0.000000
    4       17.283047   0.000000
    5       18.764278   0.000000
    6       22.870666   0.000000
    7       26.461304   0.000000
    8       27.149006   0.000000
 
 -0.3333333E+00  0.3333333E+00  0.1333333E+00  0.7111111E-02
    1       -0.407565   1.000000
    2        9.335456   1.000000
    3       13.809750   0.000000
    4       16.383914   0.000000
    5       20.500482   0.000000
    6       21.541706   0.000000
    7       24.578745   0.000000
    8       29.470546   0.000000
 
 -0.2666667E+00  0.3333333E+00  0.1333333E+00  0.1422222E-01
    1       -0.674500   1.000000
    2       10.913559   0.000000
    3       12.625366   0.000000
    4       16.923413   0.000000
    5       18.968539   0.000000
    6       22.251942   0.000000
    7       26.210921   0.000000
    8       28.464710   0.000000
 
 -0.4000000E+00  0.4000000E+00  0.1333333E+00  0.7111111E-02
    1        1.054202   1.000000
    2        6.934493   1.000000
    3       13.331036   0.000000
    4       15.920261   0.000000
    5       21.073820   0.000000
    6       21.212031   0.000000
    7       24.588652   0.000000
    8       28.240990   0.000000
 
 -0.3333333E+00  0.4000000E+00  0.1333333E+00  0.1422222E-01
    1        0.657277   1.000000
    2        8.447862   1.000000
    3       12.009580   0.000000
    4       16.430267   0.000000
    5       19.783764   0.000000
    6       21.816931   0.000000
    7       25.477051   0.000000
    8       28.076477   0.000000
 
 -0.2666667E+00  0.4000000E+00  0.1333333E+00  0.7111111E-02
    1        0.524740   1.000000
    2       10.039275   0.000001
    3       10.311245   0.000000
    4       17.345088   0.000000
    5       18.676767   0.000000
    6       21.793192   0.000000
    7       26.472273   0.000000
    8       28.428310   0.000000
 
 -0.4666667E+00  0.4666667E+00  0.1333333E+00  0.7111111E-02
    1        2.758081   1.000000
    2        4.755203   1.000000
    3       13.091202   0.000000
    4       15.682135   0.000000
    5       20.836555   0.000000
    6       21.635122   0.000000
    7       25.074321   0.000000
    8       26.914851   0.000000
 
 -0.4000000E+00  0.4666667E+00  0.1333333E+00  0.1422222E-01
    1        2.240643   1.000000
    2        6.163666   1.000000
    3       11.639946   0.000000
    4       16.095751   0.000000
    5       20.498717   0.000000
    6       21.909255   0.000000
    7       24.524542   0.000000
    8       27.297072   0.000000
 
 -0.3333333E+00  0.4666667E+00  0.1333333E+00  0.1422222E-01
    1        1.979222   1.000000
    2        7.807088   1.000000
    3        9.683956   1.000000
    4       17.264001   0.000000
    5       19.355391   0.000000
    6       21.504043   0.000000
    7       24.787207   0.000000
    8       29.042982   0.000000
 
 -0.4666667E+00 -0.4666667E+00  0.1333333E+00  0.7111111E-02
    1        3.898483   1.000000
    2        4.269781   1.000000
    3       11.516615   0.000000
    4       15.980774   0.000000
    5       20.659419   0.000000
    6       22.433961   0.000000
    7       23.775943   0.000000
    8       27.008192   0.000000
 
 -0.4000000E+00 -0.4666667E+00  0.1333333E+00  0.1422222E-01
    1        3.674566   1.000000
    2        5.652218   1.000000
    3        9.428150   1.000000
    4       17.102066   0.000000
    5       20.104932   0.000000
    6       21.826241   0.000000
    7       23.105638   0.000000
    8       29.070242   0.000000
 
 -0.3333333E+00 -0.4666667E+00  0.1333333E+00  0.7111111E-02
    1        3.549537   1.000000
    2        7.296431   1.000000
    3        7.575161   1.000000
    4       17.924537   0.000000
    5       19.578946   0.000000
    6       21.252525   0.000000
    7       23.053022   0.000000
    8       30.940196   0.000000
 
 -0.4000000E+00 -0.4000000E+00  0.1333333E+00  0.7111111E-02
    1        5.196070   1.000000
    2        5.546220   1.000000
    3        7.323250   1.000000
    4       18.053666   0.000000
    5       20.166303   0.000000
    6       21.304001   0.000000
    7       21.879417   0.000000
    8       31.542051   0.000000
 
  0.2000000E+00  0.2000000E+00  0.2000000E+00  0.2370370E-02
    1        2.900877   1.000000
    2        8.414275   1.000000
    3        8.920507   1.000000
    4        8.920507   1.000000
    5       28.392458   0.000000
    6       28.392458   0.000000
    7       30.180290   0.000000
    8       30.180290   0.000000
 
  0.2666667E+00  0.2000000E+00  0.2000000E+00  0.7111111E-02
    1        4.587671   1.000000
    2        6.556170   1.000000
    3        8.362313   1.000000
    4        8.668024   1.000000
    5       28.929208   0.000000
    6       29.265077   0.000000
    7       30.879161   0.000000
    8       31.152479   0.000000
 
 -0.2000000E+00  0.2000000E+00  0.2000000E+00  0.1777778E-02
    1       -1.881220   1.000000
    2       14.299274   0.000000
    3       14.299274   0.000000
    4       16.211582   0.000000
    5       17.813574   0.000000
    6       24.816848   0.000000
    7       26.352946   0.000000
    8       26.352946   0.000000
 