 running on    4 total cores
 distrk:  each k-point on    4 cores,    1 groups
 distr:  one band on    1 cores,    4 groups
 vasp.6.2.0 18Jan21 (build Aug 12 2022 13:00:08) complex                        
  
 POSCAR found type information on POSCAR Si
 POSCAR found :  1 types and       1 ions
 scaLAPACK will be used
 LDA part: xc-table for Pade appr. of Perdew
 POSCAR, INCAR and KPOINTS ok, starting setup
 FFT: planning ...
 WAVECAR not read
 entering main loop
       N       E                     dE             d eps       ncg     rms          rms(c)
DAV:   1    -0.190085902342E+01   -0.19009E+01   -0.20881E+03  2024   0.441E+02
DAV:   2    -0.489717271113E+01   -0.29963E+01   -0.28377E+01  2944   0.331E+01
DAV:   3    -0.491374326466E+01   -0.16571E-01   -0.16562E-01  2128   0.265E+00
DAV:   4    -0.491375879929E+01   -0.15535E-04   -0.15535E-04  3144   0.875E-02
DAV:   5    -0.491375880173E+01   -0.24485E-08   -0.29911E-08  2136   0.808E-04    0.285E+00
DAV:   6    -0.490231242606E+01    0.11446E-01   -0.35878E-03  2048   0.267E-01    0.158E+00
DAV:   7    -0.489574581273E+01    0.65666E-02   -0.72363E-03  2080   0.380E-01    0.136E-01
DAV:   8    -0.489572463081E+01    0.21182E-04   -0.35189E-05  2792   0.468E-02    0.115E-02
DAV:   9    -0.489572519261E+01   -0.56180E-06   -0.46390E-07  2208   0.397E-03
   1 F= -.48957252E+01 E0= -.48954104E+01  d E =-.489573E+01
 curvature:   0.00 expect dE= 0.000E+00 dE for cont linesearch  0.000E+00
 trial: gam= 0.00000 g(F)=  0.165E-64 g(S)=  0.344E-01 ort = 0.000E+00 (trialstep = 0.100E+01)
 search vector abs. value=  0.344E-01
 bond charge predicted
       N       E                     dE             d eps       ncg     rms          rms(c)
DAV:   1    -0.491625544518E+01   -0.20531E-01   -0.50150E-01  1960   0.286E+00    0.665E-01
DAV:   2    -0.491087842309E+01    0.53770E-02   -0.33436E-03  2144   0.482E-01    0.383E-01
DAV:   3    -0.490768038280E+01    0.31980E-02   -0.35220E-03  2056   0.257E-01    0.113E-01
DAV:   4    -0.490767728188E+01    0.31009E-05   -0.75915E-06  2480   0.263E-02    0.961E-02
DAV:   5    -0.490766510811E+01    0.12174E-04   -0.13053E-06  2368   0.814E-03    0.175E-02
DAV:   6    -0.490766551029E+01   -0.40217E-06   -0.24992E-08  1056   0.133E-03
   2 F= -.49076655E+01 E0= -.49074342E+01  d E =-.119403E-01
 trial-energy change:   -0.011940  1 .order   -0.012518   -0.034441    0.009404
 step:   0.7716(harm=  0.7855)  dis= 0.00000  next Energy=    -4.908747 (dE=-0.130E-01)
 bond charge predicted
       N       E                     dE             d eps       ncg     rms          rms(c)
DAV:   1    -0.490916760612E+01   -0.15025E-02   -0.26853E-02  1952   0.673E-01    0.151E-01
DAV:   2    -0.490888321771E+01    0.28439E-03   -0.17704E-04  2176   0.113E-01    0.866E-02
DAV:   3    -0.490871600527E+01    0.16721E-03   -0.18553E-04  2064   0.591E-02    0.280E-02
DAV:   4    -0.490871608553E+01   -0.80258E-07   -0.38734E-07  2384   0.596E-03    0.243E-02
DAV:   5    -0.490871679442E+01   -0.70889E-06   -0.71827E-08  1120   0.201E-03    0.475E-03
DAV:   6    -0.490871665919E+01    0.13523E-06   -0.32305E-09   960   0.579E-04
   3 F= -.49087167E+01 E0= -.49084726E+01  d E =-.129915E-01
 curvature:  -0.39 expect dE=-0.111E-06 dE for cont linesearch -0.111E-06
 trial: gam=-0.00286 g(F)=  0.257E-64 g(S)=  0.283E-06 ort = 0.987E-04 (trialstep = 0.954E+00)
 search vector abs. value=  0.102E-09
 reached required accuracy - stopping structural energy minimisation
