<?xml version="1.0" encoding="ISO-8859-1"?>
<modeling>
 <generator>
  <i name="program" type="string">vasp </i>
  <i name="version" type="string">6.2.0  </i>
  <i name="subversion" type="string">18Jan21 (build Aug 12 2022 13:00:08) complex                          parallel </i>
  <i name="platform" type="string">LinuxIFC </i>
  <i name="date" type="string">2024 11 03 </i>
  <i name="time" type="string">22:09:06 </i>
 </generator>
 <incar>
  <i type="int" name="ISTART">     0</i>
  <i type="string" name="PREC">Accurate      (Accurate strictly avoids</i>
  <i type="logical" name="ADDGRID"> T  </i>
  <i type="int" name="ISPIN">     1</i>
  <i type="int" name="NELM">    90</i>
  <i type="int" name="NELMIN">     6</i>
  <i type="int" name="IBRION">     2</i>
  <i name="EDIFF">      0.00000100</i>
  <i name="EDIFFG">     -0.00200000</i>
  <i type="int" name="NSW">   100</i>
  <i type="int" name="ISIF">     3</i>
  <i type="int" name="ISYM">     2</i>
  <i name="ENCUT">    600.00000000</i>
  <i type="logical" name="LREAL"> F  </i>
  <i type="int" name="ISMEAR">     0</i>
  <i name="SIGMA">      0.05000000</i>
  <i type="logical" name="LWAVE"> F  </i>
  <i type="logical" name="LCHARG"> F  </i>
  <i type="logical" name="LASPH"> T  </i>
 </incar>
 <primitive_cell>
  <structure name="primitive_cell" >
   <crystal>
    <varray name="basis" >
     <v>       1.51332563       1.51332563       1.51332563 </v>
     <v>       1.51332563      -1.51332563      -1.51332563 </v>
     <v>      -1.51332563       1.51332563      -1.51332563 </v>
    </varray>
    <i name="volume">     13.86299778 </i>
    <varray name="rec_basis" >
     <v>       0.33039816       0.33039816       0.00000000 </v>
     <v>       0.33039816       0.00000000      -0.33039816 </v>
     <v>       0.00000000       0.33039816      -0.33039816 </v>
    </varray>
   </crystal>
   <varray name="positions" >
    <v>       0.00000000       0.00000000       0.00000000 </v>
   </varray>
  </structure>
  <varray name="primitive_index" >
   <v type="int" >        1 </v>
  </varray>
 </primitive_cell>
 <kpoints>
  <generation param="Monkhorst-Pack">
   <v type="int" name="divisions">      15       15       15 </v>
   <v name="usershift">      0.00000000       0.00000000       0.00000000 </v>
   <v name="genvec1">      0.06666667       0.00000000       0.00000000 </v>
   <v name="genvec2">      0.00000000       0.06666667       0.00000000 </v>
   <v name="genvec3">      0.00000000       0.00000000       0.06666667 </v>
   <v name="shift">      0.00000000       0.00000000       0.00000000 </v>
  </generation>
  <varray name="kpointlist" >
   <v>       0.00000000       0.00000000       0.00000000 </v>
   <v>       0.06666667       0.00000000       0.00000000 </v>
   <v>       0.13333333       0.00000000       0.00000000 </v>
   <v>       0.20000000       0.00000000       0.00000000 </v>
   <v>       0.26666667       0.00000000       0.00000000 </v>
   <v>       0.33333333       0.00000000       0.00000000 </v>
   <v>       0.40000000       0.00000000       0.00000000 </v>
   <v>       0.46666667       0.00000000       0.00000000 </v>
   <v>       0.06666667       0.06666667       0.00000000 </v>
   <v>       0.13333333       0.06666667      -0.00000000 </v>
   <v>       0.20000000       0.06666667      -0.00000000 </v>
   <v>       0.26666667       0.06666667       0.00000000 </v>
   <v>       0.33333333       0.06666667      -0.00000000 </v>
   <v>       0.40000000       0.06666667       0.00000000 </v>
   <v>       0.46666667       0.06666667       0.00000000 </v>
   <v>       0.13333333       0.13333333       0.00000000 </v>
   <v>       0.20000000       0.13333333       0.00000000 </v>
   <v>       0.26666667       0.13333333       0.00000000 </v>
   <v>       0.33333333       0.13333333       0.00000000 </v>
   <v>       0.40000000       0.13333333       0.00000000 </v>
   <v>       0.20000000       0.20000000       0.00000000 </v>
   <v>       0.26666667       0.20000000       0.00000000 </v>
   <v>       0.33333333       0.20000000       0.00000000 </v>
   <v>       0.40000000       0.20000000       0.00000000 </v>
   <v>       0.26666667       0.26666667       0.00000000 </v>
   <v>       0.33333333       0.26666667       0.00000000 </v>
   <v>       0.33333333       0.33333333       0.00000000 </v>
   <v>       0.06666667       0.06666667       0.06666667 </v>
   <v>       0.13333333       0.06666667       0.06666667 </v>
   <v>       0.20000000       0.06666667       0.06666667 </v>
   <v>       0.26666667       0.06666667       0.06666667 </v>
   <v>       0.33333333       0.06666667       0.06666667 </v>
   <v>       0.40000000       0.06666667       0.06666667 </v>
   <v>      -0.06666667       0.06666667       0.06666667 </v>
   <v>       0.13333333       0.13333333       0.06666667 </v>
   <v>       0.20000000       0.13333333       0.06666667 </v>
   <v>       0.26666667       0.13333333       0.06666667 </v>
   <v>       0.33333333       0.13333333       0.06666667 </v>
   <v>       0.40000000       0.13333333       0.06666667 </v>
   <v>      -0.13333333       0.13333333       0.06666667 </v>
   <v>       0.20000000       0.20000000       0.06666667 </v>
   <v>       0.26666667       0.20000000       0.06666667 </v>
   <v>       0.33333333       0.20000000       0.06666667 </v>
   <v>      -0.20000000       0.20000000       0.06666667 </v>
   <v>      -0.13333333       0.20000000       0.06666667 </v>
   <v>       0.26666667       0.26666667       0.06666667 </v>
   <v>       0.33333333       0.26666667       0.06666667 </v>
   <v>      -0.26666667       0.26666667       0.06666667 </v>
   <v>      -0.20000000       0.26666667       0.06666667 </v>
   <v>      -0.33333333       0.33333333       0.06666667 </v>
   <v>      -0.26666667       0.33333333       0.06666667 </v>
   <v>      -0.20000000       0.33333333       0.06666667 </v>
   <v>      -0.40000000       0.40000000       0.06666667 </v>
   <v>      -0.33333333       0.40000000       0.06666667 </v>
   <v>      -0.26666667       0.40000000       0.06666667 </v>
   <v>      -0.46666667       0.46666667       0.06666667 </v>
   <v>      -0.40000000       0.46666667       0.06666667 </v>
   <v>      -0.33333333       0.46666667       0.06666667 </v>
   <v>      -0.26666667       0.46666667       0.06666667 </v>
   <v>      -0.46666667      -0.46666667       0.06666667 </v>
   <v>      -0.40000000      -0.46666667       0.06666667 </v>
   <v>      -0.33333333      -0.46666667       0.06666667 </v>
   <v>      -0.40000000      -0.40000000       0.06666667 </v>
   <v>      -0.33333333      -0.40000000       0.06666667 </v>
   <v>       0.13333333       0.13333333       0.13333333 </v>
   <v>       0.20000000       0.13333333       0.13333333 </v>
   <v>       0.26666667       0.13333333       0.13333333 </v>
   <v>       0.33333333       0.13333333       0.13333333 </v>
   <v>      -0.13333333       0.13333333       0.13333333 </v>
   <v>       0.20000000       0.20000000       0.13333333 </v>
   <v>       0.26666667       0.20000000       0.13333333 </v>
   <v>       0.33333333       0.20000000       0.13333333 </v>
   <v>      -0.20000000       0.20000000       0.13333333 </v>
   <v>       0.26666667       0.26666667       0.13333333 </v>
   <v>      -0.26666667       0.26666667       0.13333333 </v>
   <v>      -0.20000000       0.26666667       0.13333333 </v>
   <v>      -0.33333333       0.33333333       0.13333333 </v>
   <v>      -0.26666667       0.33333333       0.13333333 </v>
   <v>      -0.40000000       0.40000000       0.13333333 </v>
   <v>      -0.33333333       0.40000000       0.13333333 </v>
   <v>      -0.26666667       0.40000000       0.13333333 </v>
   <v>      -0.46666667       0.46666667       0.13333333 </v>
   <v>      -0.40000000       0.46666667       0.13333333 </v>
   <v>      -0.33333333       0.46666667       0.13333333 </v>
   <v>      -0.46666667      -0.46666667       0.13333333 </v>
   <v>      -0.40000000      -0.46666667       0.13333333 </v>
   <v>      -0.33333333      -0.46666667       0.13333333 </v>
   <v>      -0.40000000      -0.40000000       0.13333333 </v>
   <v>       0.20000000       0.20000000       0.20000000 </v>
   <v>       0.26666667       0.20000000       0.20000000 </v>
   <v>      -0.20000000       0.20000000       0.20000000 </v>
   <v>       0.26666667       0.26666667       0.20000000 </v>
   <v>      -0.26666667       0.26666667       0.20000000 </v>
   <v>      -0.33333333       0.33333333       0.20000000 </v>
   <v>      -0.26666667       0.33333333       0.20000000 </v>
   <v>      -0.40000000       0.40000000       0.20000000 </v>
   <v>      -0.33333333       0.40000000       0.20000000 </v>
   <v>      -0.46666667       0.46666667       0.20000000 </v>
   <v>      -0.40000000       0.46666667       0.20000000 </v>
   <v>      -0.33333333       0.46666667       0.20000000 </v>
   <v>      -0.46666667      -0.46666667       0.20000000 </v>
   <v>      -0.40000000      -0.46666667       0.20000000 </v>
   <v>      -0.40000000      -0.40000000       0.20000000 </v>
   <v>      -0.26666667       0.26666667       0.26666667 </v>
   <v>      -0.33333333       0.33333333       0.26666667 </v>
   <v>      -0.40000000       0.40000000       0.26666667 </v>
   <v>      -0.33333333       0.40000000       0.26666667 </v>
   <v>      -0.46666667       0.46666667       0.26666667 </v>
   <v>      -0.40000000       0.46666667       0.26666667 </v>
   <v>      -0.46666667      -0.46666667       0.26666667 </v>
   <v>      -0.40000000      -0.46666667       0.26666667 </v>
   <v>      -0.33333333       0.33333333       0.33333333 </v>
   <v>      -0.40000000       0.40000000       0.33333333 </v>
   <v>      -0.46666667       0.46666667       0.33333333 </v>
   <v>      -0.40000000       0.46666667       0.33333333 </v>
   <v>      -0.46666667      -0.46666667       0.33333333 </v>
   <v>      -0.40000000       0.40000000       0.40000000 </v>
   <v>      -0.46666667       0.46666667       0.40000000 </v>
   <v>      -0.46666667      -0.46666667       0.40000000 </v>
   <v>      -0.46666667       0.46666667       0.46666667 </v>
  </varray>
  <varray name="weights" >
   <v>       0.00029630 </v>
   <v>       0.00355556 </v>
   <v>       0.00355556 </v>
   <v>       0.00355556 </v>
   <v>       0.00355556 </v>
   <v>       0.00355556 </v>
   <v>       0.00355556 </v>
   <v>       0.00355556 </v>
   <v>       0.00711111 </v>
   <v>       0.01422222 </v>
   <v>       0.01422222 </v>
   <v>       0.01422222 </v>
   <v>       0.01422222 </v>
   <v>       0.01422222 </v>
   <v>       0.00711111 </v>
   <v>       0.00711111 </v>
   <v>       0.01422222 </v>
   <v>       0.01422222 </v>
   <v>       0.01422222 </v>
   <v>       0.01422222 </v>
   <v>       0.00711111 </v>
   <v>       0.01422222 </v>
   <v>       0.01422222 </v>
   <v>       0.00711111 </v>
   <v>       0.00711111 </v>
   <v>       0.01422222 </v>
   <v>       0.00237037 </v>
   <v>       0.00237037 </v>
   <v>       0.00711111 </v>
   <v>       0.00711111 </v>
   <v>       0.00711111 </v>
   <v>       0.00711111 </v>
   <v>       0.00711111 </v>
   <v>       0.00177778 </v>
   <v>       0.00711111 </v>
   <v>       0.01422222 </v>
   <v>       0.01422222 </v>
   <v>       0.01422222 </v>
   <v>       0.00711111 </v>
   <v>       0.00711111 </v>
   <v>       0.00711111 </v>
   <v>       0.01422222 </v>
   <v>       0.01422222 </v>
   <v>       0.00711111 </v>
   <v>       0.00711111 </v>
   <v>       0.00711111 </v>
   <v>       0.00711111 </v>
   <v>       0.00711111 </v>
   <v>       0.01422222 </v>
   <v>       0.00711111 </v>
   <v>       0.01422222 </v>
   <v>       0.00711111 </v>
   <v>       0.00711111 </v>
   <v>       0.01422222 </v>
   <v>       0.01422222 </v>
   <v>       0.00711111 </v>
   <v>       0.01422222 </v>
   <v>       0.01422222 </v>
   <v>       0.00711111 </v>
   <v>       0.00711111 </v>
   <v>       0.01422222 </v>
   <v>       0.01422222 </v>
   <v>       0.00711111 </v>
   <v>       0.00711111 </v>
   <v>       0.00237037 </v>
   <v>       0.00711111 </v>
   <v>       0.00711111 </v>
   <v>       0.00711111 </v>
   <v>       0.00177778 </v>
   <v>       0.00711111 </v>
   <v>       0.01422222 </v>
   <v>       0.00711111 </v>
   <v>       0.00711111 </v>
   <v>       0.00711111 </v>
   <v>       0.00711111 </v>
   <v>       0.00711111 </v>
   <v>       0.00711111 </v>
   <v>       0.01422222 </v>
   <v>       0.00711111 </v>
   <v>       0.01422222 </v>
   <v>       0.00711111 </v>
   <v>       0.00711111 </v>
   <v>       0.01422222 </v>
   <v>       0.01422222 </v>
   <v>       0.00711111 </v>
   <v>       0.01422222 </v>
   <v>       0.00711111 </v>
   <v>       0.00711111 </v>
   <v>       0.00237037 </v>
   <v>       0.00711111 </v>
   <v>       0.00177778 </v>
   <v>       0.00237037 </v>
   <v>       0.00711111 </v>
   <v>       0.00711111 </v>
   <v>       0.00711111 </v>
   <v>       0.00711111 </v>
   <v>       0.01422222 </v>
   <v>       0.00711111 </v>
   <v>       0.01422222 </v>
   <v>       0.00711111 </v>
   <v>       0.00711111 </v>
   <v>       0.01422222 </v>
   <v>       0.00237037 </v>
   <v>       0.00177778 </v>
   <v>       0.00711111 </v>
   <v>       0.00711111 </v>
   <v>       0.00711111 </v>
   <v>       0.00711111 </v>
   <v>       0.01422222 </v>
   <v>       0.00711111 </v>
   <v>       0.00711111 </v>
   <v>       0.00177778 </v>
   <v>       0.00711111 </v>
   <v>       0.00711111 </v>
   <v>       0.00711111 </v>
   <v>       0.00711111 </v>
   <v>       0.00177778 </v>
   <v>       0.00711111 </v>
   <v>       0.00237037 </v>
   <v>       0.00177778 </v>
  </varray>
 </kpoints>
 <parameters>
  <separator name="general" >
   <i type="string" name="SYSTEM">unknown system</i>
   <i type="logical" name="LCOMPAT"> F  </i>
  </separator>
  <separator name="electronic" >
   <i type="string" name="PREC">accura</i>
   <i name="ENMAX">    600.00000000</i>
   <i name="ENAUG">    322.06900000</i>
   <i name="EDIFF">      0.00000100</i>
   <i type="int" name="IALGO">    38</i>
   <i type="int" name="IWAVPR">    11</i>
   <i type="int" name="NBANDS">     8</i>
   <i type="int" name="NBANDSLOW">    -1</i>
   <i type="int" name="NBANDSHIGH">    -1</i>
   <i name="NELECT">      4.00000000</i>
   <i type="int" name="TURBO">     0</i>
   <i type="int" name="IRESTART">     0</i>
   <i type="int" name="NREBOOT">     0</i>
   <i type="int" name="NMIN">     0</i>
   <i name="EREF">      0.00000000</i>
   <separator name="electronic smearing" >
    <i type="int" name="ISMEAR">     0</i>
    <i name="SIGMA">      0.05000000</i>
    <i name="KSPACING">      0.50000000</i>
    <i type="logical" name="KGAMMA"> T  </i>
    <i type="logical" name="KBLOWUP"> T  </i>
   </separator>
   <separator name="electronic projectors" >
    <i type="logical" name="LREAL"> F  </i>
    <v name="ROPT">      0.00000000</v>
    <i type="int" name="LMAXPAW">  -100</i>
    <i type="int" name="LMAXMIX">     2</i>
    <i type="logical" name="NLSPLINE"> F  </i>
   </separator>
   <separator name="electronic startup" >
    <i type="int" name="ISTART">     0</i>
    <i type="int" name="ICHARG">     2</i>
    <i type="int" name="INIWAV">     1</i>
   </separator>
   <separator name="electronic spin" >
    <i type="int" name="ISPIN">     1</i>
    <i type="logical" name="LNONCOLLINEAR"> F  </i>
    <v name="MAGMOM">      1.00000000</v>
    <i name="NUPDOWN">     -1.00000000</i>
    <i type="logical" name="LSORBIT"> F  </i>
    <v name="SAXIS">      0.00000000      0.00000000      1.00000000</v>
    <i type="logical" name="LSPIRAL"> F  </i>
    <v name="QSPIRAL">      0.00000000      0.00000000      0.00000000</v>
    <i type="logical" name="LZEROZ"> F  </i>
   </separator>
   <separator name="electronic exchange-correlation" >
    <i type="logical" name="LASPH"> T  </i>
    <i type="logical" name="LMETAGGA"> F  </i>
   </separator>
   <separator name="electronic convergence" >
    <i type="int" name="NELM">    90</i>
    <i type="int" name="NELMDL">    -5</i>
    <i type="int" name="NELMIN">     6</i>
    <i name="ENINI">    600.00000000</i>
    <separator name="electronic convergence detail" >
     <i type="logical" name="LDIAG"> T  </i>
     <i type="logical" name="LSUBROT"> F  </i>
     <i name="WEIMIN">      0.00100000</i>
     <i name="EBREAK">      0.00000003</i>
     <i name="DEPER">      0.30000000</i>
     <i type="int" name="NRMM">     4</i>
     <i name="TIME">      0.40000000</i>
    </separator>
   </separator>
   <separator name="electronic mixer" >
    <i name="AMIX">      0.40000000</i>
    <i name="BMIX">      1.00000000</i>
    <i name="AMIN">      0.10000000</i>
    <i name="AMIX_MAG">      1.60000000</i>
    <i name="BMIX_MAG">      1.00000000</i>
    <separator name="electronic mixer details" >
     <i type="int" name="IMIX">     4</i>
     <i type="logical" name="MIXFIRST"> F  </i>
     <i type="int" name="MAXMIX">   -45</i>
     <i name="WC">    100.00000000</i>
     <i type="int" name="INIMIX">     1</i>
     <i type="int" name="MIXPRE">     1</i>
     <i type="int" name="MREMOVE">     5</i>
    </separator>
   </separator>
   <separator name="electronic dipolcorrection" >
    <i type="logical" name="LDIPOL"> F  </i>
    <i type="logical" name="LMONO"> F  </i>
    <i type="int" name="IDIPOL">     0</i>
    <i name="EPSILON">      1.00000000</i>
    <v name="DIPOL">   -100.00000000   -100.00000000   -100.00000000</v>
    <i name="EFIELD">      0.00000000</i>
   </separator>
  </separator>
  <separator name="grids" >
   <i type="int" name="NGX">    24</i>
   <i type="int" name="NGY">    24</i>
   <i type="int" name="NGZ">    24</i>
   <i type="int" name="NGXF">    48</i>
   <i type="int" name="NGYF">    48</i>
   <i type="int" name="NGZF">    48</i>
   <i type="logical" name="ADDGRID"> T  </i>
  </separator>
  <separator name="ionic" >
   <i type="int" name="NSW">   100</i>
   <i type="int" name="IBRION">     2</i>
   <i type="int" name="MDALGO">     0</i>
   <i type="int" name="ISIF">     3</i>
   <i name="PSTRESS">      0.00000000</i>
   <i name="EDIFFG">     -0.00200000</i>
   <i type="int" name="NFREE">     1</i>
   <i name="POTIM">      0.50000000</i>
   <i name="SMASS">     -3.00000000</i>
   <i name="SCALEE">      1.00000000</i>
  </separator>
  <separator name="ionic md" >
   <i name="TEBEG">      0.00010000</i>
   <i name="TEEND">      0.00010000</i>
   <i type="int" name="NBLOCK">     1</i>
   <i type="int" name="KBLOCK">   100</i>
   <i type="int" name="NPACO">   256</i>
   <i name="APACO">     16.00000000</i>
  </separator>
  <separator name="symmetry" >
   <i type="int" name="ISYM">     2</i>
   <i name="SYMPREC">      0.00001000</i>
  </separator>
  <separator name="dos" >
   <i type="int" name="LORBIT">     0</i>
   <v name="RWIGS">     -1.00000000</v>
   <i type="int" name="NEDOS">   301</i>
   <i name="EMIN">     10.00000000</i>
   <i name="EMAX">    -10.00000000</i>
   <i name="EFERMI">      0.00000000</i>
  </separator>
  <separator name="writing" >
   <i type="int" name="NWRITE">     2</i>
   <i type="logical" name="LWAVE"> F  </i>
   <i type="logical" name="LDOWNSAMPLE"> F  </i>
   <i type="logical" name="LCHARG"> F  </i>
   <i type="logical" name="LPARD"> F  </i>
   <i type="logical" name="LVTOT"> F  </i>
   <i type="logical" name="LVHAR"> F  </i>
   <i type="logical" name="LELF"> F  </i>
   <i type="logical" name="LOPTICS"> F  </i>
   <v name="STM">      0.00000000      0.00000000      0.00000000      0.00000000      0.00000000      0.00000000      0.00000000</v>
  </separator>
  <separator name="performance" >
   <i type="int" name="NPAR">     4</i>
   <i type="int" name="NSIM">     4</i>
   <i type="int" name="NBLK">    -1</i>
   <i type="logical" name="LPLANE"> T  </i>
   <i type="logical" name="LSCALAPACK"> T  </i>
   <i type="logical" name="LSCAAWARE"> F  </i>
   <i type="logical" name="LSCALU"> F  </i>
   <i type="logical" name="LASYNC"> F  </i>
   <i type="logical" name="LORBITALREAL"> F  </i>
  </separator>
  <separator name="miscellaneous" >
   <i type="int" name="IDIOT">     3</i>
   <i type="int" name="PHON_NSTRUCT">    -1</i>
   <i type="logical" name="LMUSIC"> F  </i>
   <v name="POMASS">     28.08500000</v>
   <v name="DARWINR">      0.00000000</v>
   <v name="DARWINV">      1.00000000</v>
   <i type="logical" name="LCORR"> T  </i>
  </separator>
  <i type="logical" name="GGA_COMPAT"> T  </i>
  <i type="logical" name="LBERRY"> F  </i>
  <i type="int" name="ICORELEVEL">     0</i>
  <i type="logical" name="LDAU"> F  </i>
  <i type="int" name="I_CONSTRAINED_M">     0</i>
  <separator name="electronic exchange-correlation" >
   <i type="string" name="GGA">--</i>
   <i type="int" name="VOSKOWN">     0</i>
   <i type="logical" name="LHFCALC"> F  </i>
   <i type="string" name="PRECFOCK"></i>
   <i type="logical" name="LSYMGRAD"> F  </i>
   <i type="logical" name="LHFONE"> F  </i>
   <i type="logical" name="LRHFCALC"> F  </i>
   <i type="logical" name="LTHOMAS"> F  </i>
   <i type="logical" name="LMODELHF"> F  </i>
   <i type="logical" name="LFOCKACE"> F  </i>
   <i name="ENCUT4O">     -1.00000000</i>
   <i type="int" name="EXXOEP">     0</i>
   <i type="int" name="FOURORBIT">     0</i>
   <i name="AEXX">      0.00000000</i>
   <i name="HFALPHA">      0.00000000</i>
   <i name="MCALPHA">      0.00000000</i>
   <i name="ALDAX">      1.00000000</i>
   <i name="AGGAX">      1.00000000</i>
   <i name="ALDAC">      1.00000000</i>
   <i name="AGGAC">      1.00000000</i>
   <i type="int" name="NKREDX">     1</i>
   <i type="int" name="NKREDY">     1</i>
   <i type="int" name="NKREDZ">     1</i>
   <i type="logical" name="SHIFTRED"> F  </i>
   <i type="logical" name="ODDONLY"> F  </i>
   <i type="logical" name="EVENONLY"> F  </i>
   <i type="int" name="LMAXFOCK">     0</i>
   <i type="int" name="NMAXFOCKAE">     0</i>
   <i type="logical" name="LFOCKAEDFT"> F  </i>
   <i name="HFSCREEN">      0.00000000</i>
   <i name="HFSCREENC">      0.00000000</i>
   <i type="int" name="NBANDSGWLOW">     0</i>
  </separator>
  <separator name="vdW DFT" >
   <i type="logical" name="LUSE_VDW"> F  </i>
   <i name="Zab_VDW">     -0.84910000</i>
   <i name="PARAM1">      0.12340000</i>
   <i name="PARAM2">      1.00000000</i>
   <i name="PARAM3">      0.00000000</i>
  </separator>
  <separator name="model GW" >
   <i type="int" name="MODEL_GW">     0</i>
   <i name="MODEL_EPS0">      8.31779867</i>
   <i name="MODEL_ALPHA">      1.00000000</i>
  </separator>
  <separator name="linear response parameters" >
   <i type="logical" name="LEPSILON"> F  </i>
   <i type="logical" name="LRPA"> F  </i>
   <i type="logical" name="LNABLA"> F  </i>
   <i type="logical" name="LVEL"> F  </i>
   <i type="int" name="KINTER">     0</i>
   <i name="CSHIFT">      0.10000000</i>
   <i name="OMEGAMAX">     -1.00000000</i>
   <i name="DEG_THRESHOLD">      0.00200000</i>
   <i name="RTIME">     -0.10000000</i>
   <i name="WPLASMAI">      0.00000000</i>
   <v name="DFIELD">      0.00000000      0.00000000      0.00000000</v>
   <v name="WPLASMA">      0.00000000      0.00000000      0.00000000      0.00000000      0.00000000      0.00000000      0.00000000      0.00000000      0.00000000</v>
  </separator>
  <separator name="orbital magnetization" >
   <i type="logical" name="NUCIND"> F  </i>
   <v name="MAGPOS">      0.00000000      0.00000000      0.00000000</v>
   <i type="logical" name="LNICSALL"> T  </i>
   <i type="logical" name="ORBITALMAG"> F  </i>
   <i type="logical" name="LMAGBLOCH"> F  </i>
   <i type="logical" name="LCHIMAG"> F  </i>
   <i type="logical" name="LGAUGE"> T  </i>
   <i type="int" name="MAGATOM">     0</i>
   <v name="MAGDIPOL">      0.00000000      0.00000000      0.00000000</v>
   <v name="AVECCONST">      0.00000000      0.00000000      0.00000000</v>
  </separator>
  <separator name="response functions" >
   <i type="logical" name="LFINITE_TEMPERATURE"> F  </i>
   <i type="logical" name="LADDER"> F  </i>
   <i type="logical" name="LRPAFORCE"> F  </i>
   <i type="logical" name="LFXC"> F  </i>
   <i type="logical" name="LHARTREE"> T  </i>
   <i type="int" name="IBSE">     0</i>
   <v type="int" name="KPOINT">    -1     0     0     0</v>
   <i type="logical" name="LTCTC"> F  </i>
   <i type="logical" name="LTCTE"> F  </i>
   <i type="logical" name="LTETE"> F  </i>
   <i type="logical" name="LTRIPLET"> F  </i>
   <i type="logical" name="LFXCEPS"> F  </i>
   <i type="logical" name="LFXHEG"> F  </i>
   <i type="int" name="NATURALO">     2</i>
   <i type="logical" name="LHOLEGF"> F  </i>
   <i type="logical" name="L2ORDER"> F  </i>
   <i type="logical" name="LDMP1"> F  </i>
   <i type="logical" name="LMP2LT"> F  </i>
   <i type="logical" name="LSMP2LT"> F  </i>
   <i type="logical" name="LGWLF"> F  </i>
   <i name="ENCUTGW">     -2.00000000</i>
   <i name="ENCUTGWSOFT">     -2.00000000</i>
   <i name="ENCUTLF">     -1.00000000</i>
   <i type="logical" name="LESF_SPLINES"> F  </i>
   <i type="int" name="LMAXMP2">    -1</i>
   <i name="SCISSOR">      0.00000000</i>
   <i type="int" name="NOMEGA">     0</i>
   <i type="int" name="NOMEGAR">     0</i>
   <i type="int" name="NBANDSGW">    -1</i>
   <i type="int" name="NBANDSO">    -1</i>
   <i type="int" name="NBANDSV">    -1</i>
   <i type="int" name="NELM">    90</i>
   <i type="int" name="NELMHF">     1</i>
   <i type="int" name="DIM">     3</i>
   <i type="int" name="IESPILON">     4</i>
   <i type="int" name="ANTIRES">     0</i>
   <i name="OMEGAMAX">    -30.00000000</i>
   <i name="OMEGAMIN">    -30.00000000</i>
   <i name="OMEGATL">   -200.00000000</i>
   <i type="int" name="OMEGAGRID">     0</i>
   <i name="CSHIFT">     -0.10000000</i>
   <i type="logical" name="LSELFENERGY"> F  </i>
   <i type="logical" name="LSPECTRAL"> F  </i>
   <i type="logical" name="LSPECTRALGW"> F  </i>
   <i type="logical" name="LSINGLES"> F  </i>
   <i type="logical" name="LFERMIGW"> F  </i>
   <i type="logical" name="ODDONLYGW"> F  </i>
   <i type="logical" name="EVENONLYGW"> F  </i>
   <i type="int" name="NKREDLFX">     1</i>
   <i type="int" name="NKREDLFY">     1</i>
   <i type="int" name="NKREDLFZ">     1</i>
   <i type="int" name="MAXMEM">  2800</i>
   <i type="int" name="TELESCOPE">     0</i>
   <i type="int" name="NTAUPAR">    -1</i>
   <i type="int" name="NOMEGAPAR">    -1</i>
   <i name="DAMP_NEWTON">      0.80000001</i>
   <i name="LAMBDA">      1.00000000</i>
  </separator>
  <separator name="External order field" >
   <i name="OFIELD_KAPPA">      0.00000000</i>
   <v name="OFIELD_K">      0.00000000      0.00000000      0.00000000</v>
   <i name="OFIELD_Q6_NEAR">      0.00000000</i>
   <i name="OFIELD_Q6_FAR">      0.00000000</i>
   <i name="OFIELD_A">      0.00000000</i>
  </separator>
 </parameters>
 <atominfo>
  <atoms>       1 </atoms>
  <types>       1 </types>
  <array name="atoms" >
   <dimension dim="1">ion</dimension>
   <field type="string">element</field>
   <field type="int">atomtype</field>
   <set>
    <rc><c>Si</c><c>   1</c></rc>
   </set>
  </array>
  <array name="atomtypes" >
   <dimension dim="1">type</dimension>
   <field type="int">atomspertype</field>
   <field type="string">element</field>
   <field>mass</field>
   <field>valence</field>
   <field type="string">pseudopotential</field>
   <set>
    <rc><c>   1</c><c>Si</c><c>     28.08500000</c><c>      4.00000000</c><c>  PAW_PBE Si 05Jan2001                  </c></rc>
   </set>
  </array>
 </atominfo>
 <structure name="initialpos" >
  <crystal>
   <varray name="basis" >
    <v>       1.51332563       1.51332563       1.51332563 </v>
    <v>       1.51332563      -1.51332563      -1.51332563 </v>
    <v>      -1.51332563       1.51332563      -1.51332563 </v>
   </varray>
   <i name="volume">     13.86299778 </i>
   <varray name="rec_basis" >
    <v>       0.33039816       0.33039816       0.00000000 </v>
    <v>       0.33039816       0.00000000      -0.33039816 </v>
    <v>       0.00000000       0.33039816      -0.33039816 </v>
   </varray>
  </crystal>
  <varray name="positions" >
   <v>       0.00000000       0.00000000       0.00000000 </v>
  </varray>
 </structure>
 <calculation>
  <scstep>
   <time name="dav">    0.97    0.97</time>
   <time name="total">    1.19    1.20</time>
   <energy>
    <i name="alphaZ">      2.42827211 </i>
    <i name="ewald">   -138.51397499 </i>
    <i name="hartreedc">     -0.48179554 </i>
    <i name="XCdc">     -8.69332258 </i>
    <i name="pawpsdc">     88.12379961 </i>
    <i name="pawaedc">    -70.53051779 </i>
    <i name="eentropy">     -0.00060875 </i>
    <i name="bandstr">     22.70072935 </i>
    <i name="atom">    103.06655955 </i>
    <i name="e_fr_energy">     -1.90085902 </i>
    <i name="e_wo_entrp">     -1.90025027 </i>
    <i name="e_0_energy">     -1.90055465 </i>
   </energy>
  </scstep>
  <scstep>
   <time name="dav">    1.34    1.36</time>
   <time name="total">    1.34    1.36</time>
   <energy>
    <i name="e_fr_energy">     -4.89717271 </i>
    <i name="e_wo_entrp">     -4.89663691 </i>
    <i name="e_0_energy">     -4.89690481 </i>
   </energy>
  </scstep>
  <scstep>
   <time name="dav">    1.01    1.03</time>
   <time name="total">    1.01    1.03</time>
   <energy>
    <i name="e_fr_energy">     -4.91374326 </i>
    <i name="e_wo_entrp">     -4.91316051 </i>
    <i name="e_0_energy">     -4.91345188 </i>
   </energy>
  </scstep>
  <scstep>
   <time name="dav">    1.42    1.44</time>
   <time name="total">    1.42    1.44</time>
   <energy>
    <i name="e_fr_energy">     -4.91375880 </i>
    <i name="e_wo_entrp">     -4.91317607 </i>
    <i name="e_0_energy">     -4.91346743 </i>
   </energy>
  </scstep>
  <scstep>
   <time name="dav">    1.01    1.03</time>
   <time name="total">    1.10    1.12</time>
   <energy>
    <i name="e_fr_energy">     -4.91375880 </i>
    <i name="e_wo_entrp">     -4.91317607 </i>
    <i name="e_0_energy">     -4.91346744 </i>
   </energy>
  </scstep>
  <scstep>
   <time name="dav">    0.98    0.98</time>
   <time name="total">    1.27    1.29</time>
   <energy>
    <i name="e_fr_energy">     -4.90231243 </i>
    <i name="e_wo_entrp">     -4.90170892 </i>
    <i name="e_0_energy">     -4.90201067 </i>
   </energy>
  </scstep>
  <scstep>
   <time name="dav">    0.99    0.99</time>
   <time name="total">    1.28    1.30</time>
   <energy>
    <i name="e_fr_energy">     -4.89574581 </i>
    <i name="e_wo_entrp">     -4.89511700 </i>
    <i name="e_0_energy">     -4.89543141 </i>
   </energy>
  </scstep>
  <scstep>
   <time name="dav">    1.28    1.28</time>
   <time name="total">    1.57    1.59</time>
   <energy>
    <i name="e_fr_energy">     -4.89572463 </i>
    <i name="e_wo_entrp">     -4.89509518 </i>
    <i name="e_0_energy">     -4.89540990 </i>
   </energy>
  </scstep>
  <scstep>
   <time name="dav">    1.04    1.04</time>
   <time name="total">    1.25    1.27</time>
   <energy>
    <i name="alphaZ">      2.42827211 </i>
    <i name="ewald">   -138.51397499 </i>
    <i name="hartreedc">     -0.35544953 </i>
    <i name="XCdc">     -8.62514405 </i>
    <i name="pawpsdc">    332.89102037 </i>
    <i name="pawaedc">   -315.32480935 </i>
    <i name="eentropy">     -0.00062963 </i>
    <i name="bandstr">     19.53843033 </i>
    <i name="atom">    103.06655955 </i>
    <i name="e_fr_energy">     -4.89572519 </i>
    <i name="e_wo_entrp">     -4.89509556 </i>
    <i name="e_0_energy">     -4.89541038 </i>
   </energy>
  </scstep>
  <structure>
   <crystal>
    <varray name="basis" >
     <v>       1.51332563       1.51332563       1.51332563 </v>
     <v>       1.51332563      -1.51332563      -1.51332563 </v>
     <v>      -1.51332563       1.51332563      -1.51332563 </v>
    </varray>
    <i name="volume">     13.86299778 </i>
    <varray name="rec_basis" >
     <v>       0.33039816       0.33039816       0.00000000 </v>
     <v>       0.33039816       0.00000000      -0.33039816 </v>
     <v>       0.00000000       0.33039816      -0.33039816 </v>
    </varray>
   </crystal>
   <varray name="positions" >
    <v>       0.00000000       0.00000000       0.00000000 </v>
   </varray>
  </structure>
  <varray name="forces" >
   <v>      -0.00000000      -0.00000000      -0.00000000 </v>
  </varray>
  <varray name="stress" >
   <v>      56.37876665       0.00000000      -0.00000000 </v>
   <v>       0.00000000      56.37876665      -0.00000000 </v>
   <v>       0.00000000       0.00000000      56.37876665 </v>
  </varray>
  <energy>
   <i name="e_fr_energy">     -4.89572519 </i>
   <i name="e_wo_entrp">     -4.89509556 </i>
   <i name="e_0_energy">     -4.89541038 </i>
  </energy>
  <time name="totalsc">   13.12   13.41</time>
 </calculation>
 <calculation>
  <scstep>
   <time name="dav">    0.95    0.95</time>
   <time name="total">    1.24    1.25</time>
   <energy>
    <i name="alphaZ">      2.26459579 </i>
    <i name="ewald">   -135.32915633 </i>
    <i name="hartreedc">     -0.34724861 </i>
    <i name="XCdc">     -8.80796154 </i>
    <i name="pawpsdc">    332.96157990 </i>
    <i name="pawaedc">   -315.39502356 </i>
    <i name="eentropy">     -0.00046837 </i>
    <i name="bandstr">     16.67086773 </i>
    <i name="atom">    103.06655955 </i>
    <i name="e_fr_energy">     -4.91625545 </i>
    <i name="e_wo_entrp">     -4.91578708 </i>
    <i name="e_0_energy">     -4.91602126 </i>
   </energy>
  </scstep>
  <scstep>
   <time name="dav">    1.01    1.02</time>
   <time name="total">    1.31    1.33</time>
   <energy>
    <i name="e_fr_energy">     -4.91087842 </i>
    <i name="e_wo_entrp">     -4.91041310 </i>
    <i name="e_0_energy">     -4.91064576 </i>
   </energy>
  </scstep>
  <scstep>
   <time name="dav">    0.98    0.98</time>
   <time name="total">    1.27    1.29</time>
   <energy>
    <i name="e_fr_energy">     -4.90768038 </i>
    <i name="e_wo_entrp">     -4.90721798 </i>
    <i name="e_0_energy">     -4.90744918 </i>
   </energy>
  </scstep>
  <scstep>
   <time name="dav">    1.15    1.15</time>
   <time name="total">    1.44    1.46</time>
   <energy>
    <i name="e_fr_energy">     -4.90767728 </i>
    <i name="e_wo_entrp">     -4.90721483 </i>
    <i name="e_0_energy">     -4.90744605 </i>
   </energy>
  </scstep>
  <scstep>
   <time name="dav">    1.10    1.10</time>
   <time name="total">    1.39    1.41</time>
   <energy>
    <i name="e_fr_energy">     -4.90766511 </i>
    <i name="e_wo_entrp">     -4.90720248 </i>
    <i name="e_0_energy">     -4.90743379 </i>
   </energy>
  </scstep>
  <scstep>
   <time name="dav">    0.63    0.63</time>
   <time name="total">    0.84    0.86</time>
   <energy>
    <i name="alphaZ">      2.26459579 </i>
    <i name="ewald">   -135.32915633 </i>
    <i name="hartreedc">     -0.45715267 </i>
    <i name="XCdc">     -8.82967745 </i>
    <i name="pawpsdc">    285.12292203 </i>
    <i name="pawaedc">   -267.54120441 </i>
    <i name="eentropy">     -0.00046261 </i>
    <i name="bandstr">     16.79591058 </i>
    <i name="atom">    103.06655955 </i>
    <i name="e_fr_energy">     -4.90766551 </i>
    <i name="e_wo_entrp">     -4.90720290 </i>
    <i name="e_0_energy">     -4.90743421 </i>
   </energy>
  </scstep>
  <structure>
   <crystal>
    <varray name="basis" >
     <v>       1.54894004       1.54894004       1.54894004 </v>
     <v>       1.54894004      -1.54894004      -1.54894004 </v>
     <v>      -1.54894004       1.54894004      -1.54894004 </v>
    </varray>
    <i name="volume">     14.86496217 </i>
    <varray name="rec_basis" >
     <v>       0.32280139       0.32280139       0.00000000 </v>
     <v>       0.32280139       0.00000000      -0.32280139 </v>
     <v>       0.00000000       0.32280139      -0.32280139 </v>
    </varray>
   </crystal>
   <varray name="positions" >
    <v>      -0.00000000      -0.00000000      -0.00000000 </v>
   </varray>
  </structure>
  <varray name="forces" >
   <v>       0.00000000      -0.00000000       0.00000000 </v>
  </varray>
  <varray name="stress" >
   <v>     -14.35706430       0.00000000      -0.00000000 </v>
   <v>       0.00000000     -14.35706430      -0.00000000 </v>
   <v>       0.00000000       0.00000000     -14.35706430 </v>
  </varray>
  <energy>
   <i name="e_fr_energy">     -4.90766551 </i>
   <i name="e_wo_entrp">     -4.90720290 </i>
   <i name="e_0_energy">     -4.90743421 </i>
  </energy>
  <time name="totalsc">    9.13    9.35</time>
 </calculation>
 <calculation>
  <scstep>
   <time name="dav">    0.94    0.94</time>
   <time name="total">    1.23    1.24</time>
   <energy>
    <i name="alphaZ">      2.30065668 </i>
    <i name="ewald">   -136.04369342 </i>
    <i name="hartreedc">     -0.45955366 </i>
    <i name="XCdc">     -8.78936037 </i>
    <i name="pawpsdc">    284.81937344 </i>
    <i name="pawaedc">   -267.23767039 </i>
    <i name="eentropy">     -0.00049196 </i>
    <i name="bandstr">     17.43501252 </i>
    <i name="atom">    103.06655955 </i>
    <i name="e_fr_energy">     -4.90916761 </i>
    <i name="e_wo_entrp">     -4.90867564 </i>
    <i name="e_0_energy">     -4.90892162 </i>
   </energy>
  </scstep>
  <scstep>
   <time name="dav">    1.05    1.05</time>
   <time name="total">    1.34    1.36</time>
   <energy>
    <i name="e_fr_energy">     -4.90888322 </i>
    <i name="e_wo_entrp">     -4.90839282 </i>
    <i name="e_0_energy">     -4.90863802 </i>
   </energy>
  </scstep>
  <scstep>
   <time name="dav">    0.98    0.98</time>
   <time name="total">    1.27    1.29</time>
   <energy>
    <i name="e_fr_energy">     -4.90871601 </i>
    <i name="e_wo_entrp">     -4.90822776 </i>
    <i name="e_0_energy">     -4.90847188 </i>
   </energy>
  </scstep>
  <scstep>
   <time name="dav">    1.11    1.11</time>
   <time name="total">    1.40    1.42</time>
   <energy>
    <i name="e_fr_energy">     -4.90871609 </i>
    <i name="e_wo_entrp">     -4.90822784 </i>
    <i name="e_0_energy">     -4.90847196 </i>
   </energy>
  </scstep>
  <scstep>
   <time name="dav">    0.66    0.66</time>
   <time name="total">    0.95    0.97</time>
   <energy>
    <i name="e_fr_energy">     -4.90871679 </i>
    <i name="e_wo_entrp">     -4.90822858 </i>
    <i name="e_0_energy">     -4.90847269 </i>
   </energy>
  </scstep>
  <scstep>
   <time name="dav">    0.59    0.59</time>
   <time name="total">    0.80    0.81</time>
   <energy>
    <i name="alphaZ">      2.30065668 </i>
    <i name="ewald">   -136.04369342 </i>
    <i name="hartreedc">     -0.43160901 </i>
    <i name="XCdc">     -8.78419033 </i>
    <i name="pawpsdc">    294.65008617 </i>
    <i name="pawaedc">   -277.07165729 </i>
    <i name="eentropy">     -0.00048821 </i>
    <i name="bandstr">     17.40561920 </i>
    <i name="atom">    103.06655955 </i>
    <i name="e_fr_energy">     -4.90871666 </i>
    <i name="e_wo_entrp">     -4.90822845 </i>
    <i name="e_0_energy">     -4.90847255 </i>
   </energy>
  </scstep>
  <structure>
   <crystal>
    <varray name="basis" >
     <v>       1.54080460       1.54080460       1.54080460 </v>
     <v>       1.54080460      -1.54080460      -1.54080460 </v>
     <v>      -1.54080460       1.54080460      -1.54080460 </v>
    </varray>
    <i name="volume">     14.63196621 </i>
    <varray name="rec_basis" >
     <v>       0.32450578       0.32450578       0.00000000 </v>
     <v>       0.32450578       0.00000000      -0.32450578 </v>
     <v>       0.00000000       0.32450578      -0.32450578 </v>
    </varray>
   </crystal>
   <varray name="positions" >
    <v>      -0.00000000      -0.00000000      -0.00000000 </v>
   </varray>
  </structure>
  <varray name="forces" >
   <v>      -0.00000000      -0.00000000      -0.00000000 </v>
  </varray>
  <varray name="stress" >
   <v>       0.15300131       0.00000000       0.00000000 </v>
   <v>       0.00000000       0.15300131       0.00000000 </v>
   <v>       0.00000000       0.00000000       0.15300131 </v>
  </varray>
  <energy>
   <i name="e_fr_energy">     -4.90871666 </i>
   <i name="e_wo_entrp">     -4.90822845 </i>
   <i name="e_0_energy">     -4.90847255 </i>
  </energy>
  <time name="totalsc">    8.53    8.75</time>
  <eigenvalues>
   <array>
    <dimension dim="1">band</dimension>
    <dimension dim="2">kpoint</dimension>
    <dimension dim="3">spin</dimension>
    <field>eigene</field>
    <field>occ</field>
    <set>
     <set comment="spin 1">
      <set comment="kpoint 1">
       <r>   -4.3168    1.0000 </r>
       <r>   21.2842    0.0000 </r>
       <r>   21.2842    0.0000 </r>
       <r>   21.2842    0.0000 </r>
       <r>   22.4365    0.0000 </r>
       <r>   22.4365    0.0000 </r>
       <r>   22.4365    0.0000 </r>
       <r>   26.1281    0.0000 </r>
      </set>
      <set comment="kpoint 2">
       <r>   -4.1808    1.0000 </r>
       <r>   19.6769    0.0000 </r>
       <r>   20.1533    0.0000 </r>
       <r>   21.0926    0.0000 </r>
       <r>   21.9902    0.0000 </r>
       <r>   23.1992    0.0000 </r>
       <r>   23.7951    0.0000 </r>
       <r>   25.2210    0.0000 </r>
      </set>
      <set comment="kpoint 3">
       <r>   -3.7731    1.0000 </r>
       <r>   17.0657    0.0000 </r>
       <r>   18.8163    0.0000 </r>
       <r>   20.5741    0.0000 </r>
       <r>   21.0136    0.0000 </r>
       <r>   22.9680    0.0000 </r>
       <r>   25.1410    0.0000 </r>
       <r>   25.8110    0.0000 </r>
      </set>
      <set comment="kpoint 4">
       <r>   -3.0956    1.0000 </r>
       <r>   14.2464    0.0000 </r>
       <r>   17.6809    0.0000 </r>
       <r>   19.8889    0.0000 </r>
       <r>   19.9588    0.0000 </r>
       <r>   22.0205    0.0000 </r>
       <r>   26.0068    0.0000 </r>
       <r>   26.1911    0.0000 </r>
      </set>
      <set comment="kpoint 5">
       <r>   -2.1507    1.0000 </r>
       <r>   11.4736    0.0000 </r>
       <r>   16.7693    0.0000 </r>
       <r>   19.0264    0.0000 </r>
       <r>   19.2075    0.0000 </r>
       <r>   21.1601    0.0000 </r>
       <r>   26.8163    0.0000 </r>
       <r>   27.0806    0.0000 </r>
      </set>
      <set comment="kpoint 6">
       <r>   -0.9426    1.0000 </r>
       <r>    8.8523    1.0000 </r>
       <r>   16.0852    0.0000 </r>
       <r>   18.2942    0.0000 </r>
       <r>   18.6382    0.0000 </r>
       <r>   20.4839    0.0000 </r>
       <r>   27.7182    0.0000 </r>
       <r>   28.2905    0.0000 </r>
      </set>
      <set comment="kpoint 7">
       <r>    0.5231    1.0000 </r>
       <r>    6.4300    1.0000 </r>
       <r>   15.6292    0.0000 </r>
       <r>   17.7945    0.0000 </r>
       <r>   18.2374    0.0000 </r>
       <r>   20.0201    0.0000 </r>
       <r>   28.8223    0.0000 </r>
       <r>   29.5584    0.0000 </r>
      </set>
      <set comment="kpoint 8">
       <r>    2.2312    1.0000 </r>
       <r>    4.2401    1.0000 </r>
       <r>   15.4014    0.0000 </r>
       <r>   17.5418    0.0000 </r>
       <r>   18.0316    0.0000 </r>
       <r>   19.7844    0.0000 </r>
       <r>   29.8987    0.0000 </r>
       <r>   30.5788    0.0000 </r>
      </set>
      <set comment="kpoint 9">
       <r>   -3.9089    1.0000 </r>
       <r>   18.1822    0.0000 </r>
       <r>   18.7282    0.0000 </r>
       <r>   20.0773    0.0000 </r>
       <r>   22.1463    0.0000 </r>
       <r>   23.5017    0.0000 </r>
       <r>   24.4579    0.0000 </r>
       <r>   24.9968    0.0000 </r>
      </set>
      <set comment="kpoint 10">
       <r>   -3.3663    1.0000 </r>
       <r>   15.7117    0.0000 </r>
       <r>   17.2736    0.0000 </r>
       <r>   19.1085    0.0000 </r>
       <r>   21.6679    0.0000 </r>
       <r>   23.0582    0.0000 </r>
       <r>   24.7687    0.0000 </r>
       <r>   26.3900    0.0000 </r>
      </set>
      <set comment="kpoint 11">
       <r>   -2.5551    1.0000 </r>
       <r>   12.9292    0.0000 </r>
       <r>   16.2094    0.0000 </r>
       <r>   18.1942    0.0000 </r>
       <r>   20.9365    0.0000 </r>
       <r>   22.3962    0.0000 </r>
       <r>   25.3251    0.0000 </r>
       <r>   27.6483    0.0000 </r>
      </set>
      <set comment="kpoint 12">
       <r>   -1.4786    1.0000 </r>
       <r>   10.2321    0.0000 </r>
       <r>   15.3845    0.0000 </r>
       <r>   17.4254    0.0000 </r>
       <r>   20.2338    0.0000 </r>
       <r>   21.8078    0.0000 </r>
       <r>   26.1206    0.0000 </r>
       <r>   28.7960    0.0000 </r>
      </set>
      <set comment="kpoint 13">
       <r>   -0.1414    1.0000 </r>
       <r>    7.7093    1.0000 </r>
       <r>   14.7935    0.0000 </r>
       <r>   16.8550    0.0000 </r>
       <r>   19.6891    0.0000 </r>
       <r>   21.3404    0.0000 </r>
       <r>   27.1820    0.0000 </r>
       <r>   29.9068    0.0000 </r>
      </set>
      <set comment="kpoint 14">
       <r>    1.4487    1.0000 </r>
       <r>    5.3997    1.0000 </r>
       <r>   14.4379    0.0000 </r>
       <r>   16.5062    0.0000 </r>
       <r>   19.3502    0.0000 </r>
       <r>   21.0425    0.0000 </r>
       <r>   28.4445    0.0000 </r>
       <r>   30.5173    0.0000 </r>
      </set>
      <set comment="kpoint 15">
       <r>    3.1027    1.0000 </r>
       <r>    3.5047    1.0000 </r>
       <r>   14.3192    0.0000 </r>
       <r>   16.3891    0.0000 </r>
       <r>   19.2356    0.0000 </r>
       <r>   20.9405    0.0000 </r>
       <r>   29.5936    0.0000 </r>
       <r>   29.9509    0.0000 </r>
      </set>
      <set comment="kpoint 16">
       <r>   -2.6901    1.0000 </r>
       <r>   14.3494    0.0000 </r>
       <r>   14.8154    0.0000 </r>
       <r>   18.0509    0.0000 </r>
       <r>   21.8775    0.0000 </r>
       <r>   22.9769    0.0000 </r>
       <r>   25.4531    0.0000 </r>
       <r>   26.7561    0.0000 </r>
      </set>
      <set comment="kpoint 17">
       <r>   -1.7471    1.0000 </r>
       <r>   11.8209    0.0000 </r>
       <r>   13.6440    0.0000 </r>
       <r>   17.1878    0.0000 </r>
       <r>   21.5272    0.0000 </r>
       <r>   23.0295    0.0000 </r>
       <r>   25.7595    0.0000 </r>
       <r>   28.1848    0.0000 </r>
      </set>
      <set comment="kpoint 18">
       <r>   -0.5413    1.0000 </r>
       <r>    9.2253    1.0000 </r>
       <r>   12.9012    0.0000 </r>
       <r>   16.5143    0.0000 </r>
       <r>   20.9736    0.0000 </r>
       <r>   23.2618    0.0000 </r>
       <r>   26.0193    0.0000 </r>
       <r>   29.7783    0.0000 </r>
      </set>
      <set comment="kpoint 19">
       <r>    0.9217    1.0000 </r>
       <r>    6.8134    1.0000 </r>
       <r>   12.4081    0.0000 </r>
       <r>   16.0550    0.0000 </r>
       <r>   20.5493    0.0000 </r>
       <r>   23.3060    0.0000 </r>
       <r>   26.8090    0.0000 </r>
       <r>   30.3184    0.0000 </r>
      </set>
      <set comment="kpoint 20">
       <r>    2.6270    1.0000 </r>
       <r>    4.6291    1.0000 </r>
       <r>   12.1614    0.0000 </r>
       <r>   15.8228    0.0000 </r>
       <r>   20.3278    0.0000 </r>
       <r>   23.2660    0.0000 </r>
       <r>   27.9935    0.0000 </r>
       <r>   29.4277    0.0000 </r>
      </set>
      <set comment="kpoint 21">
       <r>   -0.6747    1.0000 </r>
       <r>   10.7992    0.0000 </r>
       <r>   11.1513    0.0000 </r>
       <r>   16.4190    0.0000 </r>
       <r>   22.0433    0.0000 </r>
       <r>   22.9310    0.0000 </r>
       <r>   27.3251    0.0000 </r>
       <r>   28.2530    0.0000 </r>
      </set>
      <set comment="kpoint 22">
       <r>    0.6573    1.0000 </r>
       <r>    8.4601    1.0000 </r>
       <r>   10.3648    0.0000 </r>
       <r>   15.8536    0.0000 </r>
       <r>   21.8983    0.0000 </r>
       <r>   23.5760    0.0000 </r>
       <r>   27.4590    0.0000 </r>
       <r>   29.4005    0.0000 </r>
      </set>
      <set comment="kpoint 23">
       <r>    2.2412    1.0000 </r>
       <r>    6.1704    1.0000 </r>
       <r>    9.9814    0.0011 </r>
       <r>   15.5082    0.0000 </r>
       <r>   21.6357    0.0000 </r>
       <r>   24.4830    0.0000 </r>
       <r>   27.2951    0.0000 </r>
       <r>   29.3446    0.0000 </r>
      </set>
      <set comment="kpoint 24">
       <r>    3.8965    1.0000 </r>
       <r>    4.2773    1.0000 </r>
       <r>    9.8544    0.7015 </r>
       <r>   15.3922    0.0000 </r>
       <r>   21.5376    0.0000 </r>
       <r>   24.9417    0.0000 </r>
       <r>   27.2657    0.0000 </r>
       <r>   28.9152    0.0000 </r>
      </set>
      <set comment="kpoint 25">
       <r>    2.1111    1.0000 </r>
       <r>    7.8107    1.0000 </r>
       <r>    8.1204    1.0000 </r>
       <r>   15.4020    0.0000 </r>
       <r>   22.7673    0.0000 </r>
       <r>   23.6664    0.0000 </r>
       <r>   27.8555    0.0000 </r>
       <r>   29.7114    0.0000 </r>
      </set>
      <set comment="kpoint 26">
       <r>    3.8055    1.0000 </r>
       <r>    5.7850    1.0000 </r>
       <r>    7.7243    1.0000 </r>
       <r>   15.1726    0.0000 </r>
       <r>   22.8908    0.0000 </r>
       <r>   24.6721    0.0000 </r>
       <r>   26.5260    0.0000 </r>
       <r>   30.5328    0.0000 </r>
      </set>
      <set comment="kpoint 27">
       <r>    5.3138    1.0000 </r>
       <r>    5.8192    1.0000 </r>
       <r>    5.8192    1.0000 </r>
       <r>   15.0593    0.0000 </r>
       <r>   23.7025    0.0000 </r>
       <r>   25.1406    0.0000 </r>
       <r>   25.1406    0.0000 </r>
       <r>   32.5252    0.0000 </r>
      </set>
      <set comment="kpoint 28">
       <r>   -3.5018    1.0000 </r>
       <r>   16.7148    0.0000 </r>
       <r>   17.7026    0.0000 </r>
       <r>   17.7026    0.0000 </r>
       <r>   23.3630    0.0000 </r>
       <r>   23.3630    0.0000 </r>
       <r>   25.4971    0.0000 </r>
       <r>   25.4971    0.0000 </r>
      </set>
      <set comment="kpoint 29">
       <r>   -2.8252    1.0000 </r>
       <r>   14.4326    0.0000 </r>
       <r>   15.9892    0.0000 </r>
       <r>   16.6431    0.0000 </r>
       <r>   23.0643    0.0000 </r>
       <r>   23.7294    0.0000 </r>
       <r>   25.8265    0.0000 </r>
       <r>   26.3050    0.0000 </r>
      </set>
      <set comment="kpoint 30">
       <r>   -1.8816    1.0000 </r>
       <r>   11.7141    0.0000 </r>
       <r>   14.9884    0.0000 </r>
       <r>   15.7257    0.0000 </r>
       <r>   22.6199    0.0000 </r>
       <r>   23.1690    0.0000 </r>
       <r>   27.0441    0.0000 </r>
       <r>   27.0451    0.0000 </r>
      </set>
      <set comment="kpoint 31">
       <r>   -0.6749    1.0000 </r>
       <r>    9.1045    1.0000 </r>
       <r>   14.2655    0.0000 </r>
       <r>   15.0119    0.0000 </r>
       <r>   22.1658    0.0000 </r>
       <r>   22.6034    0.0000 </r>
       <r>   27.9524    0.0000 </r>
       <r>   28.3613    0.0000 </r>
      </set>
      <set comment="kpoint 32">
       <r>    0.7890    1.0000 </r>
       <r>    6.6873    1.0000 </r>
       <r>   13.7861    0.0000 </r>
       <r>   14.5272    0.0000 </r>
       <r>   21.8156    0.0000 </r>
       <r>   22.1952    0.0000 </r>
       <r>   29.0332    0.0000 </r>
       <r>   29.6752    0.0000 </r>
      </set>
      <set comment="kpoint 33">
       <r>    2.4953    1.0000 </r>
       <r>    4.5003    1.0000 </r>
       <r>   13.5464    0.0000 </r>
       <r>   14.2826    0.0000 </r>
       <r>   21.6286    0.0000 </r>
       <r>   21.9843    0.0000 </r>
       <r>   30.0564    0.0000 </r>
       <r>   30.7046    0.0000 </r>
      </set>
      <set comment="kpoint 34">
       <r>   -4.0448    1.0000 </r>
       <r>   19.2289    0.0000 </r>
       <r>   19.2289    0.0000 </r>
       <r>   20.2500    0.0000 </r>
       <r>   22.7025    0.0000 </r>
       <r>   23.6457    0.0000 </r>
       <r>   23.7832    0.0000 </r>
       <r>   23.7832    0.0000 </r>
      </set>
      <set comment="kpoint 35">
       <r>   -2.0161    1.0000 </r>
       <r>   13.1630    0.0000 </r>
       <r>   13.6763    0.0000 </r>
       <r>   15.3267    0.0000 </r>
       <r>   23.6579    0.0000 </r>
       <r>   24.5337    0.0000 </r>
       <r>   26.1439    0.0000 </r>
       <r>   27.1135    0.0000 </r>
      </set>
      <set comment="kpoint 36">
       <r>   -0.9423    1.0000 </r>
       <r>   10.7183    0.0000 </r>
       <r>   12.5903    0.0000 </r>
       <r>   14.4830    0.0000 </r>
       <r>   23.5847    0.0000 </r>
       <r>   24.6170    0.0000 </r>
       <r>   26.9528    0.0000 </r>
       <r>   28.3494    0.0000 </r>
      </set>
      <set comment="kpoint 37">
       <r>    0.3915    1.0000 </r>
       <r>    8.2174    1.0000 </r>
       <r>   11.9617    0.0000 </r>
       <r>   13.8789    0.0000 </r>
       <r>   23.2681    0.0000 </r>
       <r>   24.5360    0.0000 </r>
       <r>   27.8413    0.0000 </r>
       <r>   29.7812    0.0000 </r>
      </set>
      <set comment="kpoint 38">
       <r>    1.9778    1.0000 </r>
       <r>    5.9166    1.0000 </r>
       <r>   11.5880    0.0000 </r>
       <r>   13.5141    0.0000 </r>
       <r>   23.0161    0.0000 </r>
       <r>   24.4213    0.0000 </r>
       <r>   28.9561    0.0000 </r>
       <r>   30.6465    0.0000 </r>
      </set>
      <set comment="kpoint 39">
       <r>    3.6327    1.0000 </r>
       <r>    4.0220    1.0000 </r>
       <r>   11.4635    0.0000 </r>
       <r>   13.3921    0.0000 </r>
       <r>   22.9254    0.0000 </r>
       <r>   24.3714    0.0000 </r>
       <r>   29.8954    0.0000 </r>
       <r>   30.3993    0.0000 </r>
      </set>
      <set comment="kpoint 40">
       <r>   -3.6374    1.0000 </r>
       <r>   17.0683    0.0000 </r>
       <r>   17.9301    0.0000 </r>
       <r>   19.7106    0.0000 </r>
       <r>   22.0822    0.0000 </r>
       <r>   22.3773    0.0000 </r>
       <r>   24.2443    0.0000 </r>
       <r>   25.4103    0.0000 </r>
      </set>
      <set comment="kpoint 41">
       <r>    0.2588    1.0000 </r>
       <r>    9.8117    0.9588 </r>
       <r>   10.1713    0.0000 </r>
       <r>   13.7490    0.0000 </r>
       <r>   24.2178    0.0000 </r>
       <r>   25.2207    0.0000 </r>
       <r>   28.0867    0.0000 </r>
       <r>   28.9205    0.0000 </r>
      </set>
      <set comment="kpoint 42">
       <r>    1.7162    1.0000 </r>
       <r>    7.5753    1.0000 </r>
       <r>    9.5031    1.0000 </r>
       <r>   13.2630    0.0000 </r>
       <r>   24.3086    0.0000 </r>
       <r>   25.8109    0.0000 </r>
       <r>   28.5892    0.0000 </r>
       <r>   30.0336    0.0000 </r>
      </set>
      <set comment="kpoint 43">
       <r>    3.4153    1.0000 </r>
       <r>    5.4057    1.0000 </r>
       <r>    9.2440    1.0000 </r>
       <r>   13.0192    0.0000 </r>
       <r>   24.2190    0.0000 </r>
       <r>   26.3316    0.0000 </r>
       <r>   28.9000    0.0000 </r>
       <r>   30.2483    0.0000 </r>
      </set>
      <set comment="kpoint 44">
       <r>   -2.9603    1.0000 </r>
       <r>   14.3332    0.0000 </r>
       <r>   16.7865    0.0000 </r>
       <r>   19.0860    0.0000 </r>
       <r>   21.0801    0.0000 </r>
       <r>   21.8349    0.0000 </r>
       <r>   24.2967    0.0000 </r>
       <r>   27.6421    0.0000 </r>
      </set>
      <set comment="kpoint 45">
       <r>   -3.0955    1.0000 </r>
       <r>   15.6731    0.0000 </r>
       <r>   15.9896    0.0000 </r>
       <r>   19.1171    0.0000 </r>
       <r>   21.3319    0.0000 </r>
       <r>   21.8320    0.0000 </r>
       <r>   25.1308    0.0000 </r>
       <r>   26.0421    0.0000 </r>
      </set>
      <set comment="kpoint 46">
       <r>    3.2906    1.0000 </r>
       <r>    7.0496    1.0000 </r>
       <r>    7.3663    1.0000 </r>
       <r>   12.8977    0.0000 </r>
       <r>   25.1680    0.0000 </r>
       <r>   26.3348    0.0000 </r>
       <r>   28.8430    0.0000 </r>
       <r>   30.6039    0.0000 </r>
      </set>
      <set comment="kpoint 47">
       <r>    4.9322    1.0000 </r>
       <r>    5.3110    1.0000 </r>
       <r>    7.0983    1.0000 </r>
       <r>   12.7759    0.0000 </r>
       <r>   25.3830    0.0000 </r>
       <r>   27.0338    0.0000 </r>
       <r>   28.0151    0.0000 </r>
       <r>   31.3883    0.0000 </r>
      </set>
      <set comment="kpoint 48">
       <r>   -2.0160    1.0000 </r>
       <r>   11.5857    0.0000 </r>
       <r>   15.8561    0.0000 </r>
       <r>   18.3567    0.0000 </r>
       <r>   20.1787    0.0000 </r>
       <r>   21.5382    0.0000 </r>
       <r>   24.5418    0.0000 </r>
       <r>   29.3755    0.0000 </r>
      </set>
      <set comment="kpoint 49">
       <r>   -2.2853    1.0000 </r>
       <r>   13.1246    0.0000 </r>
       <r>   14.7913    0.0000 </r>
       <r>   18.5956    0.0000 </r>
       <r>   20.7842    0.0000 </r>
       <r>   21.4173    0.0000 </r>
       <r>   25.1420    0.0000 </r>
       <r>   27.8077    0.0000 </r>
      </set>
      <set comment="kpoint 50">
       <r>   -0.8087    1.0000 </r>
       <r>    8.9742    1.0000 </r>
       <r>   15.1531    0.0000 </r>
       <r>   17.7279    0.0000 </r>
       <r>   19.4700    0.0000 </r>
       <r>   21.2167    0.0000 </r>
       <r>   25.2477    0.0000 </r>
       <r>   30.2812    0.0000 </r>
      </set>
      <set comment="kpoint 51">
       <r>   -1.2102    1.0000 </r>
       <r>   10.4655    0.0000 </r>
       <r>   13.9449    0.0000 </r>
       <r>   17.9742    0.0000 </r>
       <r>   20.0932    0.0000 </r>
       <r>   21.7203    0.0000 </r>
       <r>   24.9059    0.0000 </r>
       <r>   29.6685    0.0000 </r>
      </set>
      <set comment="kpoint 52">
       <r>   -1.3442    1.0000 </r>
       <r>   12.0000    0.0000 </r>
       <r>   12.3289    0.0000 </r>
       <r>   18.3589    0.0000 </r>
       <r>   20.6883    0.0000 </r>
       <r>   20.8395    0.0000 </r>
       <r>   26.7857    0.0000 </r>
       <r>   27.6783    0.0000 </r>
      </set>
      <set comment="kpoint 53">
       <r>    0.6560    1.0000 </r>
       <r>    6.5566    1.0000 </r>
       <r>   14.6827    0.0000 </r>
       <r>   17.2847    0.0000 </r>
       <r>   18.9869    0.0000 </r>
       <r>   20.9312    0.0000 </r>
       <r>   26.3393    0.0000 </r>
       <r>   30.3261    0.0000 </r>
      </set>
      <set comment="kpoint 54">
       <r>    0.1252    1.0000 </r>
       <r>    7.9576    1.0000 </r>
       <r>   13.3390    0.0000 </r>
       <r>   17.4598    0.0000 </r>
       <r>   19.5268    0.0000 </r>
       <r>   22.1069    0.0000 </r>
       <r>   25.0797    0.0000 </r>
       <r>   29.9115    0.0000 </r>
      </set>
      <set comment="kpoint 55">
       <r>   -0.1408    1.0000 </r>
       <r>    9.5815    1.0000 </r>
       <r>   11.4365    0.0000 </r>
       <r>   17.9455    0.0000 </r>
       <r>   20.1502    0.0000 </r>
       <r>   21.4043    0.0000 </r>
       <r>   26.6730    0.0000 </r>
       <r>   28.8546    0.0000 </r>
      </set>
      <set comment="kpoint 56">
       <r>    2.3631    1.0000 </r>
       <r>    4.3691    1.0000 </r>
       <r>   14.4471    0.0000 </r>
       <r>   17.0578    0.0000 </r>
       <r>   18.7428    0.0000 </r>
       <r>   20.7690    0.0000 </r>
       <r>   27.6878    0.0000 </r>
       <r>   29.1854    0.0000 </r>
      </set>
      <set comment="kpoint 57">
       <r>    1.7132    1.0000 </r>
       <r>    5.6553    1.0000 </r>
       <r>   12.9743    0.0000 </r>
       <r>   17.1348    0.0000 </r>
       <r>   19.1730    0.0000 </r>
       <r>   22.2735    0.0000 </r>
       <r>   25.8732    0.0000 </r>
       <r>   28.7338    0.0000 </r>
      </set>
      <set comment="kpoint 58">
       <r>    1.3191    1.0000 </r>
       <r>    7.1897    1.0000 </r>
       <r>   10.9328    0.0000 </r>
       <r>   17.5824    0.0000 </r>
       <r>   19.6977    0.0000 </r>
       <r>   22.3972    0.0000 </r>
       <r>   26.1629    0.0000 </r>
       <r>   28.6046    0.0000 </r>
      </set>
      <set comment="kpoint 59">
       <r>    1.1874    1.0000 </r>
       <r>    8.8145    1.0000 </r>
       <r>    9.1119    1.0000 </r>
       <r>   17.6919    0.0000 </r>
       <r>   20.8249    0.0000 </r>
       <r>   21.0678    0.0000 </r>
       <r>   27.0536    0.0000 </r>
       <r>   28.9709    0.0000 </r>
      </set>
      <set comment="kpoint 60">
       <r>    3.3688    1.0000 </r>
       <r>    3.7601    1.0000 </r>
       <r>   12.8526    0.0000 </r>
       <r>   17.0244    0.0000 </r>
       <r>   19.0533    0.0000 </r>
       <r>   22.3001    0.0000 </r>
       <r>   26.8534    0.0000 </r>
       <r>   27.5588    0.0000 </r>
      </set>
      <set comment="kpoint 61">
       <r>    3.0210    1.0000 </r>
       <r>    5.0143    1.0000 </r>
       <r>   10.6819    0.0000 </r>
       <r>   17.3851    0.0000 </r>
       <r>   19.4632    0.0000 </r>
       <r>   23.3595    0.0000 </r>
       <r>   25.6120    0.0000 </r>
       <r>   27.9005    0.0000 </r>
      </set>
      <set comment="kpoint 62">
       <r>    2.7664    1.0000 </r>
       <r>    6.6728    1.0000 </r>
       <r>    8.5950    1.0000 </r>
       <r>   17.4518    0.0000 </r>
       <r>   20.6075    0.0000 </r>
       <r>   22.1902    0.0000 </r>
       <r>   25.4968    0.0000 </r>
       <r>   29.6968    0.0000 </r>
      </set>
      <set comment="kpoint 63">
       <r>    4.4209    1.0000 </r>
       <r>    4.7864    1.0000 </r>
       <r>    8.4641    1.0000 </r>
       <r>   17.3622    0.0000 </r>
       <r>   20.5008    0.0000 </r>
       <r>   23.2960    0.0000 </r>
       <r>   24.2430    0.0000 </r>
       <r>   29.7834    0.0000 </r>
      </set>
      <set comment="kpoint 64">
       <r>    4.4489    1.0000 </r>
       <r>    6.2906    1.0000 </r>
       <r>    6.5769    1.0000 </r>
       <r>   17.3174    0.0000 </r>
       <r>   21.7071    0.0000 </r>
       <r>   22.2770    0.0000 </r>
       <r>   23.7987    0.0000 </r>
       <r>   31.6625    0.0000 </r>
      </set>
      <set comment="kpoint 65">
       <r>   -1.0762    1.0000 </r>
       <r>   12.0483    0.0000 </r>
       <r>   12.7168    0.0000 </r>
       <r>   12.7168    0.0000 </r>
       <r>   25.3137    0.0000 </r>
       <r>   25.3137    0.0000 </r>
       <r>   27.3488    0.0000 </r>
       <r>   27.3488    0.0000 </r>
      </set>
      <set comment="kpoint 66">
       <r>    0.1258    1.0000 </r>
       <r>    9.8407    0.8205 </r>
       <r>   11.5802    0.0000 </r>
       <r>   11.9802    0.0000 </r>
       <r>   25.5519    0.0000 </r>
       <r>   25.8866    0.0000 </r>
       <r>   28.3836    0.0000 </r>
       <r>   28.5252    0.0000 </r>
      </set>
      <set comment="kpoint 67">
       <r>    1.5842    1.0000 </r>
       <r>    7.4537    1.0000 </r>
       <r>   11.0628    0.0000 </r>
       <r>   11.4835    0.0000 </r>
       <r>   25.5640    0.0000 </r>
       <r>   25.7929    0.0000 </r>
       <r>   29.5922    0.0000 </r>
       <r>   29.8695    0.0000 </r>
      </set>
      <set comment="kpoint 68">
       <r>    3.2848    1.0000 </r>
       <r>    5.2782    1.0000 </r>
       <r>   10.8104    0.0000 </r>
       <r>   11.2337    0.0000 </r>
       <r>   25.5258    0.0000 </r>
       <r>   25.6814    0.0000 </r>
       <r>   30.4594    0.0000 </r>
       <r>   30.9991    0.0000 </r>
      </set>
      <set comment="kpoint 69">
       <r>   -3.2308    1.0000 </r>
       <r>   16.6285    0.0000 </r>
       <r>   16.6285    0.0000 </r>
       <r>   18.2576    0.0000 </r>
       <r>   20.5128    0.0000 </r>
       <r>   23.4984    0.0000 </r>
       <r>   25.0293    0.0000 </r>
       <r>   25.0293    0.0000 </r>
      </set>
      <set comment="kpoint 70">
       <r>    1.4527    1.0000 </r>
       <r>    9.0523    1.0000 </r>
       <r>    9.4234    1.0000 </r>
       <r>   11.1787    0.0000 </r>
       <r>   26.4621    0.0000 </r>
       <r>   27.1753    0.0000 </r>
       <r>   29.0932    0.0000 </r>
       <r>   29.5687    0.0000 </r>
      </set>
      <set comment="kpoint 71">
       <r>    3.0305    1.0000 </r>
       <r>    6.9382    1.0000 </r>
       <r>    8.8744    1.0000 </r>
       <r>   10.7983    0.0000 </r>
       <r>   26.7760    0.0000 </r>
       <r>   27.7132    0.0000 </r>
       <r>   29.9870    0.0000 </r>
       <r>   30.6395    0.0000 </r>
      </set>
      <set comment="kpoint 72">
       <r>    4.6803    1.0000 </r>
       <r>    5.0563    1.0000 </r>
       <r>    8.7421    1.0000 </r>
       <r>   10.6724    0.0000 </r>
       <r>   26.8205    0.0000 </r>
       <r>   27.8809    0.0000 </r>
       <r>   30.3748    0.0000 </r>
       <r>   31.1557    0.0000 </r>
      </set>
      <set comment="kpoint 73">
       <r>   -2.5550    1.0000 </r>
       <r>   14.5336    0.0000 </r>
       <r>   15.4701    0.0000 </r>
       <r>   17.6632    0.0000 </r>
       <r>   19.6332    0.0000 </r>
       <r>   23.0455    0.0000 </r>
       <r>   25.2199    0.0000 </r>
       <r>   26.7725    0.0000 </r>
      </set>
      <set comment="kpoint 74">
       <r>    4.7116    1.0000 </r>
       <r>    6.5492    1.0000 </r>
       <r>    6.8600    1.0000 </r>
       <r>   10.5420    0.0000 </r>
       <r>   27.5652    0.0000 </r>
       <r>   28.8218    0.0000 </r>
       <r>   29.9036    0.0000 </r>
       <r>   31.4732    0.0000 </r>
      </set>
      <set comment="kpoint 75">
       <r>   -1.6125    1.0000 </r>
       <r>   11.9084    0.0000 </r>
       <r>   14.5248    0.0000 </r>
       <r>   17.0261    0.0000 </r>
       <r>   19.8298    0.0000 </r>
       <r>   22.2206    0.0000 </r>
       <r>   24.8946    0.0000 </r>
       <r>   29.2348    0.0000 </r>
      </set>
      <set comment="kpoint 76">
       <r>   -1.7468    1.0000 </r>
       <r>   13.3486    0.0000 </r>
       <r>   13.5782    0.0000 </r>
       <r>   17.2830    0.0000 </r>
       <r>   18.7643    0.0000 </r>
       <r>   22.8707    0.0000 </r>
       <r>   26.4613    0.0000 </r>
       <r>   27.1490    0.0000 </r>
      </set>
      <set comment="kpoint 77">
       <r>   -0.4076    1.0000 </r>
       <r>    9.3355    1.0000 </r>
       <r>   13.8098    0.0000 </r>
       <r>   16.3839    0.0000 </r>
       <r>   20.5005    0.0000 </r>
       <r>   21.5417    0.0000 </r>
       <r>   24.5787    0.0000 </r>
       <r>   29.4705    0.0000 </r>
      </set>
      <set comment="kpoint 78">
       <r>   -0.6745    1.0000 </r>
       <r>   10.9136    0.0000 </r>
       <r>   12.6254    0.0000 </r>
       <r>   16.9234    0.0000 </r>
       <r>   18.9685    0.0000 </r>
       <r>   22.2519    0.0000 </r>
       <r>   26.2109    0.0000 </r>
       <r>   28.4647    0.0000 </r>
      </set>
      <set comment="kpoint 79">
       <r>    1.0542    1.0000 </r>
       <r>    6.9345    1.0000 </r>
       <r>   13.3310    0.0000 </r>
       <r>   15.9203    0.0000 </r>
       <r>   21.0738    0.0000 </r>
       <r>   21.2120    0.0000 </r>
       <r>   24.5887    0.0000 </r>
       <r>   28.2410    0.0000 </r>
      </set>
      <set comment="kpoint 80">
       <r>    0.6573    1.0000 </r>
       <r>    8.4479    1.0000 </r>
       <r>   12.0096    0.0000 </r>
       <r>   16.4303    0.0000 </r>
       <r>   19.7838    0.0000 </r>
       <r>   21.8169    0.0000 </r>
       <r>   25.4771    0.0000 </r>
       <r>   28.0765    0.0000 </r>
      </set>
      <set comment="kpoint 81">
       <r>    0.5247    1.0000 </r>
       <r>   10.0393    0.0000 </r>
       <r>   10.3112    0.0000 </r>
       <r>   17.3451    0.0000 </r>
       <r>   18.6768    0.0000 </r>
       <r>   21.7932    0.0000 </r>
       <r>   26.4723    0.0000 </r>
       <r>   28.4283    0.0000 </r>
      </set>
      <set comment="kpoint 82">
       <r>    2.7581    1.0000 </r>
       <r>    4.7552    1.0000 </r>
       <r>   13.0912    0.0000 </r>
       <r>   15.6821    0.0000 </r>
       <r>   20.8366    0.0000 </r>
       <r>   21.6351    0.0000 </r>
       <r>   25.0743    0.0000 </r>
       <r>   26.9149    0.0000 </r>
      </set>
      <set comment="kpoint 83">
       <r>    2.2406    1.0000 </r>
       <r>    6.1637    1.0000 </r>
       <r>   11.6399    0.0000 </r>
       <r>   16.0958    0.0000 </r>
       <r>   20.4987    0.0000 </r>
       <r>   21.9093    0.0000 </r>
       <r>   24.5245    0.0000 </r>
       <r>   27.2971    0.0000 </r>
      </set>
      <set comment="kpoint 84">
       <r>    1.9792    1.0000 </r>
       <r>    7.8071    1.0000 </r>
       <r>    9.6840    1.0000 </r>
       <r>   17.2640    0.0000 </r>
       <r>   19.3554    0.0000 </r>
       <r>   21.5040    0.0000 </r>
       <r>   24.7872    0.0000 </r>
       <r>   29.0430    0.0000 </r>
      </set>
      <set comment="kpoint 85">
       <r>    3.8985    1.0000 </r>
       <r>    4.2698    1.0000 </r>
       <r>   11.5166    0.0000 </r>
       <r>   15.9808    0.0000 </r>
       <r>   20.6594    0.0000 </r>
       <r>   22.4340    0.0000 </r>
       <r>   23.7759    0.0000 </r>
       <r>   27.0082    0.0000 </r>
      </set>
      <set comment="kpoint 86">
       <r>    3.6746    1.0000 </r>
       <r>    5.6522    1.0000 </r>
       <r>    9.4282    1.0000 </r>
       <r>   17.1021    0.0000 </r>
       <r>   20.1049    0.0000 </r>
       <r>   21.8262    0.0000 </r>
       <r>   23.1056    0.0000 </r>
       <r>   29.0702    0.0000 </r>
      </set>
      <set comment="kpoint 87">
       <r>    3.5495    1.0000 </r>
       <r>    7.2964    1.0000 </r>
       <r>    7.5752    1.0000 </r>
       <r>   17.9245    0.0000 </r>
       <r>   19.5789    0.0000 </r>
       <r>   21.2525    0.0000 </r>
       <r>   23.0530    0.0000 </r>
       <r>   30.9402    0.0000 </r>
      </set>
      <set comment="kpoint 88">
       <r>    5.1961    1.0000 </r>
       <r>    5.5462    1.0000 </r>
       <r>    7.3233    1.0000 </r>
       <r>   18.0537    0.0000 </r>
       <r>   20.1663    0.0000 </r>
       <r>   21.3040    0.0000 </r>
       <r>   21.8794    0.0000 </r>
       <r>   31.5421    0.0000 </r>
      </set>
      <set comment="kpoint 89">
       <r>    2.9009    1.0000 </r>
       <r>    8.4143    1.0000 </r>
       <r>    8.9205    1.0000 </r>
       <r>    8.9205    1.0000 </r>
       <r>   28.3925    0.0000 </r>
       <r>   28.3925    0.0000 </r>
       <r>   30.1803    0.0000 </r>
       <r>   30.1803    0.0000 </r>
      </set>
      <set comment="kpoint 90">
       <r>    4.5877    1.0000 </r>
       <r>    6.5562    1.0000 </r>
       <r>    8.3623    1.0000 </r>
       <r>    8.6680    1.0000 </r>
       <r>   28.9292    0.0000 </r>
       <r>   29.2651    0.0000 </r>
       <r>   30.8792    0.0000 </r>
       <r>   31.1525    0.0000 </r>
      </set>
      <set comment="kpoint 91">
       <r>   -1.8812    1.0000 </r>
       <r>   14.2993    0.0000 </r>
       <r>   14.2993    0.0000 </r>
       <r>   16.2116    0.0000 </r>
       <r>   17.8136    0.0000 </r>
       <r>   24.8168    0.0000 </r>
       <r>   26.3529    0.0000 </r>
       <r>   26.3529    0.0000 </r>
      </set>
      <set comment="kpoint 92">
       <r>    6.0667    1.0000 </r>
       <r>    6.6061    1.0000 </r>
       <r>    6.6061    1.0000 </r>
       <r>    8.4039    1.0000 </r>
       <r>   29.7185    0.0000 </r>
       <r>   30.6819    0.0000 </r>
       <r>   30.6819    0.0000 </r>
       <r>   31.7850    0.0000 </r>
      </set>
      <set comment="kpoint 93">
       <r>   -0.9419    1.0000 </r>
       <r>   12.3643    0.0000 </r>
       <r>   13.3446    0.0000 </r>
       <r>   15.6965    0.0000 </r>
       <r>   17.2915    0.0000 </r>
       <r>   24.5467    0.0000 </r>
       <r>   26.3726    0.0000 </r>
       <r>   28.2407    0.0000 </r>
      </set>
      <set comment="kpoint 94">
       <r>    0.2590    1.0000 </r>
       <r>    9.9174    0.1055 </r>
       <r>   12.6230    0.0000 </r>
       <r>   15.1490    0.0000 </r>
       <r>   17.9466    0.0000 </r>
       <r>   23.9297    0.0000 </r>
       <r>   25.3794    0.0000 </r>
       <r>   27.8434    0.0000 </r>
      </set>
      <set comment="kpoint 95">
       <r>    0.1261    1.0000 </r>
       <r>   11.4164    0.0000 </r>
       <r>   11.6059    0.0000 </r>
       <r>   15.5508    0.0000 </r>
       <r>   16.6536    0.0000 </r>
       <r>   24.4496    0.0000 </r>
       <r>   26.1316    0.0000 </r>
       <r>   28.0990    0.0000 </r>
      </set>
      <set comment="kpoint 96">
       <r>    1.7155    1.0000 </r>
       <r>    7.5567    1.0000 </r>
       <r>   12.1401    0.0000 </r>
       <r>   14.6896    0.0000 </r>
       <r>   19.0711    0.0000 </r>
       <r>   23.4813    0.0000 </r>
       <r>   23.9721    0.0000 </r>
       <r>   27.3374    0.0000 </r>
      </set>
      <set comment="kpoint 97">
       <r>    1.4521    1.0000 </r>
       <r>    9.1594    1.0000 </r>
       <r>   10.9031    0.0000 </r>
       <r>   15.3302    0.0000 </r>
       <r>   17.2582    0.0000 </r>
       <r>   23.5785    0.0000 </r>
       <r>   24.6917    0.0000 </r>
       <r>   28.6312    0.0000 </r>
      </set>
      <set comment="kpoint 98">
       <r>    3.4133    1.0000 </r>
       <r>    5.3949    1.0000 </r>
       <r>   11.8982    0.0000 </r>
       <r>   14.4482    0.0000 </r>
       <r>   20.3019    0.0000 </r>
       <r>   22.5497    0.0000 </r>
       <r>   23.2512    0.0000 </r>
       <r>   27.0478    0.0000 </r>
      </set>
      <set comment="kpoint 99">
       <r>    3.0279    1.0000 </r>
       <r>    6.9170    1.0000 </r>
       <r>   10.5290    0.0000 </r>
       <r>   15.0206    0.0000 </r>
       <r>   18.5035    0.0000 </r>
       <r>   22.0328    0.0000 </r>
       <r>   24.0537    0.0000 </r>
       <r>   28.6302    0.0000 </r>
      </set>
      <set comment="kpoint 100">
       <r>    2.8982    1.0000 </r>
       <r>    8.5377    1.0000 </r>
       <r>    8.7876    1.0000 </r>
       <r>   16.1136    0.0000 </r>
       <r>   17.1289    0.0000 </r>
       <r>   21.8797    0.0000 </r>
       <r>   24.1750    0.0000 </r>
       <r>   30.4064    0.0000 </r>
      </set>
      <set comment="kpoint 101">
       <r>    4.6864    1.0000 </r>
       <r>    5.0305    1.0000 </r>
       <r>   10.4045    0.0000 </r>
       <r>   14.9073    0.0000 </r>
       <r>   19.5730    0.0000 </r>
       <r>   20.8085    0.0000 </r>
       <r>   23.8964    0.0000 </r>
       <r>   28.5958    0.0000 </r>
      </set>
      <set comment="kpoint 102">
       <r>    4.5821    1.0000 </r>
       <r>    6.5331    1.0000 </r>
       <r>    8.4201    1.0000 </r>
       <r>   16.2034    0.0000 </r>
       <r>   18.2016    0.0000 </r>
       <r>   20.1131    0.0000 </r>
       <r>   23.9244    0.0000 </r>
       <r>   31.0150    0.0000 </r>
      </set>
      <set comment="kpoint 103">
       <r>    6.1032    1.0000 </r>
       <r>    6.5482    1.0000 </r>
       <r>    6.5482    1.0000 </r>
       <r>   17.0503    0.0000 </r>
       <r>   18.5641    0.0000 </r>
       <r>   18.5641    0.0000 </r>
       <r>   23.8444    0.0000 </r>
       <r>   33.1272    0.0000 </r>
      </set>
      <set comment="kpoint 104">
       <r>   -0.0070    1.0000 </r>
       <r>   12.3838    0.0000 </r>
       <r>   12.3838    0.0000 </r>
       <r>   14.4061    0.0000 </r>
       <r>   15.6309    0.0000 </r>
       <r>   25.9239    0.0000 </r>
       <r>   26.6414    0.0000 </r>
       <r>   27.9887    0.0000 </r>
      </set>
      <set comment="kpoint 105">
       <r>    1.1879    1.0000 </r>
       <r>   10.6417    0.0000 </r>
       <r>   11.6581    0.0000 </r>
       <r>   14.0391    0.0000 </r>
       <r>   15.4535    0.0000 </r>
       <r>   23.8267    0.0000 </r>
       <r>   26.5322    0.0000 </r>
       <r>   28.6650    0.0000 </r>
      </set>
      <set comment="kpoint 106">
       <r>    2.6364    1.0000 </r>
       <r>    8.4036    1.0000 </r>
       <r>   11.1727    0.0000 </r>
       <r>   13.6586    0.0000 </r>
       <r>   16.4699    0.0000 </r>
       <r>   21.7503    0.0000 </r>
       <r>   26.1271    0.0000 </r>
       <r>   28.8633    0.0000 </r>
      </set>
      <set comment="kpoint 107">
       <r>    2.5055    1.0000 </r>
       <r>    9.9390    0.0313 </r>
       <r>   10.1113    0.0000 </r>
       <r>   14.1582    0.0000 </r>
       <r>   15.0552    0.0000 </r>
       <r>   21.6389    0.0000 </r>
       <r>   26.8085    0.0000 </r>
       <r>   30.0807    0.0000 </r>
      </set>
      <set comment="kpoint 108">
       <r>    4.3237    1.0000 </r>
       <r>    6.2805    1.0000 </r>
       <r>   10.9297    0.0000 </r>
       <r>   13.4252    0.0000 </r>
       <r>   17.8745    0.0000 </r>
       <r>   19.8793    0.0000 </r>
       <r>   25.9078    0.0000 </r>
       <r>   28.8740    0.0000 </r>
      </set>
      <set comment="kpoint 109">
       <r>    4.0694    1.0000 </r>
       <r>    7.8940    1.0000 </r>
       <r>    9.6595    1.0000 </r>
       <r>   14.1162    0.0000 </r>
       <r>   15.9988    0.0000 </r>
       <r>   19.5781    0.0000 </r>
       <r>   26.6068    0.0000 </r>
       <r>   30.6456    0.0000 </r>
      </set>
      <set comment="kpoint 110">
       <r>    5.7224    1.0000 </r>
       <r>    6.0342    1.0000 </r>
       <r>    9.5333    1.0000 </r>
       <r>   14.0227    0.0000 </r>
       <r>   17.2479    0.0000 </r>
       <r>   18.0520    0.0000 </r>
       <r>   26.5180    0.0000 </r>
       <r>   30.7287    0.0000 </r>
      </set>
      <set comment="kpoint 111">
       <r>    5.7315    1.0000 </r>
       <r>    7.5344    1.0000 </r>
       <r>    7.7684    1.0000 </r>
       <r>   15.1597    0.0000 </r>
       <r>   16.0862    0.0000 </r>
       <r>   17.6243    0.0000 </r>
       <r>   26.5610    0.0000 </r>
       <r>   32.6172    0.0000 </r>
      </set>
      <set comment="kpoint 112">
       <r>    2.3743    1.0000 </r>
       <r>   10.9298    0.0000 </r>
       <r>   10.9298    0.0000 </r>
       <r>   12.9698    0.0000 </r>
       <r>   13.9855    0.0000 </r>
       <r>   21.5347    0.0000 </r>
       <r>   28.9326    0.0000 </r>
       <r>   29.9714    0.0000 </r>
      </set>
      <set comment="kpoint 113">
       <r>    3.8106    1.0000 </r>
       <r>    9.3978    1.0000 </r>
       <r>   10.4429    0.0000 </r>
       <r>   12.7963    0.0000 </r>
       <r>   14.1342    0.0000 </r>
       <r>   19.3250    0.0000 </r>
       <r>   28.9470    0.0000 </r>
       <r>   30.7289    0.0000 </r>
      </set>
      <set comment="kpoint 114">
       <r>    5.4796    1.0000 </r>
       <r>    7.3912    1.0000 </r>
       <r>   10.1991    0.0000 </r>
       <r>   12.6279    0.0000 </r>
       <r>   15.4406    0.0000 </r>
       <r>   17.3430    0.0000 </r>
       <r>   28.7511    0.0000 </r>
       <r>   30.9997    0.0000 </r>
      </set>
      <set comment="kpoint 115">
       <r>    5.3547    1.0000 </r>
       <r>    8.9443    1.0000 </r>
       <r>    9.1097    1.0000 </r>
       <r>   13.1807    0.0000 </r>
       <r>   13.9851    0.0000 </r>
       <r>   17.1901    0.0000 </r>
       <r>   29.3576    0.0000 </r>
       <r>   32.3032    0.0000 </r>
      </set>
      <set comment="kpoint 116">
       <r>    6.9847    1.0000 </r>
       <r>    7.2580    1.0000 </r>
       <r>    8.9108    1.0000 </r>
       <r>   13.3227    0.0000 </r>
       <r>   15.0068    0.0000 </r>
       <r>   15.5626    0.0000 </r>
       <r>   29.3345    0.0000 </r>
       <r>   32.8048    0.0000 </r>
      </set>
      <set comment="kpoint 117">
       <r>    5.2272    1.0000 </r>
       <r>    9.9551    0.0102 </r>
       <r>    9.9551    0.0102 </r>
       <r>   11.9683    0.0000 </r>
       <r>   12.8856    0.0000 </r>
       <r>   17.0539    0.0000 </r>
       <r>   31.5717    0.0000 </r>
       <r>   32.1973    0.0000 </r>
      </set>
      <set comment="kpoint 118">
       <r>    6.8592    1.0000 </r>
       <r>    8.6494    1.0000 </r>
       <r>    9.7109    1.0000 </r>
       <r>   12.0070    0.0000 </r>
       <r>   13.3276    0.0000 </r>
       <r>   15.0464    0.0000 </r>
       <r>   31.6515    0.0000 </r>
       <r>   32.9282    0.0000 </r>
      </set>
      <set comment="kpoint 119">
       <r>    8.3409    1.0000 </r>
       <r>    8.6077    1.0000 </r>
       <r>    8.6077    1.0000 </r>
       <r>   12.4207    0.0000 </r>
       <r>   13.4491    0.0000 </r>
       <r>   13.4491    0.0000 </r>
       <r>   32.0774    0.0000 </r>
       <r>   34.2456    0.0000 </r>
      </set>
      <set comment="kpoint 120">
       <r>    8.3843    1.0000 </r>
       <r>    9.4666    1.0000 </r>
       <r>    9.4666    1.0000 </r>
       <r>   11.3552    0.0000 </r>
       <r>   12.3349    0.0000 </r>
       <r>   13.1401    0.0000 </r>
       <r>   34.0175    0.0000 </r>
       <r>   34.1459    0.0000 </r>
      </set>
     </set>
    </set>
   </array>
  </eigenvalues>
  <separator name="orbital magnetization" >
   <v name="MAGDIPOLOUT">      0.00000000      0.00000000      0.00000000</v>
  </separator>
  <dos>
   <i name="efermi">      9.87313908 </i>
   <total>
    <array>
     <dimension dim="1">gridpoints</dimension>
     <dimension dim="2">spin</dimension>
     <field>energy</field>
     <field>total</field>
     <field>integrated</field>
     <set>
      <set comment="spin 1">
       <r>    -6.2449     0.0000     0.0000 </r>
       <r>    -6.1035     0.0000     0.0000 </r>
       <r>    -5.9621     0.0000     0.0000 </r>
       <r>    -5.8207     0.0000     0.0000 </r>
       <r>    -5.6793     0.0000     0.0000 </r>
       <r>    -5.5380     0.0000     0.0000 </r>
       <r>    -5.3966     0.0000     0.0000 </r>
       <r>    -5.2552     0.0000     0.0000 </r>
       <r>    -5.1138     0.0000     0.0000 </r>
       <r>    -4.9724     0.0000     0.0000 </r>
       <r>    -4.8310     0.0000     0.0000 </r>
       <r>    -4.6896     0.0000     0.0000 </r>
       <r>    -4.5482     0.0000     0.0000 </r>
       <r>    -4.4068     0.0000     0.0000 </r>
       <r>    -4.2654     0.0043     0.0006 </r>
       <r>    -4.1240     0.0478     0.0074 </r>
       <r>    -3.9826     0.0284     0.0114 </r>
       <r>    -3.8412     0.0983     0.0253 </r>
       <r>    -3.6998     0.0547     0.0330 </r>
       <r>    -3.5584     0.0982     0.0469 </r>
       <r>    -3.4170     0.0479     0.0537 </r>
       <r>    -3.2756     0.1877     0.0802 </r>
       <r>    -3.1342     0.0442     0.0865 </r>
       <r>    -2.9928     0.1480     0.1074 </r>
       <r>    -2.8514     0.1058     0.1223 </r>
       <r>    -2.7100     0.1064     0.1374 </r>
       <r>    -2.5687     0.1775     0.1625 </r>
       <r>    -2.4273     0.1960     0.1902 </r>
       <r>    -2.2859     0.0994     0.2043 </r>
       <r>    -2.1445     0.1305     0.2227 </r>
       <r>    -2.0031     0.1510     0.2441 </r>
       <r>    -1.8617     0.1615     0.2669 </r>
       <r>    -1.7203     0.2700     0.3051 </r>
       <r>    -1.5789     0.1516     0.3265 </r>
       <r>    -1.4375     0.1936     0.3539 </r>
       <r>    -1.2961     0.1176     0.3705 </r>
       <r>    -1.1547     0.1971     0.3984 </r>
       <r>    -1.0133     0.0514     0.4057 </r>
       <r>    -0.8719     0.3410     0.4539 </r>
       <r>    -0.7305     0.1267     0.4718 </r>
       <r>    -0.5891     0.3953     0.5277 </r>
       <r>    -0.4477     0.1987     0.5558 </r>
       <r>    -0.3063     0.0883     0.5683 </r>
       <r>    -0.1649     0.1008     0.5825 </r>
       <r>    -0.0235     0.3097     0.6263 </r>
       <r>     0.1179     0.1836     0.6523 </r>
       <r>     0.2593     0.3373     0.7000 </r>
       <r>     0.4007     0.2209     0.7312 </r>
       <r>     0.5420     0.1850     0.7573 </r>
       <r>     0.6834     0.4347     0.8188 </r>
       <r>     0.8248     0.1998     0.8471 </r>
       <r>     0.9662     0.1959     0.8748 </r>
       <r>     1.1076     0.1166     0.8913 </r>
       <r>     1.2490     0.2018     0.9198 </r>
       <r>     1.3904     0.2224     0.9512 </r>
       <r>     1.5318     0.4866     1.0200 </r>
       <r>     1.6732     0.1588     1.0425 </r>
       <r>     1.8146     0.4421     1.1050 </r>
       <r>     1.9560     0.1067     1.1201 </r>
       <r>     2.0974     0.3318     1.1670 </r>
       <r>     2.2388     0.2866     1.2075 </r>
       <r>     2.3802     0.3149     1.2521 </r>
       <r>     2.5216     0.1884     1.2787 </r>
       <r>     2.6630     0.3040     1.3217 </r>
       <r>     2.8044     0.3173     1.3666 </r>
       <r>     2.9458     0.1662     1.3901 </r>
       <r>     3.0872     0.6155     1.4771 </r>
       <r>     3.2286     0.1035     1.4917 </r>
       <r>     3.3700     0.2723     1.5302 </r>
       <r>     3.5113     0.3925     1.5857 </r>
       <r>     3.6527     0.2561     1.6219 </r>
       <r>     3.7941     0.3675     1.6739 </r>
       <r>     3.9355     0.3842     1.7282 </r>
       <r>     4.0769     0.2398     1.7621 </r>
       <r>     4.2183     0.1155     1.7785 </r>
       <r>     4.3597     0.3537     1.8285 </r>
       <r>     4.5011     0.3203     1.8738 </r>
       <r>     4.6425     0.4997     1.9444 </r>
       <r>     4.7839     0.4841     2.0129 </r>
       <r>     4.9253     0.1206     2.0299 </r>
       <r>     5.0667     0.3911     2.0852 </r>
       <r>     5.2081     0.1416     2.1052 </r>
       <r>     5.3495     0.3467     2.1543 </r>
       <r>     5.4909     0.6094     2.2404 </r>
       <r>     5.6323     0.2447     2.2750 </r>
       <r>     5.7737     0.5569     2.3538 </r>
       <r>     5.9151     0.3023     2.3965 </r>
       <r>     6.0565     0.1947     2.4240 </r>
       <r>     6.1979     0.4033     2.4811 </r>
       <r>     6.3393     0.2644     2.5184 </r>
       <r>     6.4807     0.0815     2.5300 </r>
       <r>     6.6220     0.6952     2.6283 </r>
       <r>     6.7634     0.3399     2.6763 </r>
       <r>     6.9048     0.4968     2.7466 </r>
       <r>     7.0462     0.5442     2.8235 </r>
       <r>     7.1876     0.2498     2.8589 </r>
       <r>     7.3290     0.3599     2.9097 </r>
       <r>     7.4704     0.3184     2.9548 </r>
       <r>     7.6118     0.4795     3.0226 </r>
       <r>     7.7532     0.4428     3.0852 </r>
       <r>     7.8946     0.5212     3.1589 </r>
       <r>     8.0360     0.2933     3.2003 </r>
       <r>     8.1774     0.1230     3.2177 </r>
       <r>     8.3188     0.2025     3.2464 </r>
       <r>     8.4602     0.7450     3.3517 </r>
       <r>     8.6016     0.5174     3.4249 </r>
       <r>     8.7430     0.3785     3.4784 </r>
       <r>     8.8844     0.4394     3.5405 </r>
       <r>     9.0258     0.4380     3.6024 </r>
       <r>     9.1672     0.5011     3.6733 </r>
       <r>     9.3086     0.5020     3.7443 </r>
       <r>     9.4500     0.4349     3.8058 </r>
       <r>     9.5914     0.5282     3.8804 </r>
       <r>     9.7327     0.5352     3.9561 </r>
       <r>     9.8741     0.3131     4.0004 </r>
       <r>    10.0155     0.4756     4.0676 </r>
       <r>    10.1569     0.2528     4.1034 </r>
       <r>    10.2983     0.3985     4.1597 </r>
       <r>    10.4397     0.4420     4.2222 </r>
       <r>    10.5811     0.5057     4.2937 </r>
       <r>    10.7225     0.5060     4.3653 </r>
       <r>    10.8639     0.5590     4.4443 </r>
       <r>    11.0053     0.7151     4.5454 </r>
       <r>    11.1467     0.1896     4.5722 </r>
       <r>    11.2881     0.3103     4.6161 </r>
       <r>    11.4295     0.2092     4.6457 </r>
       <r>    11.5709     0.6273     4.7344 </r>
       <r>    11.7123     0.6907     4.8320 </r>
       <r>    11.8537     0.2451     4.8667 </r>
       <r>    11.9951     0.6239     4.9549 </r>
       <r>    12.1365     0.4530     5.0190 </r>
       <r>    12.2779     0.2170     5.0496 </r>
       <r>    12.4193     0.3939     5.1053 </r>
       <r>    12.5607     0.1618     5.1282 </r>
       <r>    12.7020     0.5682     5.2086 </r>
       <r>    12.8434     0.2987     5.2508 </r>
       <r>    12.9848     0.7396     5.3554 </r>
       <r>    13.1262     0.4858     5.4241 </r>
       <r>    13.2676     0.4412     5.4864 </r>
       <r>    13.4090     0.8683     5.6092 </r>
       <r>    13.5504     0.4217     5.6688 </r>
       <r>    13.6918     0.4941     5.7387 </r>
       <r>    13.8332     0.3488     5.7880 </r>
       <r>    13.9746     0.4372     5.8498 </r>
       <r>    14.1160     0.4480     5.9132 </r>
       <r>    14.2574     0.3701     5.9655 </r>
       <r>    14.3988     0.5557     6.0441 </r>
       <r>    14.5402     0.8466     6.1638 </r>
       <r>    14.6816     0.2146     6.1941 </r>
       <r>    14.8230     0.4948     6.2641 </r>
       <r>    14.9644     0.2724     6.3026 </r>
       <r>    15.1058     0.6992     6.4015 </r>
       <r>    15.2472     0.4865     6.4703 </r>
       <r>    15.3886     0.5106     6.5425 </r>
       <r>    15.5300     0.7335     6.6462 </r>
       <r>    15.6714     0.4246     6.7062 </r>
       <r>    15.8127     0.5834     6.7887 </r>
       <r>    15.9541     0.5487     6.8663 </r>
       <r>    16.0955     0.8425     6.9854 </r>
       <r>    16.2369     0.5992     7.0702 </r>
       <r>    16.3783     0.1939     7.0976 </r>
       <r>    16.5197     0.7280     7.2005 </r>
       <r>    16.6611     0.3404     7.2486 </r>
       <r>    16.8025     0.2360     7.2820 </r>
       <r>    16.9439     0.3746     7.3350 </r>
       <r>    17.0853     0.5710     7.4157 </r>
       <r>    17.2267     0.8842     7.5408 </r>
       <r>    17.3681     1.2952     7.7239 </r>
       <r>    17.5095     0.8186     7.8396 </r>
       <r>    17.6509     0.4043     7.8968 </r>
       <r>    17.7923     0.4097     7.9547 </r>
       <r>    17.9337     0.3942     8.0105 </r>
       <r>    18.0751     0.7264     8.1132 </r>
       <r>    18.2165     0.4667     8.1792 </r>
       <r>    18.3579     0.3446     8.2279 </r>
       <r>    18.4993     0.1961     8.2556 </r>
       <r>    18.6407     0.3971     8.3118 </r>
       <r>    18.7820     0.3886     8.3667 </r>
       <r>    18.9234     0.1169     8.3833 </r>
       <r>    19.0648     0.4820     8.4514 </r>
       <r>    19.2062     0.6727     8.5465 </r>
       <r>    19.3476     0.4315     8.6075 </r>
       <r>    19.4890     0.5072     8.6792 </r>
       <r>    19.6304     0.6904     8.7769 </r>
       <r>    19.7718     0.6995     8.8758 </r>
       <r>    19.9132     0.3903     8.9309 </r>
       <r>    20.0546     0.1976     8.9589 </r>
       <r>    20.1960     1.0352     9.1053 </r>
       <r>    20.3374     0.4824     9.1735 </r>
       <r>    20.4788     0.2383     9.2072 </r>
       <r>    20.6202     0.7218     9.3092 </r>
       <r>    20.7616     0.3753     9.3623 </r>
       <r>    20.9030     0.6622     9.4559 </r>
       <r>    21.0444     0.7435     9.5610 </r>
       <r>    21.1858     0.4803     9.6290 </r>
       <r>    21.3272     0.4731     9.6959 </r>
       <r>    21.4686     0.6403     9.7864 </r>
       <r>    21.6100     0.8246     9.9030 </r>
       <r>    21.7514     0.9221    10.0334 </r>
       <r>    21.8927     1.3954    10.2307 </r>
       <r>    22.0341     0.7028    10.3301 </r>
       <r>    22.1755     0.7248    10.4325 </r>
       <r>    22.3169     0.8954    10.5591 </r>
       <r>    22.4583     0.6358    10.6490 </r>
       <r>    22.5997     0.2124    10.6791 </r>
       <r>    22.7411     0.1792    10.7044 </r>
       <r>    22.8825     0.2470    10.7393 </r>
       <r>    23.0239     0.7771    10.8492 </r>
       <r>    23.1653     0.8640    10.9714 </r>
       <r>    23.3067     0.9103    11.1001 </r>
       <r>    23.4481     0.4919    11.1697 </r>
       <r>    23.5895     0.5739    11.2508 </r>
       <r>    23.7309     0.5494    11.3285 </r>
       <r>    23.8723     0.5028    11.3996 </r>
       <r>    24.0137     0.4905    11.4689 </r>
       <r>    24.1551     0.2299    11.5014 </r>
       <r>    24.2965     0.6705    11.5962 </r>
       <r>    24.4379     0.5175    11.6694 </r>
       <r>    24.5793     1.1277    11.8289 </r>
       <r>    24.7207     0.7265    11.9316 </r>
       <r>    24.8620     0.4968    12.0018 </r>
       <r>    25.0034     0.4385    12.0638 </r>
       <r>    25.1448     0.6405    12.1544 </r>
       <r>    25.2862     0.6347    12.2442 </r>
       <r>    25.4276     0.5451    12.3212 </r>
       <r>    25.5690     0.8044    12.4350 </r>
       <r>    25.7104     0.3699    12.4873 </r>
       <r>    25.8518     0.6736    12.5825 </r>
       <r>    25.9932     0.4815    12.6506 </r>
       <r>    26.1346     0.6158    12.7377 </r>
       <r>    26.2760     0.6602    12.8310 </r>
       <r>    26.4174     0.7877    12.9424 </r>
       <r>    26.5588     0.7299    13.0456 </r>
       <r>    26.7002     0.5003    13.1163 </r>
       <r>    26.8416     0.9205    13.2465 </r>
       <r>    26.9830     0.4749    13.3136 </r>
       <r>    27.1244     0.7431    13.4187 </r>
       <r>    27.2658     0.5446    13.4957 </r>
       <r>    27.4072     0.6442    13.5868 </r>
       <r>    27.5486     0.2645    13.6242 </r>
       <r>    27.6900     0.5776    13.7059 </r>
       <r>    27.8314     0.6109    13.7923 </r>
       <r>    27.9727     0.7453    13.8976 </r>
       <r>    28.1141     0.6061    13.9833 </r>
       <r>    28.2555     0.4719    14.0501 </r>
       <r>    28.3969     0.5737    14.1312 </r>
       <r>    28.5383     0.6485    14.2229 </r>
       <r>    28.6797     0.9603    14.3587 </r>
       <r>    28.8211     0.6664    14.4529 </r>
       <r>    28.9625     1.2519    14.6299 </r>
       <r>    29.1039     0.7477    14.7356 </r>
       <r>    29.2453     0.2705    14.7739 </r>
       <r>    29.3867     0.6231    14.8620 </r>
       <r>    29.5281     0.5198    14.9355 </r>
       <r>    29.6695     0.5313    15.0106 </r>
       <r>    29.8109     0.8462    15.1302 </r>
       <r>    29.9523     0.8767    15.2542 </r>
       <r>    30.0937     0.6386    15.3445 </r>
       <r>    30.2351     0.2056    15.3736 </r>
       <r>    30.3765     0.6053    15.4592 </r>
       <r>    30.5179     0.4886    15.5282 </r>
       <r>    30.6593     0.8147    15.6434 </r>
       <r>    30.8007     0.5403    15.7198 </r>
       <r>    30.9421     0.1669    15.7434 </r>
       <r>    31.0834     0.4374    15.8053 </r>
       <r>    31.2248     0.1991    15.8334 </r>
       <r>    31.3662     0.0315    15.8379 </r>
       <r>    31.5076     0.1751    15.8626 </r>
       <r>    31.6490     0.2073    15.8920 </r>
       <r>    31.7904     0.1375    15.9114 </r>
       <r>    31.9318     0.0148    15.9135 </r>
       <r>    32.0732     0.0152    15.9156 </r>
       <r>    32.2146     0.0363    15.9208 </r>
       <r>    32.3560     0.1010    15.9350 </r>
       <r>    32.4974     0.0141    15.9370 </r>
       <r>    32.6388     0.0996    15.9511 </r>
       <r>    32.7802     0.0517    15.9584 </r>
       <r>    32.9216     0.1189    15.9752 </r>
       <r>    33.0630     0.0590    15.9836 </r>
       <r>    33.2044     0.0319    15.9881 </r>
       <r>    33.3458     0.0005    15.9881 </r>
       <r>    33.4872     0.0000    15.9881 </r>
       <r>    33.6286     0.0000    15.9881 </r>
       <r>    33.7700     0.0000    15.9881 </r>
       <r>    33.9114     0.0000    15.9882 </r>
       <r>    34.0527     0.0212    15.9912 </r>
       <r>    34.1941     0.0293    15.9953 </r>
       <r>    34.3355     0.0331    16.0000 </r>
       <r>    34.4769     0.0002    16.0000 </r>
       <r>    34.6183     0.0000    16.0000 </r>
       <r>    34.7597     0.0000    16.0000 </r>
       <r>    34.9011     0.0000    16.0000 </r>
       <r>    35.0425     0.0000    16.0000 </r>
       <r>    35.1839     0.0000    16.0000 </r>
       <r>    35.3253     0.0000    16.0000 </r>
       <r>    35.4667     0.0000    16.0000 </r>
       <r>    35.6081     0.0000    16.0000 </r>
       <r>    35.7495     0.0000    16.0000 </r>
       <r>    35.8909     0.0000    16.0000 </r>
       <r>    36.0323     0.0000    16.0000 </r>
       <r>    36.1737     0.0000    16.0000 </r>
      </set>
     </set>
    </array>
   </total>
  </dos>
 </calculation>
 <structure name="finalpos" >
  <crystal>
   <varray name="basis" >
    <v>       1.54080460       1.54080460       1.54080460 </v>
    <v>       1.54080460      -1.54080460      -1.54080460 </v>
    <v>      -1.54080460       1.54080460      -1.54080460 </v>
   </varray>
   <i name="volume">     14.63196621 </i>
   <varray name="rec_basis" >
    <v>       0.32450578       0.32450578       0.00000000 </v>
    <v>       0.32450578       0.00000000      -0.32450578 </v>
    <v>       0.00000000       0.32450578      -0.32450578 </v>
   </varray>
  </crystal>
  <varray name="positions" >
   <v>      -0.00000000      -0.00000000      -0.00000000 </v>
  </varray>
 </structure>
</modeling>
