   2   2   0   0
  0.2016476E+02  0.3849278E-09  0.3849279E-09  0.3849278E-09  0.5000000E-15
  1.000000000000000E-004
  CAR 
 unknown system                          
     16.47561002     -7.27625110  301      5.86768246      1.00000000
     -7.276  0.0000E+00  0.0000E+00
     -7.197  0.0000E+00  0.0000E+00
     -7.118  0.0000E+00  0.0000E+00
     -7.039  0.0000E+00  0.0000E+00
     -6.960  0.0000E+00  0.0000E+00
     -6.880  0.0000E+00  0.0000E+00
     -6.801  0.0000E+00  0.0000E+00
     -6.722  0.0000E+00  0.0000E+00
     -6.643  0.0000E+00  0.0000E+00
     -6.564  0.0000E+00  0.0000E+00
     -6.485  0.8563E-20  0.6779E-21
     -6.405  0.9152E-13  0.7246E-14
     -6.326  0.6560E-08  0.5194E-09
     -6.247  0.5731E-05  0.4543E-06
     -6.168  0.2324E-03  0.1886E-04
     -6.089  0.8082E-03  0.8285E-04
     -6.009  0.1529E-02  0.2039E-03
     -5.930  0.1371E-02  0.3124E-03
     -5.851  0.2323E-02  0.4964E-03
     -5.772  0.2078E-02  0.6609E-03
     -5.693  0.2150E-02  0.8311E-03
     -5.614  0.3338E-02  0.1095E-02
     -5.534  0.2624E-02  0.1303E-02
     -5.455  0.2376E-02  0.1491E-02
     -5.376  0.4053E-02  0.1812E-02
     -5.297  0.3970E-02  0.2126E-02
     -5.218  0.2439E-02  0.2320E-02
     -5.139  0.3954E-02  0.2633E-02
     -5.059  0.4249E-02  0.2969E-02
     -4.980  0.5073E-02  0.3371E-02
     -4.901  0.3780E-02  0.3670E-02
     -4.822  0.3386E-02  0.3938E-02
     -4.743  0.5085E-02  0.4341E-02
     -4.664  0.6106E-02  0.4824E-02
     -4.584  0.5116E-02  0.5229E-02
     -4.505  0.5033E-02  0.5628E-02
     -4.426  0.3551E-02  0.5909E-02
     -4.347  0.6612E-02  0.6432E-02
     -4.268  0.7917E-02  0.7059E-02
     -4.189  0.5686E-02  0.7509E-02
     -4.109  0.6405E-02  0.8016E-02
     -4.030  0.5837E-02  0.8478E-02
     -3.951  0.6862E-02  0.9022E-02
     -3.872  0.1148E-01  0.9931E-02
     -3.793  0.9635E-02  0.1069E-01
     -3.713  0.6411E-02  0.1120E-01
     -3.634  0.8198E-02  0.1185E-01
     -3.555  0.7927E-02  0.1248E-01
     -3.476  0.9024E-02  0.1319E-01
     -3.397  0.8825E-02  0.1389E-01
     -3.318  0.5138E-02  0.1430E-01
     -3.238  0.6445E-02  0.1481E-01
     -3.159  0.8346E-02  0.1547E-01
     -3.080  0.6665E-02  0.1600E-01
     -3.001  0.4904E-02  0.1638E-01
     -2.922  0.5059E-02  0.1679E-01
     -2.843  0.7120E-02  0.1735E-01
     -2.763  0.6936E-02  0.1790E-01
     -2.684  0.2263E-02  0.1808E-01
     -2.605  0.3375E-02  0.1834E-01
     -2.526  0.5137E-02  0.1875E-01
     -2.447  0.6853E-02  0.1929E-01
     -2.368  0.2034E-02  0.1945E-01
     -2.288  0.1309E-02  0.1956E-01
     -2.209  0.1787E-02  0.1970E-01
     -2.130  0.3091E-02  0.1994E-01
     -2.051  0.1390E-02  0.2005E-01
     -1.972  0.1010E-02  0.2013E-01
     -1.892  0.8730E-03  0.2020E-01
     -1.813  0.1167E-02  0.2030E-01
     -1.734  0.1262E-02  0.2040E-01
     -1.655  0.3833E-02  0.2070E-01
     -1.576  0.6031E-02  0.2118E-01
     -1.497  0.3172E-02  0.2143E-01
     -1.417  0.2866E-02  0.2166E-01
     -1.338  0.3235E-02  0.2191E-01
     -1.259  0.7462E-02  0.2250E-01
     -1.180  0.1152E-01  0.2341E-01
     -1.101  0.1217E-01  0.2438E-01
     -1.022  0.1564E-01  0.2562E-01
     -0.942  0.1314E-01  0.2666E-01
     -0.863  0.7959E-02  0.2729E-01
     -0.784  0.8580E-02  0.2797E-01
     -0.705  0.1027E-01  0.2878E-01
     -0.626  0.6203E-02  0.2927E-01
     -0.547  0.6849E-02  0.2981E-01
     -0.467  0.4848E-02  0.3020E-01
     -0.388  0.6564E-02  0.3072E-01
     -0.309  0.5793E-02  0.3117E-01
     -0.230  0.3812E-02  0.3148E-01
     -0.151  0.6828E-02  0.3202E-01
     -0.072  0.6679E-02  0.3255E-01
      0.008  0.1301E-02  0.3265E-01
      0.087  0.2881E-02  0.3288E-01
      0.166  0.6545E-02  0.3340E-01
      0.245  0.3990E-02  0.3371E-01
      0.324  0.2409E-02  0.3390E-01
      0.404  0.5560E-02  0.3434E-01
      0.483  0.2917E-02  0.3457E-01
      0.562  0.2032E-02  0.3473E-01
      0.641  0.3194E-02  0.3499E-01
      0.720  0.4067E-02  0.3531E-01
      0.799  0.2008E-02  0.3547E-01
      0.879  0.2092E-02  0.3563E-01
      0.958  0.3411E-02  0.3590E-01
      1.037  0.4677E-02  0.3627E-01
      1.116  0.1269E-02  0.3637E-01
      1.195  0.7488E-03  0.3643E-01
      1.274  0.1795E-02  0.3658E-01
      1.354  0.5308E-02  0.3700E-01
      1.433  0.6725E-02  0.3753E-01
      1.512  0.5816E-02  0.3799E-01
      1.591  0.1246E-01  0.3898E-01
      1.670  0.1490E-01  0.4016E-01
      1.749  0.8719E-02  0.4085E-01
      1.829  0.1106E-01  0.4172E-01
      1.908  0.1284E-01  0.4274E-01
      1.987  0.1114E-01  0.4362E-01
      2.066  0.7103E-02  0.4418E-01
      2.145  0.1107E-01  0.4506E-01
      2.224  0.1067E-01  0.4590E-01
      2.304  0.1072E-01  0.4675E-01
      2.383  0.1088E-01  0.4761E-01
      2.462  0.1610E-01  0.4889E-01
      2.541  0.8862E-02  0.4959E-01
      2.620  0.9206E-02  0.5032E-01
      2.700  0.1234E-01  0.5130E-01
      2.779  0.1201E-01  0.5225E-01
      2.858  0.1452E-01  0.5340E-01
      2.937  0.2048E-01  0.5502E-01
      3.016  0.1607E-01  0.5629E-01
      3.095  0.1329E-01  0.5734E-01
      3.175  0.1103E-01  0.5822E-01
      3.254  0.1702E-01  0.5956E-01
      3.333  0.1776E-01  0.6097E-01
      3.412  0.1112E-01  0.6185E-01
      3.491  0.1147E-01  0.6276E-01
      3.570  0.1172E-01  0.6369E-01
      3.650  0.1749E-01  0.6507E-01
      3.729  0.1612E-01  0.6635E-01
      3.808  0.1267E-01  0.6735E-01
      3.887  0.1115E-01  0.6823E-01
      3.966  0.1137E-01  0.6913E-01
      4.045  0.1133E-01  0.7003E-01
      4.125  0.1399E-01  0.7114E-01
      4.204  0.1180E-01  0.7207E-01
      4.283  0.1152E-01  0.7299E-01
      4.362  0.1340E-01  0.7405E-01
      4.441  0.7929E-02  0.7467E-01
      4.521  0.1219E-01  0.7564E-01
      4.600  0.7350E-02  0.7622E-01
      4.679  0.7292E-02  0.7680E-01
      4.758  0.7545E-02  0.7740E-01
      4.837  0.4665E-02  0.7777E-01
      4.916  0.4631E-02  0.7813E-01
      4.996  0.4693E-02  0.7850E-01
      5.075  0.2389E-02  0.7869E-01
      5.154  0.4331E-02  0.7904E-01
      5.233  0.4156E-02  0.7936E-01
      5.312  0.2508E-02  0.7956E-01
      5.391  0.2037E-02  0.7972E-01
      5.471  0.1579E-02  0.7985E-01
      5.550  0.9032E-03  0.7992E-01
      5.629  0.8921E-03  0.7999E-01
      5.708  0.1030E-03  0.8000E-01
      5.787  0.1321E-05  0.8000E-01
      5.866  0.2817E-09  0.8000E-01
      5.946  0.4961E-15  0.8000E-01
      6.025  0.4484E-12  0.8000E-01
      6.104  0.3362E-07  0.8000E-01
      6.183  0.2271E-04  0.8000E-01
      6.262  0.3004E-03  0.8003E-01
      6.341  0.7706E-03  0.8009E-01
      6.421  0.2092E-02  0.8025E-01
      6.500  0.1724E-02  0.8039E-01
      6.579  0.3010E-02  0.8063E-01
      6.658  0.4300E-02  0.8097E-01
      6.737  0.2699E-02  0.8118E-01
      6.817  0.5227E-02  0.8160E-01
      6.896  0.7413E-02  0.8218E-01
      6.975  0.5541E-02  0.8262E-01
      7.054  0.3762E-02  0.8292E-01
      7.133  0.6477E-02  0.8343E-01
      7.212  0.6698E-02  0.8396E-01
      7.292  0.6659E-02  0.8449E-01
      7.371  0.8050E-02  0.8513E-01
      7.450  0.1225E-01  0.8610E-01
      7.529  0.8748E-02  0.8679E-01
      7.608  0.1223E-01  0.8776E-01
      7.687  0.1603E-01  0.8903E-01
      7.767  0.9225E-02  0.8976E-01
      7.846  0.1720E-01  0.9112E-01
      7.925  0.1651E-01  0.9243E-01
      8.004  0.1903E-01  0.9393E-01
      8.083  0.1520E-01  0.9514E-01
      8.162  0.1147E-01  0.9604E-01
      8.242  0.1132E-01  0.9694E-01
      8.321  0.1018E-01  0.9775E-01
      8.400  0.1217E-01  0.9871E-01
      8.479  0.1472E-01  0.9987E-01
      8.558  0.1550E-01  0.1011E+00
      8.637  0.1203E-01  0.1021E+00
      8.717  0.6656E-02  0.1026E+00
      8.796  0.1158E-01  0.1035E+00
      8.875  0.1771E-01  0.1049E+00
      8.954  0.2512E-01  0.1069E+00
      9.033  0.1919E-01  0.1084E+00
      9.113  0.1884E-01  0.1099E+00
      9.192  0.1966E-01  0.1115E+00
      9.271  0.1238E-01  0.1124E+00
      9.350  0.1344E-01  0.1135E+00
      9.429  0.1964E-01  0.1151E+00
      9.508  0.1743E-01  0.1164E+00
      9.588  0.1385E-01  0.1175E+00
      9.667  0.1327E-01  0.1186E+00
      9.746  0.1560E-01  0.1198E+00
      9.825  0.1334E-01  0.1209E+00
      9.904  0.1184E-01  0.1218E+00
      9.983  0.8805E-02  0.1225E+00
     10.063  0.1041E-01  0.1233E+00
     10.142  0.1467E-01  0.1245E+00
     10.221  0.1681E-01  0.1258E+00
     10.300  0.1195E-01  0.1268E+00
     10.379  0.1388E-01  0.1279E+00
     10.458  0.1320E-01  0.1289E+00
     10.538  0.1247E-01  0.1299E+00
     10.617  0.1094E-01  0.1308E+00
     10.696  0.1180E-01  0.1317E+00
     10.775  0.1303E-01  0.1327E+00
     10.854  0.7934E-02  0.1334E+00
     10.934  0.6419E-02  0.1339E+00
     11.013  0.1338E-01  0.1349E+00
     11.092  0.1465E-01  0.1361E+00
     11.171  0.1702E-01  0.1374E+00
     11.250  0.1265E-01  0.1384E+00
     11.329  0.1477E-01  0.1396E+00
     11.409  0.1629E-01  0.1409E+00
     11.488  0.8446E-02  0.1416E+00
     11.567  0.6596E-02  0.1421E+00
     11.646  0.7332E-02  0.1427E+00
     11.725  0.7517E-02  0.1433E+00
     11.804  0.6499E-02  0.1438E+00
     11.884  0.5584E-02  0.1442E+00
     11.963  0.6089E-02  0.1447E+00
     12.042  0.8608E-02  0.1454E+00
     12.121  0.1285E-01  0.1464E+00
     12.200  0.1256E-01  0.1474E+00
     12.279  0.1411E-01  0.1485E+00
     12.359  0.1534E-01  0.1497E+00
     12.438  0.1378E-01  0.1508E+00
     12.517  0.8018E-02  0.1515E+00
     12.596  0.3650E-02  0.1517E+00
     12.675  0.4135E-02  0.1521E+00
     12.754  0.5599E-02  0.1525E+00
     12.834  0.5302E-02  0.1529E+00
     12.913  0.4033E-02  0.1533E+00
     12.992  0.2763E-02  0.1535E+00
     13.071  0.6395E-02  0.1540E+00
     13.150  0.5673E-02  0.1544E+00
     13.230  0.3293E-02  0.1547E+00
     13.309  0.5076E-02  0.1551E+00
     13.388  0.6656E-02  0.1556E+00
     13.467  0.1373E-01  0.1567E+00
     13.546  0.1189E-01  0.1576E+00
     13.625  0.2520E-02  0.1578E+00
     13.705  0.9662E-03  0.1579E+00
     13.784  0.1324E-02  0.1580E+00
     13.863  0.9987E-03  0.1581E+00
     13.942  0.2049E-02  0.1583E+00
     14.021  0.3801E-03  0.1583E+00
     14.100  0.2208E-02  0.1585E+00
     14.180  0.1628E-02  0.1586E+00
     14.259  0.2904E-02  0.1588E+00
     14.338  0.1306E-02  0.1589E+00
     14.417  0.1932E-02  0.1591E+00
     14.496  0.2646E-02  0.1593E+00
     14.575  0.4755E-02  0.1597E+00
     14.655  0.1023E-02  0.1598E+00
     14.734  0.8093E-05  0.1598E+00
     14.813  0.8332E-09  0.1598E+00
     14.892  0.7208E-15  0.1598E+00
     14.971  0.1222E-10  0.1598E+00
     15.050  0.4564E-06  0.1598E+00
     15.130  0.1577E-03  0.1598E+00
     15.209  0.9315E-03  0.1598E+00
     15.288  0.8066E-03  0.1599E+00
     15.367  0.6862E-03  0.1600E+00
     15.446  0.4550E-03  0.1600E+00
     15.526  0.4748E-04  0.1600E+00
     15.605  0.7649E-07  0.1600E+00
     15.684  0.1096E-11  0.1600E+00
     15.763  0.1370E-18  0.1600E+00
     15.842  0.0000E+00  0.1600E+00
     15.921  0.0000E+00  0.1600E+00
     16.001  0.0000E+00  0.1600E+00
     16.080  0.0000E+00  0.1600E+00
     16.159  0.0000E+00  0.1600E+00
     16.238  0.0000E+00  0.1600E+00
     16.317  0.0000E+00  0.1600E+00
     16.396  0.0000E+00  0.1600E+00
     16.476  0.0000E+00  0.1600E+00
