    2    2  100    1
  0.2016476E+02  0.3849278E-09  0.3849279E-09  0.3849278E-09  0.5000000E-15
  1.000000000000000E-004
  CAR 
 unknown system                          
      8    165      8
 
  0.0000000E+00  0.0000000E+00  0.0000000E+00  0.2035416E-03
    1       -6.196621   1.000000
    2        5.623562   1.000000
    3        5.623563   1.000000
    4        5.623566   1.000000
    5        8.181284   0.000000
    6        8.181291   0.000000
    7        8.181293   0.000000
    8        8.764131   0.000000
 
  0.5882353E-01  0.0000000E+00  0.0000000E+00  0.1628333E-02
    1       -6.152014   1.000000
    2        5.145371   1.000000
    3        5.549989   1.000000
    4        5.549991   1.000000
    5        8.224671   0.000000
    6        8.289447   0.000000
    7        8.289454   0.000000
    8        9.123336   0.000000
 
  0.1176471E+00  0.0000000E+00  0.0000000E+00  0.1628333E-02
    1       -6.018814   1.000000
    2        4.166457   1.000000
    3        5.367813   1.000000
    4        5.367815   1.000000
    5        8.094470   0.000000
    6        8.558626   0.000000
    7        8.558634   0.000000
    8       10.033525   0.000000
 
  0.1764706E+00  0.0000000E+00  0.0000000E+00  0.1628333E-02
    1       -5.799333   1.000000
    2        3.076891   1.000000
    3        5.144772   1.000000
    4        5.144774   1.000000
    5        7.873170   0.000000
    6        8.865953   0.000000
    7        8.865960   0.000000
    8       11.084661   0.000000
 
  0.2352941E+00  0.0000000E+00  0.0000000E+00  0.1628333E-02
    1       -5.498309   1.000000
    2        1.997478   1.000000
    3        4.927843   1.000000
    4        4.927845   1.000000
    5        7.640990   0.000000
    6        9.085128   0.000000
    7        9.085136   0.000000
    8       12.129899   0.000000
 
  0.2941176E+00  0.1387779E-16  0.0000000E+00  0.1628333E-02
    1       -5.125218   1.000000
    2        0.978428   1.000000
    3        4.741435   1.000000
    4        4.741437   1.000000
    5        7.433689   0.000000
    6        9.151615   0.000000
    7        9.151623   0.000000
    8       13.055042   0.000000
 
  0.3529412E+00  0.0000000E+00  0.0000000E+00  0.1628333E-02
    1       -4.700442   1.000000
    2        0.058758   1.000000
    3        4.596990   1.000000
    4        4.596993   1.000000
    5        7.269642   0.000000
    6        9.107169   0.000000
    7        9.107178   0.000000
    8       13.464184   0.000000
 
  0.4117647E+00  0.2775558E-16  0.0000000E+00  0.1628333E-02
    1       -4.272739   1.000000
    2       -0.703051   1.000000
    3        4.499286   1.000000
    4        4.499289   1.000000
    5        7.157173   0.000000
    6        9.031864   0.000000
    7        9.031872   0.000000
    8       13.412133   0.000000
 
  0.4705882E+00  0.0000000E+00  0.0000000E+00  0.1628333E-02
    1       -3.963172   1.000000
    2       -1.180841   1.000000
    3        4.450157   1.000000
    4        4.450160   1.000000
    5        7.100401   0.000000
    6        8.981864   0.000000
    7        8.981872   0.000000
    8       13.338250   0.000000
 
  0.5882353E-01  0.5882353E-01  0.0000000E+00  0.1221250E-02
    1       -6.137103   1.000000
    2        5.236259   1.000000
    3        5.394128   1.000000
    4        5.394130   1.000000
    5        8.040215   0.000000
    6        8.484372   0.000000
    7        8.484378   0.000000
    8        9.136179   0.000000
 
  0.1176471E+00  0.5882353E-01  0.0000000E+00  0.4884999E-02
    1       -6.033308   1.000000
    2        4.453519   1.000000
    3        5.163607   1.000000
    4        5.313303   1.000000
    5        8.033392   0.000000
    6        8.557822   0.000000
    7        8.813435   0.000000
    8        9.805216   0.000000
 
  0.1764706E+00  0.5882353E-01  0.0000000E+00  0.4884999E-02
    1       -5.842335   1.000000
    2        3.416453   1.000000
    3        4.920679   1.000000
    4        5.142677   1.000000
    5        8.100095   0.000000
    6        8.551576   0.000000
    7        9.165337   0.000000
    8       10.685329   0.000000
 
  0.2352941E+00  0.5882353E-01  0.0000000E+00  0.4884999E-02
    1       -5.567906   1.000000
    2        2.346704   1.000000
    3        4.703130   1.000000
    4        4.913329   1.000000
    5        7.975550   0.000000
    6        8.738856   0.000000
    7        9.422656   0.000000
    8       11.308265   0.000000
 
  0.2941176E+00  0.5882353E-01  0.0000000E+00  0.4884999E-02
    1       -5.217500   1.000000
    2        1.315151   1.000000
    3        4.529892   1.000000
    4        4.679523   1.000000
    5        7.788310   0.000000
    6        8.892575   0.000000
    7        9.507737   0.000000
    8       11.751624   0.000000
 
  0.3529412E+00  0.5882353E-01  0.0000000E+00  0.4884999E-02
    1       -4.806638   1.000000
    2        0.364714   1.000000
    3        4.409774   1.000000
    4        4.469405   1.000000
    5        7.620314   0.000000
    6        8.925658   0.000000
    7        9.445586   0.000000
    8       12.352588   0.000000
 
  0.4117647E+00  0.5882353E-01  0.0000000E+00  0.4884999E-02
    1       -4.371164   1.000000
    2       -0.455018   1.000000
    3        4.296838   1.000000
    4        4.345854   1.000000
    5        7.494489   0.000000
    6        8.903397   0.000000
    7        9.319703   0.000000
    8       13.049693   0.000000
 
  0.4705882E+00  0.5882353E-01  0.0000000E+00  0.4884999E-02
    1       -4.001622   1.000000
    2       -1.046247   1.000000
    3        4.169444   1.000000
    4        4.338054   1.000000
    5        7.419821   0.000000
    6        8.895589   0.000000
    7        9.198164   0.000000
    8       13.428165   0.000000
 
 -0.4705882E+00  0.5882353E-01  0.0000000E+00  0.4884999E-02
    1       -3.881789   1.000000
    2       -1.221552   1.000000
    3        4.092227   1.000000
    4        4.384382   1.000000
    5        7.399737   0.000000
    6        8.936447   0.000000
    7        9.116644   0.000000
    8       13.489954   0.000000
 
 -0.4117647E+00  0.5882353E-01  0.0000000E+00  0.4884999E-02
    1       -4.108239   1.000000
    2       -0.883675   1.000000
    3        4.068942   1.000000
    4        4.481409   1.000000
    5        7.435043   0.000000
    6        9.031669   0.000000
    7        9.084934   0.000000
    8       13.491543   0.000000
 
 -0.3529412E+00  0.5882353E-01  0.0000000E+00  0.4884999E-02
    1       -4.515686   1.000000
    2       -0.199576   1.000000
    3        4.102538   1.000000
    4        4.624578   1.000000
    5        7.524961   0.000000
    6        9.088832   0.000000
    7        9.163596   0.000000
    8       13.288829   0.000000
 
 -0.2941176E+00  0.5882353E-01  0.0000000E+00  0.4884999E-02
    1       -4.949176   1.000000
    2        0.671008   1.000000
    3        4.194976   1.000000
    4        4.807587   1.000000
    5        7.666322   0.000000
    6        9.084046   0.000000
    7        9.283588   0.000000
    8       12.701967   0.000000
 
 -0.2352941E+00  0.5882353E-01  0.0000000E+00  0.4884999E-02
    1       -5.342391   1.000000
    2        1.652071   1.000000
    3        4.346639   1.000000
    4        5.020392   1.000000
    5        7.851901   0.000000
    6        8.998182   0.000000
    7        9.302923   0.000000
    8       12.024675   0.000000
 
 -0.1764706E+00  0.5882353E-01  0.0000000E+00  0.4884999E-02
    1       -5.668558   1.000000
    2        2.697703   1.000000
    3        4.555807   1.000000
    4        5.244732   1.000000
    5        8.066188   0.000000
    6        8.785547   0.000000
    7        9.129601   0.000000
    8       11.325011   0.000000
 
 -0.1176471E+00  0.5882353E-01  0.0000000E+00  0.4884999E-02
    1       -5.915695   1.000000
    2        3.751161   1.000000
    3        4.820445   1.000000
    4        5.446440   1.000000
    5        8.276577   0.000000
    6        8.508300   0.000000
    7        8.782149   0.000000
    8       10.496898   0.000000
 
 -0.5882353E-01  0.5882353E-01  0.0000000E+00  0.2442499E-02
    1       -6.077810   1.000000
    2        4.666689   1.000000
    3        5.163884   1.000000
    4        5.567872   1.000000
    5        8.304007   0.000000
    6        8.394668   0.000000
    7        8.415415   0.000000
    8        9.644996   0.000000
 
  0.1176471E+00  0.1176471E+00  0.0000000E+00  0.1221250E-02
    1       -5.958957   1.000000
    2        4.391065   1.000000
    3        4.903305   1.000000
    4        4.903305   1.000000
    5        7.691489   0.000000
    6        9.193961   0.000000
    7        9.193965   0.000000
    8        9.793880   0.000000
 
  0.1764706E+00  0.1176471E+00  0.0000000E+00  0.4884999E-02
    1       -5.796877   1.000000
    2        3.619041   1.000000
    3        4.643990   1.000000
    4        4.735830   1.000000
    5        7.645392   0.000000
    6        9.259558   0.000000
    7        9.602010   0.000000
    8       10.242717   0.000000
 
  0.2352941E+00  0.1176471E+00  0.0000000E+00  0.4884999E-02
    1       -5.549991   1.000000
    2        2.639158   1.000000
    3        4.418924   1.000000
    4        4.518662   1.000000
    5        7.797417   0.000000
    6        9.166299   0.000000
    7        9.926154   0.000000
    8       10.441292   0.000000
 
  0.2941176E+00  0.1176471E+00  0.0000000E+00  0.4884999E-02
    1       -5.224150   1.000000
    2        1.640316   1.000000
    3        4.245415   1.000000
    4        4.248530   1.000000
    5        7.909079   0.000000
    6        9.153917   0.000000
    7       10.069686   0.000000
    8       10.565290   0.000000
 
  0.3529412E+00  0.1176471E+00  0.0000000E+00  0.4884999E-02
    1       -4.831219   1.000000
    2        0.689034   1.000000
    3        3.978717   1.000000
    4        4.131980   1.000000
    5        7.892449   0.000000
    6        9.146135   0.000000
    7       10.028666   0.000000
    8       10.989103   0.000000
 
  0.4117647E+00  0.1176471E+00  0.0000000E+00  0.4884999E-02
    1       -4.397608   1.000000
    2       -0.163057   1.000000
    3        3.738388   1.000000
    4        4.081918   1.000000
    5        7.829376   0.000000
    6        9.093910   0.000000
    7        9.884350   0.000000
    8       11.722282   0.000000
 
  0.4705882E+00  0.1176471E+00  0.0000000E+00  0.4884999E-02
    1       -3.989389   1.000000
    2       -0.836906   1.000000
    3        3.542740   1.000000
    4        4.095302   1.000000
    5        7.787304   0.000000
    6        9.051239   0.000000
    7        9.716998   0.000000
    8       12.621086   0.000000
 
 -0.4705882E+00  0.1176471E+00  0.0000000E+00  0.4884999E-02
    1       -3.762821   1.000000
    2       -1.169665   1.000000
    3        3.401123   1.000000
    4        4.169818   1.000000
    5        7.792831   0.000000
    6        9.056160   0.000000
    7        9.573280   0.000000
    8       13.493168   0.000000
 
 -0.4117647E+00  0.1176471E+00  0.0000000E+00  0.4884999E-02
    1       -3.885573   1.000000
    2       -0.991579   1.000000
    3        3.320374   1.000000
    4        4.300863   1.000000
    5        7.851095   0.000000
    6        9.121172   0.000000
    7        9.470967   0.000000
    8       13.753805   0.000000
 
 -0.3529412E+00  0.1176471E+00  0.0000000E+00  0.4884999E-02
    1       -4.257363   1.000000
    2       -0.404512   1.000000
    3        3.306396   1.000000
    4        4.481533   1.000000
    5        7.959078   0.000000
    6        9.239797   0.000000
    7        9.403912   0.000000
    8       13.187205   0.000000
 
 -0.2941176E+00  0.1176471E+00  0.0000000E+00  0.4884999E-02
    1       -4.692981   1.000000
    2        0.399663   1.000000
    3        3.365311   1.000000
    4        4.701385   1.000000
    5        8.108772   0.000000
    6        9.335249   0.000000
    7        9.375044   0.000000
    8       12.406946   0.000000
 
 -0.2352941E+00  0.1176471E+00  0.0000000E+00  0.4884999E-02
    1       -5.102969   1.000000
    2        1.315810   1.000000
    3        3.506247   1.000000
    4        4.944006   1.000000
    5        8.288838   0.000000
    6        9.197293   0.000000
    7        9.429335   0.000000
    8       11.723761   0.000000
 
 -0.1764706E+00  0.1176471E+00  0.0000000E+00  0.4884999E-02
    1       -5.452261   1.000000
    2        2.269406   1.000000
    3        3.751329   1.000000
    4        5.182321   1.000000
    5        8.476432   0.000000
    6        8.949801   0.000000
    7        9.249545   0.000000
    8       11.290891   0.000000
 
 -0.1176471E+00  0.1176471E+00  0.0000000E+00  0.2442499E-02
    1       -5.725595   1.000000
    2        3.137202   1.000000
    3        4.169524   1.000000
    4        5.370823   1.000000
    5        8.581262   0.000000
    6        8.671628   0.000000
    7        8.882465   0.000000
    8       10.976960   0.000000
 
  0.1764706E+00  0.1764706E+00  0.0000000E+00  0.1221250E-02
    1       -5.663592   1.000000
    2        3.400173   1.000000
    3        4.370693   1.000000
    4        4.370694   1.000000
    5        7.267795   0.000000
    6        9.755356   0.000000
    7       10.084722   0.000000
    8       10.084724   0.000000
 
  0.2352941E+00  0.1764706E+00  0.0000000E+00  0.4884999E-02
    1       -5.444691   1.000000
    2        2.706658   1.000000
    3        4.125359   1.000000
    4        4.133868   1.000000
    5        7.229157   0.000000
    6        9.453167   0.000000
    7       10.380458   0.000000
    8       10.506509   0.000000
 
  0.2941176E+00  0.1764706E+00  0.0000000E+00  0.4884999E-02
    1       -5.144673   1.000000
    2        1.843764   1.000000
    3        3.818563   1.000000
    4        3.951326   1.000000
    5        7.404910   0.000000
    6        9.366353   0.000000
    7       10.339181   0.000000
    8       10.752008   0.000000
 
  0.3529412E+00  0.1764706E+00  0.0000000E+00  0.4884999E-02
    1       -4.772656   1.000000
    2        0.955717   1.000000
    3        3.481167   1.000000
    4        3.832211   1.000000
    5        7.543070   0.000000
    6        9.656543   0.000000
    7       10.197410   0.000000
    8       10.775673   0.000000
 
  0.4117647E+00  0.1764706E+00  0.0000000E+00  0.4884999E-02
    1       -4.348123   1.000000
    2        0.116554   1.000000
    3        3.164427   1.000000
    4        3.780568   1.000000
    5        7.576227   0.000000
    6       10.003280   0.000000
    7       10.365259   0.000000
    8       10.646557   0.000000
 
  0.4705882E+00  0.1764706E+00  0.0000000E+00  0.4884999E-02
    1       -3.918717   1.000000
    2       -0.598660   1.000000
    3        2.895135   1.000000
    4        3.797222   1.000000
    5        7.591473   0.000000
    6        9.896747   0.000000
    7       10.459986   0.000000
    8       11.255781   0.000000
 
 -0.4705882E+00  0.1764706E+00  0.0000000E+00  0.4884999E-02
    1       -3.607028   1.000000
    2       -1.053358   1.000000
    3        2.687559   1.000000
    4        3.880354   1.000000
    5        7.649655   0.000000
    6        9.820779   0.000000
    7       10.276199   0.000000
    8       12.299648   0.000000
 
 -0.4117647E+00  0.1764706E+00  0.0000000E+00  0.4884999E-02
    1       -3.614133   1.000000
    2       -1.040973   1.000000
    3        2.551666   1.000000
    4        4.025841   1.000000
    5        7.770367   0.000000
    6        9.795573   0.000000
    7       10.121623   0.000000
    8       13.414233   0.000000
 
 -0.3529412E+00  0.1764706E+00  0.0000000E+00  0.4884999E-02
    1       -3.933243   1.000000
    2       -0.570539   1.000000
    3        2.497417   1.000000
    4        4.226116   1.000000
    5        7.951332   0.000000
    6        9.820211   0.000000
    7        9.992927   0.000000
    8       13.118146   0.000000
 
 -0.2941176E+00  0.1764706E+00  0.0000000E+00  0.4884999E-02
    1       -4.363047   1.000000
    2        0.143482   1.000000
    3        2.539731   1.000000
    4        4.469156   1.000000
    5        8.175575   0.000000
    6        9.851540   0.000000
    7        9.870552   0.000000
    8       12.210144   0.000000
 
 -0.2352941E+00  0.1764706E+00  0.0000000E+00  0.4884999E-02
    1       -4.785545   1.000000
    2        0.945735   1.000000
    3        2.711294   1.000000
    4        4.734989   1.000000
    5        8.410221   0.000000
    6        9.622115   0.000000
    7        9.847389   0.000000
    8       11.497442   0.000000
 
 -0.1764706E+00  0.1764706E+00  0.0000000E+00  0.2442499E-02
    1       -5.154928   1.000000
    2        1.698090   1.000000
    3        3.089648   1.000000
    4        4.990451   1.000000
    5        8.581896   0.000000
    6        9.281001   0.000000
    7        9.565549   0.000000
    8       11.222218   0.000000
 
  0.2352941E+00  0.2352941E+00  0.0000000E+00  0.1221250E-02
    1       -5.253506   1.000000
    2        2.365725   1.000000
    3        3.883509   1.000000
    4        3.883510   1.000000
    5        6.865693   0.000000
    6        8.977145   0.000000
    7       11.063979   0.000000
    8       11.063981   0.000000
 
  0.2941176E+00  0.2352941E+00  0.0000000E+00  0.4884999E-02
    1       -4.979900   1.000000
    2        1.742271   1.000000
    3        3.596626   1.000000
    4        3.687287   1.000000
    5        6.861021   0.000000
    6        8.655979   0.000000
    7       11.327410   0.000000
    8       11.468330   0.000000
 
  0.3529412E+00  0.2352941E+00  0.0000000E+00  0.4884999E-02
    1       -4.630819   1.000000
    2        1.011764   1.000000
    3        3.196814   1.000000
    4        3.555379   1.000000
    5        7.051428   0.000000
    6        8.659439   0.000000
    7       11.288954   0.000000
    8       11.615530   0.000000
 
  0.4117647E+00  0.2352941E+00  0.0000000E+00  0.4884999E-02
    1       -4.220620   1.000000
    2        0.263987   1.000000
    3        2.778343   1.000000
    4        3.492948   1.000000
    5        7.173050   0.000000
    6        9.110745   0.000000
    7       11.160847   0.000000
    8       11.542929   0.000000
 
  0.4705882E+00  0.2352941E+00  0.0000000E+00  0.4884999E-02
    1       -3.783458   1.000000
    2       -0.427047   1.000000
    3        2.407463   1.000000
    4        3.501536   1.000000
    5        7.224667   0.000000
    6        9.908212   0.000000
    7       11.032189   0.000000
    8       11.362909   0.000000
 
 -0.4705882E+00  0.2352941E+00  0.0000000E+00  0.4884999E-02
    1       -3.410672   1.000000
    2       -0.945845   1.000000
    3        2.113598   1.000000
    4        3.580293   1.000000
    5        7.301458   0.000000
    6       10.754295   0.000000
    7       11.084136   0.000000
    8       11.157754   0.000000
 
 -0.4117647E+00  0.2352941E+00  0.0000000E+00  0.4884999E-02
    1       -3.303624   1.000000
    2       -1.080367   1.000000
    3        1.912692   1.000000
    4        3.725484   1.000000
    5        7.442493   0.000000
    6       10.793749   0.000000
    7       10.962930   0.000000
    8       12.102291   0.000000
 
 -0.3529412E+00  0.2352941E+00  0.0000000E+00  0.4884999E-02
    1       -3.555547   1.000000
    2       -0.741625   1.000000
    3        1.822365   1.000000
    4        3.930284   1.000000
    5        7.653191   0.000000
    6       10.762672   0.000000
    7       10.773629   0.000000
    8       13.012175   0.000000
 
 -0.2941176E+00  0.2352941E+00  0.0000000E+00  0.4884999E-02
    1       -3.971409   1.000000
    2       -0.154063   1.000000
    3        1.876816   1.000000
    4        4.182742   1.000000
    5        7.919740   0.000000
    6       10.528192   0.000000
    7       10.721114   0.000000
    8       12.115026   0.000000
 
 -0.2352941E+00  0.2352941E+00  0.0000000E+00  0.2442499E-02
    1       -4.400703   1.000000
    2        0.457323   1.000000
    3        2.147770   1.000000
    4        4.462560   1.000000
    5        8.204638   0.000000
    6       10.127591   0.000000
    7       10.455519   0.000000
    8       11.519890   0.000000
 
  0.2941176E+00  0.2941176E+00  0.0000000E+00  0.1221250E-02
    1       -4.732337   1.000000
    2        1.322653   1.000000
    3        3.475180   1.000000
    4        3.475182   1.000000
    5        6.540338   0.000000
    6        8.139102   0.000000
    7       12.095041   0.000000
    8       12.095041   0.000000
 
  0.3529412E+00  0.2941176E+00  0.0000000E+00  0.4884999E-02
    1       -4.407134   1.000000
    2        0.752149   1.000000
    3        3.179500   1.000000
    4        3.326879   1.000000
    5        6.582105   0.000000
    6        7.891255   0.000000
    7       12.374710   0.000000
    8       12.464257   0.000000
 
  0.4117647E+00  0.2941176E+00  0.0000000E+00  0.4884999E-02
    1       -4.014877   1.000000
    2        0.136389   1.000000
    3        2.718794   1.000000
    4        3.248626   1.000000
    5        6.774089   0.000000
    6        8.048411   0.000000
    7       12.353484   0.000000
    8       12.519159   0.000000
 
  0.4705882E+00  0.2941176E+00  0.0000000E+00  0.4884999E-02
    1       -3.579740   1.000000
    2       -0.466279   1.000000
    3        2.237079   1.000000
    4        3.242844   1.000000
    5        6.875198   0.000000
    6        8.683079   0.000000
    7       12.238681   0.000000
    8       12.379570   0.000000
 
 -0.4705882E+00  0.2941176E+00  0.0000000E+00  0.4884999E-02
    1       -3.167761   1.000000
    2       -0.975840   1.000000
    3        1.827050   1.000000
    4        3.309340   1.000000
    5        6.960740   0.000000
    6        9.612081   0.000000
    7       12.117478   0.000000
    8       12.169601   0.000000
 
 -0.4117647E+00  0.2941176E+00  0.0000000E+00  0.4884999E-02
    1       -2.962493   1.000000
    2       -1.205742   1.000000
    3        1.536673   1.000000
    4        3.445327   1.000000
    5        7.104142   0.000000
    6       10.687100   0.000000
    7       11.938295   0.000000
    8       12.034710   0.000000
 
 -0.3529412E+00  0.2941176E+00  0.0000000E+00  0.4884999E-02
    1       -3.146260   1.000000
    2       -0.989377   1.000000
    3        1.405503   1.000000
    4        3.644800   1.000000
    5        7.321683   0.000000
    6       11.617954   0.000000
    7       11.660123   0.000000
    8       12.207209   0.000000
 
 -0.2941176E+00  0.2941176E+00  0.0000000E+00  0.2442499E-02
    1       -3.543505   1.000000
    2       -0.553482   1.000000
    3        1.494511   1.000000
    4        3.896932   1.000000
    5        7.604392   0.000000
    6       11.201820   0.000000
    7       11.528658   0.000000
    8       12.262866   0.000000
 
  0.3529412E+00  0.3529412E+00  0.0000000E+00  0.1221250E-02
    1       -4.105236   1.000000
    2        0.290465   1.000000
    3        3.160610   1.000000
    4        3.160613   1.000000
    5        6.323209   0.000000
    6        7.425810   0.000000
    7       13.160566   0.000000
    8       13.160567   0.000000
 
  0.4117647E+00  0.3529412E+00  0.0000000E+00  0.4884999E-02
    1       -3.732750   1.000000
    2       -0.237071   1.000000
    3        2.880484   1.000000
    4        3.063932   1.000000
    5        6.416186   0.000000
    6        7.280622   0.000000
    7       13.458282   0.000000
    8       13.488182   0.000000
 
  0.4705882E+00  0.3529412E+00  0.0000000E+00  0.4884999E-02
    1       -3.306416   1.000000
    2       -0.762645   1.000000
    3        2.402733   1.000000
    4        3.040260   1.000000
    5        6.587805   0.000000
    6        7.625456   0.000000
    7       13.453045   0.000000
    8       13.464530   0.000000
 
 -0.4705882E+00  0.3529412E+00  0.0000000E+00  0.4884999E-02
    1       -2.872732   1.000000
    2       -1.232254   1.000000
    3        1.906725   1.000000
    4        3.090115   1.000000
    5        6.684676   0.000000
    6        8.429759   0.000000
    7       13.272806   0.000000
    8       13.349485   0.000000
 
 -0.4117647E+00  0.3529412E+00  0.0000000E+00  0.4884999E-02
    1       -2.600849   1.000000
    2       -1.493894   1.000000
    3        1.514989   1.000000
    4        3.211567   1.000000
    5        6.822114   0.000000
    6        9.466520   0.000000
    7       12.985970   0.000000
    8       13.230533   0.000000
 
 -0.3529412E+00  0.3529412E+00  0.0000000E+00  0.2442499E-02
    1       -2.761326   1.000000
    2       -1.320139   1.000000
    3        1.317840   1.000000
    4        3.399583   1.000000
    5        7.035736   0.000000
    6       10.628735   0.000000
    7       12.484276   0.000000
    8       13.008097   0.000000
 
  0.4117647E+00  0.4117647E+00  0.0000000E+00  0.1221250E-02
    1       -3.379245   1.000000
    2       -0.713001   1.000000
    3        2.947695   1.000000
    4        2.947697   1.000000
    5        6.234687   0.000000
    6        6.877495   0.000000
    7       14.248961   0.000000
    8       14.248962   0.000000
 
  0.4705882E+00  0.4117647E+00  0.0000000E+00  0.4884999E-02
    1       -2.965481   1.000000
    2       -1.200436   1.000000
    3        2.700888   1.000000
    4        2.904278   1.000000
    5        6.372259   0.000000
    6        6.850450   0.000000
    7       14.525485   0.000000
    8       14.555515   0.000000
 
 -0.4705882E+00  0.4117647E+00  0.0000000E+00  0.4884999E-02
    1       -2.522865   1.000000
    2       -1.648081   1.000000
    3        2.246738   1.000000
    4        2.935022   1.000000
    5        6.495825   0.000000
    6        7.409698   0.000000
    7       14.397487   0.000000
    8       14.560002   0.000000
 
 -0.4117647E+00  0.4117647E+00  0.0000000E+00  0.2442499E-02
    1       -2.292109   1.000000
    2       -1.834855   1.000000
    3        1.797138   1.000000
    4        3.038773   1.000000
    5        6.619297   0.000000
    6        8.346363   0.000000
    7       13.921040   0.000000
    8       14.431445   0.000000
 
  0.4705882E+00  0.4705882E+00  0.0000000E+00  0.1221250E-02
    1       -2.563532   1.000000
    2       -1.669887   1.000000
    3        2.840385   1.000000
    4        2.840387   1.000000
    5        6.289803   0.000000
    6        6.500850   0.000000
    7       15.292037   0.000000
    8       15.292039   0.000000
 
 -0.4705882E+00  0.4705882E+00  0.0000000E+00  0.2442499E-02
    1       -2.139235   1.000000
    2       -2.093242   1.000000
    3        2.641000   1.000000
    4        2.850769   1.000000
    5        6.402601   0.000000
    6        6.661340   0.000000
    7       15.277372   0.000000
    8       15.395980   0.000000
 
  0.1764706E+00  0.1176471E+00  0.5882353E-01  0.4884999E-02
    1       -5.900474   1.000000
    2        3.879541   1.000000
    3        4.669935   1.000000
    4        5.248318   1.000000
    5        8.009487   0.000000
    6        8.788174   0.000000
    7        9.080284   0.000000
    8       10.339288   0.000000
 
  0.2352941E+00  0.1176471E+00  0.5882353E-01  0.9769998E-02
    1       -5.681526   1.000000
    2        2.980828   1.000000
    3        4.285416   1.000000
    4        5.107934   1.000000
    5        8.154022   0.000000
    6        8.779656   0.000000
    7        9.436430   0.000000
    8       10.779088   0.000000
 
  0.2941176E+00  0.1176471E+00  0.5882353E-01  0.9769998E-02
    1       -5.381202   1.000000
    2        1.979297   1.000000
    3        4.022980   1.000000
    4        4.894484   1.000000
    5        8.192461   0.000000
    6        8.839567   0.000000
    7        9.690101   0.000000
    8       10.998804   0.000000
 
  0.3529412E+00  0.1176471E+00  0.5882353E-01  0.9769998E-02
    1       -5.008781   1.000000
    2        0.999025   1.000000
    3        3.836124   1.000000
    4        4.668246   1.000000
    5        8.083063   0.000000
    6        8.927739   0.000000
    7        9.742902   0.000000
    8       11.388933   0.000000
 
  0.4117647E+00  0.1176471E+00  0.5882353E-01  0.9769998E-02
    1       -4.584321   1.000000
    2        0.100442   1.000000
    3        3.711117   1.000000
    4        4.467293   1.000000
    5        7.955457   0.000000
    6        8.919717   0.000000
    7        9.670532   0.000000
    8       12.052470   0.000000
 
  0.4705882E+00  0.1176471E+00  0.5882353E-01  0.9769998E-02
    1       -4.155971   1.000000
    2       -0.650713   1.000000
    3        3.638311   1.000000
    4        4.316425   1.000000
    5        7.859154   0.000000
    6        8.867867   0.000000
    7        9.572669   0.000000
    8       12.873793   0.000000
 
 -0.4705882E+00  0.1176471E+00  0.5882353E-01  0.9769998E-02
    1       -3.844648   1.000000
    2       -1.125210   1.000000
    3        3.606481   1.000000
    4        4.234676   1.000000
    5        7.808744   0.000000
    6        8.829921   0.000000
    7        9.510364   0.000000
    8       13.564034   0.000000
 
  0.2352941E+00  0.1764706E+00  0.5882353E-01  0.4884999E-02
    1       -5.606549   1.000000
    2        3.026312   1.000000
    3        4.134750   1.000000
    4        4.658784   1.000000
    5        7.600594   0.000000
    6        9.433864   0.000000
    7        9.992899   0.000000
    8       10.240542   0.000000
 
  0.2941176E+00  0.1764706E+00  0.5882353E-01  0.9769998E-02
    1       -5.333146   1.000000
    2        2.196594   1.000000
    3        3.745704   1.000000
    4        4.499179   1.000000
    5        7.778146   0.000000
    6        9.401289   0.000000
    7       10.150592   0.000000
    8       10.346176   0.000000
 
  0.3529412E+00  0.1764706E+00  0.5882353E-01  0.9769998E-02
    1       -4.983881   1.000000
    2        1.285842   1.000000
    3        3.474910   1.000000
    4        4.286871   1.000000
    5        7.939226   0.000000
    6        9.416772   0.000000
    7       10.175379   0.000000
    8       10.519252   0.000000
 