 running on    4 total cores
 distrk:  each k-point on    4 cores,    1 groups
 distr:  one band on    1 cores,    4 groups
 vasp.6.2.0 18Jan21 (build Aug 12 2022 13:00:08) complex                        
  
 POSCAR found type information on POSCAR Si
 POSCAR found :  1 types and       2 ions
 scaLAPACK will be used
 LDA part: xc-table for Pade appr. of Perdew
 POSCAR, INCAR and KPOINTS ok, starting setup
 FFT: planning ...
 WAVECAR not read
 entering main loop
       N       E                     dE             d eps       ncg     rms          rms(c)
DAV:   1     0.154357704105E+01    0.15436E+01   -0.26076E+03  2648   0.585E+02
DAV:   2    -0.108785918100E+02   -0.12422E+02   -0.11888E+02  4128   0.664E+01
DAV:   3    -0.110209304125E+02   -0.14234E+00   -0.14234E+00  3400   0.908E+00
DAV:   4    -0.110214579069E+02   -0.52749E-03   -0.52749E-03  4216   0.587E-01
DAV:   5    -0.110214582765E+02   -0.36962E-06   -0.36962E-06  3440   0.138E-02    0.486E+00
DAV:   6    -0.108999579869E+02    0.12150E+00   -0.80027E-02  3152   0.147E+00    0.297E+00
DAV:   7    -0.108444078662E+02    0.55550E-01   -0.15206E-01  3416   0.216E+00    0.186E-01
DAV:   8    -0.108454659865E+02   -0.10581E-02   -0.38300E-03  3040   0.462E-01    0.739E-02
DAV:   9    -0.108456589270E+02   -0.19294E-03   -0.18910E-04  3872   0.107E-01    0.572E-02
DAV:  10    -0.108456844224E+02   -0.25495E-04   -0.30271E-05  3104   0.410E-02    0.983E-03
DAV:  11    -0.108456840710E+02    0.35136E-06   -0.57215E-07  3672   0.521E-03
   1 F= -.10845684E+02 E0= -.10845684E+02  d E =-.108457E+02
 curvature:   0.00 expect dE= 0.000E+00 dE for cont linesearch  0.000E+00
 trial: gam= 0.00000 g(F)=  0.196E-43 g(S)=  0.675E-02 ort = 0.000E+00 (trialstep = 0.100E+01)
 search vector abs. value=  0.675E-02
 bond charge predicted
       N       E                     dE             d eps       ncg     rms          rms(c)
DAV:   1    -0.108494644411E+02   -0.37800E-02   -0.10418E-01  3320   0.181E+00    0.302E-01
DAV:   2    -0.108476980615E+02    0.17664E-02   -0.14730E-03  3568   0.255E-01    0.183E-01
DAV:   3    -0.108467684627E+02    0.92960E-03   -0.19222E-03  3176   0.221E-01    0.607E-02
DAV:   4    -0.108467683506E+02    0.11212E-06   -0.19124E-05  3736   0.391E-02    0.540E-02
DAV:   5    -0.108467621041E+02    0.62465E-05   -0.50623E-06  3136   0.164E-02    0.127E-02
DAV:   6    -0.108467622441E+02   -0.13992E-06   -0.52605E-08  1720   0.216E-03
   2 F= -.10846762E+02 E0= -.10846762E+02  d E =-.107817E-02
 trial-energy change:   -0.001078  1 .order   -0.001172   -0.006752    0.004408
 step:   0.5928(harm=  0.6050)  dis= 0.00000  next Energy=   -10.847666 (dE=-0.198E-02)
 bond charge predicted
       N       E                     dE             d eps       ncg     rms          rms(c)
DAV:   1    -0.108480969401E+02   -0.13348E-02   -0.17491E-02  3280   0.747E-01    0.126E-01
DAV:   2    -0.108478059558E+02    0.29098E-03   -0.24411E-04  3576   0.104E-01    0.758E-02
DAV:   3    -0.108476586958E+02    0.14726E-03   -0.32014E-04  3144   0.905E-02    0.251E-02
DAV:   4    -0.108476593326E+02   -0.63677E-06   -0.32366E-06  3616   0.161E-02    0.226E-02
DAV:   5    -0.108476610330E+02   -0.17004E-05   -0.82597E-07  2768   0.671E-03    0.599E-03
DAV:   6    -0.108476609839E+02    0.49045E-07   -0.10683E-08  1464   0.963E-04
   3 F= -.10847661E+02 E0= -.10847661E+02  d E =-.197691E-02
 curvature:  -0.30 expect dE=-0.676E-07 dE for cont linesearch -0.676E-07
 trial: gam=-0.00572 g(F)=  0.305E-43 g(S)=  0.224E-06 ort = 0.389E-04 (trialstep = 0.919E+00)
 search vector abs. value=  0.107E-09
 reached required accuracy - stopping structural energy minimisation
