unknown system                          
           1
     3.333573    0.000000    1.924639
     1.111191    3.142924    1.924639
     0.000000    0.000000    3.849278
   Si
     2
Direct configuration=     1
   0.87500000  0.87500000  0.87500000
   0.12500000  0.12500000  0.12500000
unknown system                          
           1
     3.358136   -0.000000    1.938820
     1.119379    3.166082    1.938820
     0.000000    0.000000    3.877641
   Si
     2
Direct configuration=     2
   0.87500000  0.87500000  0.87500000
   0.12500000  0.12500000  0.12500000
unknown system                          
           1
     3.348135   -0.000000    1.933046
     1.116045    3.156653    1.933046
     0.000000    0.000000    3.866092
   Si
     2
Direct configuration=     3
   0.87500000  0.87500000  0.87500000
   0.12500000  0.12500000  0.12500000
