<?xml version="1.0" encoding="ISO-8859-1"?>
<modeling>
 <generator>
  <i name="program" type="string">vasp </i>
  <i name="version" type="string">6.2.0  </i>
  <i name="subversion" type="string">18Jan21 (build Aug 12 2022 13:00:08) complex                          parallel </i>
  <i name="platform" type="string">LinuxIFC </i>
  <i name="date" type="string">2024 11 04 </i>
  <i name="time" type="string">05:19:13 </i>
 </generator>
 <incar>
  <i type="int" name="ISTART">     0</i>
  <i type="string" name="PREC">Accurate      (Accurate strictly avoids</i>
  <i type="logical" name="ADDGRID"> T  </i>
  <i type="int" name="ISPIN">     2</i>
  <i type="int" name="NELM">    90</i>
  <i type="int" name="NELMIN">     6</i>
  <i type="int" name="IBRION">     2</i>
  <i name="EDIFF">      0.00000100</i>
  <i name="EDIFFG">     -0.00200000</i>
  <i type="int" name="NSW">   100</i>
  <i type="int" name="ISIF">     3</i>
  <i type="int" name="ISYM">     2</i>
  <i name="ENCUT">    350.00000000</i>
  <v name="MAGMOM">      5.00000000      5.00000000</v>
  <i type="logical" name="LREAL"> F  </i>
  <i type="int" name="ISMEAR">     1</i>
  <i name="SIGMA">      0.20000000</i>
  <i name="KSPACING">      0.35000000</i>
  <i type="int" name="LMAXMIX">     4</i>
  <i type="int" name="LORBIT">    11</i>
  <i type="logical" name="LASPH"> T  </i>
  <i type="logical" name="GGA_COMPAT"> F  </i>
  <i type="int" name="VOSKOWN">     1</i>
 </incar>
 <primitive_cell>
  <structure name="primitive_cell" >
   <crystal>
    <varray name="basis" >
     <v>       1.43151775       1.43151775      -1.43151775 </v>
     <v>      -1.43151775       1.43151775       1.43151775 </v>
     <v>       1.43151775      -1.43151775       1.43151775 </v>
    </varray>
    <i name="volume">     11.73411129 </i>
    <varray name="rec_basis" >
     <v>       0.34927964       0.34927964       0.00000000 </v>
     <v>       0.00000000       0.34927964       0.34927964 </v>
     <v>       0.34927964      -0.00000000       0.34927964 </v>
    </varray>
   </crystal>
   <varray name="positions" >
    <v>       0.00000000       0.00000000       0.00000000 </v>
   </varray>
  </structure>
  <varray name="primitive_index" >
   <v type="int" >        1 </v>
  </varray>
 </primitive_cell>
 <kpoints>
  <generation param="Gamma">
   <v type="int" name="divisions">       7        7        7 </v>
   <v name="usershift">      0.00000000       0.00000000       0.00000000 </v>
   <v name="genvec1">      0.14285714       0.00000000       0.00000000 </v>
   <v name="genvec2">      0.00000000       0.14285714       0.00000000 </v>
   <v name="genvec3">      0.00000000       0.00000000       0.14285714 </v>
   <v name="shift">      0.00000000       0.00000000       0.00000000 </v>
  </generation>
  <varray name="kpointlist" >
   <v>       0.00000000       0.00000000       0.00000000 </v>
   <v>       0.14285714       0.00000000       0.00000000 </v>
   <v>       0.28571429       0.00000000       0.00000000 </v>
   <v>       0.42857143       0.00000000       0.00000000 </v>
   <v>       0.14285714       0.14285714       0.00000000 </v>
   <v>       0.28571429       0.14285714       0.00000000 </v>
   <v>       0.42857143       0.14285714       0.00000000 </v>
   <v>       0.28571429       0.28571429       0.00000000 </v>
   <v>       0.42857143       0.28571429       0.00000000 </v>
   <v>       0.42857143       0.42857143       0.00000000 </v>
   <v>       0.14285714       0.14285714       0.14285714 </v>
   <v>       0.28571429       0.14285714       0.14285714 </v>
   <v>       0.42857143       0.14285714       0.14285714 </v>
   <v>       0.28571429       0.28571429       0.14285714 </v>
   <v>       0.42857143       0.28571429       0.14285714 </v>
   <v>       0.42857143       0.42857143       0.14285714 </v>
   <v>       0.28571429       0.28571429       0.28571429 </v>
   <v>       0.42857143       0.28571429       0.28571429 </v>
   <v>       0.42857143       0.42857143       0.28571429 </v>
   <v>       0.42857143       0.42857143       0.42857143 </v>
  </varray>
  <varray name="weights" >
   <v>       0.00291545 </v>
   <v>       0.01749271 </v>
   <v>       0.01749271 </v>
   <v>       0.01749271 </v>
   <v>       0.03498542 </v>
   <v>       0.06997085 </v>
   <v>       0.06997085 </v>
   <v>       0.03498542 </v>
   <v>       0.06997085 </v>
   <v>       0.03498542 </v>
   <v>       0.02332362 </v>
   <v>       0.06997085 </v>
   <v>       0.06997085 </v>
   <v>       0.06997085 </v>
   <v>       0.13994169 </v>
   <v>       0.06997085 </v>
   <v>       0.02332362 </v>
   <v>       0.06997085 </v>
   <v>       0.06997085 </v>
   <v>       0.02332362 </v>
  </varray>
 </kpoints>
 <parameters>
  <separator name="general" >
   <i type="string" name="SYSTEM">unknown system</i>
   <i type="logical" name="LCOMPAT"> F  </i>
  </separator>
  <separator name="electronic" >
   <i type="string" name="PREC">accura</i>
   <i name="ENMAX">    350.00000000</i>
   <i name="ENAUG">    511.36800000</i>
   <i name="EDIFF">      0.00000100</i>
   <i type="int" name="IALGO">    38</i>
   <i type="int" name="IWAVPR">    11</i>
   <i type="int" name="NBANDS">    20</i>
   <i type="int" name="NBANDSLOW">    -1</i>
   <i type="int" name="NBANDSHIGH">    -1</i>
   <i name="NELECT">     16.00000000</i>
   <i type="int" name="TURBO">     0</i>
   <i type="int" name="IRESTART">     0</i>
   <i type="int" name="NREBOOT">     0</i>
   <i type="int" name="NMIN">     0</i>
   <i name="EREF">      0.00000000</i>
   <separator name="electronic smearing" >
    <i type="int" name="ISMEAR">     1</i>
    <i name="SIGMA">      0.20000000</i>
    <i name="KSPACING">      0.35000000</i>
    <i type="logical" name="KGAMMA"> T  </i>
    <i type="logical" name="KBLOWUP"> T  </i>
   </separator>
   <separator name="electronic projectors" >
    <i type="logical" name="LREAL"> F  </i>
    <v name="ROPT">      0.00000000</v>
    <i type="int" name="LMAXPAW">  -100</i>
    <i type="int" name="LMAXMIX">     4</i>
    <i type="logical" name="NLSPLINE"> F  </i>
   </separator>
   <separator name="electronic startup" >
    <i type="int" name="ISTART">     0</i>
    <i type="int" name="ICHARG">     2</i>
    <i type="int" name="INIWAV">     1</i>
   </separator>
   <separator name="electronic spin" >
    <i type="int" name="ISPIN">     2</i>
    <i type="logical" name="LNONCOLLINEAR"> F  </i>
    <v name="MAGMOM">      5.00000000      5.00000000</v>
    <i name="NUPDOWN">     -1.00000000</i>
    <i type="logical" name="LSORBIT"> F  </i>
    <v name="SAXIS">      0.00000000      0.00000000      1.00000000</v>
    <i type="logical" name="LSPIRAL"> F  </i>
    <v name="QSPIRAL">      0.00000000      0.00000000      0.00000000</v>
    <i type="logical" name="LZEROZ"> F  </i>
   </separator>
   <separator name="electronic exchange-correlation" >
    <i type="logical" name="LASPH"> T  </i>
    <i type="logical" name="LMETAGGA"> F  </i>
   </separator>
   <separator name="electronic convergence" >
    <i type="int" name="NELM">    90</i>
    <i type="int" name="NELMDL">    -5</i>
    <i type="int" name="NELMIN">     6</i>
    <i name="ENINI">    350.00000000</i>
    <separator name="electronic convergence detail" >
     <i type="logical" name="LDIAG"> T  </i>
     <i type="logical" name="LSUBROT"> F  </i>
     <i name="WEIMIN">      0.00100000</i>
     <i name="EBREAK">      0.00000001</i>
     <i name="DEPER">      0.30000000</i>
     <i type="int" name="NRMM">     4</i>
     <i name="TIME">      0.40000000</i>
    </separator>
   </separator>
   <separator name="electronic mixer" >
    <i name="AMIX">      0.40000000</i>
    <i name="BMIX">      1.00000000</i>
    <i name="AMIN">      0.10000000</i>
    <i name="AMIX_MAG">      1.60000000</i>
    <i name="BMIX_MAG">      1.00000000</i>
    <separator name="electronic mixer details" >
     <i type="int" name="IMIX">     4</i>
     <i type="logical" name="MIXFIRST"> F  </i>
     <i type="int" name="MAXMIX">   -45</i>
     <i name="WC">    100.00000000</i>
     <i type="int" name="INIMIX">     1</i>
     <i type="int" name="MIXPRE">     1</i>
     <i type="int" name="MREMOVE">     5</i>
    </separator>
   </separator>
   <separator name="electronic dipolcorrection" >
    <i type="logical" name="LDIPOL"> F  </i>
    <i type="logical" name="LMONO"> F  </i>
    <i type="int" name="IDIPOL">     0</i>
    <i name="EPSILON">      1.00000000</i>
    <v name="DIPOL">   -100.00000000   -100.00000000   -100.00000000</v>
    <i name="EFIELD">      0.00000000</i>
   </separator>
  </separator>
  <separator name="grids" >
   <i type="int" name="NGX">    18</i>
   <i type="int" name="NGY">    18</i>
   <i type="int" name="NGZ">    18</i>
   <i type="int" name="NGXF">    36</i>
   <i type="int" name="NGYF">    36</i>
   <i type="int" name="NGZF">    36</i>
   <i type="logical" name="ADDGRID"> T  </i>
  </separator>
  <separator name="ionic" >
   <i type="int" name="NSW">   100</i>
   <i type="int" name="IBRION">     2</i>
   <i type="int" name="MDALGO">     0</i>
   <i type="int" name="ISIF">     3</i>
   <i name="PSTRESS">      0.00000000</i>
   <i name="EDIFFG">     -0.00200000</i>
   <i type="int" name="NFREE">     1</i>
   <i name="POTIM">      0.50000000</i>
   <i name="SMASS">     -3.00000000</i>
   <i name="SCALEE">      1.00000000</i>
  </separator>
  <separator name="ionic md" >
   <i name="TEBEG">      0.00010000</i>
   <i name="TEEND">      0.00010000</i>
   <i type="int" name="NBLOCK">     1</i>
   <i type="int" name="KBLOCK">   100</i>
   <i type="int" name="NPACO">   256</i>
   <i name="APACO">     16.00000000</i>
  </separator>
  <separator name="symmetry" >
   <i type="int" name="ISYM">     2</i>
   <i name="SYMPREC">      0.00001000</i>
  </separator>
  <separator name="dos" >
   <i type="int" name="LORBIT">    11</i>
   <v name="RWIGS">     -1.00000000</v>
   <i type="int" name="NEDOS">   301</i>
   <i name="EMIN">     10.00000000</i>
   <i name="EMAX">    -10.00000000</i>
   <i name="EFERMI">      0.00000000</i>
  </separator>
  <separator name="writing" >
   <i type="int" name="NWRITE">     2</i>
   <i type="logical" name="LWAVE"> T  </i>
   <i type="logical" name="LDOWNSAMPLE"> F  </i>
   <i type="logical" name="LCHARG"> T  </i>
   <i type="logical" name="LPARD"> F  </i>
   <i type="logical" name="LVTOT"> F  </i>
   <i type="logical" name="LVHAR"> F  </i>
   <i type="logical" name="LELF"> F  </i>
   <i type="logical" name="LOPTICS"> F  </i>
   <v name="STM">      0.00000000      0.00000000      0.00000000      0.00000000      0.00000000      0.00000000      0.00000000</v>
  </separator>
  <separator name="performance" >
   <i type="int" name="NPAR">     4</i>
   <i type="int" name="NSIM">     4</i>
   <i type="int" name="NBLK">    -1</i>
   <i type="logical" name="LPLANE"> T  </i>
   <i type="logical" name="LSCALAPACK"> T  </i>
   <i type="logical" name="LSCAAWARE"> F  </i>
   <i type="logical" name="LSCALU"> F  </i>
   <i type="logical" name="LASYNC"> F  </i>
   <i type="logical" name="LORBITALREAL"> F  </i>
  </separator>
  <separator name="miscellaneous" >
   <i type="int" name="IDIOT">     3</i>
   <i type="int" name="PHON_NSTRUCT">    -1</i>
   <i type="logical" name="LMUSIC"> F  </i>
   <v name="POMASS">     55.84700000</v>
   <v name="DARWINR">      0.00000000</v>
   <v name="DARWINV">      1.00000000</v>
   <i type="logical" name="LCORR"> T  </i>
  </separator>
  <i type="logical" name="GGA_COMPAT"> F  </i>
  <i type="logical" name="LBERRY"> F  </i>
  <i type="int" name="ICORELEVEL">     0</i>
  <i type="logical" name="LDAU"> F  </i>
  <i type="int" name="I_CONSTRAINED_M">     0</i>
  <separator name="electronic exchange-correlation" >
   <i type="string" name="GGA">--</i>
   <i type="int" name="VOSKOWN">     1</i>
   <i type="logical" name="LHFCALC"> F  </i>
   <i type="string" name="PRECFOCK"></i>
   <i type="logical" name="LSYMGRAD"> F  </i>
   <i type="logical" name="LHFONE"> F  </i>
   <i type="logical" name="LRHFCALC"> F  </i>
   <i type="logical" name="LTHOMAS"> F  </i>
   <i type="logical" name="LMODELHF"> F  </i>
   <i type="logical" name="LFOCKACE"> F  </i>
   <i name="ENCUT4O">     -1.00000000</i>
   <i type="int" name="EXXOEP">     0</i>
   <i type="int" name="FOURORBIT">     0</i>
   <i name="AEXX">      0.00000000</i>
   <i name="HFALPHA">      0.00000000</i>
   <i name="MCALPHA">      0.00000000</i>
   <i name="ALDAX">      1.00000000</i>
   <i name="AGGAX">      1.00000000</i>
   <i name="ALDAC">      1.00000000</i>
   <i name="AGGAC">      1.00000000</i>
   <i type="int" name="NKREDX">     1</i>
   <i type="int" name="NKREDY">     1</i>
   <i type="int" name="NKREDZ">     1</i>
   <i type="logical" name="SHIFTRED"> F  </i>
   <i type="logical" name="ODDONLY"> F  </i>
   <i type="logical" name="EVENONLY"> F  </i>
   <i type="int" name="LMAXFOCK">     0</i>
   <i type="int" name="NMAXFOCKAE">     0</i>
   <i type="logical" name="LFOCKAEDFT"> F  </i>
   <i name="HFSCREEN">      0.00000000</i>
   <i name="HFSCREENC">      0.00000000</i>
   <i type="int" name="NBANDSGWLOW">     0</i>
  </separator>
  <separator name="vdW DFT" >
   <i type="logical" name="LUSE_VDW"> F  </i>
   <i name="Zab_VDW">     -0.84910000</i>
   <i name="PARAM1">      0.12340000</i>
   <i name="PARAM2">      1.00000000</i>
   <i name="PARAM3">      0.00000000</i>
  </separator>
  <separator name="model GW" >
   <i type="int" name="MODEL_GW">     0</i>
   <i name="MODEL_EPS0">      7.04046678</i>
   <i name="MODEL_ALPHA">      1.00000000</i>
  </separator>
  <separator name="linear response parameters" >
   <i type="logical" name="LEPSILON"> F  </i>
   <i type="logical" name="LRPA"> F  </i>
   <i type="logical" name="LNABLA"> F  </i>
   <i type="logical" name="LVEL"> F  </i>
   <i type="int" name="KINTER">     0</i>
   <i name="CSHIFT">      0.10000000</i>
   <i name="OMEGAMAX">     -1.00000000</i>
   <i name="DEG_THRESHOLD">      0.00200000</i>
   <i name="RTIME">     -0.10000000</i>
   <i name="WPLASMAI">      0.00000000</i>
   <v name="DFIELD">      0.00000000      0.00000000      0.00000000</v>
   <v name="WPLASMA">      0.00000000      0.00000000      0.00000000      0.00000000      0.00000000      0.00000000      0.00000000      0.00000000      0.00000000</v>
  </separator>
  <separator name="orbital magnetization" >
   <i type="logical" name="NUCIND"> F  </i>
   <v name="MAGPOS">      0.00000000      0.00000000      0.00000000</v>
   <i type="logical" name="LNICSALL"> T  </i>
   <i type="logical" name="ORBITALMAG"> F  </i>
   <i type="logical" name="LMAGBLOCH"> F  </i>
   <i type="logical" name="LCHIMAG"> F  </i>
   <i type="logical" name="LGAUGE"> T  </i>
   <i type="int" name="MAGATOM">     0</i>
   <v name="MAGDIPOL">      0.00000000      0.00000000      0.00000000</v>
   <v name="AVECCONST">      0.00000000      0.00000000      0.00000000</v>
  </separator>
  <separator name="response functions" >
   <i type="logical" name="LFINITE_TEMPERATURE"> F  </i>
   <i type="logical" name="LADDER"> F  </i>
   <i type="logical" name="LRPAFORCE"> F  </i>
   <i type="logical" name="LFXC"> F  </i>
   <i type="logical" name="LHARTREE"> T  </i>
   <i type="int" name="IBSE">     0</i>
   <v type="int" name="KPOINT">    -1     0     0     0</v>
   <i type="logical" name="LTCTC"> F  </i>
   <i type="logical" name="LTCTE"> F  </i>
   <i type="logical" name="LTETE"> F  </i>
   <i type="logical" name="LTRIPLET"> F  </i>
   <i type="logical" name="LFXCEPS"> F  </i>
   <i type="logical" name="LFXHEG"> F  </i>
   <i type="int" name="NATURALO">     2</i>
   <i type="logical" name="LHOLEGF"> F  </i>
   <i type="logical" name="L2ORDER"> F  </i>
   <i type="logical" name="LDMP1"> F  </i>
   <i type="logical" name="LMP2LT"> F  </i>
   <i type="logical" name="LSMP2LT"> F  </i>
   <i type="logical" name="LGWLF"> F  </i>
   <i name="ENCUTGW">     -2.00000000</i>
   <i name="ENCUTGWSOFT">     -2.00000000</i>
   <i name="ENCUTLF">     -1.00000000</i>
   <i type="logical" name="LESF_SPLINES"> F  </i>
   <i type="int" name="LMAXMP2">    -1</i>
   <i name="SCISSOR">      0.00000000</i>
   <i type="int" name="NOMEGA">     0</i>
   <i type="int" name="NOMEGAR">     0</i>
   <i type="int" name="NBANDSGW">    -1</i>
   <i type="int" name="NBANDSO">    -1</i>
   <i type="int" name="NBANDSV">    -1</i>
   <i type="int" name="NELM">    90</i>
   <i type="int" name="NELMHF">     1</i>
   <i type="int" name="DIM">     3</i>
   <i type="int" name="IESPILON">     4</i>
   <i type="int" name="ANTIRES">     0</i>
   <i name="OMEGAMAX">    -30.00000000</i>
   <i name="OMEGAMIN">    -30.00000000</i>
   <i name="OMEGATL">   -200.00000000</i>
   <i type="int" name="OMEGAGRID">     0</i>
   <i name="CSHIFT">     -0.10000000</i>
   <i type="logical" name="LSELFENERGY"> F  </i>
   <i type="logical" name="LSPECTRAL"> F  </i>
   <i type="logical" name="LSPECTRALGW"> F  </i>
   <i type="logical" name="LSINGLES"> F  </i>
   <i type="logical" name="LFERMIGW"> F  </i>
   <i type="logical" name="ODDONLYGW"> F  </i>
   <i type="logical" name="EVENONLYGW"> F  </i>
   <i type="int" name="NKREDLFX">     1</i>
   <i type="int" name="NKREDLFY">     1</i>
   <i type="int" name="NKREDLFZ">     1</i>
   <i type="int" name="MAXMEM">  2800</i>
   <i type="int" name="TELESCOPE">     0</i>
   <i type="int" name="NTAUPAR">    -1</i>
   <i type="int" name="NOMEGAPAR">    -1</i>
   <i name="DAMP_NEWTON">      0.80000001</i>
   <i name="LAMBDA">      1.00000000</i>
  </separator>
  <separator name="External order field" >
   <i name="OFIELD_KAPPA">      0.00000000</i>
   <v name="OFIELD_K">      0.00000000      0.00000000      0.00000000</v>
   <i name="OFIELD_Q6_NEAR">      0.00000000</i>
   <i name="OFIELD_Q6_FAR">      0.00000000</i>
   <i name="OFIELD_A">      0.00000000</i>
  </separator>
 </parameters>
 <atominfo>
  <atoms>       2 </atoms>
  <types>       1 </types>
  <array name="atoms" >
   <dimension dim="1">ion</dimension>
   <field type="string">element</field>
   <field type="int">atomtype</field>
   <set>
    <rc><c>Fe</c><c>   1</c></rc>
    <rc><c>Fe</c><c>   1</c></rc>
   </set>
  </array>
  <array name="atomtypes" >
   <dimension dim="1">type</dimension>
   <field type="int">atomspertype</field>
   <field type="string">element</field>
   <field>mass</field>
   <field>valence</field>
   <field type="string">pseudopotential</field>
   <set>
    <rc><c>   2</c><c>Fe</c><c>     55.84700000</c><c>      8.00000000</c><c>  PAW_PBE Fe 06Sep2000                  </c></rc>
   </set>
  </array>
 </atominfo>
 <structure name="initialpos" >
  <crystal>
   <varray name="basis" >
    <v>       2.86303550       0.00000000       0.00000000 </v>
    <v>       0.00000000       2.86303550       0.00000000 </v>
    <v>       0.00000000       0.00000000       2.86303550 </v>
   </varray>
   <i name="volume">     23.46822259 </i>
   <varray name="rec_basis" >
    <v>       0.34927964      -0.00000000       0.00000000 </v>
    <v>       0.00000000       0.34927964       0.00000000 </v>
    <v>      -0.00000000      -0.00000000       0.34927964 </v>
   </varray>
  </crystal>
  <varray name="positions" >
   <v>       0.00000000       0.00000000       0.00000000 </v>
   <v>       0.50000000       0.50000000       0.50000000 </v>
  </varray>
 </structure>
 <calculation>
  <scstep>
   <time name="dav">    0.63    0.63</time>
   <time name="total">    2.22    2.23</time>
   <energy>
    <i name="alphaZ">    117.79976220 </i>
    <i name="ewald">  -1171.43779597 </i>
    <i name="hartreedc">   -228.04061711 </i>
    <i name="XCdc">     14.27160946 </i>
    <i name="pawpsdc">   1103.49540010 </i>
    <i name="pawaedc">  -1119.11610375 </i>
    <i name="eentropy">     -0.00617532 </i>
    <i name="bandstr">    159.26176073 </i>
    <i name="atom">   1188.58965621 </i>
    <i name="e_fr_energy">     64.81749654 </i>
    <i name="e_wo_entrp">     64.82367187 </i>
    <i name="e_0_energy">     64.81955499 </i>
   </energy>
  </scstep>
  <scstep>
   <time name="dav">    0.59    0.61</time>
   <time name="total">    0.59    0.61</time>
   <energy>
    <i name="e_fr_energy">    -13.17661685 </i>
    <i name="e_wo_entrp">    -13.17824328 </i>
    <i name="e_0_energy">    -13.17715900 </i>
   </energy>
  </scstep>
  <scstep>
   <time name="dav">    0.64    0.65</time>
   <time name="total">    0.64    0.65</time>
   <energy>
    <i name="e_fr_energy">    -16.05929976 </i>
    <i name="e_wo_entrp">    -16.06408341 </i>
    <i name="e_0_energy">    -16.06089431 </i>
   </energy>
  </scstep>
  <scstep>
   <time name="dav">    0.62    0.64</time>
   <time name="total">    0.62    0.64</time>
   <energy>
    <i name="e_fr_energy">    -16.08157861 </i>
    <i name="e_wo_entrp">    -16.08638784 </i>
    <i name="e_0_energy">    -16.08318169 </i>
   </energy>
  </scstep>
  <scstep>
   <time name="dav">    0.64    0.65</time>
   <time name="total">    0.72    0.72</time>
   <energy>
    <i name="e_fr_energy">    -16.08184537 </i>
    <i name="e_wo_entrp">    -16.08665503 </i>
    <i name="e_0_energy">    -16.08344859 </i>
   </energy>
  </scstep>
  <scstep>
   <time name="dav">    0.64    0.64</time>
   <time name="total">    2.29    2.31</time>
   <energy>
    <i name="e_fr_energy">    -16.55770419 </i>
    <i name="e_wo_entrp">    -16.55760544 </i>
    <i name="e_0_energy">    -16.55767127 </i>
   </energy>
  </scstep>
  <scstep>
   <time name="dav">    0.66    0.66</time>
   <time name="total">    2.31    2.32</time>
   <energy>
    <i name="e_fr_energy">    -16.50553690 </i>
    <i name="e_wo_entrp">    -16.50759290 </i>
    <i name="e_0_energy">    -16.50622223 </i>
   </energy>
  </scstep>
  <scstep>
   <time name="dav">    0.73    0.73</time>
   <time name="total">    2.39    2.41</time>
   <energy>
    <i name="e_fr_energy">    -16.48996262 </i>
    <i name="e_wo_entrp">    -16.49365874 </i>
    <i name="e_0_energy">    -16.49119466 </i>
   </energy>
  </scstep>
  <scstep>
   <time name="dav">    0.78    0.78</time>
   <time name="total">    2.43    2.45</time>
   <energy>
    <i name="e_fr_energy">    -16.47882628 </i>
    <i name="e_wo_entrp">    -16.48392457 </i>
    <i name="e_0_energy">    -16.48052571 </i>
   </energy>
  </scstep>
  <scstep>
   <time name="dav">    0.66    0.66</time>
   <time name="total">    2.31    2.33</time>
   <energy>
    <i name="e_fr_energy">    -16.47839623 </i>
    <i name="e_wo_entrp">    -16.48334637 </i>
    <i name="e_0_energy">    -16.48004628 </i>
   </energy>
  </scstep>
  <scstep>
   <time name="dav">    0.66    0.66</time>
   <time name="total">    2.32    2.34</time>
   <energy>
    <i name="e_fr_energy">    -16.47846523 </i>
    <i name="e_wo_entrp">    -16.48340881 </i>
    <i name="e_0_energy">    -16.48011309 </i>
   </energy>
  </scstep>
  <scstep>
   <time name="dav">    0.63    0.63</time>
   <time name="total">    2.29    2.31</time>
   <energy>
    <i name="e_fr_energy">    -16.47843561 </i>
    <i name="e_wo_entrp">    -16.48337200 </i>
    <i name="e_0_energy">    -16.48008107 </i>
   </energy>
  </scstep>
  <scstep>
   <time name="dav">    0.54    0.54</time>
   <time name="total">    2.19    2.21</time>
   <energy>
    <i name="e_fr_energy">    -16.47843743 </i>
    <i name="e_wo_entrp">    -16.48339200 </i>
    <i name="e_0_energy">    -16.48008895 </i>
   </energy>
  </scstep>
  <scstep>
   <time name="dav">    0.42    0.42</time>
   <time name="total">    2.07    2.08</time>
   <energy>
    <i name="e_fr_energy">    -16.47843556 </i>
    <i name="e_wo_entrp">    -16.48338883 </i>
    <i name="e_0_energy">    -16.48008665 </i>
   </energy>
  </scstep>
  <scstep>
   <time name="dav">    0.41    0.41</time>
   <time name="total">    1.99    2.01</time>
   <energy>
    <i name="alphaZ">    117.79976220 </i>
    <i name="ewald">  -1171.43779597 </i>
    <i name="hartreedc">   -194.92758645 </i>
    <i name="XCdc">      8.46213193 </i>
    <i name="pawpsdc">   1410.23499515 </i>
    <i name="pawaedc">  -1428.18648518 </i>
    <i name="eentropy">      0.00495340 </i>
    <i name="bandstr">     52.98193319 </i>
    <i name="atom">   1188.58965621 </i>
    <i name="e_fr_energy">    -16.47843551 </i>
    <i name="e_wo_entrp">    -16.48338891 </i>
    <i name="e_0_energy">    -16.48008664 </i>
   </energy>
  </scstep>
  <structure>
   <crystal>
    <varray name="basis" >
     <v>       2.86303550       0.00000000       0.00000000 </v>
     <v>       0.00000000       2.86303550       0.00000000 </v>
     <v>       0.00000000       0.00000000       2.86303550 </v>
    </varray>
    <i name="volume">     23.46822259 </i>
    <varray name="rec_basis" >
     <v>       0.34927964      -0.00000000       0.00000000 </v>
     <v>       0.00000000       0.34927964       0.00000000 </v>
     <v>      -0.00000000      -0.00000000       0.34927964 </v>
    </varray>
   </crystal>
   <varray name="positions" >
    <v>       0.00000000       0.00000000       0.00000000 </v>
    <v>       0.50000000       0.50000000       0.50000000 </v>
   </varray>
  </structure>
  <varray name="forces" >
   <v>       0.00000000      -0.00000000       0.00000000 </v>
   <v>      -0.00000000       0.00000000      -0.00000000 </v>
  </varray>
  <varray name="stress" >
   <v>     -69.62661207      -0.00000000      -0.00000000 </v>
   <v>      -0.00000000     -69.62661207      -0.00000000 </v>
   <v>      -0.00000000       0.00000000     -69.62661207 </v>
  </varray>
  <energy>
   <i name="e_fr_energy">    -16.47843551 </i>
   <i name="e_wo_entrp">    -16.48338891 </i>
   <i name="e_0_energy">    -16.48008664 </i>
  </energy>
  <time name="totalsc">   32.20   33.22</time>
 </calculation>
 <calculation>
  <scstep>
   <time name="dav">    0.63    0.63</time>
   <time name="total">    2.29    2.30</time>
   <energy>
    <i name="alphaZ">    126.93956040 </i>
    <i name="ewald">  -1200.98271708 </i>
    <i name="hartreedc">   -199.84405864 </i>
    <i name="XCdc">      9.92127150 </i>
    <i name="pawpsdc">   1410.23849090 </i>
    <i name="pawaedc">  -1428.19002044 </i>
    <i name="eentropy">     -0.00291780 </i>
    <i name="bandstr">     75.98253714 </i>
    <i name="atom">   1188.58965621 </i>
    <i name="e_fr_energy">    -17.34819782 </i>
    <i name="e_wo_entrp">    -17.34528001 </i>
    <i name="e_0_energy">    -17.34722521 </i>
   </energy>
  </scstep>
  <scstep>
   <time name="dav">    0.62    0.63</time>
   <time name="total">    2.29    2.31</time>
   <energy>
    <i name="e_fr_energy">    -16.53011372 </i>
    <i name="e_wo_entrp">    -16.53153003 </i>
    <i name="e_0_energy">    -16.53058583 </i>
   </energy>
  </scstep>
  <scstep>
   <time name="dav">    0.66    0.66</time>
   <time name="total">    2.33    2.35</time>
   <energy>
    <i name="e_fr_energy">    -16.49222014 </i>
    <i name="e_wo_entrp">    -16.49251226 </i>
    <i name="e_0_energy">    -16.49231751 </i>
   </energy>
  </scstep>
  <scstep>
   <time name="dav">    0.68    0.71</time>
   <time name="total">    2.35    2.40</time>
   <energy>
    <i name="e_fr_energy">    -16.48278169 </i>
    <i name="e_wo_entrp">    -16.48330271 </i>
    <i name="e_0_energy">    -16.48295536 </i>
   </energy>
  </scstep>
  <scstep>
   <time name="dav">    0.71    0.72</time>
   <time name="total">    2.39    2.41</time>
   <energy>
    <i name="e_fr_energy">    -16.47555954 </i>
    <i name="e_wo_entrp">    -16.47681627 </i>
    <i name="e_0_energy">    -16.47597845 </i>
   </energy>
  </scstep>
  <scstep>
   <time name="dav">    0.63    0.63</time>
   <time name="total">    2.31    2.32</time>
   <energy>
    <i name="e_fr_energy">    -16.47568310 </i>
    <i name="e_wo_entrp">    -16.47701275 </i>
    <i name="e_0_energy">    -16.47612632 </i>
   </energy>
  </scstep>
  <scstep>
   <time name="dav">    0.62    0.62</time>
   <time name="total">    2.29    2.30</time>
   <energy>
    <i name="e_fr_energy">    -16.47568692 </i>
    <i name="e_wo_entrp">    -16.47699134 </i>
    <i name="e_0_energy">    -16.47612173 </i>
   </energy>
  </scstep>
  <scstep>
   <time name="dav">    0.59    0.60</time>
   <time name="total">    2.25    2.27</time>
   <energy>
    <i name="e_fr_energy">    -16.47568079 </i>
    <i name="e_wo_entrp">    -16.47697762 </i>
    <i name="e_0_energy">    -16.47611307 </i>
   </energy>
  </scstep>
  <scstep>
   <time name="dav">    0.40    0.40</time>
   <time name="total">    1.99    2.01</time>
   <energy>
    <i name="alphaZ">    126.93956040 </i>
    <i name="ewald">  -1200.98271708 </i>
    <i name="hartreedc">   -183.50934073 </i>
    <i name="XCdc">      8.76771348 </i>
    <i name="pawpsdc">   1482.58574650 </i>
    <i name="pawaedc">  -1501.09577999 </i>
    <i name="eentropy">      0.00130234 </i>
    <i name="bandstr">     62.22817817 </i>
    <i name="atom">   1188.58965621 </i>
    <i name="e_fr_energy">    -16.47568071 </i>
    <i name="e_wo_entrp">    -16.47698304 </i>
    <i name="e_0_energy">    -16.47611482 </i>
   </energy>
  </scstep>
  <structure>
   <crystal>
    <varray name="basis" >
     <v>       2.79260305      -0.00000000       0.00000000 </v>
     <v>       0.00000000       2.79260305       0.00000000 </v>
     <v>      -0.00000000       0.00000000       2.79260305 </v>
    </varray>
    <i name="volume">     21.77848286 </i>
    <varray name="rec_basis" >
     <v>       0.35808885      -0.00000000       0.00000000 </v>
     <v>       0.00000000       0.35808885      -0.00000000 </v>
     <v>      -0.00000000      -0.00000000       0.35808885 </v>
    </varray>
   </crystal>
   <varray name="positions" >
    <v>       0.00000000      -0.00000000       0.00000000 </v>
    <v>       0.50000000       0.50000000       0.50000000 </v>
   </varray>
  </structure>
  <varray name="forces" >
   <v>      -0.00000000      -0.00000000       0.00000000 </v>
   <v>       0.00000000       0.00000000      -0.00000000 </v>
  </varray>
  <varray name="stress" >
   <v>      88.42740547       0.00000000       0.00000000 </v>
   <v>       0.00000000      88.42740547       0.00000000 </v>
   <v>       0.00000000       0.00000000      88.42740547 </v>
  </varray>
  <energy>
   <i name="e_fr_energy">    -16.47568071 </i>
   <i name="e_wo_entrp">    -16.47698304 </i>
   <i name="e_0_energy">    -16.47611482 </i>
  </energy>
  <time name="totalsc">   24.87   25.17</time>
 </calculation>
 <calculation>
  <scstep>
   <time name="dav">    0.62    0.62</time>
   <time name="total">    2.28    2.29</time>
   <energy>
    <i name="alphaZ">    122.21283533 </i>
    <i name="ewald">  -1185.88716214 </i>
    <i name="hartreedc">   -181.20393942 </i>
    <i name="XCdc">      8.04707777 </i>
    <i name="pawpsdc">   1482.57877689 </i>
    <i name="pawaedc">  -1501.08900924 </i>
    <i name="eentropy">      0.00288249 </i>
    <i name="bandstr">     50.01806979 </i>
    <i name="atom">   1188.58965621 </i>
    <i name="e_fr_energy">    -16.73081230 </i>
    <i name="e_wo_entrp">    -16.73369479 </i>
    <i name="e_0_energy">    -16.73177313 </i>
   </energy>
  </scstep>
  <scstep>
   <time name="dav">    0.62    0.62</time>
   <time name="total">    2.29    2.31</time>
   <energy>
    <i name="e_fr_energy">    -16.52456689 </i>
    <i name="e_wo_entrp">    -16.52820208 </i>
    <i name="e_0_energy">    -16.52577862 </i>
   </energy>
  </scstep>
  <scstep>
   <time name="dav">    0.64    0.64</time>
   <time name="total">    2.31    2.33</time>
   <energy>
    <i name="e_fr_energy">    -16.50266926 </i>
    <i name="e_wo_entrp">    -16.50716963 </i>
    <i name="e_0_energy">    -16.50416938 </i>
   </energy>
  </scstep>
  <scstep>
   <time name="dav">    0.72    0.72</time>
   <time name="total">    2.39    2.40</time>
   <energy>
    <i name="e_fr_energy">    -16.49999488 </i>
    <i name="e_wo_entrp">    -16.50455014 </i>
    <i name="e_0_energy">    -16.50151330 </i>
   </energy>
  </scstep>
  <scstep>
   <time name="dav">    0.66    0.66</time>
   <time name="total">    2.32    2.34</time>
   <energy>
    <i name="e_fr_energy">    -16.49792617 </i>
    <i name="e_wo_entrp">    -16.50234054 </i>
    <i name="e_0_energy">    -16.49939763 </i>
   </energy>
  </scstep>
  <scstep>
   <time name="dav">    0.65    0.65</time>
   <time name="total">    2.32    2.34</time>
   <energy>
    <i name="e_fr_energy">    -16.49796036 </i>
    <i name="e_wo_entrp">    -16.50223423 </i>
    <i name="e_0_energy">    -16.49938498 </i>
   </energy>
  </scstep>
  <scstep>
   <time name="dav">    0.61    0.61</time>
   <time name="total">    2.27    2.29</time>
   <energy>
    <i name="e_fr_energy">    -16.49796758 </i>
    <i name="e_wo_entrp">    -16.50226381 </i>
    <i name="e_0_energy">    -16.49939966 </i>
   </energy>
  </scstep>
  <scstep>
   <time name="dav">    0.57    0.57</time>
   <time name="total">    2.23    2.25</time>
   <energy>
    <i name="e_fr_energy">    -16.49797225 </i>
    <i name="e_wo_entrp">    -16.50226214 </i>
    <i name="e_0_energy">    -16.49940221 </i>
   </energy>
  </scstep>
  <scstep>
   <time name="dav">    0.40    0.40</time>
   <time name="total">    1.99    2.01</time>
   <energy>
    <i name="alphaZ">    122.21283533 </i>
    <i name="ewald">  -1185.88716214 </i>
    <i name="hartreedc">   -189.27219208 </i>
    <i name="XCdc">      8.60323699 </i>
    <i name="pawpsdc">   1443.90383428 </i>
    <i name="pawaedc">  -1462.10563653 </i>
    <i name="eentropy">      0.00428524 </i>
    <i name="bandstr">     57.45317052 </i>
    <i name="atom">   1188.58965621 </i>
    <i name="e_fr_energy">    -16.49797218 </i>
    <i name="e_wo_entrp">    -16.50225741 </i>
    <i name="e_0_energy">    -16.49940059 </i>
   </energy>
  </scstep>
  <structure>
   <crystal>
    <varray name="basis" >
     <v>       2.82815103      -0.00000000       0.00000000 </v>
     <v>       0.00000000       2.82815103       0.00000000 </v>
     <v>      -0.00000000       0.00000000       2.82815103 </v>
    </varray>
    <i name="volume">     22.62079128 </i>
    <varray name="rec_basis" >
     <v>       0.35358791      -0.00000000       0.00000000 </v>
     <v>       0.00000000       0.35358791      -0.00000000 </v>
     <v>      -0.00000000      -0.00000000       0.35358791 </v>
    </varray>
   </crystal>
   <varray name="positions" >
    <v>       0.00000000      -0.00000000       0.00000000 </v>
    <v>       0.50000000       0.50000000       0.50000000 </v>
   </varray>
  </structure>
  <varray name="forces" >
   <v>      -0.00000000       0.00000000       0.00000000 </v>
   <v>       0.00000000      -0.00000000      -0.00000000 </v>
  </varray>
  <varray name="stress" >
   <v>      -0.06802859      -0.00000000      -0.00000000 </v>
   <v>       0.00000000      -0.06802859      -0.00000000 </v>
   <v>      -0.00000000       0.00000000      -0.06802859 </v>
  </varray>
  <energy>
   <i name="e_fr_energy">    -16.49797218 </i>
   <i name="e_wo_entrp">    -16.50225741 </i>
   <i name="e_0_energy">    -16.49940059 </i>
  </energy>
  <time name="totalsc">   24.82   25.23</time>
  <eigenvalues>
   <array>
    <dimension dim="1">band</dimension>
    <dimension dim="2">kpoint</dimension>
    <dimension dim="3">spin</dimension>
    <field>eigene</field>
    <field>occ</field>
    <set>
     <set comment="spin 1">
      <set comment="kpoint 1">
       <r>   -2.6117    1.0000 </r>
       <r>    0.9819    1.0000 </r>
       <r>    0.9819    1.0000 </r>
       <r>    3.5590    1.0000 </r>
       <r>    3.5590    1.0000 </r>
       <r>    3.5590    1.0000 </r>
       <r>    4.7650    1.0000 </r>
       <r>    4.7650    1.0000 </r>
       <r>    5.9955   -0.0192 </r>
       <r>    5.9955   -0.0192 </r>
       <r>    5.9955   -0.0192 </r>
       <r>   15.8165    0.0000 </r>
       <r>   15.8165    0.0000 </r>
       <r>   15.8165    0.0000 </r>
       <r>   21.5393    0.0000 </r>
       <r>   21.5393    0.0000 </r>
       <r>   26.7180    0.0000 </r>
       <r>   30.9089    0.0000 </r>
       <r>   30.9089    0.0000 </r>
       <r>   30.9089    0.0000 </r>
      </set>
      <set comment="kpoint 2">
       <r>   -2.1910    1.0000 </r>
       <r>    1.1614    1.0000 </r>
       <r>    1.1622    1.0000 </r>
       <r>    3.5588    1.0000 </r>
       <r>    3.5588    1.0000 </r>
       <r>    3.6746    1.0000 </r>
       <r>    4.5765    1.0000 </r>
       <r>    4.8391    1.0000 </r>
       <r>    5.6602    0.9686 </r>
       <r>    5.6602    0.9686 </r>
       <r>    5.8703    0.2409 </r>
       <r>   13.4350    0.0000 </r>
       <r>   16.5977    0.0000 </r>
       <r>   16.5977    0.0000 </r>
       <r>   21.6637    0.0000 </r>
       <r>   23.0414    0.0000 </r>
       <r>   28.2344    0.0000 </r>
       <r>   28.8183    0.0000 </r>
       <r>   30.3881    0.0000 </r>
       <r>   30.3881    0.0000 </r>
      </set>
      <set comment="kpoint 3">
       <r>   -1.0168    1.0000 </r>
       <r>    1.5331    1.0000 </r>
       <r>    1.6729    1.0000 </r>
       <r>    3.6078    1.0000 </r>
       <r>    3.6078    1.0000 </r>
       <r>    4.0015    1.0000 </r>
       <r>    4.0446    1.0000 </r>
       <r>    4.9431    1.0000 </r>
       <r>    4.9431    1.0000 </r>
       <r>    5.0522    1.0000 </r>
       <r>    5.5211    1.0310 </r>
       <r>    9.8524   -0.0000 </r>
       <r>   18.6303    0.0000 </r>
       <r>   18.6303    0.0000 </r>
       <r>   22.0692    0.0000 </r>
       <r>   24.1030    0.0000 </r>
       <r>   26.1470    0.0000 </r>
       <r>   27.9612    0.0000 </r>
       <r>   27.9612    0.0000 </r>
       <r>   29.7330    0.0000 </r>
      </set>
      <set comment="kpoint 4">
       <r>    0.5396    1.0000 </r>
       <r>    1.5535    1.0000 </r>
       <r>    2.4250    1.0000 </r>
       <r>    3.2737    1.0000 </r>
       <r>    3.8141    1.0000 </r>
       <r>    3.8141    1.0000 </r>
       <r>    4.2634    1.0000 </r>
       <r>    4.2634    1.0000 </r>
       <r>    4.4811    1.0000 </r>
       <r>    5.0235    1.0000 </r>
       <r>    5.5351    1.0334 </r>
       <r>    6.9867   -0.0000 </r>
       <r>   21.4276    0.0000 </r>
       <r>   21.4276    0.0000 </r>
       <r>   22.8533    0.0000 </r>
       <r>   24.1614    0.0000 </r>
       <r>   24.6525    0.0000 </r>
       <r>   24.6525    0.0000 </r>
       <r>   25.0853    0.0000 </r>
       <r>   26.8902    0.0000 </r>
      </set>
      <set comment="kpoint 5">
       <r>   -1.7870    1.0000 </r>
       <r>    1.3045    1.0000 </r>
       <r>    1.3620    1.0000 </r>
       <r>    3.3410    1.0000 </r>
       <r>    3.5114    1.0000 </r>
       <r>    4.0017    1.0000 </r>
       <r>    4.6034    1.0000 </r>
       <r>    4.7856    1.0000 </r>
       <r>    5.1155    1.0000 </r>
       <r>    5.3368    1.0023 </r>
       <r>    6.0464   -0.0354 </r>
       <r>   13.5513    0.0000 </r>
       <r>   14.6505    0.0000 </r>
       <r>   17.2892    0.0000 </r>
       <r>   22.4082    0.0000 </r>
       <r>   24.5891    0.0000 </r>
       <r>   26.7111    0.0000 </r>
       <r>   29.2805    0.0000 </r>
       <r>   29.4742    0.0000 </r>
       <r>   30.4302    0.0000 </r>
      </set>
      <set comment="kpoint 6">
       <r>   -0.6793    1.0000 </r>
       <r>    1.6221    1.0000 </r>
       <r>    1.8564    1.0000 </r>
       <r>    3.2246    1.0000 </r>
       <r>    3.4269    1.0000 </r>
       <r>    4.3513    1.0000 </r>
       <r>    4.3515    1.0000 </r>
       <r>    4.4714    1.0000 </r>
       <r>    4.7213    1.0000 </r>
       <r>    4.9755    1.0000 </r>
       <r>    5.9166    0.1008 </r>
       <r>   10.2731   -0.0000 </r>
       <r>   15.9221    0.0000 </r>
       <r>   19.1584    0.0000 </r>
       <r>   22.9154    0.0000 </r>
       <r>   23.5299    0.0000 </r>
       <r>   26.4654    0.0000 </r>
       <r>   27.4325    0.0000 </r>
       <r>   28.3669    0.0000 </r>
       <r>   32.8589    0.0000 </r>
      </set>
      <set comment="kpoint 7">
       <r>    0.7173    1.0000 </r>
       <r>    1.6051    1.0000 </r>
       <r>    2.4957    1.0000 </r>
       <r>    3.1239    1.0000 </r>
       <r>    3.3285    1.0000 </r>
       <r>    3.7098    1.0000 </r>
       <r>    4.2404    1.0000 </r>
       <r>    4.3447    1.0000 </r>
       <r>    5.0026    1.0000 </r>
       <r>    5.5223    1.0312 </r>
       <r>    5.5227    1.0313 </r>
       <r>    7.2535   -0.0000 </r>
       <r>   18.0953    0.0000 </r>
       <r>   20.6385    0.0000 </r>
       <r>   21.8302    0.0000 </r>
       <r>   23.7665    0.0000 </r>
       <r>   25.0025    0.0000 </r>
       <r>   25.2591    0.0000 </r>
       <r>   28.0211    0.0000 </r>
       <r>   30.1711    0.0000 </r>
      </set>
      <set comment="kpoint 8">
       <r>    0.1390    1.0000 </r>
       <r>    1.5889    1.0000 </r>
       <r>    2.4927    1.0000 </r>
       <r>    2.8736    1.0000 </r>
       <r>    3.5038    1.0000 </r>
       <r>    3.5858    1.0000 </r>
       <r>    4.4526    1.0000 </r>
       <r>    4.6630    1.0000 </r>
       <r>    4.8576    1.0000 </r>
       <r>    5.0959    1.0000 </r>
       <r>    6.1614   -0.0152 </r>
       <r>   10.1874   -0.0000 </r>
       <r>   13.5987    0.0000 </r>
       <r>   20.0566    0.0000 </r>
       <r>   20.6741    0.0000 </r>
       <r>   23.2821    0.0000 </r>
       <r>   26.4227    0.0000 </r>
       <r>   29.1530    0.0000 </r>
       <r>   29.7808    0.0000 </r>
       <r>   30.4212    0.0000 </r>
      </set>
      <set comment="kpoint 9">
       <r>    0.8974    1.0000 </r>
       <r>    1.3490    1.0000 </r>
       <r>    2.7873    1.0000 </r>
       <r>    3.0283    1.0000 </r>
       <r>    3.2215    1.0000 </r>
       <r>    3.6997    1.0000 </r>
       <r>    4.5327    1.0000 </r>
       <r>    4.7140    1.0000 </r>
       <r>    5.4725    1.0201 </r>
       <r>    5.6550    0.9767 </r>
       <r>    6.0475   -0.0354 </r>
       <r>    7.6827   -0.0000 </r>
       <r>   14.7349    0.0000 </r>
       <r>   17.0710    0.0000 </r>
       <r>   23.0030    0.0000 </r>
       <r>   23.8874    0.0000 </r>
       <r>   24.9926    0.0000 </r>
       <r>   25.9450    0.0000 </r>
       <r>   31.3879    0.0000 </r>
       <r>   32.8365    0.0000 </r>
      </set>
      <set comment="kpoint 10">
       <r>    0.9066    1.0000 </r>
       <r>    1.0356    1.0000 </r>
       <r>    2.5184    1.0000 </r>
       <r>    2.5999    1.0000 </r>
       <r>    4.2740    1.0000 </r>
       <r>    4.7384    1.0000 </r>
       <r>    4.7733    1.0000 </r>
       <r>    4.9423    1.0000 </r>
       <r>    5.6376    0.9994 </r>
       <r>    6.1071   -0.0273 </r>
       <r>    6.2543   -0.0034 </r>
       <r>    7.2012   -0.0000 </r>
       <r>   13.2804    0.0000 </r>
       <r>   14.3937    0.0000 </r>
       <r>   24.0831    0.0000 </r>
       <r>   24.5033    0.0000 </r>
       <r>   24.8080    0.0000 </r>
       <r>   26.5118    0.0000 </r>
       <r>   29.4495    0.0000 </r>
       <r>   30.9257    0.0000 </r>
      </set>
      <set comment="kpoint 11">
       <r>   -1.3941    1.0000 </r>
       <r>    1.5008    1.0000 </r>
       <r>    1.5008    1.0000 </r>
       <r>    3.2807    1.0000 </r>
       <r>    3.2807    1.0000 </r>
       <r>    4.3494    1.0000 </r>
       <r>    4.4474    1.0000 </r>
       <r>    4.6971    1.0000 </r>
       <r>    4.6971    1.0000 </r>
       <r>    5.7136    0.8467 </r>
       <r>    5.7136    0.8467 </r>
       <r>   14.2233    0.0000 </r>
       <r>   14.2233    0.0000 </r>
       <r>   15.6219    0.0000 </r>
       <r>   24.8483    0.0000 </r>
       <r>   24.8483    0.0000 </r>
       <r>   26.5034    0.0000 </r>
       <r>   26.5034    0.0000 </r>
       <r>   30.0555    0.0000 </r>
       <r>   30.2592    0.0000 </r>
      </set>
      <set comment="kpoint 12">
       <r>   -0.3335    1.0000 </r>
       <r>    1.8805    1.0000 </r>
       <r>    1.8812    1.0000 </r>
       <r>    3.1202    1.0000 </r>
       <r>    3.1320    1.0000 </r>
       <r>    3.7305    1.0000 </r>
       <r>    4.4790    1.0000 </r>
       <r>    4.8826    1.0000 </r>
       <r>    4.9710    1.0000 </r>
       <r>    5.0477    1.0000 </r>
       <r>    5.7642    0.6704 </r>
       <r>   10.7762   -0.0000 </r>
       <r>   15.8854    0.0000 </r>
       <r>   16.7429    0.0000 </r>
       <r>   23.2960    0.0000 </r>
       <r>   24.4307    0.0000 </r>
       <r>   25.6676    0.0000 </r>
       <r>   27.1358    0.0000 </r>
       <r>   29.0924    0.0000 </r>
       <r>   31.4454    0.0000 </r>
      </set>
      <set comment="kpoint 13">
       <r>    0.9474    1.0000 </r>
       <r>    1.7882    1.0000 </r>
       <r>    2.3892    1.0000 </r>
       <r>    2.8423    1.0000 </r>
       <r>    3.2951    1.0000 </r>
       <r>    3.4596    1.0000 </r>
       <r>    4.3273    1.0000 </r>
       <r>    4.5090    1.0000 </r>
       <r>    5.1384    1.0000 </r>
       <r>    5.4877    1.0236 </r>
       <r>    5.8702    0.2409 </r>
       <r>    7.7342   -0.0000 </r>
       <r>   18.0462    0.0000 </r>
       <r>   18.7624    0.0000 </r>
       <r>   20.5039    0.0000 </r>
       <r>   21.3807    0.0000 </r>
       <r>   27.1263    0.0000 </r>
       <r>   28.3774    0.0000 </r>
       <r>   29.1880    0.0000 </r>
       <r>   29.2063    0.0000 </r>
      </set>
      <set comment="kpoint 14">
       <r>    0.4994    1.0000 </r>
       <r>    1.8559    1.0000 </r>
       <r>    2.5066    1.0000 </r>
       <r>    2.7985    1.0000 </r>
       <r>    3.0972    1.0000 </r>
       <r>    3.1073    1.0000 </r>
       <r>    4.6946    1.0000 </r>
       <r>    4.8342    1.0000 </r>
       <r>    4.8552    1.0000 </r>
       <r>    5.6842    0.9227 </r>
       <r>    5.7781    0.6144 </r>
       <r>   10.9674   -0.0000 </r>
       <r>   13.6736    0.0000 </r>
       <r>   17.5462    0.0000 </r>
       <r>   20.2759    0.0000 </r>
       <r>   23.9426    0.0000 </r>
       <r>   26.0877    0.0000 </r>
       <r>   26.8138    0.0000 </r>
       <r>   30.7223    0.0000 </r>
       <r>   31.9820    0.0000 </r>
      </set>
      <set comment="kpoint 15">
       <r>    1.2118    1.0000 </r>
       <r>    1.6154    1.0000 </r>
       <r>    2.6735    1.0000 </r>
       <r>    2.7155    1.0000 </r>
       <r>    3.2496    1.0000 </r>
       <r>    3.4012    1.0000 </r>
       <r>    4.6722    1.0000 </r>
       <r>    4.6833    1.0000 </r>
       <r>    5.0997    1.0000 </r>
       <r>    5.5830    1.0332 </r>
       <r>    6.6675   -0.0000 </r>
       <r>    8.5565   -0.0000 </r>
       <r>   14.9098    0.0000 </r>
       <r>   17.2884    0.0000 </r>
       <r>   19.3300    0.0000 </r>
       <r>   21.6975    0.0000 </r>
       <r>   26.2812    0.0000 </r>
       <r>   27.1068    0.0000 </r>
       <r>   30.6117    0.0000 </r>
       <r>   31.3896    0.0000 </r>
      </set>
      <set comment="kpoint 16">
       <r>    1.2048    1.0000 </r>
       <r>    1.3082    1.0000 </r>
       <r>    2.4764    1.0000 </r>
       <r>    2.5327    1.0000 </r>
       <r>    4.0491    1.0000 </r>
       <r>    4.3798    1.0000 </r>
       <r>    4.8073    1.0000 </r>
       <r>    4.8597    1.0000 </r>
       <r>    4.9501    1.0000 </r>
       <r>    5.4471    1.0148 </r>
       <r>    7.5941   -0.0000 </r>
       <r>    8.6201   -0.0000 </r>
       <r>   13.3451    0.0000 </r>
       <r>   14.5479    0.0000 </r>
       <r>   20.8154    0.0000 </r>
       <r>   22.4188    0.0000 </r>
       <r>   23.9803    0.0000 </r>
       <r>   25.2276    0.0000 </r>
       <r>   31.2910    0.0000 </r>
       <r>   31.9917    0.0000 </r>
      </set>
      <set comment="kpoint 17">
       <r>    1.3762    1.0000 </r>
       <r>    2.4528    1.0000 </r>
       <r>    2.5195    1.0000 </r>
       <r>    2.5195    1.0000 </r>
       <r>    2.6413    1.0000 </r>
       <r>    2.6413    1.0000 </r>
       <r>    4.8362    1.0000 </r>
       <r>    4.8362    1.0000 </r>
       <r>    5.1940    1.0001 </r>
       <r>    5.1940    1.0001 </r>
       <r>    6.7016   -0.0000 </r>
       <r>   12.7485    0.0000 </r>
       <r>   12.7485    0.0000 </r>
       <r>   15.3720    0.0000 </r>
       <r>   20.6644    0.0000 </r>
       <r>   20.6644    0.0000 </r>
       <r>   22.5602    0.0000 </r>
       <r>   28.1257    0.0000 </r>
       <r>   31.6264    0.0000 </r>
       <r>   31.6264    0.0000 </r>
      </set>
      <set comment="kpoint 18">
       <r>    1.8550    1.0000 </r>
       <r>    2.0298    1.0000 </r>
       <r>    2.5051    1.0000 </r>
       <r>    2.5260    1.0000 </r>
       <r>    2.9451    1.0000 </r>
       <r>    3.0918    1.0000 </r>
       <r>    4.8117    1.0000 </r>
       <r>    4.8776    1.0000 </r>
       <r>    5.0046    1.0000 </r>
       <r>    5.2006    1.0001 </r>
       <r>    7.9881   -0.0000 </r>
       <r>   10.0289   -0.0000 </r>
       <r>   15.0281    0.0000 </r>
       <r>   16.3686    0.0000 </r>
       <r>   17.6733    0.0000 </r>
       <r>   18.5380    0.0000 </r>
       <r>   22.9570    0.0000 </r>
       <r>   25.1699    0.0000 </r>
       <r>   33.1067    0.0000 </r>
       <r>   34.9416    0.0000 </r>
      </set>
      <set comment="kpoint 19">
       <r>    1.9227    1.0000 </r>
       <r>    1.9381    1.0000 </r>
       <r>    2.4141    1.0000 </r>
       <r>    2.4799    1.0000 </r>
       <r>    3.3414    1.0000 </r>
       <r>    3.3910    1.0000 </r>
       <r>    4.9241    1.0000 </r>
       <r>    4.9334    1.0000 </r>
       <r>    4.9663    1.0000 </r>
       <r>    5.0631    1.0000 </r>
       <r>    9.4456   -0.0000 </r>
       <r>   10.8087   -0.0000 </r>
       <r>   13.5857    0.0000 </r>
       <r>   15.1384    0.0000 </r>
       <r>   17.3692    0.0000 </r>
       <r>   19.2402    0.0000 </r>
       <r>   20.2911    0.0000 </r>
       <r>   22.1599    0.0000 </r>
       <r>   35.4648    0.0000 </r>
       <r>   36.5416    0.0000 </r>
      </set>
      <set comment="kpoint 20">
       <r>    2.2493    1.0000 </r>
       <r>    2.4748    1.0000 </r>
       <r>    2.4748    1.0000 </r>
       <r>    2.7883    1.0000 </r>
       <r>    2.7883    1.0000 </r>
       <r>    2.8282    1.0000 </r>
       <r>    4.9789    1.0000 </r>
       <r>    4.9789    1.0000 </r>
       <r>    4.9926    1.0000 </r>
       <r>    4.9926    1.0000 </r>
       <r>   11.3877    0.0000 </r>
       <r>   13.3444    0.0000 </r>
       <r>   13.3444    0.0000 </r>
       <r>   15.4945    0.0000 </r>
       <r>   16.1702    0.0000 </r>
       <r>   16.1702    0.0000 </r>
       <r>   17.6771    0.0000 </r>
       <r>   19.1567    0.0000 </r>
       <r>   40.4183    0.0000 </r>
       <r>   40.4183    0.0000 </r>
      </set>
     </set>
     <set comment="spin 2">
      <set comment="kpoint 1">
       <r>   -2.4035    1.0000 </r>
       <r>    2.8251    1.0000 </r>
       <r>    2.8252    1.0000 </r>
       <r>    5.4475    1.0148 </r>
       <r>    5.4476    1.0149 </r>
       <r>    5.4476    1.0149 </r>
       <r>    7.5290   -0.0000 </r>
       <r>    7.5292   -0.0000 </r>
       <r>    8.1517   -0.0000 </r>
       <r>    8.1519   -0.0000 </r>
       <r>    8.1519   -0.0000 </r>
       <r>   16.1206    0.0000 </r>
       <r>   16.1206    0.0000 </r>
       <r>   16.1206    0.0000 </r>
       <r>   22.6402    0.0000 </r>
       <r>   22.6402    0.0000 </r>
       <r>   27.8435    0.0000 </r>
       <r>   30.7098    0.0000 </r>
       <r>   30.7098    0.0000 </r>
       <r>   30.7098    0.0000 </r>
      </set>
      <set comment="kpoint 2">
       <r>   -1.9801    1.0000 </r>
       <r>    2.9631    1.0000 </r>
       <r>    3.0391    1.0000 </r>
       <r>    5.4328    1.0121 </r>
       <r>    5.4330    1.0122 </r>
       <r>    5.5747    1.0346 </r>
       <r>    7.2843   -0.0000 </r>
       <r>    7.6207   -0.0000 </r>
       <r>    7.7218   -0.0000 </r>
       <r>    7.7219   -0.0000 </r>
       <r>    8.0116   -0.0000 </r>
       <r>   14.0869    0.0000 </r>
       <r>   16.9996    0.0000 </r>
       <r>   16.9996    0.0000 </r>
       <r>   22.7273    0.0000 </r>
       <r>   23.8967    0.0000 </r>
       <r>   28.8462    0.0000 </r>
       <r>   29.2796    0.0000 </r>
       <r>   30.3955    0.0000 </r>
       <r>   30.3955    0.0000 </r>
      </set>
      <set comment="kpoint 3">
       <r>   -0.7801    1.0000 </r>
       <r>    3.1130    1.0000 </r>
       <r>    3.6504    1.0000 </r>
       <r>    5.4511    1.0155 </r>
       <r>    5.4512    1.0156 </r>
       <r>    5.9346    0.0603 </r>
       <r>    6.5987   -0.0000 </r>
       <r>    6.8635   -0.0000 </r>
       <r>    6.8636   -0.0000 </r>
       <r>    7.6211   -0.0000 </r>
       <r>    7.8489   -0.0000 </r>
       <r>   11.0127   -0.0000 </r>
       <r>   19.1809    0.0000 </r>
       <r>   19.1809    0.0000 </r>
       <r>   23.0219    0.0000 </r>
       <r>   24.8020    0.0000 </r>
       <r>   26.4288    0.0000 </r>
       <r>   28.4241    0.0000 </r>
       <r>   28.4241    0.0000 </r>
       <r>   30.1978    0.0000 </r>
      </set>
      <set comment="kpoint 4">
       <r>    0.9379    1.0000 </r>
       <r>    2.5243    1.0000 </r>
       <r>    4.5652    1.0000 </r>
       <r>    5.6200    1.0158 </r>
       <r>    5.6375    0.9995 </r>
       <r>    5.6376    0.9993 </r>
       <r>    6.1050   -0.0277 </r>
       <r>    6.1051   -0.0277 </r>
       <r>    6.4647   -0.0000 </r>
       <r>    7.0665   -0.0000 </r>
       <r>    8.1743   -0.0000 </r>
       <r>    8.9574   -0.0000 </r>
       <r>   22.0613    0.0000 </r>
       <r>   22.0613    0.0000 </r>
       <r>   23.6254    0.0000 </r>
       <r>   24.6996    0.0000 </r>
       <r>   25.2801    0.0000 </r>
       <r>   25.2801    0.0000 </r>
       <r>   25.6329    0.0000 </r>
       <r>   27.3519    0.0000 </r>
      </set>
      <set comment="kpoint 5">
       <r>   -1.5706    1.0000 </r>
       <r>    3.1620    1.0000 </r>
       <r>    3.1718    1.0000 </r>
       <r>    5.1872    1.0001 </r>
       <r>    5.3714    1.0044 </r>
       <r>    5.9292    0.0716 </r>
       <r>    7.0908   -0.0000 </r>
       <r>    7.2930   -0.0000 </r>
       <r>    7.3211   -0.0000 </r>
       <r>    7.5529   -0.0000 </r>
       <r>    8.2085   -0.0000 </r>
       <r>   14.2949    0.0000 </r>
       <r>   15.3737    0.0000 </r>
       <r>   17.7454    0.0000 </r>
       <r>   23.3254    0.0000 </r>
       <r>   25.2603    0.0000 </r>
       <r>   27.0277    0.0000 </r>
       <r>   29.5077    0.0000 </r>
       <r>   30.3092    0.0000 </r>
       <r>   30.4710    0.0000 </r>
      </set>
      <set comment="kpoint 6">
       <r>   -0.4197    1.0000 </r>
       <r>    3.2762    1.0000 </r>
       <r>    3.7220    1.0000 </r>
       <r>    5.0346    1.0000 </r>
       <r>    5.2631    1.0004 </r>
       <r>    6.2178   -0.0065 </r>
       <r>    6.4424   -0.0000 </r>
       <r>    6.6596   -0.0000 </r>
       <r>    6.8799   -0.0000 </r>
       <r>    7.7610   -0.0000 </r>
       <r>    8.0565   -0.0000 </r>
       <r>   11.4371    0.0000 </r>
       <r>   16.7693    0.0000 </r>
       <r>   19.7142    0.0000 </r>
       <r>   23.6962    0.0000 </r>
       <r>   24.0931    0.0000 </r>
       <r>   27.0070    0.0000 </r>
       <r>   27.6625    0.0000 </r>
       <r>   28.8471    0.0000 </r>
       <r>   33.3329    0.0000 </r>
      </set>
      <set comment="kpoint 7">
       <r>    1.1937    1.0000 </r>
       <r>    2.6630    1.0000 </r>
       <r>    4.4646    1.0000 </r>
       <r>    5.0665    1.0000 </r>
       <r>    5.1187    1.0000 </r>
       <r>    5.5143    1.0296 </r>
       <r>    6.3692   -0.0002 </r>
       <r>    6.4157   -0.0001 </r>
       <r>    7.0279   -0.0000 </r>
       <r>    7.6083   -0.0000 </r>
       <r>    8.1286   -0.0000 </r>
       <r>    9.1181   -0.0000 </r>
       <r>   18.9455    0.0000 </r>
       <r>   21.3869    0.0000 </r>
       <r>   22.4541    0.0000 </r>
       <r>   24.3581    0.0000 </r>
       <r>   25.6293    0.0000 </r>
       <r>   25.6572    0.0000 </r>
       <r>   28.4959    0.0000 </r>
       <r>   30.6210    0.0000 </r>
      </set>
      <set comment="kpoint 8">
       <r>    0.5415    1.0000 </r>
       <r>    3.2098    1.0000 </r>
       <r>    4.2121    1.0000 </r>
       <r>    4.6351    1.0000 </r>
       <r>    5.1049    1.0000 </r>
       <r>    5.3721    1.0045 </r>
       <r>    6.5460   -0.0000 </r>
       <r>    7.1336   -0.0000 </r>
       <r>    7.1996   -0.0000 </r>
       <r>    7.6468   -0.0000 </r>
       <r>    8.3365   -0.0000 </r>
       <r>   11.3177    0.0000 </r>
       <r>   14.7731    0.0000 </r>
       <r>   20.8197    0.0000 </r>
       <r>   21.2498    0.0000 </r>
       <r>   23.8969    0.0000 </r>
       <r>   26.5700    0.0000 </r>
       <r>   29.8954    0.0000 </r>
       <r>   30.1282    0.0000 </r>
       <r>   30.7424    0.0000 </r>
      </set>
      <set comment="kpoint 9">
       <r>    1.7171    1.0000 </r>
       <r>    2.6493    1.0000 </r>
       <r>    4.5218    1.0000 </r>
       <r>    4.7690    1.0000 </r>
       <r>    4.8795    1.0000 </r>
       <r>    5.1589    1.0000 </r>
       <r>    6.8305   -0.0000 </r>
       <r>    7.0854   -0.0000 </r>
       <r>    7.7586   -0.0000 </r>
       <r>    7.9692   -0.0000 </r>
       <r>    8.2038   -0.0000 </r>
       <r>    9.2726   -0.0000 </r>
       <r>   15.8555    0.0000 </r>
       <r>   18.0198    0.0000 </r>
       <r>   23.6073    0.0000 </r>
       <r>   24.2901    0.0000 </r>
       <r>   25.2111    0.0000 </r>
       <r>   26.5712    0.0000 </r>
       <r>   31.8798    0.0000 </r>
       <r>   33.1908    0.0000 </r>
      </set>
      <set comment="kpoint 10">
       <r>    2.0826    1.0000 </r>
       <r>    2.3585    1.0000 </r>
       <r>    4.2207    1.0000 </r>
       <r>    4.3038    1.0000 </r>
       <r>    5.8707    0.2394 </r>
       <r>    6.0242   -0.0323 </r>
       <r>    7.2185   -0.0000 </r>
       <r>    7.3601   -0.0000 </r>
       <r>    7.7660   -0.0000 </r>
       <r>    8.2713   -0.0000 </r>
       <r>    8.4400   -0.0000 </r>
       <r>    8.5727   -0.0000 </r>
       <r>   14.6370    0.0000 </r>
       <r>   15.5963    0.0000 </r>
       <r>   24.2768    0.0000 </r>
       <r>   24.6117    0.0000 </r>
       <r>   25.4011    0.0000 </r>
       <r>   27.1319    0.0000 </r>
       <r>   29.9502    0.0000 </r>
       <r>   31.4433    0.0000 </r>
      </set>
      <set comment="kpoint 11">
       <r>   -1.1713    1.0000 </r>
       <r>    3.3308    1.0000 </r>
       <r>    3.3310    1.0000 </r>
       <r>    5.1151    1.0000 </r>
       <r>    5.1152    1.0000 </r>
       <r>    6.2781   -0.0021 </r>
       <r>    6.2915   -0.0016 </r>
       <r>    7.4174   -0.0000 </r>
       <r>    7.4175   -0.0000 </r>
       <r>    7.8046   -0.0000 </r>
       <r>    7.8047   -0.0000 </r>
       <r>   15.0468    0.0000 </r>
       <r>   15.0469    0.0000 </r>
       <r>   16.2972    0.0000 </r>
       <r>   25.4875    0.0000 </r>
       <r>   25.4875    0.0000 </r>
       <r>   26.8188    0.0000 </r>
       <r>   26.8188    0.0000 </r>
       <r>   31.0681    0.0000 </r>
       <r>   31.1138    0.0000 </r>
      </set>
      <set comment="kpoint 12">
       <r>   -0.0586    1.0000 </r>
       <r>    3.4994    1.0000 </r>
       <r>    3.7602    1.0000 </r>
       <r>    4.9003    1.0000 </r>
       <r>    4.9426    1.0000 </r>
       <r>    5.4995    1.0263 </r>
       <r>    6.8919   -0.0000 </r>
       <r>    7.0543   -0.0000 </r>
       <r>    7.0757   -0.0000 </r>
       <r>    7.7001   -0.0000 </r>
       <r>    7.8981   -0.0000 </r>
       <r>   11.9621    0.0000 </r>
       <r>   16.7972    0.0000 </r>
       <r>   17.4752    0.0000 </r>
       <r>   23.8384    0.0000 </r>
       <r>   24.9461    0.0000 </r>
       <r>   26.2220    0.0000 </r>
       <r>   27.6315    0.0000 </r>
       <r>   29.7578    0.0000 </r>
       <r>   31.5057    0.0000 </r>
      </set>
      <set comment="kpoint 13">
       <r>    1.4710    1.0000 </r>
       <r>    2.8568    1.0000 </r>
       <r>    4.2973    1.0000 </r>
       <r>    4.7036    1.0000 </r>
       <r>    4.9818    1.0000 </r>
       <r>    5.2244    1.0002 </r>
       <r>    6.6097   -0.0000 </r>
       <r>    6.6593   -0.0000 </r>
       <r>    7.4554   -0.0000 </r>
       <r>    7.7057   -0.0000 </r>
       <r>    8.1708   -0.0000 </r>
       <r>    9.4854   -0.0000 </r>
       <r>   18.9363    0.0000 </r>
       <r>   19.4765    0.0000 </r>
       <r>   21.2545    0.0000 </r>
       <r>   22.0252    0.0000 </r>
       <r>   27.5720    0.0000 </r>
       <r>   28.8276    0.0000 </r>
       <r>   29.5231    0.0000 </r>
       <r>   29.6913    0.0000 </r>
      </set>
      <set comment="kpoint 14">
       <r>    0.8990    1.0000 </r>
       <r>    3.4847    1.0000 </r>
       <r>    4.2016    1.0000 </r>
       <r>    4.5357    1.0000 </r>
       <r>    4.7525    1.0000 </r>
       <r>    4.8277    1.0000 </r>
       <r>    6.9930   -0.0000 </r>
       <r>    7.2994   -0.0000 </r>
       <r>    7.6279   -0.0000 </r>
       <r>    7.6455   -0.0000 </r>
       <r>    7.9589   -0.0000 </r>
       <r>   12.1237    0.0000 </r>
       <r>   14.8160    0.0000 </r>
       <r>   18.3016    0.0000 </r>
       <r>   20.9999    0.0000 </r>
       <r>   24.3460    0.0000 </r>
       <r>   26.8249    0.0000 </r>
       <r>   27.2546    0.0000 </r>
       <r>   31.0285    0.0000 </r>
       <r>   32.5193    0.0000 </r>
      </set>
      <set comment="kpoint 15">
       <r>    2.0427    1.0000 </r>
       <r>    2.9259    1.0000 </r>
       <r>    4.3816    1.0000 </r>
       <r>    4.4066    1.0000 </r>
       <r>    4.8171    1.0000 </r>
       <r>    4.8405    1.0000 </r>
       <r>    7.0130   -0.0000 </r>
       <r>    7.1661   -0.0000 </r>
       <r>    7.7742   -0.0000 </r>
       <r>    7.8976   -0.0000 </r>
       <r>    8.5578   -0.0000 </r>
       <r>   10.0767   -0.0000 </r>
       <r>   15.9798    0.0000 </r>
       <r>   18.1899    0.0000 </r>
       <r>   20.0169    0.0000 </r>
       <r>   22.2641    0.0000 </r>
       <r>   26.8112    0.0000 </r>
       <r>   27.4993    0.0000 </r>
       <r>   31.0712    0.0000 </r>
       <r>   31.6649    0.0000 </r>
      </set>
      <set comment="kpoint 16">
       <r>    2.4026    1.0000 </r>
       <r>    2.6485    1.0000 </r>
       <r>    4.1442    1.0000 </r>
       <r>    4.1998    1.0000 </r>
       <r>    5.3912    1.0063 </r>
       <r>    5.4286    1.0114 </r>
       <r>    7.3278   -0.0000 </r>
       <r>    7.4245   -0.0000 </r>
       <r>    7.7742   -0.0000 </r>
       <r>    7.9000   -0.0000 </r>
       <r>    9.1966   -0.0000 </r>
       <r>    9.9412   -0.0000 </r>
       <r>   14.6492    0.0000 </r>
       <r>   15.6886    0.0000 </r>
       <r>   21.3694    0.0000 </r>
       <r>   22.7951    0.0000 </r>
       <r>   24.6358    0.0000 </r>
       <r>   25.6974    0.0000 </r>
       <r>   31.6552    0.0000 </r>
       <r>   32.2342    0.0000 </r>
      </set>
      <set comment="kpoint 17">
       <r>    1.8247    1.0000 </r>
       <r>    4.0071    1.0000 </r>
       <r>    4.1550    1.0000 </r>
       <r>    4.1551    1.0000 </r>
       <r>    4.3192    1.0000 </r>
       <r>    4.3193    1.0000 </r>
       <r>    7.4978   -0.0000 </r>
       <r>    7.4979   -0.0000 </r>
       <r>    7.5567   -0.0000 </r>
       <r>    7.5569   -0.0000 </r>
       <r>    8.5723   -0.0000 </r>
       <r>   13.8579    0.0000 </r>
       <r>   13.8579    0.0000 </r>
       <r>   16.2784    0.0000 </r>
       <r>   21.2892    0.0000 </r>
       <r>   21.2892    0.0000 </r>
       <r>   23.3169    0.0000 </r>
       <r>   28.6737    0.0000 </r>
       <r>   31.8894    0.0000 </r>
       <r>   31.8894    0.0000 </r>
      </set>
      <set comment="kpoint 18">
       <r>    2.7944    1.0000 </r>
       <r>    3.4008    1.0000 </r>
       <r>    4.1018    1.0000 </r>
       <r>    4.1439    1.0000 </r>
       <r>    4.3476    1.0000 </r>
       <r>    4.5477    1.0000 </r>
       <r>    7.3590   -0.0000 </r>
       <r>    7.4374   -0.0000 </r>
       <r>    7.7387   -0.0000 </r>
       <r>    7.7659   -0.0000 </r>
       <r>    9.6619   -0.0000 </r>
       <r>   11.3830    0.0000 </r>
       <r>   16.0132    0.0000 </r>
       <r>   17.1973    0.0000 </r>
       <r>   18.4902    0.0000 </r>
       <r>   19.2612    0.0000 </r>
       <r>   23.5645    0.0000 </r>
       <r>   25.7183    0.0000 </r>
       <r>   33.2951    0.0000 </r>
       <r>   34.9801    0.0000 </r>
      </set>
      <set comment="kpoint 19">
       <r>    3.2027    1.0000 </r>
       <r>    3.3168    1.0000 </r>
       <r>    3.9940    1.0000 </r>
       <r>    4.0337    1.0000 </r>
       <r>    4.5296    1.0000 </r>
       <r>    4.6817    1.0000 </r>
       <r>    7.5709   -0.0000 </r>
       <r>    7.6132   -0.0000 </r>
       <r>    7.7810   -0.0000 </r>
       <r>    7.7890   -0.0000 </r>
       <r>   10.8355   -0.0000 </r>
       <r>   11.9505    0.0000 </r>
       <r>   14.7351    0.0000 </r>
       <r>   16.1149    0.0000 </r>
       <r>   18.1129    0.0000 </r>
       <r>   19.8706    0.0000 </r>
       <r>   20.9747    0.0000 </r>
       <r>   22.7538    0.0000 </r>
       <r>   35.5908    0.0000 </r>
       <r>   36.5587    0.0000 </r>
      </set>
      <set comment="kpoint 20">
       <r>    3.7100    1.0000 </r>
       <r>    3.9446    1.0000 </r>
       <r>    3.9447    1.0000 </r>
       <r>    4.0048    1.0000 </r>
       <r>    4.1522    1.0000 </r>
       <r>    4.1523    1.0000 </r>
       <r>    7.7809   -0.0000 </r>
       <r>    7.7811   -0.0000 </r>
       <r>    7.7926   -0.0000 </r>
       <r>    7.7928   -0.0000 </r>
       <r>   12.5672    0.0000 </r>
       <r>   14.3307    0.0000 </r>
       <r>   14.3307    0.0000 </r>
       <r>   16.3812    0.0000 </r>
       <r>   16.9937    0.0000 </r>
       <r>   16.9937    0.0000 </r>
       <r>   18.4023    0.0000 </r>
       <r>   19.8274    0.0000 </r>
       <r>   40.4446    0.0000 </r>
       <r>   40.4446    0.0000 </r>
      </set>
     </set>
    </set>
   </array>
  </eigenvalues>
  <separator name="orbital magnetization" >
   <v name="MAGDIPOLOUT">      0.00000000      0.00000000      0.00000000</v>
  </separator>
  <dos>
   <i name="efermi">      5.80538842 </i>
   <total>
    <array>
     <dimension dim="1">gridpoints</dimension>
     <dimension dim="2">spin</dimension>
     <field>energy</field>
     <field>total</field>
     <field>integrated</field>
     <set>
      <set comment="spin 1">
       <r>    -4.7645     0.0000     0.0000 </r>
       <r>    -4.6067     0.0000     0.0000 </r>
       <r>    -4.4488     0.0000     0.0000 </r>
       <r>    -4.2909    -0.0000    -0.0000 </r>
       <r>    -4.1330    -0.0000    -0.0000 </r>
       <r>    -3.9752    -0.0000    -0.0000 </r>
       <r>    -3.8173    -0.0000    -0.0000 </r>
       <r>    -3.6594    -0.0000    -0.0000 </r>
       <r>    -3.5015    -0.0000    -0.0000 </r>
       <r>    -3.3437    -0.0000    -0.0000 </r>
       <r>    -3.1858    -0.0000    -0.0000 </r>
       <r>    -3.0279    -0.0001    -0.0000 </r>
       <r>    -2.8701    -0.0005    -0.0001 </r>
       <r>    -2.7122     0.0029     0.0004 </r>
       <r>    -2.5543     0.0097     0.0019 </r>
       <r>    -2.3964     0.0040     0.0025 </r>
       <r>    -2.2386     0.0358     0.0082 </r>
       <r>    -2.0807     0.0597     0.0176 </r>
       <r>    -1.9228     0.0320     0.0227 </r>
       <r>    -1.7649     0.1159     0.0409 </r>
       <r>    -1.6071     0.0895     0.0551 </r>
       <r>    -1.4492     0.0466     0.0624 </r>
       <r>    -1.2913     0.0817     0.0753 </r>
       <r>    -1.1334     0.0349     0.0808 </r>
       <r>    -0.9756     0.0490     0.0886 </r>
       <r>    -0.8177     0.0693     0.0995 </r>
       <r>    -0.6598     0.2289     0.1357 </r>
       <r>    -0.5020     0.1973     0.1668 </r>
       <r>    -0.3441     0.2061     0.1993 </r>
       <r>    -0.1862     0.2164     0.2335 </r>
       <r>    -0.0283     0.0284     0.2380 </r>
       <r>     0.1295     0.0850     0.2514 </r>
       <r>     0.2874     0.0996     0.2671 </r>
       <r>     0.4453     0.1541     0.2915 </r>
       <r>     0.6032     0.3587     0.3481 </r>
       <r>     0.7610     0.3920     0.4100 </r>
       <r>     0.9189     0.6571     0.5137 </r>
       <r>     1.0768     0.7920     0.6388 </r>
       <r>     1.2346     1.2129     0.8303 </r>
       <r>     1.3925     1.4415     1.0578 </r>
       <r>     1.5504     1.2377     1.2532 </r>
       <r>     1.7083     1.5800     1.5027 </r>
       <r>     1.8661     1.9793     1.8151 </r>
       <r>     2.0240     1.8344     2.1047 </r>
       <r>     2.1819     0.3672     2.1627 </r>
       <r>     2.3398     0.4219     2.2293 </r>
       <r>     2.4976     2.6382     2.6458 </r>
       <r>     2.6555     3.2764     3.1631 </r>
       <r>     2.8134     2.2817     3.5233 </r>
       <r>     2.9713     1.5382     3.7661 </r>
       <r>     3.1291     2.0984     4.0974 </r>
       <r>     3.2870     3.1820     4.5998 </r>
       <r>     3.4449     3.0162     5.0759 </r>
       <r>     3.6027     1.8369     5.3659 </r>
       <r>     3.7606     1.2153     5.5578 </r>
       <r>     3.9185     0.6445     5.6595 </r>
       <r>     4.0764     0.4382     5.7287 </r>
       <r>     4.2342     0.8677     5.8657 </r>
       <r>     4.3921     2.1224     6.2008 </r>
       <r>     4.5500     2.4582     6.5889 </r>
       <r>     4.7079     3.0749     7.0743 </r>
       <r>     4.8657     4.6384     7.8066 </r>
       <r>     5.0236     5.2194     8.6306 </r>
       <r>     5.1815     3.3138     9.1538 </r>
       <r>     5.3394     0.9816     9.3087 </r>
       <r>     5.4972     1.3904     9.5282 </r>
       <r>     5.6551     2.4297     9.9118 </r>
       <r>     5.8130     1.8891    10.2101 </r>
       <r>     5.9708     1.1477    10.3913 </r>
       <r>     6.1287     0.8317    10.5226 </r>
       <r>     6.2866     0.4434    10.5926 </r>
       <r>     6.4445     0.0560    10.6014 </r>
       <r>     6.6023     0.2491    10.6407 </r>
       <r>     6.7602     0.6208    10.7388 </r>
       <r>     6.9181     0.2231    10.7740 </r>
       <r>     7.0760     0.0660    10.7844 </r>
       <r>     7.2338     0.3208    10.8350 </r>
       <r>     7.3917     0.2962    10.8818 </r>
       <r>     7.5496     0.2184    10.9163 </r>
       <r>     7.7074     0.6564    11.0199 </r>
       <r>     7.8653     0.5302    11.1036 </r>
       <r>     8.0232     0.2810    11.1480 </r>
       <r>     8.1811     0.1331    11.1690 </r>
       <r>     8.3389    -0.0345    11.1636 </r>
       <r>     8.4968     0.2977    11.2106 </r>
       <r>     8.6547     0.7896    11.3352 </r>
       <r>     8.8126     0.3176    11.3854 </r>
       <r>     8.9704    -0.0282    11.3809 </r>
       <r>     9.1283    -0.0219    11.3774 </r>
       <r>     9.2862     0.0146    11.3798 </r>
       <r>     9.4441     0.2131    11.4134 </r>
       <r>     9.6019     0.2126    11.4470 </r>
       <r>     9.7598     0.0239    11.4507 </r>
       <r>     9.9177     0.1044    11.4672 </r>
       <r>    10.0755     0.3168    11.5172 </r>
       <r>    10.2334     0.4361    11.5861 </r>
       <r>    10.3913     0.3181    11.6363 </r>
       <r>    10.5492     0.0170    11.6390 </r>
       <r>    10.7070     0.1578    11.6639 </r>
       <r>    10.8649     0.6059    11.7596 </r>
       <r>    11.0228     0.4867    11.8364 </r>
       <r>    11.1807     0.1127    11.8542 </r>
       <r>    11.3385     0.0319    11.8592 </r>
       <r>    11.4964     0.0822    11.8722 </r>
       <r>    11.6543     0.0206    11.8754 </r>
       <r>    11.8122    -0.0042    11.8748 </r>
       <r>    11.9700    -0.0008    11.8746 </r>
       <r>    12.1279    -0.0000    11.8746 </r>
       <r>    12.2858    -0.0007    11.8745 </r>
       <r>    12.4436    -0.0071    11.8734 </r>
       <r>    12.6015     0.0163    11.8760 </r>
       <r>    12.7594     0.1526    11.9001 </r>
       <r>    12.9173     0.1277    11.9202 </r>
       <r>    13.0751    -0.0204    11.9170 </r>
       <r>    13.2330     0.1488    11.9405 </r>
       <r>    13.3909     0.5937    12.0342 </r>
       <r>    13.5488     0.7309    12.1496 </r>
       <r>    13.7066     0.7465    12.2675 </r>
       <r>    13.8645     0.2405    12.3054 </r>
       <r>    14.0224    -0.0322    12.3003 </r>
       <r>    14.1802     0.0823    12.3133 </r>
       <r>    14.3381     0.2241    12.3487 </r>
       <r>    14.4960     0.3028    12.3965 </r>
       <r>    14.6539     0.4688    12.4705 </r>
       <r>    14.8117     0.5689    12.5604 </r>
       <r>    14.9696     0.7731    12.6824 </r>
       <r>    15.1275     0.7027    12.7933 </r>
       <r>    15.2854     0.3058    12.8416 </r>
       <r>    15.4432     0.1377    12.8634 </r>
       <r>    15.6011     0.1518    12.8873 </r>
       <r>    15.7590     0.1673    12.9138 </r>
       <r>    15.9169     0.4885    12.9909 </r>
       <r>    16.0747     0.4396    13.0603 </r>
       <r>    16.2326     0.2274    13.0962 </r>
       <r>    16.3905     0.2972    13.1431 </r>
       <r>    16.5483     0.2474    13.1822 </r>
       <r>    16.7062     0.2901    13.2279 </r>
       <r>    16.8641     0.2655    13.2699 </r>
       <r>    17.0220     0.1477    13.2932 </r>
       <r>    17.1798     0.3988    13.3561 </r>
       <r>    17.3377     0.8729    13.4939 </r>
       <r>    17.4956     0.7484    13.6121 </r>
       <r>    17.6535     0.5328    13.6962 </r>
       <r>    17.8113     0.3345    13.7490 </r>
       <r>    17.9692     0.1759    13.7768 </r>
       <r>    18.1271     0.5022    13.8561 </r>
       <r>    18.2850     0.2507    13.8956 </r>
       <r>    18.4428     0.0569    13.9046 </r>
       <r>    18.6007     0.3595    13.9614 </r>
       <r>    18.7586     0.4540    14.0331 </r>
       <r>    18.9164     0.2011    14.0648 </r>
       <r>    19.0743     0.1201    14.0838 </r>
       <r>    19.2322     0.7083    14.1956 </r>
       <r>    19.3901     0.9059    14.3386 </r>
       <r>    19.5479     0.2641    14.3803 </r>
       <r>    19.7058    -0.0375    14.3744 </r>
       <r>    19.8637    -0.0171    14.3717 </r>
       <r>    20.0216     0.0566    14.3806 </r>
       <r>    20.1794     0.2523    14.4205 </r>
       <r>    20.3373     0.5430    14.5062 </r>
       <r>    20.4952     0.5005    14.5852 </r>
       <r>    20.6530     0.6850    14.6934 </r>
       <r>    20.8109     0.6917    14.8026 </r>
       <r>    20.9688     0.2475    14.8416 </r>
       <r>    21.1267    -0.0215    14.8382 </r>
       <r>    21.2845     0.0716    14.8495 </r>
       <r>    21.4424     0.3595    14.9063 </r>
       <r>    21.6003     0.4192    14.9725 </r>
       <r>    21.7582     0.7149    15.0853 </r>
       <r>    21.9160     0.5291    15.1689 </r>
       <r>    22.0739     0.2044    15.2011 </r>
       <r>    22.2318     0.3012    15.2487 </r>
       <r>    22.3897     0.3832    15.3092 </r>
       <r>    22.5475     0.4078    15.3736 </r>
       <r>    22.7054     0.1016    15.3896 </r>
       <r>    22.8633     0.2979    15.4367 </r>
       <r>    23.0211     0.8450    15.5701 </r>
       <r>    23.1790     0.5225    15.6525 </r>
       <r>    23.3369     0.3755    15.7118 </r>
       <r>    23.4948     0.3551    15.7679 </r>
       <r>    23.6526     0.2672    15.8101 </r>
       <r>    23.8105     0.4373    15.8791 </r>
       <r>    23.9684     0.8921    16.0199 </r>
       <r>    24.1263     0.7204    16.1337 </r>
       <r>    24.2841     0.2071    16.1664 </r>
       <r>    24.4420     0.2843    16.2113 </r>
       <r>    24.5999     0.4908    16.2887 </r>
       <r>    24.7578     0.3786    16.3485 </r>
       <r>    24.9156     0.5015    16.4277 </r>
       <r>    25.0735     0.7884    16.5522 </r>
       <r>    25.2314     0.9189    16.6972 </r>
       <r>    25.3892     0.5515    16.7843 </r>
       <r>    25.5471     0.0785    16.7967 </r>
       <r>    25.7050     0.2118    16.8301 </r>
       <r>    25.8629     0.2384    16.8678 </r>
       <r>    26.0207     0.3687    16.9260 </r>
       <r>    26.1786     0.5437    17.0118 </r>
       <r>    26.3365     0.7413    17.1289 </r>
       <r>    26.4944     0.8558    17.2640 </r>
       <r>    26.6522     0.5566    17.3518 </r>
       <r>    26.8101     0.3545    17.4078 </r>
       <r>    26.9680     0.3942    17.4700 </r>
       <r>    27.1258     0.9203    17.6153 </r>
       <r>    27.2837     0.8331    17.7469 </r>
       <r>    27.4416     0.2751    17.7903 </r>
       <r>    27.5995     0.1618    17.8158 </r>
       <r>    27.7573    -0.0104    17.8142 </r>
       <r>    27.9152     0.1244    17.8338 </r>
       <r>    28.0731     0.4229    17.9006 </r>
       <r>    28.2310     0.3700    17.9590 </r>
       <r>    28.3888     0.5346    18.0434 </r>
       <r>    28.5467     0.3769    18.1029 </r>
       <r>    28.7046     0.0169    18.1056 </r>
       <r>    28.8625     0.0137    18.1077 </r>
       <r>    29.0203     0.1688    18.1344 </r>
       <r>    29.1782     0.7953    18.2600 </r>
       <r>    29.3361     0.8323    18.3914 </r>
       <r>    29.4939     0.3604    18.4482 </r>
       <r>    29.6518     0.1802    18.4767 </r>
       <r>    29.8097     0.1755    18.5044 </r>
       <r>    29.9676     0.1243    18.5240 </r>
       <r>    30.1254     0.2308    18.5605 </r>
       <r>    30.2833     0.4185    18.6265 </r>
       <r>    30.4412     0.4865    18.7033 </r>
       <r>    30.5991     0.6899    18.8123 </r>
       <r>    30.7569     0.7211    18.9261 </r>
       <r>    30.9148     0.3280    18.9779 </r>
       <r>    31.0727     0.0729    18.9894 </r>
       <r>    31.2306     0.1695    19.0162 </r>
       <r>    31.3884     1.0326    19.1792 </r>
       <r>    31.5463     1.0560    19.3459 </r>
       <r>    31.7042     0.2665    19.3880 </r>
       <r>    31.8620     0.1132    19.4059 </r>
       <r>    32.0199     0.4903    19.4833 </r>
       <r>    32.1778     0.3358    19.5363 </r>
       <r>    32.3357    -0.0035    19.5357 </r>
       <r>    32.4935    -0.0270    19.5315 </r>
       <r>    32.6514    -0.0079    19.5302 </r>
       <r>    32.8093     0.3110    19.5793 </r>
       <r>    32.9672     0.5410    19.6647 </r>
       <r>    33.1250     0.3395    19.7183 </r>
       <r>    33.2829     0.1665    19.7446 </r>
       <r>    33.4408     0.0015    19.7448 </r>
       <r>    33.5986    -0.0083    19.7435 </r>
       <r>    33.7565    -0.0006    19.7434 </r>
       <r>    33.9144    -0.0000    19.7434 </r>
       <r>    34.0723    -0.0000    19.7434 </r>
       <r>    34.2301    -0.0000    19.7434 </r>
       <r>    34.3880    -0.0001    19.7434 </r>
       <r>    34.5459    -0.0037    19.7428 </r>
       <r>    34.7038    -0.0118    19.7410 </r>
       <r>    34.8616     0.0997    19.7567 </r>
       <r>    35.0195     0.2705    19.7994 </r>
       <r>    35.1774     0.0907    19.8137 </r>
       <r>    35.3353     0.0283    19.8182 </r>
       <r>    35.4931     0.2439    19.8567 </r>
       <r>    35.6510     0.1762    19.8845 </r>
       <r>    35.8089     0.0005    19.8846 </r>
       <r>    35.9667    -0.0074    19.8834 </r>
       <r>    36.1246    -0.0031    19.8830 </r>
       <r>    36.2825    -0.0127    19.8809 </r>
       <r>    36.4404     0.0715    19.8922 </r>
       <r>    36.5982     0.2672    19.9344 </r>
       <r>    36.7561     0.1337    19.9555 </r>
       <r>    36.9140    -0.0084    19.9542 </r>
       <r>    37.0719    -0.0051    19.9534 </r>
       <r>    37.2297    -0.0003    19.9534 </r>
       <r>    37.3876    -0.0000    19.9534 </r>
       <r>    37.5455    -0.0000    19.9534 </r>
       <r>    37.7034    -0.0000    19.9534 </r>
       <r>    37.8612    -0.0000    19.9534 </r>
       <r>    38.0191     0.0000    19.9534 </r>
       <r>    38.1770     0.0000    19.9534 </r>
       <r>    38.3348     0.0000    19.9534 </r>
       <r>    38.4927     0.0000    19.9534 </r>
       <r>    38.6506     0.0000    19.9534 </r>
       <r>    38.8085    -0.0000    19.9534 </r>
       <r>    38.9663    -0.0000    19.9534 </r>
       <r>    39.1242    -0.0000    19.9534 </r>
[...]
       </set>
       <set comment="band 16">
        <r>  0.0000  0.0666  0.0000  0.0666  0.0000  0.0710  0.0000  0.0710  0.0052 </r>
        <r>  0.0000  0.0666  0.0000  0.0666  0.0000  0.0710  0.0000  0.0710  0.0052 </r>
       </set>
       <set comment="band 17">
        <r>  0.0759  0.0017  0.2697  0.0017  0.0101  0.0065  0.0245  0.0065  0.0000 </r>
        <r>  0.0759  0.0017  0.2697  0.0017  0.0101  0.0065  0.0245  0.0065  0.0000 </r>
       </set>
       <set comment="band 18">
        <r>  0.0273  0.0312  0.1901  0.0312  0.0139  0.0093  0.0013  0.0093  0.0000 </r>
        <r>  0.0273  0.0312  0.1901  0.0312  0.0139  0.0093  0.0013  0.0093  0.0000 </r>
       </set>
       <set comment="band 19">
        <r>  0.0178  0.0000  0.0014  0.0000  0.0002  0.1662  0.0767  0.1662  0.0000 </r>
        <r>  0.0178  0.0000  0.0014  0.0000  0.0002  0.1662  0.0767  0.1662  0.0000 </r>
       </set>
       <set comment="band 20">
        <r>  0.0000  0.0018  0.0000  0.0018  0.0000  0.1884  0.0000  0.1884  0.0014 </r>
        <r>  0.0000  0.0018  0.0000  0.0018  0.0000  0.1884  0.0000  0.1884  0.0014 </r>
       </set>
      </set>
      <set comment="kpoint 17">
       <set comment="band 1">
        <r>  0.1903  0.0395  0.0395  0.0395  0.0242  0.0241  0.0000  0.0241  0.0000 </r>
        <r>  0.1903  0.0395  0.0395  0.0395  0.0242  0.0241  0.0000  0.0241  0.0000 </r>
       </set>
       <set comment="band 2">
        <r>  0.0352  0.0000  0.0000  0.0000  0.1430  0.1429  0.0000  0.1429  0.0000 </r>
        <r>  0.0352  0.0000  0.0000  0.0000  0.1430  0.1429  0.0000  0.1429  0.0000 </r>
       </set>
       <set comment="band 3">
        <r>  0.0000  0.0168  0.0567  0.0117  0.0849  0.0176  0.2136  0.0253  0.0006 </r>
        <r>  0.0000  0.0168  0.0567  0.0117  0.0849  0.0176  0.2136  0.0253  0.0006 </r>
       </set>
       <set comment="band 4">
        <r>  0.0000  0.0400  0.0002  0.0451  0.0002  0.0676  0.0006  0.0600  0.2136 </r>
        <r>  0.0000  0.0400  0.0002  0.0451  0.0002  0.0676  0.0006  0.0600  0.2136 </r>
       </set>
       <set comment="band 5">
        <r>  0.0000  0.0028  0.0121  0.0032  0.2777  0.0737  0.0330  0.0652  0.0000 </r>
        <r>  0.0000  0.0028  0.0121  0.0032  0.2777  0.0737  0.0330  0.0652  0.0000 </r>
       </set>
       <set comment="band 6">
        <r>  0.0000  0.0092  0.0000  0.0089  0.0001  0.2041  0.0000  0.2126  0.0330 </r>
        <r>  0.0000  0.0092  0.0000  0.0089  0.0001  0.2041  0.0000  0.2126  0.0330 </r>
       </set>
       <set comment="band 7">
        <r>  0.0000  0.0013  0.0048  0.0011  0.1838  0.0406  0.2043  0.0516  0.0002 </r>
        <r>  0.0000  0.0013  0.0048  0.0011  0.1838  0.0406  0.2043  0.0516  0.0002 </r>
       </set>
       <set comment="band 8">
        <r>  0.0000  0.0034  0.0000  0.0037  0.0002  0.1434  0.0002  0.1324  0.2043 </r>
        <r>  0.0000  0.0034  0.0000  0.0037  0.0002  0.1434  0.0002  0.1324  0.2043 </r>
       </set>
       <set comment="band 9">
        <r>  0.0000  0.0000  0.0000  0.0000  0.0274  0.0051  0.4439  0.0089  0.0029 </r>
        <r>  0.0000  0.0000  0.0000  0.0000  0.0274  0.0051  0.4439  0.0089  0.0029 </r>
       </set>
       <set comment="band 10">
        <r>  0.0000  0.0000  0.0000  0.0000  0.0002  0.0225  0.0029  0.0187  0.4439 </r>
        <r>  0.0000  0.0000  0.0000  0.0000  0.0002  0.0225  0.0029  0.0187  0.4439 </r>
       </set>
       <set comment="band 11">
        <r>  0.0139  0.0131  0.0131  0.0131  0.1421  0.1421  0.0000  0.1421  0.0000 </r>
        <r>  0.0139  0.0131  0.0131  0.0131  0.1421  0.1421  0.0000  0.1421  0.0000 </r>
       </set>
       <set comment="band 12">
        <r>  0.0000  0.0420  0.1362  0.0270  0.0853  0.0169  0.1000  0.0263  0.0004 </r>
        <r>  0.0000  0.0420  0.1362  0.0270  0.0853  0.0169  0.1000  0.0263  0.0004 </r>
       </set>
       <set comment="band 13">
        <r>  0.0000  0.0948  0.0006  0.1098  0.0003  0.0688  0.0004  0.0594  0.1000 </r>
        <r>  0.0000  0.0948  0.0006  0.1098  0.0003  0.0688  0.0004  0.0594  0.1000 </r>
       </set>
       <set comment="band 14">
        <r>  0.2715  0.0047  0.0047  0.0047  0.0443  0.0443  0.0000  0.0443  0.0000 </r>
        <r>  0.2715  0.0047  0.0047  0.0047  0.0443  0.0443  0.0000  0.0443  0.0000 </r>
       </set>
       <set comment="band 15">
        <r>  0.0000  0.0327  0.0926  0.0152  0.1229  0.0202  0.0470  0.0434  0.0006 </r>
        <r>  0.0000  0.0327  0.0926  0.0152  0.1229  0.0202  0.0470  0.0434  0.0006 </r>
       </set>
       <set comment="band 16">
        <r>  0.0000  0.0610  0.0011  0.0784  0.0015  0.1042  0.0006  0.0810  0.0470 </r>
        <r>  0.0000  0.0610  0.0011  0.0784  0.0015  0.1042  0.0006  0.0810  0.0470 </r>
       </set>
       <set comment="band 17">
        <r>  0.1784  0.0679  0.0679  0.0679  0.0122  0.0122  0.0000  0.0122  0.0000 </r>
        <r>  0.1784  0.0679  0.0679  0.0679  0.0122  0.0122  0.0000  0.0122  0.0000 </r>
       </set>
       <set comment="band 18">
        <r>  0.0143  0.0744  0.0744  0.0744  0.0405  0.0405  0.0000  0.0405  0.0000 </r>
        <r>  0.0143  0.0744  0.0744  0.0744  0.0405  0.0405  0.0000  0.0405  0.0000 </r>
       </set>
       <set comment="band 19">
        <r>  0.0000  0.0249  0.0010  0.0158  0.0008  0.0116  0.0079  0.0182  0.2068 </r>
        <r>  0.0000  0.0249  0.0010  0.0158  0.0008  0.0116  0.0079  0.0182  0.2068 </r>
       </set>
       <set comment="band 20">
        <r>  0.0000  0.0029  0.0268  0.0120  0.0196  0.0088  0.2068  0.0021  0.0079 </r>
        <r>  0.0000  0.0029  0.0268  0.0120  0.0196  0.0088  0.2068  0.0021  0.0079 </r>
       </set>
      </set>
      <set comment="kpoint 18">
       <set comment="band 1">
        <r>  0.1145  0.0291  0.0291  0.0416  0.0863  0.0000  0.0047  0.0863  0.0141 </r>
        <r>  0.1145  0.0291  0.0291  0.0416  0.0863  0.0000  0.0047  0.0863  0.0141 </r>
       </set>
       <set comment="band 2">
        <r>  0.0531  0.0100  0.0100  0.0182  0.1428  0.0274  0.0092  0.1428  0.0276 </r>
        <r>  0.0531  0.0100  0.0100  0.0182  0.1428  0.0274  0.0092  0.1428  0.0276 </r>
       </set>
       <set comment="band 3">
        <r>  0.0000  0.0323  0.0323  0.0000  0.1231  0.0000  0.0976  0.1231  0.0325 </r>
        <r>  0.0000  0.0323  0.0323  0.0000  0.1231  0.0000  0.0976  0.1231  0.0325 </r>
       </set>
       <set comment="band 4">
        <r>  0.0000  0.0197  0.0197  0.0000  0.1725  0.0000  0.0529  0.1725  0.0176 </r>
        <r>  0.0000  0.0197  0.0197  0.0000  0.1725  0.0000  0.0529  0.1725  0.0176 </r>
       </set>
       <set comment="band 5">
        <r>  0.0063  0.0020  0.0020  0.0480  0.0375  0.3235  0.0002  0.0375  0.0005 </r>
        <r>  0.0063  0.0020  0.0020  0.0480  0.0375  0.3235  0.0002  0.0375  0.0005 </r>
       </set>
       <set comment="band 6">
        <r>  0.0016  0.0108  0.0108  0.0734  0.0049  0.2738  0.0148  0.0049  0.0443 </r>
        <r>  0.0016  0.0108  0.0108  0.0734  0.0049  0.2738  0.0148  0.0049  0.0443 </r>
       </set>
       <set comment="band 7">
        <r>  0.0000  0.0010  0.0010  0.0000  0.0830  0.0000  0.2392  0.0830  0.0797 </r>
        <r>  0.0000  0.0010  0.0010  0.0000  0.0830  0.0000  0.2392  0.0830  0.0797 </r>
       </set>
       <set comment="band 8">
        <r>  0.0000  0.0001  0.0001  0.0000  0.0447  0.0000  0.2984  0.0447  0.0994 </r>
        <r>  0.0000  0.0001  0.0001  0.0000  0.0447  0.0000  0.2984  0.0447  0.0994 </r>
       </set>
       <set comment="band 9">
        <r>  0.0023  0.0002  0.0002  0.0019  0.0338  0.0828  0.0840  0.0339  0.2523 </r>
        <r>  0.0023  0.0002  0.0002  0.0019  0.0338  0.0828  0.0840  0.0339  0.2523 </r>
       </set>
       <set comment="band 10">
        <r>  0.0013  0.0000  0.0000  0.0001  0.0180  0.0018  0.1132  0.0180  0.3399 </r>
        <r>  0.0013  0.0000  0.0000  0.0001  0.0180  0.0018  0.1132  0.0180  0.3399 </r>
       </set>
       <set comment="band 11">
        <r>  0.0257  0.0163  0.0163  0.0355  0.0999  0.1550  0.0047  0.0999  0.0141 </r>
        <r>  0.0257  0.0163  0.0163  0.0355  0.0999  0.1550  0.0047  0.0999  0.0141 </r>
       </set>
       <set comment="band 12">
        <r>  0.0292  0.0223  0.0223  0.0881  0.0588  0.0988  0.0172  0.0588  0.0516 </r>
        <r>  0.0292  0.0223  0.0223  0.0881  0.0588  0.0988  0.0172  0.0588  0.0516 </r>
       </set>
       <set comment="band 13">
        <r>  0.0000  0.0952  0.0952  0.0000  0.0794  0.0000  0.0566  0.0794  0.0189 </r>
        <r>  0.0000  0.0952  0.0952  0.0000  0.0794  0.0000  0.0566  0.0794  0.0189 </r>
       </set>
       <set comment="band 14">
        <r>  0.2313  0.0113  0.0113  0.0294  0.0379  0.0481  0.0002  0.0379  0.0006 </r>
        <r>  0.2313  0.0113  0.0113  0.0294  0.0379  0.0481  0.0002  0.0379  0.0006 </r>
       </set>
       <set comment="band 15">
        <r>  0.0000  0.0845  0.0845  0.0000  0.0893  0.0000  0.0444  0.0893  0.0148 </r>
        <r>  0.0000  0.0845  0.0845  0.0000  0.0893  0.0000  0.0444  0.0893  0.0148 </r>
       </set>
       <set comment="band 16">
        <r>  0.1479  0.0057  0.0057  0.1011  0.0425  0.0440  0.0009  0.0425  0.0027 </r>
        <r>  0.1479  0.0057  0.0057  0.1011  0.0425  0.0440  0.0009  0.0425  0.0027 </r>
       </set>
       <set comment="band 17">
        <r>  0.0821  0.0918  0.0918  0.0108  0.0093  0.0728  0.0024  0.0093  0.0073 </r>
        <r>  0.0821  0.0918  0.0918  0.0108  0.0093  0.0728  0.0024  0.0093  0.0073 </r>
       </set>
       <set comment="band 18">
        <r>  0.0390  0.0845  0.0845  0.0404  0.0280  0.0565  0.0002  0.0280  0.0007 </r>
        <r>  0.0390  0.0845  0.0845  0.0404  0.0280  0.0565  0.0002  0.0280  0.0007 </r>
       </set>
       <set comment="band 19">
        <r>  0.0000  0.0166  0.0166  0.0000  0.0331  0.0000  0.1174  0.0331  0.0391 </r>
        <r>  0.0000  0.0166  0.0166  0.0000  0.0331  0.0000  0.1174  0.0331  0.0391 </r>
       </set>
       <set comment="band 20">
        <r>  0.0000  0.0070  0.0070  0.0000  0.0427  0.0000  0.0530  0.0427  0.0177 </r>
        <r>  0.0000  0.0070  0.0070  0.0000  0.0427  0.0000  0.0530  0.0427  0.0177 </r>
       </set>
      </set>
      <set comment="kpoint 19">
       <set comment="band 1">
        <r>  0.0574  0.0088  0.0448  0.0088  0.2637  0.0024  0.0422  0.0024  0.0000 </r>
        <r>  0.0574  0.0088  0.0448  0.0088  0.2637  0.0024  0.0422  0.0024  0.0000 </r>
       </set>
       <set comment="band 2">
        <r>  0.0392  0.0001  0.0345  0.0001  0.2792  0.0216  0.0478  0.0216  0.0000 </r>
        <r>  0.0392  0.0001  0.0345  0.0001  0.2792  0.0216  0.0478  0.0216  0.0000 </r>
       </set>
       <set comment="band 3">
        <r>  0.0000  0.0122  0.0000  0.0122  0.0000  0.2187  0.0000  0.2187  0.0045 </r>
        <r>  0.0000  0.0122  0.0000  0.0122  0.0000  0.2187  0.0000  0.2187  0.0045 </r>
       </set>
       <set comment="band 4">
        <r>  0.0000  0.0133  0.0119  0.0133  0.0138  0.1922  0.0232  0.1922  0.0000 </r>
        <r>  0.0000  0.0133  0.0119  0.0133  0.0138  0.1922  0.0232  0.1922  0.0000 </r>
       </set>
       <set comment="band 5">
        <r>  0.0096  0.0635  0.0003  0.0635  0.0373  0.1219  0.0108  0.1219  0.0000 </r>
        <r>  0.0096  0.0635  0.0003  0.0635  0.0373  0.1219  0.0108  0.1219  0.0000 </r>
       </set>
       <set comment="band 6">
        <r>  0.0000  0.0715  0.0000  0.0715  0.0000  0.1220  0.0000  0.1220  0.0374 </r>
        <r>  0.0000  0.0715  0.0000  0.0715  0.0000  0.1220  0.0000  0.1220  0.0374 </r>
       </set>
       <set comment="band 7">
        <r>  0.0010  0.0000  0.0003  0.0000  0.0862  0.0051  0.3923  0.0051  0.0000 </r>
        <r>  0.0010  0.0000  0.0003  0.0000  0.0862  0.0051  0.3923  0.0051  0.0000 </r>
       </set>
       <set comment="band 8">
        <r>  0.0007  0.0000  0.0001  0.0000  0.0689  0.0012  0.4188  0.0012  0.0000 </r>
        <r>  0.0007  0.0000  0.0001  0.0000  0.0689  0.0012  0.4188  0.0012  0.0000 </r>
       </set>
       <set comment="band 9">
        <r>  0.0000  0.0005  0.0000  0.0005  0.0000  0.0282  0.0000  0.0282  0.4353 </r>
        <r>  0.0000  0.0005  0.0000  0.0005  0.0000  0.0282  0.0000  0.0282  0.4353 </r>
       </set>
       <set comment="band 10">
        <r>  0.0000  0.0000  0.0000  0.0000  0.0000  0.0030  0.0000  0.0030  0.4869 </r>
        <r>  0.0000  0.0000  0.0000  0.0000  0.0000  0.0030  0.0000  0.0030  0.4869 </r>
       </set>
       <set comment="band 11">
        <r>  0.0262  0.0494  0.0100  0.0494  0.0544  0.1290  0.0022  0.1290  0.0000 </r>
        <r>  0.0262  0.0494  0.0100  0.0494  0.0544  0.1290  0.0022  0.1290  0.0000 </r>
       </set>
       <set comment="band 12">
        <r>  0.0000  0.0860  0.0000  0.0860  0.0000  0.1172  0.0000  0.1172  0.0241 </r>
        <r>  0.0000  0.0860  0.0000  0.0860  0.0000  0.1172  0.0000  0.1172  0.0241 </r>
       </set>
       <set comment="band 13">
        <r>  0.1396  0.0067  0.0545  0.0067  0.1938  0.0005  0.0376  0.0005  0.0000 </r>
        <r>  0.1396  0.0067  0.0545  0.0067  0.1938  0.0005  0.0376  0.0005  0.0000 </r>
       </set>
       <set comment="band 14">
        <r>  0.1124  0.0326  0.0367  0.0326  0.1583  0.0111  0.0294  0.0111  0.0000 </r>
        <r>  0.1124  0.0326  0.0367  0.0326  0.1583  0.0111  0.0294  0.0111  0.0000 </r>
       </set>
       <set comment="band 15">
        <r>  0.1238  0.0313  0.0628  0.0313  0.0005  0.0662  0.0112  0.0662  0.0000 </r>
        <r>  0.1238  0.0313  0.0628  0.0313  0.0005  0.0662  0.0112  0.0662  0.0000 </r>
       </set>
       <set comment="band 16">
        <r>  0.0000  0.0783  0.0000  0.0783  0.0000  0.1035  0.0000  0.1035  0.0058 </r>
        <r>  0.0000  0.0783  0.0000  0.0783  0.0000  0.1035  0.0000  0.1035  0.0058 </r>
       </set>
       <set comment="band 17">
        <r>  0.1807  0.0034  0.1700  0.0034  0.0188  0.0043  0.0125  0.0043  0.0000 </r>
        <r>  0.1807  0.0034  0.1700  0.0034  0.0188  0.0043  0.0125  0.0043  0.0000 </r>
       </set>
       <set comment="band 18">
        <r>  0.0763  0.0438  0.1047  0.0438  0.0255  0.0390  0.0028  0.0390  0.0000 </r>
        <r>  0.0763  0.0438  0.1047  0.0438  0.0255  0.0390  0.0028  0.0390  0.0000 </r>
       </set>
       <set comment="band 19">
        <r>  0.0028  0.0001  0.0140  0.0001  0.0047  0.0713  0.0766  0.0713  0.0000 </r>
        <r>  0.0028  0.0001  0.0140  0.0001  0.0047  0.0713  0.0766  0.0713  0.0000 </r>
       </set>
       <set comment="band 20">
        <r>  0.0000  0.0001  0.0000  0.0001  0.0000  0.0911  0.0000  0.0911  0.0029 </r>
        <r>  0.0000  0.0001  0.0000  0.0001  0.0000  0.0911  0.0000  0.0911  0.0029 </r>
       </set>
      </set>
      <set comment="kpoint 20">
       <set comment="band 1">
        <r>  0.0121  0.0119  0.0119  0.0119  0.1367  0.1366  0.0000  0.1366  0.0000 </r>
        <r>  0.0121  0.0119  0.0119  0.0119  0.1367  0.1366  0.0000  0.1366  0.0000 </r>
       </set>
       <set comment="band 2">
        <r>  0.0000  0.0082  0.0362  0.0098  0.2608  0.0709  0.0094  0.0594  0.0000 </r>
        <r>  0.0000  0.0082  0.0362  0.0098  0.2608  0.0709  0.0094  0.0594  0.0000 </r>
       </set>
       <set comment="band 3">
        <r>  0.0000  0.0279  0.0000  0.0263  0.0002  0.1897  0.0000  0.2012  0.0094 </r>
        <r>  0.0000  0.0279  0.0000  0.0263  0.0002  0.1897  0.0000  0.2012  0.0094 </r>
       </set>
       <set comment="band 4">
        <r>  0.0233  0.0382  0.0381  0.0382  0.0968  0.0971  0.0000  0.0972  0.0000 </r>
        <r>  0.0233  0.0382  0.0381  0.0382  0.0968  0.0971  0.0000  0.0972  0.0000 </r>
       </set>
       <set comment="band 5">
        <r>  0.0000  0.0147  0.0628  0.0168  0.2192  0.0586  0.0180  0.0512  0.0000 </r>
        <r>  0.0000  0.0147  0.0628  0.0168  0.2192  0.0586  0.0180  0.0512  0.0000 </r>
       </set>
       <set comment="band 6">
        <r>  0.0000  0.0482  0.0000  0.0460  0.0001  0.1607  0.0000  0.1681  0.0180 </r>
        <r>  0.0000  0.0482  0.0000  0.0460  0.0001  0.1607  0.0000  0.1681  0.0180 </r>
       </set>
       <set comment="band 7">
        <r>  0.0000  0.0000  0.0001  0.0000  0.0171  0.0031  0.4638  0.0056  0.0032 </r>
        <r>  0.0000  0.0000  0.0001  0.0000  0.0171  0.0031  0.4638  0.0056  0.0032 </r>
       </set>
       <set comment="band 8">
        <r>  0.0000  0.0001  0.0000  0.0001  0.0001  0.0141  0.0032  0.0116  0.4638 </r>
        <r>  0.0000  0.0001  0.0000  0.0001  0.0001  0.0141  0.0032  0.0116  0.4638 </r>
       </set>
       <set comment="band 9">
        <r>  0.0000  0.0000  0.0000  0.0000  0.0085  0.0015  0.4768  0.0028  0.0035 </r>
        <r>  0.0000  0.0000  0.0000  0.0000  0.0085  0.0015  0.4768  0.0028  0.0035 </r>
       </set>
       <set comment="band 10">
        <r>  0.0000  0.0000  0.0000  0.0000  0.0001  0.0070  0.0035  0.0058  0.4768 </r>
        <r>  0.0000  0.0000  0.0000  0.0000  0.0001  0.0070  0.0035  0.0058  0.4768 </r>
       </set>
       <set comment="band 11">
        <r>  0.0369  0.0442  0.0442  0.0442  0.0884  0.0884  0.0000  0.0884  0.0000 </r>
        <r>  0.0369  0.0442  0.0442  0.0442  0.0884  0.0884  0.0000  0.0884  0.0000 </r>
       </set>
       <set comment="band 12">
        <r>  0.0000  0.0276  0.1225  0.0337  0.1478  0.0407  0.0125  0.0334  0.0000 </r>
        <r>  0.0000  0.0276  0.1225  0.0337  0.1478  0.0407  0.0125  0.0334  0.0000 </r>
       </set>
       <set comment="band 13">
        <r>  0.0000  0.0949  0.0001  0.0888  0.0001  0.1072  0.0000  0.1145  0.0125 </r>
        <r>  0.0000  0.0949  0.0001  0.0888  0.0001  0.1072  0.0000  0.1145  0.0125 </r>
       </set>
       <set comment="band 14">
        <r>  0.2488  0.0102  0.0102  0.0102  0.0451  0.0451  0.0000  0.0451  0.0000 </r>
        <r>  0.2488  0.0102  0.0102  0.0102  0.0451  0.0451  0.0000  0.0451  0.0000 </r>
       </set>
       <set comment="band 15">
        <r>  0.0000  0.0250  0.1177  0.0342  0.1451  0.0422  0.0078  0.0308  0.0000 </r>
        <r>  0.0000  0.0250  0.1177  0.0342  0.1451  0.0422  0.0078  0.0308  0.0000 </r>
       </set>
       <set comment="band 16">
        <r>  0.0000  0.0930  0.0002  0.0837  0.0003  0.1032  0.0000  0.1146  0.0078 </r>
        <r>  0.0000  0.0930  0.0002  0.0837  0.0003  0.1032  0.0000  0.1146  0.0078 </r>
       </set>
       <set comment="band 17">
        <r>  0.3414  0.0199  0.0199  0.0199  0.0003  0.0003  0.0000  0.0003  0.0000 </r>
        <r>  0.3414  0.0199  0.0199  0.0199  0.0003  0.0003  0.0000  0.0003  0.0000 </r>
       </set>
       <set comment="band 18">
        <r>  0.1384  0.0507  0.0507  0.0507  0.0335  0.0335  0.0000  0.0335  0.0000 </r>
        <r>  0.1384  0.0507  0.0507  0.0507  0.0335  0.0335  0.0000  0.0335  0.0000 </r>
       </set>
       <set comment="band 19">
        <r>  0.0000  0.0076  0.0001  0.0058  0.0005  0.0234  0.0008  0.0304  0.0600 </r>
        <r>  0.0000  0.0076  0.0001  0.0058  0.0005  0.0234  0.0008  0.0304  0.0600 </r>
       </set>
       <set comment="band 20">
        <r>  0.0000  0.0014  0.0089  0.0032  0.0357  0.0128  0.0600  0.0058  0.0008 </r>
        <r>  0.0000  0.0014  0.0089  0.0032  0.0357  0.0128  0.0600  0.0058  0.0008 </r>
       </set>
      </set>
     </set>
    </set>
   </array>
  </projected>
 </calculation>
 <structure name="finalpos" >
  <crystal>
   <varray name="basis" >
    <v>       2.82815103      -0.00000000       0.00000000 </v>
    <v>       0.00000000       2.82815103       0.00000000 </v>
    <v>      -0.00000000       0.00000000       2.82815103 </v>
   </varray>
   <i name="volume">     22.62079128 </i>
   <varray name="rec_basis" >
    <v>       0.35358791      -0.00000000       0.00000000 </v>
    <v>       0.00000000       0.35358791      -0.00000000 </v>
    <v>      -0.00000000      -0.00000000       0.35358791 </v>
   </varray>
  </crystal>
  <varray name="positions" >
   <v>       0.00000000      -0.00000000       0.00000000 </v>
   <v>       0.50000000       0.50000000       0.50000000 </v>
  </varray>
 </structure>
</modeling>
