    1    1  100    1
  0.1386300E+02  0.2621157E-09  0.2621157E-09  0.2621157E-09  0.5000000E-15
  1.000000000000000E-004
  CAR 
 unknown system                          
      4    120      8
 
  0.0000000E+00  0.0000000E+00  0.0000000E+00  0.2962963E-03
    1       -4.316947   1.000000
    2       21.283124   0.000000
    3       21.283124   0.000000
    4       21.283124   0.000000
    5       22.435822   0.000000
    6       22.435822   0.000000
    7       22.435822   0.000000
    8       26.127271   0.000000
 
  0.6666667E-01  0.0000000E+00  0.0000000E+00  0.3555556E-02
    1       -4.180897   1.000000
    2       19.675975   0.000000
    3       20.152371   0.000000
    4       21.091509   0.000000
    5       21.989476   0.000000
    6       23.198309   0.000000
    7       23.794241   0.000000
    8       25.220266   0.000000
 
  0.1333333E+00  0.0000000E+00  0.0000000E+00  0.3555556E-02
    1       -3.773279   1.000000
    2       17.064967   0.000000
    3       18.815409   0.000000
    4       20.573069   0.000000
    5       21.012966   0.000000
    6       22.967176   0.000000
    7       25.140159   0.000000
    8       25.810045   0.000000
 
  0.2000000E+00  0.0000000E+00  0.0000000E+00  0.3555556E-02
    1       -3.095723   1.000000
    2       14.245715   0.000000
    3       17.680130   0.000000
    4       19.888024   0.000000
    5       19.958128   0.000000
    6       22.019628   0.000000
    7       26.005970   0.000000
    8       26.190263   0.000000
 
  0.2666667E+00  0.0000000E+00  0.0000000E+00  0.3555556E-02
    1       -2.150936   1.000000
    2       11.473073   0.000000
    3       16.768510   0.000000
    4       19.025810   0.000000
    5       19.206596   0.000000
    6       21.159230   0.000000
    7       26.815414   0.000000
    8       27.079751   0.000000
 
  0.3333333E+00  0.0000000E+00  0.0000000E+00  0.3555556E-02
    1       -0.942841   1.000000
    2        8.851830   1.000000
    3       16.084386   0.000000
    4       18.293569   0.000000
    5       18.637392   0.000000
    6       20.483132   0.000000
    7       27.717307   0.000000
    8       28.289600   0.000000
 
  0.4000000E+00  0.0000000E+00  0.0000000E+00  0.3555556E-02
    1        0.522831   1.000000
    2        6.429592   1.000000
    3       15.628452   0.000000
    4       17.793916   0.000000
    5       18.236558   0.000000
    6       20.019344   0.000000
    7       28.821413   0.000000
    8       29.557451   0.000000
 
  0.4666667E+00  0.0000000E+00  0.0000000E+00  0.3555556E-02
    1        2.230861   1.000000
    2        4.239767   1.000000
    3       15.400577   0.000000
    4       17.541249   0.000000
    5       18.030784   0.000000
    6       19.783630   0.000000
    7       29.897776   0.000000
    8       30.577854   0.000000
 
  0.6666667E-01  0.6666667E-01  0.0000000E+00  0.7111111E-02
    1       -3.909074   1.000000
    2       18.181418   0.000000
    3       18.727421   0.000000
    4       20.076375   0.000000
    5       22.145514   0.000000
    6       23.500820   0.000000
    7       24.457135   0.000000
    8       24.995958   0.000000
 
  0.1333333E+00  0.6666667E-01 -0.6938894E-17  0.1422222E-01
    1       -3.366484   1.000000
    2       15.710980   0.000000
    3       17.272880   0.000000
    4       19.107740   0.000000
    5       21.667101   0.000000
    6       23.057303   0.000000
    7       24.767864   0.000000
    8       26.389128   0.000000
 
  0.2000000E+00  0.6666667E-01 -0.6938894E-17  0.1422222E-01
    1       -2.555295   1.000000
    2       12.928532   0.000000
    3       16.208640   0.000000
    4       18.193488   0.000000
    5       20.935722   0.000000
    6       22.395370   0.000000
    7       25.324257   0.000000
    8       27.647448   0.000000
 
  0.2666667E+00  0.6666667E-01  0.6938894E-17  0.1422222E-01
    1       -1.478792   1.000000
    2       10.231533   0.000000
    3       15.383749   0.000000
    4       17.424684   0.000000
    5       20.233068   0.000000
    6       21.806947   0.000000
    7       26.119710   0.000000
    8       28.795044   0.000000
 
  0.3333333E+00  0.6666667E-01 -0.2081668E-16  0.1422222E-01
    1       -0.141635   1.000000
    2        7.708883   1.000000
    3       14.792739   0.000000
    4       16.854268   0.000000
    5       19.688318   0.000000
    6       21.339526   0.000000
    7       27.181141   0.000000
    8       29.905900   0.000000
 
  0.4000000E+00  0.6666667E-01  0.6938894E-17  0.1422222E-01
    1        1.448363   1.000000
    2        5.399342   1.000000
    3       14.437189   0.000000
    4       16.505547   0.000000
    5       19.349436   0.000000
    6       21.041647   0.000000
    7       28.443581   0.000000
    8       30.516379   0.000000
 
  0.4666667E+00  0.6666667E-01  0.6938894E-17  0.7111111E-02
    1        3.102268   1.000000
    2        3.504433   1.000000
    3       14.318513   0.000000
    4       16.388392   0.000000
    5       19.234818   0.000000
    6       20.939707   0.000000
    7       29.592694   0.000000
    8       29.949883   0.000000
 
  0.1333333E+00  0.1333333E+00  0.0000000E+00  0.7111111E-02
    1       -2.690251   1.000000
    2       14.348689   0.000000
    3       14.814767   0.000000
    4       18.050160   0.000000
    5       21.876583   0.000000
    6       22.976119   0.000000
    7       25.452233   0.000000
    8       26.755213   0.000000
 
  0.2000000E+00  0.1333333E+00  0.1387779E-16  0.1422222E-01
    1       -1.747288   1.000000
    2       11.820256   0.000000
    3       13.643377   0.000000
    4       17.187077   0.000000
    5       21.526360   0.000000
    6       23.028669   0.000000
    7       25.758632   0.000000
    8       28.183916   0.000000
 
  0.2666667E+00  0.1333333E+00  0.0000000E+00  0.1422222E-01
    1       -0.541497   1.000000
    2        9.224835   1.000000
    3       12.900580   0.000000
    4       16.513545   0.000000
    5       20.972826   0.000000
    6       23.260958   0.000000
    7       26.018451   0.000000
    8       29.777338   0.000000
 
  0.3333333E+00  0.1333333E+00  0.0000000E+00  0.1422222E-01
    1        0.921417   1.000000
    2        6.812982   1.000000
    3       12.407541   0.000000
    4       16.054273   0.000000
    5       20.548532   0.000000
    6       23.305174   0.000000
    7       26.808103   0.000000
    8       30.317451   0.000000
 
  0.4000000E+00  0.1333333E+00  0.0000000E+00  0.1422222E-01
    1        2.626642   1.000000
    2        4.628682   1.000000
    3       12.160772   0.000000
    4       15.822063   0.000000
    5       20.327036   0.000000
    6       23.265108   0.000000
    7       27.992656   0.000000
    8       29.426793   0.000000
 
  0.2000000E+00  0.2000000E+00  0.0000000E+00  0.7111111E-02
    1       -0.674973   1.000000
    2       10.798586   0.000000
    3       11.150847   0.000000
    4       16.418287   0.000000
    5       22.042412   0.000000
    6       22.930234   0.000000
    7       27.324156   0.000000
    8       28.252123   0.000000
 
  0.2666667E+00  0.2000000E+00  0.1387779E-16  0.1422222E-01
    1        0.656987   1.000000
    2        8.459636   1.000000
    3       10.364238   0.000000
    4       15.852935   0.000000
    5       21.897442   0.000000
    6       23.575196   0.000000
    7       27.458063   0.000000
    8       29.399553   0.000000
 
  0.3333333E+00  0.2000000E+00  0.1387779E-16  0.1422222E-01
    1        2.240872   1.000000
    2        6.169987   1.000000
    3        9.980869   0.001098
    4       15.507538   0.000000
    5       21.634921   0.000000
    6       24.482087   0.000000
    7       27.294201   0.000000
    8       29.343592   0.000000
 
  0.4000000E+00  0.2000000E+00  0.1387779E-16  0.7111111E-02
    1        3.896070   1.000000
    2        4.276939   1.000000
    3        9.853921   0.701345
    4       15.391479   0.000000
    5       21.536810   0.000000
    6       24.940835   0.000000
    7       27.264861   0.000000
    8       28.914245   0.000000
 
  0.2666667E+00  0.2666667E+00  0.0000000E+00  0.7111111E-02
    1        2.110784   1.000000
    2        7.810162   1.000000
    3        8.120030   1.000000
    4       15.401276   0.000000
    5       22.766345   0.000000
    6       23.665614   0.000000
    7       27.854578   0.000000
    8       29.710419   0.000000
 
  0.3333333E+00  0.2666667E+00  0.0000000E+00  0.1422222E-01
    1        3.805083   1.000000
    2        5.784567   1.000000
    3        7.723874   1.000000
    4       15.171912   0.000000
    5       22.889903   0.000000
    6       24.671311   0.000000
    7       26.525193   0.000000
    8       30.531822   0.000000
 
  0.3333333E+00  0.3333333E+00  0.0000000E+00  0.2370370E-02
    1        5.313297   1.000000
    2        5.818818   1.000000
    3        5.818818   1.000000
    4       15.058604   0.000000
    5       23.701529   0.000000
    6       25.139826   0.000000
    7       25.139826   0.000000
    8       32.524100   0.000000
 
  0.6666667E-01  0.6666667E-01  0.6666667E-01  0.2370370E-02
    1       -3.502007   1.000000
    2       16.714013   0.000000
    3       17.701897   0.000000
    4       17.701897   0.000000
    5       23.362053   0.000000
    6       23.362053   0.000000
    7       25.496356   0.000000
    8       25.496356   0.000000
 
  0.1333333E+00  0.6666667E-01  0.6666667E-01  0.7111111E-02
    1       -2.825339   1.000000
    2       14.431934   0.000000
    3       15.988470   0.000000
    4       16.642485   0.000000
    5       23.063397   0.000000
    6       23.728476   0.000000
    7       25.825715   0.000000
    8       26.304203   0.000000
 
  0.2000000E+00  0.6666667E-01  0.6666667E-01  0.7111111E-02
    1       -1.881768   1.000000
    2       11.713464   0.000000
    3       14.987692   0.000000
    4       15.725070   0.000000
    5       22.619038   0.000000
    6       23.168127   0.000000
    7       27.043205   0.000000
    8       27.044227   0.000000
 
  0.2666667E+00  0.6666667E-01  0.6666667E-01  0.7111111E-02
    1       -0.675184   1.000000
    2        9.104007   1.000000
    3       14.264817   0.000000
    4       15.011342   0.000000
    5       22.164985   0.000000
    6       22.602591   0.000000
    7       27.951570   0.000000
    8       28.360372   0.000000
 
  0.3333333E+00  0.6666667E-01  0.6666667E-01  0.7111111E-02
    1        0.788720   1.000000
    2        6.686847   1.000000
    3       13.785342   0.000000
    4       14.526587   0.000000
    5       21.814737   0.000000
    6       22.194381   0.000000
    7       29.032331   0.000000
    8       29.674277   0.000000
 
  0.4000000E+00  0.6666667E-01  0.6666667E-01  0.7111111E-02
    1        2.495006   1.000000
    2        4.499929   1.000000
    3       13.545699   0.000000
    4       14.281994   0.000000
    5       21.627771   0.000000
    6       21.983449   0.000000
    7       30.055503   0.000000
    8       30.703593   0.000000
 
 -0.6666667E-01  0.6666667E-01  0.6666667E-01  0.1777778E-02
    1       -4.044944   1.000000
    2       19.228016   0.000000
    3       19.228016   0.000000
    4       20.248973   0.000000
    5       22.701794   0.000000
    6       23.644959   0.000000
    7       23.782248   0.000000
    8       23.782248   0.000000
 
  0.1333333E+00  0.1333333E+00  0.6666667E-01  0.7111111E-02
    1       -2.016269   1.000000
    2       13.162277   0.000000
    3       13.675707   0.000000
    4       15.326051   0.000000
    5       23.656977   0.000000
    6       24.532753   0.000000
    7       26.143016   0.000000
    8       27.112638   0.000000
 
  0.2000000E+00  0.1333333E+00  0.6666667E-01  0.1422222E-01
    1       -0.942539   1.000000
    2       10.717781   0.000000
    3       12.589687   0.000000
    4       14.482377   0.000000
    5       23.583771   0.000000
    6       24.616131   0.000000
    7       26.951935   0.000000
    8       28.348493   0.000000
 
  0.2666667E+00  0.1333333E+00  0.6666667E-01  0.1422222E-01
    1        0.391274   1.000000
    2        8.216882   1.000000
    3       11.961147   0.000000
    4       13.878312   0.000000
    5       23.267238   0.000000
    6       24.535095   0.000000
    7       27.840457   0.000000
    8       29.780300   0.000000
 
  0.3333333E+00  0.1333333E+00  0.6666667E-01  0.1422222E-01
    1        1.977480   1.000000
    2        5.916210   1.000000
    3       11.587403   0.000000
    4       13.513539   0.000000
    5       23.015266   0.000000
    6       24.420405   0.000000
    7       28.955231   0.000000
    8       30.645551   0.000000
 
  0.4000000E+00  0.1333333E+00  0.6666667E-01  0.7111111E-02
    1        3.632232   1.000000
    2        4.021724   1.000000
    3       11.462896   0.000000
    4       13.391543   0.000000
    5       22.924558   0.000000
    6       24.370548   0.000000
    7       29.894535   0.000000
    8       30.398291   0.000000
 
 -0.1333333E+00  0.1333333E+00  0.6666667E-01  0.7111111E-02
    1       -3.637573   1.000000
    2       17.067558   0.000000
    3       17.929347   0.000000
    4       19.709649   0.000000
    5       22.081435   0.000000
    6       22.376607   0.000000
    7       24.243439   0.000000
    8       25.409393   0.000000
 
  0.2000000E+00  0.2000000E+00  0.6666667E-01  0.7111111E-02
    1        0.258557   1.000000
    2        9.811120   0.958972
    3       10.170838   0.000000
    4       13.748349   0.000000
    5       24.216805   0.000000
    6       25.219822   0.000000
    7       28.085724   0.000000
    8       28.919624   0.000000
 
  0.2666667E+00  0.2000000E+00  0.6666667E-01  0.1422222E-01
    1        1.715854   1.000000
    2        7.574826   1.000000
    3        9.502590   1.000000
    4       13.262358   0.000000
    5       24.307647   0.000000
    6       25.809974   0.000000
    7       28.588268   0.000000
    8       30.032677   0.000000
 
  0.3333333E+00  0.2000000E+00  0.6666667E-01  0.1422222E-01
    1        3.414905   1.000000
    2        5.405266   1.000000
    3        9.243511   1.000000
    4       13.018633   0.000000
    5       24.218123   0.000000
    6       26.330625   0.000000
    7       28.899136   0.000000
    8       30.247293   0.000000
 
 -0.2000000E+00  0.2000000E+00  0.6666667E-01  0.7111111E-02
    1       -2.960435   1.000000
    2       14.332570   0.000000
    3       16.785735   0.000000
    4       19.085129   0.000000
    5       21.079351   0.000000
    6       21.834149   0.000000
    7       24.295878   0.000000
    8       27.641182   0.000000
 
 -0.1333333E+00  0.2000000E+00  0.6666667E-01  0.7111111E-02
    1       -3.095662   1.000000
    2       15.672319   0.000000
    3       15.988952   0.000000
    4       19.116176   0.000000
    5       21.331176   0.000000
    6       21.831235   0.000000
    7       25.129822   0.000000
    8       26.041183   0.000000
 
  0.2666667E+00  0.2666667E+00  0.6666667E-01  0.7111111E-02
    1        3.290265   1.000000
    2        7.049136   1.000000
    3        7.365900   1.000000
    4       12.897123   0.000000
    5       25.167024   0.000000
    6       26.333992   0.000000
    7       28.842065   0.000000
    8       30.602846   0.000000
 
  0.3333333E+00  0.2666667E+00  0.6666667E-01  0.7111111E-02
    1        4.931670   1.000000
    2        5.310692   1.000000
    3        7.097893   1.000000
    4       12.775270   0.000000
    5       25.382078   0.000000
    6       27.032874   0.000000
    7       28.014249   0.000000
    8       31.387248   0.000000
 
 -0.2666667E+00  0.2666667E+00  0.6666667E-01  0.7111111E-02
    1       -2.016243   1.000000
    2       11.585080   0.000000
    3       15.855357   0.000000
    4       18.355894   0.000000
    5       20.177991   0.000000
    6       21.537364   0.000000
    7       24.540938   0.000000
    8       29.374620   0.000000
 
 -0.2000000E+00  0.2666667E+00  0.6666667E-01  0.1422222E-01
    1       -2.285509   1.000000
    2       13.123997   0.000000
    3       14.790633   0.000000
    4       18.594689   0.000000
    5       20.783506   0.000000
    6       21.416572   0.000000
    7       25.141123   0.000000
    8       27.806804   0.000000
 
 -0.3333333E+00  0.3333333E+00  0.6666667E-01  0.7111111E-02
    1       -0.808931   1.000000
    2        8.973674   1.000000
    3       15.152403   0.000000
    4       17.727073   0.000000
    5       19.469325   0.000000
    6       21.215839   0.000000
    7       25.246826   0.000000
    8       30.280249   0.000000
 
 -0.2666667E+00  0.3333333E+00  0.6666667E-01  0.1422222E-01
    1       -1.210398   1.000000
    2       10.464966   0.000000
    3       13.944279   0.000000
    4       17.973381   0.000000
    5       20.092530   0.000000
    6       21.719481   0.000000
    7       24.905069   0.000000
    8       29.667554   0.000000
 
 -0.2000000E+00  0.3333333E+00  0.6666667E-01  0.7111111E-02
    1       -1.344393   1.000000
    2       11.999350   0.000000
    3       12.328310   0.000000
    4       18.358074   0.000000
    5       20.687644   0.000000
    6       20.838782   0.000000
    7       26.784691   0.000000
    8       27.677370   0.000000
 
 -0.4000000E+00  0.4000000E+00  0.6666667E-01  0.7111111E-02
    1        0.655770   1.000000
    2        6.556161   1.000000
    3       14.682011   0.000000
    4       17.283928   0.000000
    5       18.986226   0.000000
    6       20.930351   0.000000
    7       26.338423   0.000000
    8       30.325171   0.000000
 
 -0.3333333E+00  0.4000000E+00  0.6666667E-01  0.1422222E-01
    1        0.124987   1.000000
    2        7.957122   1.000000
    3       13.338338   0.000000
    4       17.459022   0.000000
    5       19.526075   0.000000
    6       22.106099   0.000000
    7       25.078895   0.000000
    8       29.910548   0.000000
 
 -0.2666667E+00  0.4000000E+00  0.6666667E-01  0.1422222E-01
    1       -0.141019   1.000000
    2        9.581013   1.000000
    3       11.435963   0.000000
    4       17.944688   0.000000
    5       20.149461   0.000000
    6       21.403535   0.000000
    7       26.672074   0.000000
    8       28.853631   0.000000
 
 -0.4666667E+00  0.4666667E+00  0.6666667E-01  0.7111111E-02
    1        2.362796   1.000000
    2        4.368770   1.000000
    3       14.446374   0.000000
    4       17.057034   0.000000
    5       18.742142   0.000000
    6       20.768180   0.000000
    7       27.686917   0.000000
    8       29.184459   0.000000
 
 -0.4000000E+00  0.4666667E+00  0.6666667E-01  0.1422222E-01
    1        1.712840   1.000000
    2        5.654927   1.000000
    3       12.973688   0.000000
    4       17.133981   0.000000
    5       19.172307   0.000000
    6       22.272673   0.000000
    7       25.872395   0.000000
    8       28.732894   0.000000
 
 -0.3333333E+00  0.4666667E+00  0.6666667E-01  0.1422222E-01
    1        1.318831   1.000000
    2        7.189258   1.000000
    3       10.932231   0.000000
    4       17.581642   0.000000
    5       19.696943   0.000000
    6       22.396404   0.000000
    7       26.161994   0.000000
    8       28.603592   0.000000
 
 -0.2666667E+00  0.4666667E+00  0.6666667E-01  0.7111111E-02
    1        1.187106   1.000000
    2        8.813975   1.000000
    3        9.111492   1.000000
    4       17.691054   0.000000
    5       20.824129   0.000000
    6       21.067084   0.000000
    7       27.052728   0.000000
    8       28.969881   0.000000
 
 -0.4666667E+00 -0.4666667E+00  0.6666667E-01  0.7111111E-02
    1        3.368352   1.000000
    2        3.759839   1.000000
    3       12.851953   0.000000
    4       17.023636   0.000000
    5       19.052651   0.000000
    6       22.299268   0.000000
    7       26.852601   0.000000
    8       27.557900   0.000000
 
 -0.4000000E+00 -0.4666667E+00  0.6666667E-01  0.1422222E-01
    1        3.020643   1.000000
    2        5.013891   1.000000
    3       10.681356   0.000000
    4       17.384337   0.000000
    5       19.462515   0.000000
    6       23.358675   0.000000
    7       25.611232   0.000000
    8       27.899537   0.000000
 
 -0.3333333E+00 -0.4666667E+00  0.6666667E-01  0.1422222E-01
    1        2.766029   1.000000
    2        6.672315   1.000000
    3        8.594502   1.000000
    4       17.450997   0.000000
    5       20.606720   0.000000
    6       22.189408   0.000000
    7       25.495933   0.000000
    8       29.695757   0.000000
 
 -0.4000000E+00 -0.4000000E+00  0.6666667E-01  0.7111111E-02
    1        4.420485   1.000000
    2        4.786119   1.000000
    3        8.463671   1.000000
    4       17.361421   0.000000
    5       20.500067   0.000000
    6       23.295167   0.000000
    7       24.242277   0.000000
    8       29.782380   0.000000
 
 -0.3333333E+00 -0.4000000E+00  0.6666667E-01  0.7111111E-02
    1        4.448506   1.000000
    2        6.290106   1.000000
    3        6.576582   1.000000
    4       17.316674   0.000000
    5       21.706251   0.000000
    6       22.276259   0.000000
    7       23.797930   0.000000
    8       31.661445   0.000000
 
  0.1333333E+00  0.1333333E+00  0.1333333E+00  0.2370370E-02
    1       -1.076411   1.000000
    2       12.047570   0.000000
    3       12.716236   0.000000
    4       12.716236   0.000000
    5       25.312661   0.000000
    6       25.312661   0.000000
    7       27.347950   0.000000
    8       27.347950   0.000000
 
  0.2000000E+00  0.1333333E+00  0.1333333E+00  0.7111111E-02
    1        0.125541   1.000000
    2        9.840160   0.820558
    3       11.579593   0.000000
    4       11.979747   0.000000
    5       25.550964   0.000000
    6       25.885688   0.000000
    7       28.382749   0.000000
    8       28.524403   0.000000
 
  0.2666667E+00  0.1333333E+00  0.1333333E+00  0.7111111E-02
    1        1.583948   1.000000
    2        7.453204   1.000000
    3       11.062208   0.000000
    4       11.482988   0.000000
    5       25.563003   0.000000
    6       25.791969   0.000000
    7       29.591349   0.000000
    8       29.868500   0.000000
 
  0.3333333E+00  0.1333333E+00  0.1333333E+00  0.7111111E-02
    1        3.284393   1.000000
    2        5.277792   1.000000
    3       10.809776   0.000000
    4       11.233200   0.000000
    5       25.524846   0.000000
    6       25.680519   0.000000
    7       30.458507   0.000000
    8       30.998046   0.000000
 
 -0.1333333E+00  0.1333333E+00  0.1333333E+00  0.1777778E-02
    1       -3.230984   1.000000
    2       16.627782   0.000000
    3       16.627782   0.000000
    4       18.256652   0.000000
    5       20.512199   0.000000
    6       23.497639   0.000000
    7       25.028318   0.000000
    8       25.028318   0.000000
 
  0.2000000E+00  0.2000000E+00  0.1333333E+00  0.7111111E-02
    1        1.452371   1.000000
    2        9.051700   1.000000
    3        9.422974   1.000000
    4       11.178180   0.000000
    5       26.461047   0.000000
    6       27.174387   0.000000
    7       29.092253   0.000000
    8       29.567863   0.000000
 
  0.2666667E+00  0.2000000E+00  0.1333333E+00  0.1422222E-01
    1        3.030181   1.000000
    2        6.937787   1.000000
    3        8.873922   1.000000
    4       10.797763   0.000000
    5       26.775050   0.000000
    6       27.712210   0.000000
    7       29.986107   0.000000
    8       30.638541   0.000000
 
  0.3333333E+00  0.2000000E+00  0.1333333E+00  0.7111111E-02
    1        4.679787   1.000000
    2        5.055927   1.000000
    3        8.741568   1.000000
    4       10.671905   0.000000
    5       26.819515   0.000000
    6       27.879920   0.000000
    7       30.373857   0.000000
    8       31.154724   0.000000
 
 -0.2000000E+00  0.2000000E+00  0.1333333E+00  0.7111111E-02
    1       -2.555138   1.000000
    2       14.532903   0.000000
    3       15.469368   0.000000
    4       17.662365   0.000000
    5       19.632571   0.000000
    6       23.044752   0.000000
    7       25.218962   0.000000
    8       26.771549   0.000000
 
  0.2666667E+00  0.2666667E+00  0.1333333E+00  0.7111111E-02
    1        4.711172   1.000000
    2        6.548692   1.000000
    3        6.859657   1.000000
    4       10.541443   0.000000
    5       27.564159   0.000000
    6       28.820829   0.000000
    7       29.902686   0.000000
    8       31.472137   0.000000
 
 -0.2666667E+00  0.2666667E+00  0.1333333E+00  0.7111111E-02
    1       -1.612760   1.000000
    2       11.907840   0.000000
    3       14.524127   0.000000
    4       17.025323   0.000000
    5       19.829116   0.000000
    6       22.219882   0.000000
    7       24.893720   0.000000
    8       29.233868   0.000000
 
 -0.2000000E+00  0.2666667E+00  0.1333333E+00  0.7111111E-02
    1       -1.747047   1.000000
    2       13.347927   0.000000
    3       13.577581   0.000000
    4       17.282176   0.000000
    5       18.763668   0.000000
    6       22.869897   0.000000
    7       26.460349   0.000000
    8       27.148114   0.000000
 
 -0.3333333E+00  0.3333333E+00  0.1333333E+00  0.7111111E-02
    1       -0.407813   1.000000
    2        9.334949   1.000000
    3       13.809099   0.000000
    4       16.383170   0.000000
    5       20.499706   0.000000
    6       21.540958   0.000000
    7       24.577872   0.000000
    8       29.469584   0.000000
 
 -0.2666667E+00  0.3333333E+00  0.1333333E+00  0.1422222E-01
    1       -0.674740   1.000000
    2       10.912992   0.000000
    3       12.624761   0.000000
    4       16.922603   0.000000
    5       18.967865   0.000000
    6       22.251170   0.000000
    7       26.210014   0.000000
    8       28.463763   0.000000
 
 -0.4000000E+00  0.4000000E+00  0.1333333E+00  0.7111111E-02
    1        1.053910   1.000000
    2        6.934049   1.000000
    3       13.330397   0.000000
    4       15.919540   0.000000
    5       21.073076   0.000000
    6       21.211193   0.000000
    7       24.587811   0.000000
    8       28.240048   0.000000
 
 -0.3333333E+00  0.4000000E+00  0.1333333E+00  0.1422222E-01
    1        0.656998   1.000000
    2        8.447377   1.000000
    3       12.008984   0.000000
    4       16.429506   0.000000
    5       19.783015   0.000000
    6       21.816169   0.000000
    7       25.476178   0.000000
    8       28.075524   0.000000
 
 -0.2666667E+00  0.4000000E+00  0.1333333E+00  0.7111111E-02
    1        0.524468   1.000000
    2       10.038687   0.000001
    3       10.310763   0.000000
    4       17.344225   0.000000
    5       18.676141   0.000000
    6       21.792428   0.000000
    7       26.471394   0.000000
    8       28.427325   0.000000
 
 -0.4666667E+00  0.4666667E+00  0.1333333E+00  0.7111111E-02
    1        2.757734   1.000000
    2        4.754827   1.000000
    3       13.090566   0.000000
    4       15.681423   0.000000
    5       20.835822   0.000000
    6       21.634249   0.000000
    7       25.073517   0.000000
    8       26.913921   0.000000
 
 -0.4000000E+00  0.4666667E+00  0.1333333E+00  0.1422222E-01
    1        2.240314   1.000000
    2        6.163244   1.000000
    3       11.639364   0.000000
    4       16.095008   0.000000
    5       20.497931   0.000000
    6       21.908482   0.000000
    7       24.523724   0.000000
    8       27.296130   0.000000
 
 -0.3333333E+00  0.4666667E+00  0.1333333E+00  0.1422222E-01
    1        1.978902   1.000000
    2        7.806617   1.000000
    3        9.683450   1.000000
    4       17.263171   0.000000
    5       19.354696   0.000000
    6       21.503280   0.000000
    7       24.786370   0.000000
    8       29.041997   0.000000
 
 -0.4666667E+00 -0.4666667E+00  0.1333333E+00  0.7111111E-02
    1        3.898046   1.000000
    2        4.269474   1.000000
    3       11.516038   0.000000
    4       15.980038   0.000000
    5       20.658636   0.000000
    6       22.433123   0.000000
    7       23.775193   0.000000
    8       27.007247   0.000000
 
 -0.4000000E+00 -0.4666667E+00  0.1333333E+00  0.1422222E-01
    1        3.674192   1.000000
    2        5.651815   1.000000
    3        9.427649   1.000000
    4       17.101264   0.000000
    5       20.104181   0.000000
    6       21.825482   0.000000
    7       23.104854   0.000000
    8       29.069265   0.000000
 
 -0.3333333E+00 -0.4666667E+00  0.1333333E+00  0.7111111E-02
    1        3.549169   1.000000
    2        7.295921   1.000000
    3        7.574769   1.000000
    4       17.923638   0.000000
    5       19.578295   0.000000
    6       21.251780   0.000000
    7       23.052223   0.000000
    8       30.939172   0.000000
 
 -0.4000000E+00 -0.4000000E+00  0.1333333E+00  0.7111111E-02
    1        5.195583   1.000000
    2        5.545878   1.000000
    3        7.322814   1.000000
    4       18.052768   0.000000
    5       20.165615   0.000000
    6       21.303314   0.000000
    7       21.878607   0.000000
    8       31.541026   0.000000
 
  0.2000000E+00  0.2000000E+00  0.2000000E+00  0.2370370E-02
    1        2.900528   1.000000
    2        8.413669   1.000000
    3        8.920098   1.000000
    4        8.920098   1.000000
    5       28.391406   0.000000
    6       28.391406   0.000000
    7       30.179385   0.000000
    8       30.179385   0.000000
 
  0.2666667E+00  0.2000000E+00  0.2000000E+00  0.7111111E-02
    1        4.587264   1.000000
    2        6.555728   1.000000
    3        8.361802   1.000000
    4        8.667613   1.000000
    5       28.928133   0.000000
    6       29.264068   0.000000
    7       30.878229   0.000000
    8       31.151461   0.000000
 
 -0.2000000E+00  0.2000000E+00  0.2000000E+00  0.1777778E-02
    1       -1.881430   1.000000
    2       14.298609   0.000000
    3       14.298609   0.000000
    4       16.210699   0.000000
    5       17.813019   0.000000
    6       24.816099   0.000000
    7       26.351983   0.000000
    8       26.351983   0.000000
 