       N       E                     dE             d eps       ncg     rms          rms(c)
DAV:   1    -0.141345597703E+01   -0.14135E+01   -0.21556E+03  2016   0.474E+02
DAV:   2    -0.489114851156E+01   -0.34777E+01   -0.32927E+01  2904   0.362E+01
DAV:   3    -0.491373932309E+01   -0.22591E-01   -0.22581E-01  2112   0.299E+00
DAV:   4    -0.491377802186E+01   -0.38699E-04   -0.38699E-04  3128   0.110E-01
DAV:   5    -0.491377802547E+01   -0.36091E-08   -0.43216E-08  2160   0.894E-04    0.285E+00
DAV:   6    -0.490233142829E+01    0.11447E-01   -0.35882E-03  2064   0.267E-01    0.158E+00
DAV:   7    -0.489576495407E+01    0.65665E-02   -0.72351E-03  2128   0.380E-01    0.136E-01
DAV:   8    -0.489574368409E+01    0.21270E-04   -0.34707E-05  2720   0.463E-02    0.114E-02
DAV:   9    -0.489574424630E+01   -0.56220E-06   -0.46459E-07  2224   0.399E-03
   1 F= -.48957442E+01 E0= -.48954294E+01  d E =-.489574E+01
       N       E                     dE             d eps       ncg     rms          rms(c)
DAV:   1    -0.491630206105E+01   -0.20558E-01   -0.50208E-01  1960   0.287E+00    0.665E-01
DAV:   2    -0.491091791523E+01    0.53841E-02   -0.33543E-03  2144   0.484E-01    0.383E-01
DAV:   3    -0.490771592994E+01    0.32020E-02   -0.35255E-03  2056   0.257E-01    0.113E-01
DAV:   4    -0.490771283725E+01    0.30927E-05   -0.75915E-06  2488   0.263E-02    0.962E-02
DAV:   5    -0.490770063500E+01    0.12202E-04   -0.13139E-06  2392   0.824E-03    0.175E-02
DAV:   6    -0.490770103540E+01   -0.40039E-06   -0.24978E-08  1048   0.135E-03
   2 F= -.49077010E+01 E0= -.49074697E+01  d E =-.119568E-01
       N       E                     dE             d eps       ncg     rms          rms(c)
DAV:   1    -0.490920134093E+01   -0.15007E-02   -0.26832E-02  1952   0.674E-01    0.151E-01
DAV:   2    -0.490891715123E+01    0.28419E-03   -0.17735E-04  2192   0.114E-01    0.865E-02
DAV:   3    -0.490875005035E+01    0.16710E-03   -0.18535E-04  2080   0.591E-02    0.280E-02
DAV:   4    -0.490875013130E+01   -0.80945E-07   -0.38613E-07  2376   0.596E-03    0.243E-02
DAV:   5    -0.490875084007E+01   -0.70877E-06   -0.72170E-08  1128   0.203E-03    0.476E-03
DAV:   6    -0.490875070442E+01    0.13565E-06   -0.32387E-09   984   0.585E-04
   3 F= -.49087507E+01 E0= -.49085066E+01  d E =-.130065E-01
