<?xml version="1.0" encoding="ISO-8859-1"?>
<modeling>
 <generator>
  <i name="program" type="string">vasp </i>
  <i name="version" type="string">6.2.0  </i>
  <i name="subversion" type="string">18Jan21 (build Aug 12 2022 13:00:08) complex                          parallel </i>
  <i name="platform" type="string">LinuxIFC </i>
  <i name="date" type="string">2024 11 03 </i>
  <i name="time" type="string">22:09:40 </i>
 </generator>
 <incar>
  <i type="int" name="ISTART">     0</i>
  <i type="string" name="PREC">Accurate      (Accurate strictly avoids</i>
  <i type="logical" name="ADDGRID"> T  </i>
  <i type="int" name="ISPIN">     1</i>
  <i type="int" name="NELM">    90</i>
  <i type="int" name="NELMIN">     6</i>
  <i type="int" name="IBRION">     2</i>
  <i name="EDIFF">      0.00000100</i>
  <i name="EDIFFG">     -0.00200000</i>
  <i type="int" name="NSW">   100</i>
  <i type="int" name="ISIF">     3</i>
  <i type="int" name="ISYM">     2</i>
  <i name="ENCUT">    650.00000000</i>
  <i type="logical" name="LREAL"> F  </i>
  <i type="int" name="ISMEAR">     0</i>
  <i name="SIGMA">      0.05000000</i>
  <i type="logical" name="LWAVE"> F  </i>
  <i type="logical" name="LCHARG"> F  </i>
  <i type="logical" name="LASPH"> T  </i>
 </incar>
 <primitive_cell>
  <structure name="primitive_cell" >
   <crystal>
    <varray name="basis" >
     <v>       1.51332563       1.51332563       1.51332563 </v>
     <v>       1.51332563      -1.51332563      -1.51332563 </v>
     <v>      -1.51332563       1.51332563      -1.51332563 </v>
    </varray>
    <i name="volume">     13.86299778 </i>
    <varray name="rec_basis" >
     <v>       0.33039816       0.33039816       0.00000000 </v>
     <v>       0.33039816       0.00000000      -0.33039816 </v>
     <v>       0.00000000       0.33039816      -0.33039816 </v>
    </varray>
   </crystal>
   <varray name="positions" >
    <v>       0.00000000       0.00000000       0.00000000 </v>
   </varray>
  </structure>
  <varray name="primitive_index" >
   <v type="int" >        1 </v>
  </varray>
 </primitive_cell>
 <kpoints>
  <generation param="Monkhorst-Pack">
   <v type="int" name="divisions">      15       15       15 </v>
   <v name="usershift">      0.00000000       0.00000000       0.00000000 </v>
   <v name="genvec1">      0.06666667       0.00000000       0.00000000 </v>
   <v name="genvec2">      0.00000000       0.06666667       0.00000000 </v>
   <v name="genvec3">      0.00000000       0.00000000       0.06666667 </v>
   <v name="shift">      0.00000000       0.00000000       0.00000000 </v>
  </generation>
  <varray name="kpointlist" >
   <v>       0.00000000       0.00000000       0.00000000 </v>
   <v>       0.06666667       0.00000000       0.00000000 </v>
   <v>       0.13333333       0.00000000       0.00000000 </v>
   <v>       0.20000000       0.00000000       0.00000000 </v>
   <v>       0.26666667       0.00000000       0.00000000 </v>
   <v>       0.33333333       0.00000000       0.00000000 </v>
   <v>       0.40000000       0.00000000       0.00000000 </v>
   <v>       0.46666667       0.00000000       0.00000000 </v>
   <v>       0.06666667       0.06666667       0.00000000 </v>
   <v>       0.13333333       0.06666667      -0.00000000 </v>
   <v>       0.20000000       0.06666667      -0.00000000 </v>
   <v>       0.26666667       0.06666667       0.00000000 </v>
   <v>       0.33333333       0.06666667      -0.00000000 </v>
   <v>       0.40000000       0.06666667       0.00000000 </v>
   <v>       0.46666667       0.06666667       0.00000000 </v>
   <v>       0.13333333       0.13333333       0.00000000 </v>
   <v>       0.20000000       0.13333333       0.00000000 </v>
   <v>       0.26666667       0.13333333       0.00000000 </v>
   <v>       0.33333333       0.13333333       0.00000000 </v>
   <v>       0.40000000       0.13333333       0.00000000 </v>
   <v>       0.20000000       0.20000000       0.00000000 </v>
   <v>       0.26666667       0.20000000       0.00000000 </v>
   <v>       0.33333333       0.20000000       0.00000000 </v>
   <v>       0.40000000       0.20000000       0.00000000 </v>
   <v>       0.26666667       0.26666667       0.00000000 </v>
   <v>       0.33333333       0.26666667       0.00000000 </v>
   <v>       0.33333333       0.33333333       0.00000000 </v>
   <v>       0.06666667       0.06666667       0.06666667 </v>
   <v>       0.13333333       0.06666667       0.06666667 </v>
   <v>       0.20000000       0.06666667       0.06666667 </v>
   <v>       0.26666667       0.06666667       0.06666667 </v>
   <v>       0.33333333       0.06666667       0.06666667 </v>
   <v>       0.40000000       0.06666667       0.06666667 </v>
   <v>      -0.06666667       0.06666667       0.06666667 </v>
   <v>       0.13333333       0.13333333       0.06666667 </v>
   <v>       0.20000000       0.13333333       0.06666667 </v>
   <v>       0.26666667       0.13333333       0.06666667 </v>
   <v>       0.33333333       0.13333333       0.06666667 </v>
   <v>       0.40000000       0.13333333       0.06666667 </v>
   <v>      -0.13333333       0.13333333       0.06666667 </v>
   <v>       0.20000000       0.20000000       0.06666667 </v>
   <v>       0.26666667       0.20000000       0.06666667 </v>
   <v>       0.33333333       0.20000000       0.06666667 </v>
   <v>      -0.20000000       0.20000000       0.06666667 </v>
   <v>      -0.13333333       0.20000000       0.06666667 </v>
   <v>       0.26666667       0.26666667       0.06666667 </v>
   <v>       0.33333333       0.26666667       0.06666667 </v>
   <v>      -0.26666667       0.26666667       0.06666667 </v>
   <v>      -0.20000000       0.26666667       0.06666667 </v>
   <v>      -0.33333333       0.33333333       0.06666667 </v>
   <v>      -0.26666667       0.33333333       0.06666667 </v>
   <v>      -0.20000000       0.33333333       0.06666667 </v>
   <v>      -0.40000000       0.40000000       0.06666667 </v>
   <v>      -0.33333333       0.40000000       0.06666667 </v>
   <v>      -0.26666667       0.40000000       0.06666667 </v>
   <v>      -0.46666667       0.46666667       0.06666667 </v>
   <v>      -0.40000000       0.46666667       0.06666667 </v>
   <v>      -0.33333333       0.46666667       0.06666667 </v>
   <v>      -0.26666667       0.46666667       0.06666667 </v>
   <v>      -0.46666667      -0.46666667       0.06666667 </v>
   <v>      -0.40000000      -0.46666667       0.06666667 </v>
   <v>      -0.33333333      -0.46666667       0.06666667 </v>
   <v>      -0.40000000      -0.40000000       0.06666667 </v>
   <v>      -0.33333333      -0.40000000       0.06666667 </v>
   <v>       0.13333333       0.13333333       0.13333333 </v>
   <v>       0.20000000       0.13333333       0.13333333 </v>
   <v>       0.26666667       0.13333333       0.13333333 </v>
   <v>       0.33333333       0.13333333       0.13333333 </v>
   <v>      -0.13333333       0.13333333       0.13333333 </v>
   <v>       0.20000000       0.20000000       0.13333333 </v>
   <v>       0.26666667       0.20000000       0.13333333 </v>
   <v>       0.33333333       0.20000000       0.13333333 </v>
   <v>      -0.20000000       0.20000000       0.13333333 </v>
   <v>       0.26666667       0.26666667       0.13333333 </v>
   <v>      -0.26666667       0.26666667       0.13333333 </v>
   <v>      -0.20000000       0.26666667       0.13333333 </v>
   <v>      -0.33333333       0.33333333       0.13333333 </v>
   <v>      -0.26666667       0.33333333       0.13333333 </v>
   <v>      -0.40000000       0.40000000       0.13333333 </v>
   <v>      -0.33333333       0.40000000       0.13333333 </v>
   <v>      -0.26666667       0.40000000       0.13333333 </v>
   <v>      -0.46666667       0.46666667       0.13333333 </v>
   <v>      -0.40000000       0.46666667       0.13333333 </v>
   <v>      -0.33333333       0.46666667       0.13333333 </v>
   <v>      -0.46666667      -0.46666667       0.13333333 </v>
   <v>      -0.40000000      -0.46666667       0.13333333 </v>
   <v>      -0.33333333      -0.46666667       0.13333333 </v>
   <v>      -0.40000000      -0.40000000       0.13333333 </v>
   <v>       0.20000000       0.20000000       0.20000000 </v>
   <v>       0.26666667       0.20000000       0.20000000 </v>
   <v>      -0.20000000       0.20000000       0.20000000 </v>
   <v>       0.26666667       0.26666667       0.20000000 </v>
   <v>      -0.26666667       0.26666667       0.20000000 </v>
   <v>      -0.33333333       0.33333333       0.20000000 </v>
   <v>      -0.26666667       0.33333333       0.20000000 </v>
   <v>      -0.40000000       0.40000000       0.20000000 </v>
   <v>      -0.33333333       0.40000000       0.20000000 </v>
   <v>      -0.46666667       0.46666667       0.20000000 </v>
   <v>      -0.40000000       0.46666667       0.20000000 </v>
   <v>      -0.33333333       0.46666667       0.20000000 </v>
   <v>      -0.46666667      -0.46666667       0.20000000 </v>
   <v>      -0.40000000      -0.46666667       0.20000000 </v>
   <v>      -0.40000000      -0.40000000       0.20000000 </v>
   <v>      -0.26666667       0.26666667       0.26666667 </v>
   <v>      -0.33333333       0.33333333       0.26666667 </v>
   <v>      -0.40000000       0.40000000       0.26666667 </v>
   <v>      -0.33333333       0.40000000       0.26666667 </v>
   <v>      -0.46666667       0.46666667       0.26666667 </v>
   <v>      -0.40000000       0.46666667       0.26666667 </v>
   <v>      -0.46666667      -0.46666667       0.26666667 </v>
   <v>      -0.40000000      -0.46666667       0.26666667 </v>
   <v>      -0.33333333       0.33333333       0.33333333 </v>
   <v>      -0.40000000       0.40000000       0.33333333 </v>
   <v>      -0.46666667       0.46666667       0.33333333 </v>
   <v>      -0.40000000       0.46666667       0.33333333 </v>
   <v>      -0.46666667      -0.46666667       0.33333333 </v>
   <v>      -0.40000000       0.40000000       0.40000000 </v>
   <v>      -0.46666667       0.46666667       0.40000000 </v>
   <v>      -0.46666667      -0.46666667       0.40000000 </v>
   <v>      -0.46666667       0.46666667       0.46666667 </v>
  </varray>
  <varray name="weights" >
   <v>       0.00029630 </v>
   <v>       0.00355556 </v>
   <v>       0.00355556 </v>
   <v>       0.00355556 </v>
   <v>       0.00355556 </v>
   <v>       0.00355556 </v>
   <v>       0.00355556 </v>
   <v>       0.00355556 </v>
   <v>       0.00711111 </v>
   <v>       0.01422222 </v>
   <v>       0.01422222 </v>
   <v>       0.01422222 </v>
   <v>       0.01422222 </v>
   <v>       0.01422222 </v>
   <v>       0.00711111 </v>
   <v>       0.00711111 </v>
   <v>       0.01422222 </v>
   <v>       0.01422222 </v>
   <v>       0.01422222 </v>
   <v>       0.01422222 </v>
   <v>       0.00711111 </v>
   <v>       0.01422222 </v>
   <v>       0.01422222 </v>
   <v>       0.00711111 </v>
   <v>       0.00711111 </v>
   <v>       0.01422222 </v>
   <v>       0.00237037 </v>
   <v>       0.00237037 </v>
   <v>       0.00711111 </v>
   <v>       0.00711111 </v>
   <v>       0.00711111 </v>
   <v>       0.00711111 </v>
   <v>       0.00711111 </v>
   <v>       0.00177778 </v>
   <v>       0.00711111 </v>
   <v>       0.01422222 </v>
   <v>       0.01422222 </v>
   <v>       0.01422222 </v>
   <v>       0.00711111 </v>
   <v>       0.00711111 </v>
   <v>       0.00711111 </v>
   <v>       0.01422222 </v>
   <v>       0.01422222 </v>
   <v>       0.00711111 </v>
   <v>       0.00711111 </v>
   <v>       0.00711111 </v>
   <v>       0.00711111 </v>
   <v>       0.00711111 </v>
   <v>       0.01422222 </v>
   <v>       0.00711111 </v>
   <v>       0.01422222 </v>
   <v>       0.00711111 </v>
   <v>       0.00711111 </v>
   <v>       0.01422222 </v>
   <v>       0.01422222 </v>
   <v>       0.00711111 </v>
   <v>       0.01422222 </v>
   <v>       0.01422222 </v>
   <v>       0.00711111 </v>
   <v>       0.00711111 </v>
   <v>       0.01422222 </v>
   <v>       0.01422222 </v>
   <v>       0.00711111 </v>
   <v>       0.00711111 </v>
   <v>       0.00237037 </v>
   <v>       0.00711111 </v>
   <v>       0.00711111 </v>
   <v>       0.00711111 </v>
   <v>       0.00177778 </v>
   <v>       0.00711111 </v>
   <v>       0.01422222 </v>
   <v>       0.00711111 </v>
   <v>       0.00711111 </v>
   <v>       0.00711111 </v>
   <v>       0.00711111 </v>
   <v>       0.00711111 </v>
   <v>       0.00711111 </v>
   <v>       0.01422222 </v>
   <v>       0.00711111 </v>
   <v>       0.01422222 </v>
   <v>       0.00711111 </v>
   <v>       0.00711111 </v>
   <v>       0.01422222 </v>
   <v>       0.01422222 </v>
   <v>       0.00711111 </v>
   <v>       0.01422222 </v>
   <v>       0.00711111 </v>
   <v>       0.00711111 </v>
   <v>       0.00237037 </v>
   <v>       0.00711111 </v>
   <v>       0.00177778 </v>
   <v>       0.00237037 </v>
   <v>       0.00711111 </v>
   <v>       0.00711111 </v>
   <v>       0.00711111 </v>
   <v>       0.00711111 </v>
   <v>       0.01422222 </v>
   <v>       0.00711111 </v>
   <v>       0.01422222 </v>
   <v>       0.00711111 </v>
   <v>       0.00711111 </v>
   <v>       0.01422222 </v>
   <v>       0.00237037 </v>
   <v>       0.00177778 </v>
   <v>       0.00711111 </v>
   <v>       0.00711111 </v>
   <v>       0.00711111 </v>
   <v>       0.00711111 </v>
   <v>       0.01422222 </v>
   <v>       0.00711111 </v>
   <v>       0.00711111 </v>
   <v>       0.00177778 </v>
   <v>       0.00711111 </v>
   <v>       0.00711111 </v>
   <v>       0.00711111 </v>
   <v>       0.00711111 </v>
   <v>       0.00177778 </v>
   <v>       0.00711111 </v>
   <v>       0.00237037 </v>
   <v>       0.00177778 </v>
  </varray>
 </kpoints>
 <parameters>
  <separator name="general" >
   <i type="string" name="SYSTEM">unknown system</i>
   <i type="logical" name="LCOMPAT"> F  </i>
  </separator>
  <separator name="electronic" >
   <i type="string" name="PREC">accura</i>
   <i name="ENMAX">    650.00000000</i>
   <i name="ENAUG">    322.06900000</i>
   <i name="EDIFF">      0.00000100</i>
   <i type="int" name="IALGO">    38</i>
   <i type="int" name="IWAVPR">    11</i>
   <i type="int" name="NBANDS">     8</i>
   <i type="int" name="NBANDSLOW">    -1</i>
   <i type="int" name="NBANDSHIGH">    -1</i>
   <i name="NELECT">      4.00000000</i>
   <i type="int" name="TURBO">     0</i>
   <i type="int" name="IRESTART">     0</i>
   <i type="int" name="NREBOOT">     0</i>
   <i type="int" name="NMIN">     0</i>
   <i name="EREF">      0.00000000</i>
   <separator name="electronic smearing" >
    <i type="int" name="ISMEAR">     0</i>
    <i name="SIGMA">      0.05000000</i>
    <i name="KSPACING">      0.50000000</i>
    <i type="logical" name="KGAMMA"> T  </i>
    <i type="logical" name="KBLOWUP"> T  </i>
   </separator>
   <separator name="electronic projectors" >
    <i type="logical" name="LREAL"> F  </i>
    <v name="ROPT">      0.00000000</v>
    <i type="int" name="LMAXPAW">  -100</i>
    <i type="int" name="LMAXMIX">     2</i>
    <i type="logical" name="NLSPLINE"> F  </i>
   </separator>
   <separator name="electronic startup" >
    <i type="int" name="ISTART">     0</i>
    <i type="int" name="ICHARG">     2</i>
    <i type="int" name="INIWAV">     1</i>
   </separator>
   <separator name="electronic spin" >
    <i type="int" name="ISPIN">     1</i>
    <i type="logical" name="LNONCOLLINEAR"> F  </i>
    <v name="MAGMOM">      1.00000000</v>
    <i name="NUPDOWN">     -1.00000000</i>
    <i type="logical" name="LSORBIT"> F  </i>
    <v name="SAXIS">      0.00000000      0.00000000      1.00000000</v>
    <i type="logical" name="LSPIRAL"> F  </i>
    <v name="QSPIRAL">      0.00000000      0.00000000      0.00000000</v>
    <i type="logical" name="LZEROZ"> F  </i>
   </separator>
   <separator name="electronic exchange-correlation" >
    <i type="logical" name="LASPH"> T  </i>
    <i type="logical" name="LMETAGGA"> F  </i>
   </separator>
   <separator name="electronic convergence" >
    <i type="int" name="NELM">    90</i>
    <i type="int" name="NELMDL">    -5</i>
    <i type="int" name="NELMIN">     6</i>
    <i name="ENINI">    650.00000000</i>
    <separator name="electronic convergence detail" >
     <i type="logical" name="LDIAG"> T  </i>
     <i type="logical" name="LSUBROT"> F  </i>
     <i name="WEIMIN">      0.00100000</i>
     <i name="EBREAK">      0.00000003</i>
     <i name="DEPER">      0.30000000</i>
     <i type="int" name="NRMM">     4</i>
     <i name="TIME">      0.40000000</i>
    </separator>
   </separator>
   <separator name="electronic mixer" >
    <i name="AMIX">      0.40000000</i>
    <i name="BMIX">      1.00000000</i>
    <i name="AMIN">      0.10000000</i>
    <i name="AMIX_MAG">      1.60000000</i>
    <i name="BMIX_MAG">      1.00000000</i>
    <separator name="electronic mixer details" >
     <i type="int" name="IMIX">     4</i>
     <i type="logical" name="MIXFIRST"> F  </i>
     <i type="int" name="MAXMIX">   -45</i>
     <i name="WC">    100.00000000</i>
     <i type="int" name="INIMIX">     1</i>
     <i type="int" name="MIXPRE">     1</i>
     <i type="int" name="MREMOVE">     5</i>
    </separator>
   </separator>
   <separator name="electronic dipolcorrection" >
    <i type="logical" name="LDIPOL"> F  </i>
    <i type="logical" name="LMONO"> F  </i>
    <i type="int" name="IDIPOL">     0</i>
    <i name="EPSILON">      1.00000000</i>
    <v name="DIPOL">   -100.00000000   -100.00000000   -100.00000000</v>
    <i name="EFIELD">      0.00000000</i>
   </separator>
  </separator>
  <separator name="grids" >
   <i type="int" name="NGX">    24</i>
   <i type="int" name="NGY">    24</i>
   <i type="int" name="NGZ">    24</i>
   <i type="int" name="NGXF">    48</i>
   <i type="int" name="NGYF">    48</i>
   <i type="int" name="NGZF">    48</i>
   <i type="logical" name="ADDGRID"> T  </i>
  </separator>
  <separator name="ionic" >
   <i type="int" name="NSW">   100</i>
   <i type="int" name="IBRION">     2</i>
   <i type="int" name="MDALGO">     0</i>
   <i type="int" name="ISIF">     3</i>
   <i name="PSTRESS">      0.00000000</i>
   <i name="EDIFFG">     -0.00200000</i>
   <i type="int" name="NFREE">     1</i>
   <i name="POTIM">      0.50000000</i>
   <i name="SMASS">     -3.00000000</i>
   <i name="SCALEE">      1.00000000</i>
  </separator>
  <separator name="ionic md" >
   <i name="TEBEG">      0.00010000</i>
   <i name="TEEND">      0.00010000</i>
   <i type="int" name="NBLOCK">     1</i>
   <i type="int" name="KBLOCK">   100</i>
   <i type="int" name="NPACO">   256</i>
   <i name="APACO">     16.00000000</i>
  </separator>
  <separator name="symmetry" >
   <i type="int" name="ISYM">     2</i>
   <i name="SYMPREC">      0.00001000</i>
  </separator>
  <separator name="dos" >
   <i type="int" name="LORBIT">     0</i>
   <v name="RWIGS">     -1.00000000</v>
   <i type="int" name="NEDOS">   301</i>
   <i name="EMIN">     10.00000000</i>
   <i name="EMAX">    -10.00000000</i>
   <i name="EFERMI">      0.00000000</i>
  </separator>
  <separator name="writing" >
   <i type="int" name="NWRITE">     2</i>
   <i type="logical" name="LWAVE"> F  </i>
   <i type="logical" name="LDOWNSAMPLE"> F  </i>
   <i type="logical" name="LCHARG"> F  </i>
   <i type="logical" name="LPARD"> F  </i>
   <i type="logical" name="LVTOT"> F  </i>
   <i type="logical" name="LVHAR"> F  </i>
   <i type="logical" name="LELF"> F  </i>
   <i type="logical" name="LOPTICS"> F  </i>
   <v name="STM">      0.00000000      0.00000000      0.00000000      0.00000000      0.00000000      0.00000000      0.00000000</v>
  </separator>
  <separator name="performance" >
   <i type="int" name="NPAR">     4</i>
   <i type="int" name="NSIM">     4</i>
   <i type="int" name="NBLK">    -1</i>
   <i type="logical" name="LPLANE"> T  </i>
   <i type="logical" name="LSCALAPACK"> T  </i>
   <i type="logical" name="LSCAAWARE"> F  </i>
   <i type="logical" name="LSCALU"> F  </i>
   <i type="logical" name="LASYNC"> F  </i>
   <i type="logical" name="LORBITALREAL"> F  </i>
  </separator>
  <separator name="miscellaneous" >
   <i type="int" name="IDIOT">     3</i>
   <i type="int" name="PHON_NSTRUCT">    -1</i>
   <i type="logical" name="LMUSIC"> F  </i>
   <v name="POMASS">     28.08500000</v>
   <v name="DARWINR">      0.00000000</v>
   <v name="DARWINV">      1.00000000</v>
   <i type="logical" name="LCORR"> T  </i>
  </separator>
  <i type="logical" name="GGA_COMPAT"> T  </i>
  <i type="logical" name="LBERRY"> F  </i>
  <i type="int" name="ICORELEVEL">     0</i>
  <i type="logical" name="LDAU"> F  </i>
  <i type="int" name="I_CONSTRAINED_M">     0</i>
  <separator name="electronic exchange-correlation" >
   <i type="string" name="GGA">--</i>
   <i type="int" name="VOSKOWN">     0</i>
   <i type="logical" name="LHFCALC"> F  </i>
   <i type="string" name="PRECFOCK"></i>
   <i type="logical" name="LSYMGRAD"> F  </i>
   <i type="logical" name="LHFONE"> F  </i>
   <i type="logical" name="LRHFCALC"> F  </i>
   <i type="logical" name="LTHOMAS"> F  </i>
   <i type="logical" name="LMODELHF"> F  </i>
   <i type="logical" name="LFOCKACE"> F  </i>
   <i name="ENCUT4O">     -1.00000000</i>
   <i type="int" name="EXXOEP">     0</i>
   <i type="int" name="FOURORBIT">     0</i>
   <i name="AEXX">      0.00000000</i>
   <i name="HFALPHA">      0.00000000</i>
   <i name="MCALPHA">      0.00000000</i>
   <i name="ALDAX">      1.00000000</i>
   <i name="AGGAX">      1.00000000</i>
   <i name="ALDAC">      1.00000000</i>
   <i name="AGGAC">      1.00000000</i>
   <i type="int" name="NKREDX">     1</i>
   <i type="int" name="NKREDY">     1</i>
   <i type="int" name="NKREDZ">     1</i>
   <i type="logical" name="SHIFTRED"> F  </i>
   <i type="logical" name="ODDONLY"> F  </i>
   <i type="logical" name="EVENONLY"> F  </i>
   <i type="int" name="LMAXFOCK">     0</i>
   <i type="int" name="NMAXFOCKAE">     0</i>
   <i type="logical" name="LFOCKAEDFT"> F  </i>
   <i name="HFSCREEN">      0.00000000</i>
   <i name="HFSCREENC">      0.00000000</i>
   <i type="int" name="NBANDSGWLOW">     0</i>
  </separator>
  <separator name="vdW DFT" >
   <i type="logical" name="LUSE_VDW"> F  </i>
   <i name="Zab_VDW">     -0.84910000</i>
   <i name="PARAM1">      0.12340000</i>
   <i name="PARAM2">      1.00000000</i>
   <i name="PARAM3">      0.00000000</i>
  </separator>
  <separator name="model GW" >
   <i type="int" name="MODEL_GW">     0</i>
   <i name="MODEL_EPS0">      8.31779867</i>
   <i name="MODEL_ALPHA">      1.00000000</i>
  </separator>
  <separator name="linear response parameters" >
   <i type="logical" name="LEPSILON"> F  </i>
   <i type="logical" name="LRPA"> F  </i>
   <i type="logical" name="LNABLA"> F  </i>
   <i type="logical" name="LVEL"> F  </i>
   <i type="int" name="KINTER">     0</i>
   <i name="CSHIFT">      0.10000000</i>
   <i name="OMEGAMAX">     -1.00000000</i>
   <i name="DEG_THRESHOLD">      0.00200000</i>
   <i name="RTIME">     -0.10000000</i>
   <i name="WPLASMAI">      0.00000000</i>
   <v name="DFIELD">      0.00000000      0.00000000      0.00000000</v>
   <v name="WPLASMA">      0.00000000      0.00000000      0.00000000      0.00000000      0.00000000      0.00000000      0.00000000      0.00000000      0.00000000</v>
  </separator>
  <separator name="orbital magnetization" >
   <i type="logical" name="NUCIND"> F  </i>
   <v name="MAGPOS">      0.00000000      0.00000000      0.00000000</v>
   <i type="logical" name="LNICSALL"> T  </i>
   <i type="logical" name="ORBITALMAG"> F  </i>
   <i type="logical" name="LMAGBLOCH"> F  </i>
   <i type="logical" name="LCHIMAG"> F  </i>
   <i type="logical" name="LGAUGE"> T  </i>
   <i type="int" name="MAGATOM">     0</i>
   <v name="MAGDIPOL">      0.00000000      0.00000000      0.00000000</v>
   <v name="AVECCONST">      0.00000000      0.00000000      0.00000000</v>
  </separator>
  <separator name="response functions" >
   <i type="logical" name="LFINITE_TEMPERATURE"> F  </i>
   <i type="logical" name="LADDER"> F  </i>
   <i type="logical" name="LRPAFORCE"> F  </i>
   <i type="logical" name="LFXC"> F  </i>
   <i type="logical" name="LHARTREE"> T  </i>
   <i type="int" name="IBSE">     0</i>
   <v type="int" name="KPOINT">    -1     0     0     0</v>
   <i type="logical" name="LTCTC"> F  </i>
   <i type="logical" name="LTCTE"> F  </i>
   <i type="logical" name="LTETE"> F  </i>
   <i type="logical" name="LTRIPLET"> F  </i>
   <i type="logical" name="LFXCEPS"> F  </i>
   <i type="logical" name="LFXHEG"> F  </i>
   <i type="int" name="NATURALO">     2</i>
   <i type="logical" name="LHOLEGF"> F  </i>
   <i type="logical" name="L2ORDER"> F  </i>
   <i type="logical" name="LDMP1"> F  </i>
   <i type="logical" name="LMP2LT"> F  </i>
   <i type="logical" name="LSMP2LT"> F  </i>
   <i type="logical" name="LGWLF"> F  </i>
   <i name="ENCUTGW">     -2.00000000</i>
   <i name="ENCUTGWSOFT">     -2.00000000</i>
   <i name="ENCUTLF">     -1.00000000</i>
   <i type="logical" name="LESF_SPLINES"> F  </i>
   <i type="int" name="LMAXMP2">    -1</i>
   <i name="SCISSOR">      0.00000000</i>
   <i type="int" name="NOMEGA">     0</i>
   <i type="int" name="NOMEGAR">     0</i>
   <i type="int" name="NBANDSGW">    -1</i>
   <i type="int" name="NBANDSO">    -1</i>
   <i type="int" name="NBANDSV">    -1</i>
   <i type="int" name="NELM">    90</i>
   <i type="int" name="NELMHF">     1</i>
   <i type="int" name="DIM">     3</i>
   <i type="int" name="IESPILON">     4</i>
   <i type="int" name="ANTIRES">     0</i>
   <i name="OMEGAMAX">    -30.00000000</i>
   <i name="OMEGAMIN">    -30.00000000</i>
   <i name="OMEGATL">   -200.00000000</i>
   <i type="int" name="OMEGAGRID">     0</i>
   <i name="CSHIFT">     -0.10000000</i>
   <i type="logical" name="LSELFENERGY"> F  </i>
   <i type="logical" name="LSPECTRAL"> F  </i>
   <i type="logical" name="LSPECTRALGW"> F  </i>
   <i type="logical" name="LSINGLES"> F  </i>
   <i type="logical" name="LFERMIGW"> F  </i>
   <i type="logical" name="ODDONLYGW"> F  </i>
   <i type="logical" name="EVENONLYGW"> F  </i>
   <i type="int" name="NKREDLFX">     1</i>
   <i type="int" name="NKREDLFY">     1</i>
   <i type="int" name="NKREDLFZ">     1</i>
   <i type="int" name="MAXMEM">  2800</i>
   <i type="int" name="TELESCOPE">     0</i>
   <i type="int" name="NTAUPAR">    -1</i>
   <i type="int" name="NOMEGAPAR">    -1</i>
   <i name="DAMP_NEWTON">      0.80000001</i>
   <i name="LAMBDA">      1.00000000</i>
  </separator>
  <separator name="External order field" >
   <i name="OFIELD_KAPPA">      0.00000000</i>
   <v name="OFIELD_K">      0.00000000      0.00000000      0.00000000</v>
   <i name="OFIELD_Q6_NEAR">      0.00000000</i>
   <i name="OFIELD_Q6_FAR">      0.00000000</i>
   <i name="OFIELD_A">      0.00000000</i>
  </separator>
 </parameters>
 <atominfo>
  <atoms>       1 </atoms>
  <types>       1 </types>
  <array name="atoms" >
   <dimension dim="1">ion</dimension>
   <field type="string">element</field>
   <field type="int">atomtype</field>
   <set>
    <rc><c>Si</c><c>   1</c></rc>
   </set>
  </array>
  <array name="atomtypes" >
   <dimension dim="1">type</dimension>
   <field type="int">atomspertype</field>
   <field type="string">element</field>
   <field>mass</field>
   <field>valence</field>
   <field type="string">pseudopotential</field>
   <set>
    <rc><c>   1</c><c>Si</c><c>     28.08500000</c><c>      4.00000000</c><c>  PAW_PBE Si 05Jan2001                  </c></rc>
   </set>
  </array>
 </atominfo>
 <structure name="initialpos" >
  <crystal>
   <varray name="basis" >
    <v>       1.51332563       1.51332563       1.51332563 </v>
    <v>       1.51332563      -1.51332563      -1.51332563 </v>
    <v>      -1.51332563       1.51332563      -1.51332563 </v>
   </varray>
   <i name="volume">     13.86299778 </i>
   <varray name="rec_basis" >
    <v>       0.33039816       0.33039816       0.00000000 </v>
    <v>       0.33039816       0.00000000      -0.33039816 </v>
    <v>       0.00000000       0.33039816      -0.33039816 </v>
   </varray>
  </crystal>
  <varray name="positions" >
   <v>       0.00000000       0.00000000       0.00000000 </v>
  </varray>
 </structure>
 <calculation>
  <scstep>
   <time name="dav">    0.98    0.98</time>
   <time name="total">    1.20    1.21</time>
   <energy>
    <i name="alphaZ">      2.42827211 </i>
    <i name="ewald">   -138.51397499 </i>
    <i name="hartreedc">     -0.48179554 </i>
    <i name="XCdc">     -8.69332258 </i>
    <i name="pawpsdc">     88.12379961 </i>
    <i name="pawaedc">    -70.53051779 </i>
    <i name="eentropy">     -0.00052341 </i>
    <i name="bandstr">     23.18801107 </i>
    <i name="atom">    103.06659554 </i>
    <i name="e_fr_energy">     -1.41345598 </i>
    <i name="e_wo_entrp">     -1.41293256 </i>
    <i name="e_0_energy">     -1.41319427 </i>
   </energy>
  </scstep>
  <scstep>
   <time name="dav">    1.32    1.34</time>
   <time name="total">    1.32    1.34</time>
   <energy>
    <i name="e_fr_energy">     -4.89114851 </i>
    <i name="e_wo_entrp">     -4.89057567 </i>
    <i name="e_0_energy">     -4.89086209 </i>
   </energy>
  </scstep>
  <scstep>
   <time name="dav">    1.01    1.03</time>
   <time name="total">    1.01    1.03</time>
   <energy>
    <i name="e_fr_energy">     -4.91373932 </i>
    <i name="e_wo_entrp">     -4.91315662 </i>
    <i name="e_0_energy">     -4.91344797 </i>
   </energy>
  </scstep>
  <scstep>
   <time name="dav">    1.42    1.44</time>
   <time name="total">    1.42    1.44</time>
   <energy>
    <i name="e_fr_energy">     -4.91377802 </i>
    <i name="e_wo_entrp">     -4.91319530 </i>
    <i name="e_0_energy">     -4.91348666 </i>
   </energy>
  </scstep>
  <scstep>
   <time name="dav">    1.03    1.05</time>
   <time name="total">    1.12    1.14</time>
   <energy>
    <i name="e_fr_energy">     -4.91377803 </i>
    <i name="e_wo_entrp">     -4.91319530 </i>
    <i name="e_0_energy">     -4.91348666 </i>
   </energy>
  </scstep>
  <scstep>
   <time name="dav">    0.99    0.99</time>
   <time name="total">    1.28    1.30</time>
   <energy>
    <i name="e_fr_energy">     -4.90233143 </i>
    <i name="e_wo_entrp">     -4.90172793 </i>
    <i name="e_0_energy">     -4.90202968 </i>
   </energy>
  </scstep>
  <scstep>
   <time name="dav">    1.02    1.02</time>
   <time name="total">    1.31    1.33</time>
   <energy>
    <i name="e_fr_energy">     -4.89576495 </i>
    <i name="e_wo_entrp">     -4.89513613 </i>
    <i name="e_0_energy">     -4.89545054 </i>
   </energy>
  </scstep>
  <scstep>
   <time name="dav">    1.26    1.26</time>
   <time name="total">    1.55    1.57</time>
   <energy>
    <i name="e_fr_energy">     -4.89574368 </i>
    <i name="e_wo_entrp">     -4.89511422 </i>
    <i name="e_0_energy">     -4.89542895 </i>
   </energy>
  </scstep>
  <scstep>
   <time name="dav">    1.06    1.06</time>
   <time name="total">    1.27    1.28</time>
   <energy>
    <i name="alphaZ">      2.42827211 </i>
    <i name="ewald">   -138.51397499 </i>
    <i name="hartreedc">     -0.35545238 </i>
    <i name="XCdc">     -8.62522102 </i>
    <i name="pawpsdc">    332.74916014 </i>
    <i name="pawaedc">   -315.18293268 </i>
    <i name="eentropy">     -0.00062964 </i>
    <i name="bandstr">     19.53843867 </i>
    <i name="atom">    103.06659554 </i>
    <i name="e_fr_energy">     -4.89574425 </i>
    <i name="e_wo_entrp">     -4.89511461 </i>
    <i name="e_0_energy">     -4.89542943 </i>
   </energy>
  </scstep>
  <structure>
   <crystal>
    <varray name="basis" >
     <v>       1.51332563       1.51332563       1.51332563 </v>
     <v>       1.51332563      -1.51332563      -1.51332563 </v>
     <v>      -1.51332563       1.51332563      -1.51332563 </v>
    </varray>
    <i name="volume">     13.86299778 </i>
    <varray name="rec_basis" >
     <v>       0.33039816       0.33039816       0.00000000 </v>
     <v>       0.33039816       0.00000000      -0.33039816 </v>
     <v>       0.00000000       0.33039816      -0.33039816 </v>
    </varray>
   </crystal>
   <varray name="positions" >
    <v>       0.00000000       0.00000000       0.00000000 </v>
   </varray>
  </structure>
  <varray name="forces" >
   <v>       0.00000000       0.00000000      -0.00000000 </v>
  </varray>
  <varray name="stress" >
   <v>      56.40391411       0.00000000       0.00000000 </v>
   <v>       0.00000000      56.40391411       0.00000000 </v>
   <v>      -0.00000000       0.00000000      56.40391411 </v>
  </varray>
  <energy>
   <i name="e_fr_energy">     -4.89574425 </i>
   <i name="e_wo_entrp">     -4.89511461 </i>
   <i name="e_0_energy">     -4.89542943 </i>
  </energy>
  <time name="totalsc">   13.24   13.52</time>
 </calculation>
 <calculation>
  <scstep>
   <time name="dav">    0.95    0.95</time>
   <time name="total">    1.25    1.25</time>
   <energy>
    <i name="alphaZ">      2.26452612 </i>
    <i name="ewald">   -135.32776843 </i>
    <i name="hartreedc">     -0.34724933 </i>
    <i name="XCdc">     -8.80812120 </i>
    <i name="pawpsdc">    332.82025022 </i>
    <i name="pawaedc">   -315.25367872 </i>
    <i name="eentropy">     -0.00046840 </i>
    <i name="bandstr">     16.66961214 </i>
    <i name="atom">    103.06659554 </i>
    <i name="e_fr_energy">     -4.91630206 </i>
    <i name="e_wo_entrp">     -4.91583366 </i>
    <i name="e_0_energy">     -4.91606786 </i>
   </energy>
  </scstep>
  <scstep>
   <time name="dav">    1.03    1.03</time>
   <time name="total">    1.32    1.34</time>
   <energy>
    <i name="e_fr_energy">     -4.91091792 </i>
    <i name="e_wo_entrp">     -4.91045256 </i>
    <i name="e_0_energy">     -4.91068524 </i>
   </energy>
  </scstep>
  <scstep>
   <time name="dav">    0.99    0.99</time>
   <time name="total">    1.28    1.30</time>
   <energy>
    <i name="e_fr_energy">     -4.90771593 </i>
    <i name="e_wo_entrp">     -4.90725351 </i>
    <i name="e_0_energy">     -4.90748472 </i>
   </energy>
  </scstep>
  <scstep>
   <time name="dav">    1.17    1.17</time>
   <time name="total">    1.46    1.48</time>
   <energy>
    <i name="e_fr_energy">     -4.90771284 </i>
    <i name="e_wo_entrp">     -4.90725037 </i>
    <i name="e_0_energy">     -4.90748160 </i>
   </energy>
  </scstep>
  <scstep>
   <time name="dav">    1.12    1.12</time>
   <time name="total">    1.41    1.43</time>
   <energy>
    <i name="e_fr_energy">     -4.90770064 </i>
    <i name="e_wo_entrp">     -4.90723799 </i>
    <i name="e_0_energy">     -4.90746931 </i>
   </energy>
  </scstep>
  <scstep>
   <time name="dav">    0.63    0.63</time>
   <time name="total">    0.84    0.86</time>
   <energy>
    <i name="alphaZ">      2.26452612 </i>
    <i name="ewald">   -135.32776843 </i>
    <i name="hartreedc">     -0.45721173 </i>
    <i name="XCdc">     -8.82986030 </i>
    <i name="pawpsdc">    284.95447057 </i>
    <i name="pawaedc">   -267.37272679 </i>
    <i name="eentropy">     -0.00046262 </i>
    <i name="bandstr">     16.79473661 </i>
    <i name="atom">    103.06659554 </i>
    <i name="e_fr_energy">     -4.90770104 </i>
    <i name="e_wo_entrp">     -4.90723841 </i>
    <i name="e_0_energy">     -4.90746972 </i>
   </energy>
  </scstep>
  <structure>
   <crystal>
    <varray name="basis" >
     <v>       1.54895592       1.54895592       1.54895592 </v>
     <v>       1.54895592      -1.54895592      -1.54895592 </v>
     <v>      -1.54895592       1.54895592      -1.54895592 </v>
    </varray>
    <i name="volume">     14.86541953 </i>
    <varray name="rec_basis" >
     <v>       0.32279808       0.32279808      -0.00000000 </v>
     <v>       0.32279808       0.00000000      -0.32279808 </v>
     <v>       0.00000000       0.32279808      -0.32279808 </v>
    </varray>
   </crystal>
   <varray name="positions" >
    <v>       0.00000000       0.00000000       0.00000000 </v>
   </varray>
  </structure>
  <varray name="forces" >
   <v>      -0.00000000       0.00000000       0.00000000 </v>
  </varray>
  <varray name="stress" >
   <v>     -14.34413291      -0.00000000       0.00000000 </v>
   <v>      -0.00000000     -14.34413291       0.00000000 </v>
   <v>       0.00000000       0.00000000     -14.34413291 </v>
  </varray>
  <energy>
   <i name="e_fr_energy">     -4.90770104 </i>
   <i name="e_wo_entrp">     -4.90723841 </i>
   <i name="e_0_energy">     -4.90746972 </i>
  </energy>
  <time name="totalsc">    9.28    9.52</time>
 </calculation>
 <calculation>
  <scstep>
   <time name="dav">    0.97    0.97</time>
   <time name="total">    1.26    1.27</time>
   <energy>
    <i name="alphaZ">      2.30056696 </i>
    <i name="ewald">   -136.04192501 </i>
    <i name="hartreedc">     -0.45961126 </i>
    <i name="XCdc">     -8.78956281 </i>
    <i name="pawpsdc">    284.64573650 </i>
    <i name="pawaedc">   -267.06400743 </i>
    <i name="eentropy">     -0.00049187 </i>
    <i name="bandstr">     17.43349803 </i>
    <i name="atom">    103.06659554 </i>
    <i name="e_fr_energy">     -4.90920134 </i>
    <i name="e_wo_entrp">     -4.90870947 </i>
    <i name="e_0_energy">     -4.90895541 </i>
   </energy>
  </scstep>
  <scstep>
   <time name="dav">    1.05    1.05</time>
   <time name="total">    1.34    1.36</time>
   <energy>
    <i name="e_fr_energy">     -4.90891715 </i>
    <i name="e_wo_entrp">     -4.90842684 </i>
    <i name="e_0_energy">     -4.90867199 </i>
   </energy>
  </scstep>
  <scstep>
   <time name="dav">    1.11    1.11</time>
   <time name="total">    1.41    1.42</time>
   <energy>
    <i name="e_fr_energy">     -4.90875005 </i>
    <i name="e_wo_entrp">     -4.90826188 </i>
    <i name="e_0_energy">     -4.90850597 </i>
   </energy>
  </scstep>
  <scstep>
   <time name="dav">    1.19    1.19</time>
   <time name="total">    1.49    1.50</time>
   <energy>
    <i name="e_fr_energy">     -4.90875013 </i>
    <i name="e_wo_entrp">     -4.90826196 </i>
    <i name="e_0_energy">     -4.90850605 </i>
   </energy>
  </scstep>
  <scstep>
   <time name="dav">    0.68    0.68</time>
   <time name="total">    0.97    1.00</time>
   <energy>
    <i name="e_fr_energy">     -4.90875084 </i>
    <i name="e_wo_entrp">     -4.90826271 </i>
    <i name="e_0_energy">     -4.90850678 </i>
   </energy>
  </scstep>
  <scstep>
   <time name="dav">    0.70    0.70</time>
   <time name="total">    0.93    0.94</time>
   <energy>
    <i name="alphaZ">      2.30056696 </i>
    <i name="ewald">   -136.04192501 </i>
    <i name="hartreedc">     -0.43167657 </i>
    <i name="XCdc">     -8.78439345 </i>
    <i name="pawpsdc">    294.46919452 </i>
    <i name="pawaedc">   -276.89073898 </i>
    <i name="eentropy">     -0.00048813 </i>
    <i name="bandstr">     17.40411440 </i>
    <i name="atom">    103.06659554 </i>
    <i name="e_fr_energy">     -4.90875070 </i>
    <i name="e_wo_entrp">     -4.90826257 </i>
    <i name="e_0_energy">     -4.90850664 </i>
   </energy>
  </scstep>
  <structure>
   <crystal>
    <varray name="basis" >
     <v>       1.54082463       1.54082463       1.54082463 </v>
     <v>       1.54082463      -1.54082463      -1.54082463 </v>
     <v>      -1.54082463       1.54082463      -1.54082463 </v>
    </varray>
    <i name="volume">     14.63253682 </i>
    <varray name="rec_basis" >
     <v>       0.32450156       0.32450156       0.00000000 </v>
     <v>       0.32450156       0.00000000      -0.32450156 </v>
     <v>       0.00000000       0.32450156      -0.32450156 </v>
    </varray>
   </crystal>
   <varray name="positions" >
    <v>       0.00000000       0.00000000       0.00000000 </v>
   </varray>
  </structure>
  <varray name="forces" >
   <v>       0.00000000       0.00000000       0.00000000 </v>
  </varray>
  <varray name="stress" >
   <v>       0.15317005       0.00000000       0.00000000 </v>
   <v>       0.00000000       0.15317005      -0.00000000 </v>
   <v>      -0.00000000       0.00000000       0.15317005 </v>
  </varray>
  <energy>
   <i name="e_fr_energy">     -4.90875070 </i>
   <i name="e_wo_entrp">     -4.90826257 </i>
   <i name="e_0_energy">     -4.90850664 </i>
  </energy>
  <time name="totalsc">    9.02    9.26</time>
  <eigenvalues>
   <array>
    <dimension dim="1">band</dimension>
    <dimension dim="2">kpoint</dimension>
    <dimension dim="3">spin</dimension>
    <field>eigene</field>
    <field>occ</field>
    <set>
     <set comment="spin 1">
      <set comment="kpoint 1">
       <r>   -4.3169    1.0000 </r>
       <r>   21.2831    0.0000 </r>
       <r>   21.2831    0.0000 </r>
       <r>   21.2831    0.0000 </r>
       <r>   22.4358    0.0000 </r>
       <r>   22.4358    0.0000 </r>
       <r>   22.4358    0.0000 </r>
       <r>   26.1273    0.0000 </r>
      </set>
      <set comment="kpoint 2">
       <r>   -4.1809    1.0000 </r>
       <r>   19.6760    0.0000 </r>
       <r>   20.1524    0.0000 </r>
       <r>   21.0915    0.0000 </r>
       <r>   21.9895    0.0000 </r>
       <r>   23.1983    0.0000 </r>
       <r>   23.7942    0.0000 </r>
       <r>   25.2203    0.0000 </r>
      </set>
      <set comment="kpoint 3">
       <r>   -3.7733    1.0000 </r>
       <r>   17.0650    0.0000 </r>
       <r>   18.8154    0.0000 </r>
       <r>   20.5731    0.0000 </r>
       <r>   21.0130    0.0000 </r>
       <r>   22.9672    0.0000 </r>
       <r>   25.1402    0.0000 </r>
       <r>   25.8100    0.0000 </r>
      </set>
      <set comment="kpoint 4">
       <r>   -3.0957    1.0000 </r>
       <r>   14.2457    0.0000 </r>
       <r>   17.6801    0.0000 </r>
       <r>   19.8880    0.0000 </r>
       <r>   19.9581    0.0000 </r>
       <r>   22.0196    0.0000 </r>
       <r>   26.0060    0.0000 </r>
       <r>   26.1903    0.0000 </r>
      </set>
      <set comment="kpoint 5">
       <r>   -2.1509    1.0000 </r>
       <r>   11.4731    0.0000 </r>
       <r>   16.7685    0.0000 </r>
       <r>   19.0258    0.0000 </r>
       <r>   19.2066    0.0000 </r>
       <r>   21.1592    0.0000 </r>
       <r>   26.8154    0.0000 </r>
       <r>   27.0798    0.0000 </r>
      </set>
      <set comment="kpoint 6">
       <r>   -0.9428    1.0000 </r>
       <r>    8.8518    1.0000 </r>
       <r>   16.0844    0.0000 </r>
       <r>   18.2936    0.0000 </r>
       <r>   18.6374    0.0000 </r>
       <r>   20.4831    0.0000 </r>
       <r>   27.7173    0.0000 </r>
       <r>   28.2896    0.0000 </r>
      </set>
      <set comment="kpoint 7">
       <r>    0.5228    1.0000 </r>
       <r>    6.4296    1.0000 </r>
       <r>   15.6285    0.0000 </r>
       <r>   17.7939    0.0000 </r>
       <r>   18.2366    0.0000 </r>
       <r>   20.0193    0.0000 </r>
       <r>   28.8214    0.0000 </r>
       <r>   29.5575    0.0000 </r>
      </set>
      <set comment="kpoint 8">
       <r>    2.2309    1.0000 </r>
       <r>    4.2398    1.0000 </r>
       <r>   15.4006    0.0000 </r>
       <r>   17.5412    0.0000 </r>
       <r>   18.0308    0.0000 </r>
       <r>   19.7836    0.0000 </r>
       <r>   29.8978    0.0000 </r>
       <r>   30.5779    0.0000 </r>
      </set>
      <set comment="kpoint 9">
       <r>   -3.9091    1.0000 </r>
       <r>   18.1814    0.0000 </r>
       <r>   18.7274    0.0000 </r>
       <r>   20.0764    0.0000 </r>
       <r>   22.1455    0.0000 </r>
       <r>   23.5008    0.0000 </r>
       <r>   24.4571    0.0000 </r>
       <r>   24.9960    0.0000 </r>
      </set>
      <set comment="kpoint 10">
       <r>   -3.3665    1.0000 </r>
       <r>   15.7110    0.0000 </r>
       <r>   17.2729    0.0000 </r>
       <r>   19.1077    0.0000 </r>
       <r>   21.6671    0.0000 </r>
       <r>   23.0573    0.0000 </r>
       <r>   24.7679    0.0000 </r>
       <r>   26.3891    0.0000 </r>
      </set>
      <set comment="kpoint 11">
       <r>   -2.5553    1.0000 </r>
       <r>   12.9285    0.0000 </r>
       <r>   16.2086    0.0000 </r>
       <r>   18.1935    0.0000 </r>
       <r>   20.9357    0.0000 </r>
       <r>   22.3954    0.0000 </r>
       <r>   25.3243    0.0000 </r>
       <r>   27.6474    0.0000 </r>
      </set>
      <set comment="kpoint 12">
       <r>   -1.4788    1.0000 </r>
       <r>   10.2315    0.0000 </r>
       <r>   15.3837    0.0000 </r>
       <r>   17.4247    0.0000 </r>
       <r>   20.2331    0.0000 </r>
       <r>   21.8069    0.0000 </r>
       <r>   26.1197    0.0000 </r>
       <r>   28.7950    0.0000 </r>
      </set>
      <set comment="kpoint 13">
       <r>   -0.1416    1.0000 </r>
       <r>    7.7089    1.0000 </r>
       <r>   14.7927    0.0000 </r>
       <r>   16.8543    0.0000 </r>
       <r>   19.6883    0.0000 </r>
       <r>   21.3395    0.0000 </r>
       <r>   27.1811    0.0000 </r>
       <r>   29.9059    0.0000 </r>
      </set>
      <set comment="kpoint 14">
       <r>    1.4484    1.0000 </r>
       <r>    5.3993    1.0000 </r>
       <r>   14.4372    0.0000 </r>
       <r>   16.5055    0.0000 </r>
       <r>   19.3494    0.0000 </r>
       <r>   21.0416    0.0000 </r>
       <r>   28.4436    0.0000 </r>
       <r>   30.5164    0.0000 </r>
      </set>
      <set comment="kpoint 15">
       <r>    3.1023    1.0000 </r>
       <r>    3.5044    1.0000 </r>
       <r>   14.3185    0.0000 </r>
       <r>   16.3884    0.0000 </r>
       <r>   19.2348    0.0000 </r>
       <r>   20.9397    0.0000 </r>
       <r>   29.5927    0.0000 </r>
       <r>   29.9499    0.0000 </r>
      </set>
      <set comment="kpoint 16">
       <r>   -2.6903    1.0000 </r>
       <r>   14.3487    0.0000 </r>
       <r>   14.8148    0.0000 </r>
       <r>   18.0502    0.0000 </r>
       <r>   21.8766    0.0000 </r>
       <r>   22.9761    0.0000 </r>
       <r>   25.4522    0.0000 </r>
       <r>   26.7552    0.0000 </r>
      </set>
      <set comment="kpoint 17">
       <r>   -1.7473    1.0000 </r>
       <r>   11.8203    0.0000 </r>
       <r>   13.6434    0.0000 </r>
       <r>   17.1871    0.0000 </r>
       <r>   21.5264    0.0000 </r>
       <r>   23.0287    0.0000 </r>
       <r>   25.7586    0.0000 </r>
       <r>   28.1839    0.0000 </r>
      </set>
      <set comment="kpoint 18">
       <r>   -0.5415    1.0000 </r>
       <r>    9.2248    1.0000 </r>
       <r>   12.9006    0.0000 </r>
       <r>   16.5135    0.0000 </r>
       <r>   20.9728    0.0000 </r>
       <r>   23.2610    0.0000 </r>
       <r>   26.0185    0.0000 </r>
       <r>   29.7773    0.0000 </r>
      </set>
      <set comment="kpoint 19">
       <r>    0.9214    1.0000 </r>
       <r>    6.8130    1.0000 </r>
       <r>   12.4075    0.0000 </r>
       <r>   16.0543    0.0000 </r>
       <r>   20.5485    0.0000 </r>
       <r>   23.3052    0.0000 </r>
       <r>   26.8081    0.0000 </r>
       <r>   30.3175    0.0000 </r>
      </set>
      <set comment="kpoint 20">
       <r>    2.6266    1.0000 </r>
       <r>    4.6287    1.0000 </r>
       <r>   12.1608    0.0000 </r>
       <r>   15.8221    0.0000 </r>
       <r>   20.3270    0.0000 </r>
       <r>   23.2651    0.0000 </r>
       <r>   27.9927    0.0000 </r>
       <r>   29.4268    0.0000 </r>
      </set>
      <set comment="kpoint 21">
       <r>   -0.6750    1.0000 </r>
       <r>   10.7986    0.0000 </r>
       <r>   11.1508    0.0000 </r>
       <r>   16.4183    0.0000 </r>
       <r>   22.0424    0.0000 </r>
       <r>   22.9302    0.0000 </r>
       <r>   27.3242    0.0000 </r>
       <r>   28.2521    0.0000 </r>
      </set>
      <set comment="kpoint 22">
       <r>    0.6570    1.0000 </r>
       <r>    8.4596    1.0000 </r>
       <r>   10.3642    0.0000 </r>
       <r>   15.8529    0.0000 </r>
       <r>   21.8974    0.0000 </r>
       <r>   23.5752    0.0000 </r>
       <r>   27.4581    0.0000 </r>
       <r>   29.3996    0.0000 </r>
      </set>
      <set comment="kpoint 23">
       <r>    2.2409    1.0000 </r>
       <r>    6.1700    1.0000 </r>
       <r>    9.9809    0.0011 </r>
       <r>   15.5075    0.0000 </r>
       <r>   21.6349    0.0000 </r>
       <r>   24.4821    0.0000 </r>
       <r>   27.2942    0.0000 </r>
       <r>   29.3436    0.0000 </r>
      </set>
      <set comment="kpoint 24">
       <r>    3.8961    1.0000 </r>
       <r>    4.2769    1.0000 </r>
       <r>    9.8539    0.7013 </r>
       <r>   15.3915    0.0000 </r>
       <r>   21.5368    0.0000 </r>
       <r>   24.9408    0.0000 </r>
       <r>   27.2649    0.0000 </r>
       <r>   28.9142    0.0000 </r>
      </set>
      <set comment="kpoint 25">
       <r>    2.1108    1.0000 </r>
       <r>    7.8102    1.0000 </r>
       <r>    8.1200    1.0000 </r>
       <r>   15.4013    0.0000 </r>
       <r>   22.7663    0.0000 </r>
       <r>   23.6656    0.0000 </r>
       <r>   27.8546    0.0000 </r>
       <r>   29.7104    0.0000 </r>
      </set>
      <set comment="kpoint 26">
       <r>    3.8051    1.0000 </r>
       <r>    5.7846    1.0000 </r>
       <r>    7.7239    1.0000 </r>
       <r>   15.1719    0.0000 </r>
       <r>   22.8899    0.0000 </r>
       <r>   24.6713    0.0000 </r>
       <r>   26.5252    0.0000 </r>
       <r>   30.5318    0.0000 </r>
      </set>
      <set comment="kpoint 27">
       <r>    5.3133    1.0000 </r>
       <r>    5.8188    1.0000 </r>
       <r>    5.8188    1.0000 </r>
       <r>   15.0586    0.0000 </r>
       <r>   23.7015    0.0000 </r>
       <r>   25.1398    0.0000 </r>
       <r>   25.1398    0.0000 </r>
       <r>   32.5241    0.0000 </r>
      </set>
      <set comment="kpoint 28">
       <r>   -3.5020    1.0000 </r>
       <r>   16.7140    0.0000 </r>
       <r>   17.7019    0.0000 </r>
       <r>   17.7019    0.0000 </r>
       <r>   23.3621    0.0000 </r>
       <r>   23.3621    0.0000 </r>
       <r>   25.4964    0.0000 </r>
       <r>   25.4964    0.0000 </r>
      </set>
      <set comment="kpoint 29">
       <r>   -2.8253    1.0000 </r>
       <r>   14.4319    0.0000 </r>
       <r>   15.9885    0.0000 </r>
       <r>   16.6425    0.0000 </r>
       <r>   23.0634    0.0000 </r>
       <r>   23.7285    0.0000 </r>
       <r>   25.8257    0.0000 </r>
       <r>   26.3042    0.0000 </r>
      </set>
      <set comment="kpoint 30">
       <r>   -1.8818    1.0000 </r>
       <r>   11.7135    0.0000 </r>
       <r>   14.9877    0.0000 </r>
       <r>   15.7251    0.0000 </r>
       <r>   22.6190    0.0000 </r>
       <r>   23.1681    0.0000 </r>
       <r>   27.0432    0.0000 </r>
       <r>   27.0442    0.0000 </r>
      </set>
      <set comment="kpoint 31">
       <r>   -0.6752    1.0000 </r>
       <r>    9.1040    1.0000 </r>
       <r>   14.2648    0.0000 </r>
       <r>   15.0113    0.0000 </r>
       <r>   22.1650    0.0000 </r>
       <r>   22.6026    0.0000 </r>
       <r>   27.9516    0.0000 </r>
       <r>   28.3604    0.0000 </r>
      </set>
      <set comment="kpoint 32">
       <r>    0.7887    1.0000 </r>
       <r>    6.6868    1.0000 </r>
       <r>   13.7853    0.0000 </r>
       <r>   14.5266    0.0000 </r>
       <r>   21.8147    0.0000 </r>
       <r>   22.1944    0.0000 </r>
       <r>   29.0323    0.0000 </r>
       <r>   29.6743    0.0000 </r>
      </set>
      <set comment="kpoint 33">
       <r>    2.4950    1.0000 </r>
       <r>    4.4999    1.0000 </r>
       <r>   13.5457    0.0000 </r>
       <r>   14.2820    0.0000 </r>
       <r>   21.6278    0.0000 </r>
       <r>   21.9834    0.0000 </r>
       <r>   30.0555    0.0000 </r>
       <r>   30.7036    0.0000 </r>
      </set>
      <set comment="kpoint 34">
       <r>   -4.0449    1.0000 </r>
       <r>   19.2280    0.0000 </r>
       <r>   19.2280    0.0000 </r>
       <r>   20.2490    0.0000 </r>
       <r>   22.7018    0.0000 </r>
       <r>   23.6450    0.0000 </r>
       <r>   23.7822    0.0000 </r>
       <r>   23.7822    0.0000 </r>
      </set>
      <set comment="kpoint 35">
       <r>   -2.0163    1.0000 </r>
       <r>   13.1623    0.0000 </r>
       <r>   13.6757    0.0000 </r>
       <r>   15.3261    0.0000 </r>
       <r>   23.6570    0.0000 </r>
       <r>   24.5328    0.0000 </r>
       <r>   26.1430    0.0000 </r>
       <r>   27.1126    0.0000 </r>
      </set>
      <set comment="kpoint 36">
       <r>   -0.9425    1.0000 </r>
       <r>   10.7178    0.0000 </r>
       <r>   12.5897    0.0000 </r>
       <r>   14.4824    0.0000 </r>
       <r>   23.5838    0.0000 </r>
       <r>   24.6161    0.0000 </r>
       <r>   26.9519    0.0000 </r>
       <r>   28.3485    0.0000 </r>
      </set>
      <set comment="kpoint 37">
       <r>    0.3913    1.0000 </r>
       <r>    8.2169    1.0000 </r>
       <r>   11.9611    0.0000 </r>
       <r>   13.8783    0.0000 </r>
       <r>   23.2672    0.0000 </r>
       <r>   24.5351    0.0000 </r>
       <r>   27.8405    0.0000 </r>
       <r>   29.7803    0.0000 </r>
      </set>
      <set comment="kpoint 38">
       <r>    1.9775    1.0000 </r>
       <r>    5.9162    1.0000 </r>
       <r>   11.5874    0.0000 </r>
       <r>   13.5135    0.0000 </r>
       <r>   23.0153    0.0000 </r>
       <r>   24.4204    0.0000 </r>
       <r>   28.9552    0.0000 </r>
       <r>   30.6456    0.0000 </r>
      </set>
      <set comment="kpoint 39">
       <r>    3.6322    1.0000 </r>
       <r>    4.0217    1.0000 </r>
       <r>   11.4629    0.0000 </r>
       <r>   13.3915    0.0000 </r>
       <r>   22.9246    0.0000 </r>
       <r>   24.3705    0.0000 </r>
       <r>   29.8945    0.0000 </r>
       <r>   30.3983    0.0000 </r>
      </set>
      <set comment="kpoint 40">
       <r>   -3.6376    1.0000 </r>
       <r>   17.0676    0.0000 </r>
       <r>   17.9293    0.0000 </r>
       <r>   19.7096    0.0000 </r>
       <r>   22.0814    0.0000 </r>
       <r>   22.3766    0.0000 </r>
       <r>   24.2434    0.0000 </r>
       <r>   25.4094    0.0000 </r>
      </set>
      <set comment="kpoint 41">
       <r>    0.2586    1.0000 </r>
       <r>    9.8111    0.9590 </r>
       <r>   10.1708    0.0000 </r>
       <r>   13.7483    0.0000 </r>
       <r>   24.2168    0.0000 </r>
       <r>   25.2198    0.0000 </r>
       <r>   28.0857    0.0000 </r>
       <r>   28.9196    0.0000 </r>
      </set>
      <set comment="kpoint 42">
       <r>    1.7159    1.0000 </r>
       <r>    7.5748    1.0000 </r>
       <r>    9.5026    1.0000 </r>
       <r>   13.2624    0.0000 </r>
       <r>   24.3076    0.0000 </r>
       <r>   25.8100    0.0000 </r>
       <r>   28.5883    0.0000 </r>
       <r>   30.0327    0.0000 </r>
      </set>
      <set comment="kpoint 43">
       <r>    3.4149    1.0000 </r>
       <r>    5.4053    1.0000 </r>
       <r>    9.2435    1.0000 </r>
       <r>   13.0186    0.0000 </r>
       <r>   24.2181    0.0000 </r>
       <r>   26.3306    0.0000 </r>
       <r>   28.8991    0.0000 </r>
       <r>   30.2473    0.0000 </r>
      </set>
      <set comment="kpoint 44">
       <r>   -2.9604    1.0000 </r>
       <r>   14.3326    0.0000 </r>
       <r>   16.7857    0.0000 </r>
       <r>   19.0851    0.0000 </r>
       <r>   21.0794    0.0000 </r>
       <r>   21.8341    0.0000 </r>
       <r>   24.2959    0.0000 </r>
       <r>   27.6412    0.0000 </r>
      </set>
      <set comment="kpoint 45">
       <r>   -3.0957    1.0000 </r>
       <r>   15.6723    0.0000 </r>
       <r>   15.9890    0.0000 </r>
       <r>   19.1162    0.0000 </r>
       <r>   21.3312    0.0000 </r>
       <r>   21.8312    0.0000 </r>
       <r>   25.1298    0.0000 </r>
       <r>   26.0412    0.0000 </r>
      </set>
      <set comment="kpoint 46">
       <r>    3.2903    1.0000 </r>
       <r>    7.0491    1.0000 </r>
       <r>    7.3659    1.0000 </r>
       <r>   12.8971    0.0000 </r>
       <r>   25.1670    0.0000 </r>
       <r>   26.3340    0.0000 </r>
       <r>   28.8421    0.0000 </r>
       <r>   30.6028    0.0000 </r>
      </set>
      <set comment="kpoint 47">
       <r>    4.9317    1.0000 </r>
       <r>    5.3107    1.0000 </r>
       <r>    7.0979    1.0000 </r>
       <r>   12.7753    0.0000 </r>
       <r>   25.3821    0.0000 </r>
       <r>   27.0329    0.0000 </r>
       <r>   28.0142    0.0000 </r>
       <r>   31.3872    0.0000 </r>
      </set>
      <set comment="kpoint 48">
       <r>   -2.0162    1.0000 </r>
       <r>   11.5851    0.0000 </r>
       <r>   15.8554    0.0000 </r>
       <r>   18.3559    0.0000 </r>
       <r>   20.1780    0.0000 </r>
       <r>   21.5374    0.0000 </r>
       <r>   24.5409    0.0000 </r>
       <r>   29.3746    0.0000 </r>
      </set>
      <set comment="kpoint 49">
       <r>   -2.2855    1.0000 </r>
       <r>   13.1240    0.0000 </r>
       <r>   14.7906    0.0000 </r>
       <r>   18.5947    0.0000 </r>
       <r>   20.7835    0.0000 </r>
       <r>   21.4166    0.0000 </r>
       <r>   25.1411    0.0000 </r>
       <r>   27.8068    0.0000 </r>
      </set>
      <set comment="kpoint 50">
       <r>   -0.8089    1.0000 </r>
       <r>    8.9737    1.0000 </r>
       <r>   15.1524    0.0000 </r>
       <r>   17.7271    0.0000 </r>
       <r>   19.4693    0.0000 </r>
       <r>   21.2158    0.0000 </r>
       <r>   25.2468    0.0000 </r>
       <r>   30.2802    0.0000 </r>
      </set>
      <set comment="kpoint 51">
       <r>   -1.2104    1.0000 </r>
       <r>   10.4650    0.0000 </r>
       <r>   13.9443    0.0000 </r>
       <r>   17.9734    0.0000 </r>
       <r>   20.0925    0.0000 </r>
       <r>   21.7195    0.0000 </r>
       <r>   24.9051    0.0000 </r>
       <r>   29.6676    0.0000 </r>
      </set>
      <set comment="kpoint 52">
       <r>   -1.3444    1.0000 </r>
       <r>   11.9993    0.0000 </r>
       <r>   12.3283    0.0000 </r>
       <r>   18.3581    0.0000 </r>
       <r>   20.6876    0.0000 </r>
       <r>   20.8388    0.0000 </r>
       <r>   26.7847    0.0000 </r>
       <r>   27.6774    0.0000 </r>
      </set>
      <set comment="kpoint 53">
       <r>    0.6558    1.0000 </r>
       <r>    6.5562    1.0000 </r>
       <r>   14.6820    0.0000 </r>
       <r>   17.2839    0.0000 </r>
       <r>   18.9862    0.0000 </r>
       <r>   20.9304    0.0000 </r>
       <r>   26.3384    0.0000 </r>
       <r>   30.3252    0.0000 </r>
      </set>
      <set comment="kpoint 54">
       <r>    0.1250    1.0000 </r>
       <r>    7.9571    1.0000 </r>
       <r>   13.3383    0.0000 </r>
       <r>   17.4590    0.0000 </r>
       <r>   19.5261    0.0000 </r>
       <r>   22.1061    0.0000 </r>
       <r>   25.0789    0.0000 </r>
       <r>   29.9105    0.0000 </r>
      </set>
      <set comment="kpoint 55">
       <r>   -0.1410    1.0000 </r>
       <r>    9.5810    1.0000 </r>
       <r>   11.4360    0.0000 </r>
       <r>   17.9447    0.0000 </r>
       <r>   20.1495    0.0000 </r>
       <r>   21.4035    0.0000 </r>
       <r>   26.6721    0.0000 </r>
       <r>   28.8536    0.0000 </r>
      </set>
      <set comment="kpoint 56">
       <r>    2.3628    1.0000 </r>
       <r>    4.3688    1.0000 </r>
       <r>   14.4464    0.0000 </r>
       <r>   17.0570    0.0000 </r>
       <r>   18.7421    0.0000 </r>
       <r>   20.7682    0.0000 </r>
       <r>   27.6869    0.0000 </r>
       <r>   29.1845    0.0000 </r>
      </set>
      <set comment="kpoint 57">
       <r>    1.7128    1.0000 </r>
       <r>    5.6549    1.0000 </r>
       <r>   12.9737    0.0000 </r>
       <r>   17.1340    0.0000 </r>
       <r>   19.1723    0.0000 </r>
       <r>   22.2727    0.0000 </r>
       <r>   25.8724    0.0000 </r>
       <r>   28.7329    0.0000 </r>
      </set>
      <set comment="kpoint 58">
       <r>    1.3188    1.0000 </r>
       <r>    7.1893    1.0000 </r>
       <r>   10.9322    0.0000 </r>
       <r>   17.5816    0.0000 </r>
       <r>   19.6969    0.0000 </r>
       <r>   22.3964    0.0000 </r>
       <r>   26.1620    0.0000 </r>
       <r>   28.6036    0.0000 </r>
      </set>
      <set comment="kpoint 59">
       <r>    1.1871    1.0000 </r>
       <r>    8.8140    1.0000 </r>
       <r>    9.1115    1.0000 </r>
       <r>   17.6911    0.0000 </r>
       <r>   20.8241    0.0000 </r>
       <r>   21.0671    0.0000 </r>
       <r>   27.0527    0.0000 </r>
       <r>   28.9699    0.0000 </r>
      </set>
      <set comment="kpoint 60">
       <r>    3.3684    1.0000 </r>
       <r>    3.7598    1.0000 </r>
       <r>   12.8520    0.0000 </r>
       <r>   17.0236    0.0000 </r>
       <r>   19.0527    0.0000 </r>
       <r>   22.2993    0.0000 </r>
       <r>   26.8526    0.0000 </r>
       <r>   27.5579    0.0000 </r>
      </set>
      <set comment="kpoint 61">
       <r>    3.0206    1.0000 </r>
       <r>    5.0139    1.0000 </r>
       <r>   10.6814    0.0000 </r>
       <r>   17.3843    0.0000 </r>
       <r>   19.4625    0.0000 </r>
       <r>   23.3587    0.0000 </r>
       <r>   25.6112    0.0000 </r>
       <r>   27.8995    0.0000 </r>
      </set>
      <set comment="kpoint 62">
       <r>    2.7660    1.0000 </r>
       <r>    6.6723    1.0000 </r>
       <r>    8.5945    1.0000 </r>
       <r>   17.4510    0.0000 </r>
       <r>   20.6067    0.0000 </r>
       <r>   22.1894    0.0000 </r>
       <r>   25.4959    0.0000 </r>
       <r>   29.6958    0.0000 </r>
      </set>
      <set comment="kpoint 63">
       <r>    4.4205    1.0000 </r>
       <r>    4.7861    1.0000 </r>
       <r>    8.4637    1.0000 </r>
       <r>   17.3614    0.0000 </r>
       <r>   20.5001    0.0000 </r>
       <r>   23.2952    0.0000 </r>
       <r>   24.2423    0.0000 </r>
       <r>   29.7824    0.0000 </r>
      </set>
      <set comment="kpoint 64">
       <r>    4.4485    1.0000 </r>
       <r>    6.2901    1.0000 </r>
       <r>    6.5766    1.0000 </r>
       <r>   17.3167    0.0000 </r>
       <r>   21.7063    0.0000 </r>
       <r>   22.2763    0.0000 </r>
       <r>   23.7979    0.0000 </r>
       <r>   31.6614    0.0000 </r>
      </set>
      <set comment="kpoint 65">
       <r>   -1.0764    1.0000 </r>
       <r>   12.0476    0.0000 </r>
       <r>   12.7162    0.0000 </r>
       <r>   12.7162    0.0000 </r>
       <r>   25.3127    0.0000 </r>
       <r>   25.3127    0.0000 </r>
       <r>   27.3479    0.0000 </r>
       <r>   27.3479    0.0000 </r>
      </set>
      <set comment="kpoint 66">
       <r>    0.1255    1.0000 </r>
       <r>    9.8402    0.8206 </r>
       <r>   11.5796    0.0000 </r>
       <r>   11.9797    0.0000 </r>
       <r>   25.5510    0.0000 </r>
       <r>   25.8857    0.0000 </r>
       <r>   28.3827    0.0000 </r>
       <r>   28.5244    0.0000 </r>
      </set>
      <set comment="kpoint 67">
       <r>    1.5839    1.0000 </r>
       <r>    7.4532    1.0000 </r>
       <r>   11.0622    0.0000 </r>
       <r>   11.4830    0.0000 </r>
       <r>   25.5630    0.0000 </r>
       <r>   25.7920    0.0000 </r>
       <r>   29.5913    0.0000 </r>
       <r>   29.8685    0.0000 </r>
      </set>
      <set comment="kpoint 68">
       <r>    3.2844    1.0000 </r>
       <r>    5.2778    1.0000 </r>
       <r>   10.8098    0.0000 </r>
       <r>   11.2332    0.0000 </r>
       <r>   25.5248    0.0000 </r>
       <r>   25.6805    0.0000 </r>
       <r>   30.4585    0.0000 </r>
       <r>   30.9980    0.0000 </r>
      </set>
      <set comment="kpoint 69">
       <r>   -3.2310    1.0000 </r>
       <r>   16.6278    0.0000 </r>
       <r>   16.6278    0.0000 </r>
       <r>   18.2567    0.0000 </r>
       <r>   20.5122    0.0000 </r>
       <r>   23.4976    0.0000 </r>
       <r>   25.0283    0.0000 </r>
       <r>   25.0283    0.0000 </r>
      </set>
      <set comment="kpoint 70">
       <r>    1.4524    1.0000 </r>
       <r>    9.0517    1.0000 </r>
       <r>    9.4230    1.0000 </r>
       <r>   11.1782    0.0000 </r>
       <r>   26.4610    0.0000 </r>
       <r>   27.1744    0.0000 </r>
       <r>   29.0923    0.0000 </r>
       <r>   29.5679    0.0000 </r>
      </set>
      <set comment="kpoint 71">
       <r>    3.0302    1.0000 </r>
       <r>    6.9378    1.0000 </r>
       <r>    8.8739    1.0000 </r>
       <r>   10.7978    0.0000 </r>
       <r>   26.7751    0.0000 </r>
       <r>   27.7122    0.0000 </r>
       <r>   29.9861    0.0000 </r>
       <r>   30.6385    0.0000 </r>
      </set>
      <set comment="kpoint 72">
       <r>    4.6798    1.0000 </r>
       <r>    5.0559    1.0000 </r>
       <r>    8.7416    1.0000 </r>
       <r>   10.6719    0.0000 </r>
       <r>   26.8195    0.0000 </r>
       <r>   27.8799    0.0000 </r>
       <r>   30.3739    0.0000 </r>
       <r>   31.1547    0.0000 </r>
      </set>
      <set comment="kpoint 73">
       <r>   -2.5551    1.0000 </r>
       <r>   14.5329    0.0000 </r>
       <r>   15.4694    0.0000 </r>
       <r>   17.6624    0.0000 </r>
       <r>   19.6326    0.0000 </r>
       <r>   23.0448    0.0000 </r>
       <r>   25.2190    0.0000 </r>
       <r>   26.7715    0.0000 </r>
      </set>
      <set comment="kpoint 74">
       <r>    4.7112    1.0000 </r>
       <r>    6.5487    1.0000 </r>
       <r>    6.8597    1.0000 </r>
       <r>   10.5414    0.0000 </r>
       <r>   27.5642    0.0000 </r>
       <r>   28.8208    0.0000 </r>
       <r>   29.9027    0.0000 </r>
       <r>   31.4721    0.0000 </r>
      </set>
      <set comment="kpoint 75">
       <r>   -1.6128    1.0000 </r>
       <r>   11.9078    0.0000 </r>
       <r>   14.5241    0.0000 </r>
       <r>   17.0253    0.0000 </r>
       <r>   19.8291    0.0000 </r>
       <r>   22.2199    0.0000 </r>
       <r>   24.8937    0.0000 </r>
       <r>   29.2339    0.0000 </r>
      </set>
      <set comment="kpoint 76">
       <r>   -1.7470    1.0000 </r>
       <r>   13.3479    0.0000 </r>
       <r>   13.5776    0.0000 </r>
       <r>   17.2822    0.0000 </r>
       <r>   18.7637    0.0000 </r>
       <r>   22.8699    0.0000 </r>
       <r>   26.4603    0.0000 </r>
       <r>   27.1481    0.0000 </r>
      </set>
      <set comment="kpoint 77">
       <r>   -0.4078    1.0000 </r>
       <r>    9.3349    1.0000 </r>
       <r>   13.8091    0.0000 </r>
       <r>   16.3832    0.0000 </r>
       <r>   20.4997    0.0000 </r>
       <r>   21.5410    0.0000 </r>
       <r>   24.5779    0.0000 </r>
       <r>   29.4696    0.0000 </r>
      </set>
      <set comment="kpoint 78">
       <r>   -0.6747    1.0000 </r>
       <r>   10.9130    0.0000 </r>
       <r>   12.6248    0.0000 </r>
       <r>   16.9226    0.0000 </r>
       <r>   18.9679    0.0000 </r>
       <r>   22.2512    0.0000 </r>
       <r>   26.2100    0.0000 </r>
       <r>   28.4638    0.0000 </r>
      </set>
      <set comment="kpoint 79">
       <r>    1.0539    1.0000 </r>
       <r>    6.9340    1.0000 </r>
       <r>   13.3304    0.0000 </r>
       <r>   15.9195    0.0000 </r>
       <r>   21.0731    0.0000 </r>
       <r>   21.2112    0.0000 </r>
       <r>   24.5878    0.0000 </r>
       <r>   28.2400    0.0000 </r>
      </set>
      <set comment="kpoint 80">
       <r>    0.6570    1.0000 </r>
       <r>    8.4474    1.0000 </r>
       <r>   12.0090    0.0000 </r>
       <r>   16.4295    0.0000 </r>
       <r>   19.7830    0.0000 </r>
       <r>   21.8162    0.0000 </r>
       <r>   25.4762    0.0000 </r>
       <r>   28.0755    0.0000 </r>
      </set>
      <set comment="kpoint 81">
       <r>    0.5245    1.0000 </r>
       <r>   10.0387    0.0000 </r>
       <r>   10.3108    0.0000 </r>
       <r>   17.3442    0.0000 </r>
       <r>   18.6761    0.0000 </r>
       <r>   21.7924    0.0000 </r>
       <r>   26.4714    0.0000 </r>
       <r>   28.4273    0.0000 </r>
      </set>
      <set comment="kpoint 82">
       <r>    2.7577    1.0000 </r>
       <r>    4.7548    1.0000 </r>
       <r>   13.0906    0.0000 </r>
       <r>   15.6814    0.0000 </r>
       <r>   20.8358    0.0000 </r>
       <r>   21.6342    0.0000 </r>
       <r>   25.0735    0.0000 </r>
       <r>   26.9139    0.0000 </r>
      </set>
      <set comment="kpoint 83">
       <r>    2.2403    1.0000 </r>
       <r>    6.1632    1.0000 </r>
       <r>   11.6394    0.0000 </r>
       <r>   16.0950    0.0000 </r>
       <r>   20.4979    0.0000 </r>
       <r>   21.9085    0.0000 </r>
       <r>   24.5237    0.0000 </r>
       <r>   27.2961    0.0000 </r>
      </set>
      <set comment="kpoint 84">
       <r>    1.9789    1.0000 </r>
       <r>    7.8066    1.0000 </r>
       <r>    9.6835    1.0000 </r>
       <r>   17.2632    0.0000 </r>
       <r>   19.3547    0.0000 </r>
       <r>   21.5033    0.0000 </r>
       <r>   24.7864    0.0000 </r>
       <r>   29.0420    0.0000 </r>
      </set>
      <set comment="kpoint 85">
       <r>    3.8980    1.0000 </r>
       <r>    4.2695    1.0000 </r>
       <r>   11.5160    0.0000 </r>
       <r>   15.9800    0.0000 </r>
       <r>   20.6586    0.0000 </r>
       <r>   22.4331    0.0000 </r>
       <r>   23.7752    0.0000 </r>
       <r>   27.0072    0.0000 </r>
      </set>
      <set comment="kpoint 86">
       <r>    3.6742    1.0000 </r>
       <r>    5.6518    1.0000 </r>
       <r>    9.4276    1.0000 </r>
       <r>   17.1013    0.0000 </r>
       <r>   20.1042    0.0000 </r>
       <r>   21.8255    0.0000 </r>
       <r>   23.1049    0.0000 </r>
       <r>   29.0693    0.0000 </r>
      </set>
      <set comment="kpoint 87">
       <r>    3.5492    1.0000 </r>
       <r>    7.2959    1.0000 </r>
       <r>    7.5748    1.0000 </r>
       <r>   17.9236    0.0000 </r>
       <r>   19.5783    0.0000 </r>
       <r>   21.2518    0.0000 </r>
       <r>   23.0522    0.0000 </r>
       <r>   30.9392    0.0000 </r>
      </set>
      <set comment="kpoint 88">
       <r>    5.1956    1.0000 </r>
       <r>    5.5459    1.0000 </r>
       <r>    7.3228    1.0000 </r>
       <r>   18.0528    0.0000 </r>
       <r>   20.1656    0.0000 </r>
       <r>   21.3033    0.0000 </r>
       <r>   21.8786    0.0000 </r>
       <r>   31.5410    0.0000 </r>
      </set>
      <set comment="kpoint 89">
       <r>    2.9005    1.0000 </r>
       <r>    8.4137    1.0000 </r>
       <r>    8.9201    1.0000 </r>
       <r>    8.9201    1.0000 </r>
       <r>   28.3914    0.0000 </r>
       <r>   28.3914    0.0000 </r>
       <r>   30.1794    0.0000 </r>
       <r>   30.1794    0.0000 </r>
      </set>
      <set comment="kpoint 90">
       <r>    4.5873    1.0000 </r>
       <r>    6.5557    1.0000 </r>
       <r>    8.3618    1.0000 </r>
       <r>    8.6676    1.0000 </r>
       <r>   28.9281    0.0000 </r>
       <r>   29.2641    0.0000 </r>
       <r>   30.8782    0.0000 </r>
       <r>   31.1515    0.0000 </r>
      </set>
      <set comment="kpoint 91">
       <r>   -1.8814    1.0000 </r>
       <r>   14.2986    0.0000 </r>
       <r>   14.2986    0.0000 </r>
       <r>   16.2107    0.0000 </r>
       <r>   17.8130    0.0000 </r>
       <r>   24.8161    0.0000 </r>
       <r>   26.3520    0.0000 </r>
       <r>   26.3520    0.0000 </r>
      </set>
      <set comment="kpoint 92">
       <r>    6.0661    1.0000 </r>
       <r>    6.6057    1.0000 </r>
       <r>    6.6057    1.0000 </r>
       <r>    8.4034    1.0000 </r>
       <r>   29.7174    0.0000 </r>
       <r>   30.6809    0.0000 </r>
       <r>   30.6809    0.0000 </r>
       <r>   31.7839    0.0000 </r>
      </set>
      <set comment="kpoint 93">
       <r>   -0.9421    1.0000 </r>
       <r>   12.3637    0.0000 </r>
       <r>   13.3440    0.0000 </r>
       <r>   15.6957    0.0000 </r>
       <r>   17.2909    0.0000 </r>
       <r>   24.5459    0.0000 </r>
       <r>   26.3717    0.0000 </r>
       <r>   28.2398    0.0000 </r>
      </set>
      <set comment="kpoint 94">
       <r>    0.2587    1.0000 </r>
       <r>    9.9168    0.1055 </r>
       <r>   12.6224    0.0000 </r>
       <r>   15.1483    0.0000 </r>
       <r>   17.9459    0.0000 </r>
       <r>   23.9289    0.0000 </r>
       <r>   25.3785    0.0000 </r>
       <r>   27.8424    0.0000 </r>
      </set>
      <set comment="kpoint 95">
       <r>    0.1258    1.0000 </r>
       <r>   11.4158    0.0000 </r>
       <r>   11.6054    0.0000 </r>
       <r>   15.5500    0.0000 </r>
       <r>   16.6530    0.0000 </r>
       <r>   24.4487    0.0000 </r>
       <r>   26.1307    0.0000 </r>
       <r>   28.0980    0.0000 </r>
      </set>
      <set comment="kpoint 96">
       <r>    1.7152    1.0000 </r>
       <r>    7.5563    1.0000 </r>
       <r>   12.1395    0.0000 </r>
       <r>   14.6890    0.0000 </r>
       <r>   19.0704    0.0000 </r>
       <r>   23.4805    0.0000 </r>
       <r>   23.9713    0.0000 </r>
       <r>   27.3365    0.0000 </r>
      </set>
      <set comment="kpoint 97">
       <r>    1.4518    1.0000 </r>
       <r>    9.1589    1.0000 </r>
       <r>   10.9025    0.0000 </r>
       <r>   15.3294    0.0000 </r>
       <r>   17.2576    0.0000 </r>
       <r>   23.5777    0.0000 </r>
       <r>   24.6909    0.0000 </r>
       <r>   28.6302    0.0000 </r>
      </set>
      <set comment="kpoint 98">
       <r>    3.4129    1.0000 </r>
       <r>    5.3945    1.0000 </r>
       <r>   11.8976    0.0000 </r>
       <r>   14.4476    0.0000 </r>
       <r>   20.3011    0.0000 </r>
       <r>   22.5490    0.0000 </r>
       <r>   23.2504    0.0000 </r>
       <r>   27.0469    0.0000 </r>
      </set>
      <set comment="kpoint 99">
       <r>    3.0276    1.0000 </r>
       <r>    6.9166    1.0000 </r>
       <r>   10.5285    0.0000 </r>
       <r>   15.0199    0.0000 </r>
       <r>   18.5028    0.0000 </r>
       <r>   22.0320    0.0000 </r>
       <r>   24.0529    0.0000 </r>
       <r>   28.6292    0.0000 </r>
      </set>
      <set comment="kpoint 100">
       <r>    2.8978    1.0000 </r>
       <r>    8.5372    1.0000 </r>
       <r>    8.7872    1.0000 </r>
       <r>   16.1127    0.0000 </r>
       <r>   17.1283    0.0000 </r>
       <r>   21.8790    0.0000 </r>
       <r>   24.1742    0.0000 </r>
       <r>   30.4054    0.0000 </r>
      </set>
      <set comment="kpoint 101">
       <r>    4.6859    1.0000 </r>
       <r>    5.0302    1.0000 </r>
       <r>   10.4040    0.0000 </r>
       <r>   14.9066    0.0000 </r>
       <r>   19.5722    0.0000 </r>
       <r>   20.8078    0.0000 </r>
       <r>   23.8956    0.0000 </r>
       <r>   28.5949    0.0000 </r>
      </set>
      <set comment="kpoint 102">
       <r>    4.5817    1.0000 </r>
       <r>    6.5327    1.0000 </r>
       <r>    8.4196    1.0000 </r>
       <r>   16.2026    0.0000 </r>
       <r>   18.2009    0.0000 </r>
       <r>   20.1124    0.0000 </r>
       <r>   23.9235    0.0000 </r>
       <r>   31.0140    0.0000 </r>
      </set>
      <set comment="kpoint 103">
       <r>    6.1027    1.0000 </r>
       <r>    6.5479    1.0000 </r>
       <r>    6.5479    1.0000 </r>
       <r>   17.0493    0.0000 </r>
       <r>   18.5634    0.0000 </r>
       <r>   18.5634    0.0000 </r>
       <r>   23.8436    0.0000 </r>
       <r>   33.1261    0.0000 </r>
      </set>
      <set comment="kpoint 104">
       <r>   -0.0073    1.0000 </r>
       <r>   12.3832    0.0000 </r>
       <r>   12.3832    0.0000 </r>
       <r>   14.4053    0.0000 </r>
       <r>   15.6304    0.0000 </r>
       <r>   25.9230    0.0000 </r>
       <r>   26.6406    0.0000 </r>
       <r>   27.9877    0.0000 </r>
      </set>
      <set comment="kpoint 105">
       <r>    1.1876    1.0000 </r>
       <r>   10.6412    0.0000 </r>
       <r>   11.6575    0.0000 </r>
       <r>   14.0383    0.0000 </r>
       <r>   15.4529    0.0000 </r>
       <r>   23.8258    0.0000 </r>
       <r>   26.5314    0.0000 </r>
       <r>   28.6640    0.0000 </r>
      </set>
      <set comment="kpoint 106">
       <r>    2.6360    1.0000 </r>
       <r>    8.4031    1.0000 </r>
       <r>   11.1722    0.0000 </r>
       <r>   13.6579    0.0000 </r>
       <r>   16.4693    0.0000 </r>
       <r>   21.7495    0.0000 </r>
       <r>   26.1262    0.0000 </r>
       <r>   28.8623    0.0000 </r>
      </set>
      <set comment="kpoint 107">
       <r>    2.5051    1.0000 </r>
       <r>    9.9384    0.0314 </r>
       <r>   10.1108    0.0000 </r>
       <r>   14.1574    0.0000 </r>
       <r>   15.0547    0.0000 </r>
       <r>   21.6382    0.0000 </r>
       <r>   26.8076    0.0000 </r>
       <r>   30.0797    0.0000 </r>
      </set>
      <set comment="kpoint 108">
       <r>    4.3233    1.0000 </r>
       <r>    6.2800    1.0000 </r>
       <r>   10.9291    0.0000 </r>
       <r>   13.4245    0.0000 </r>
       <r>   17.8737    0.0000 </r>
       <r>   19.8786    0.0000 </r>
       <r>   25.9069    0.0000 </r>
       <r>   28.8730    0.0000 </r>
      </set>
      <set comment="kpoint 109">
       <r>    4.0690    1.0000 </r>
       <r>    7.8935    1.0000 </r>
       <r>    9.6590    1.0000 </r>
       <r>   14.1155    0.0000 </r>
       <r>   15.9982    0.0000 </r>
       <r>   19.5774    0.0000 </r>
       <r>   26.6059    0.0000 </r>
       <r>   30.6446    0.0000 </r>
      </set>
      <set comment="kpoint 110">
       <r>    5.7219    1.0000 </r>
       <r>    6.0339    1.0000 </r>
       <r>    9.5328    1.0000 </r>
       <r>   14.0220    0.0000 </r>
       <r>   17.2472    0.0000 </r>
       <r>   18.0514    0.0000 </r>
       <r>   26.5172    0.0000 </r>
       <r>   30.7277    0.0000 </r>
      </set>
      <set comment="kpoint 111">
       <r>    5.7310    1.0000 </r>
       <r>    7.5339    1.0000 </r>
       <r>    7.7680    1.0000 </r>
       <r>   15.1589    0.0000 </r>
       <r>   16.0857    0.0000 </r>
       <r>   17.6237    0.0000 </r>
       <r>   26.5602    0.0000 </r>
       <r>   32.6162    0.0000 </r>
      </set>
      <set comment="kpoint 112">
       <r>    2.3740    1.0000 </r>
       <r>   10.9293    0.0000 </r>
       <r>   10.9293    0.0000 </r>
       <r>   12.9690    0.0000 </r>
       <r>   13.9851    0.0000 </r>
       <r>   21.5339    0.0000 </r>
       <r>   28.9317    0.0000 </r>
       <r>   29.9704    0.0000 </r>
      </set>
      <set comment="kpoint 113">
       <r>    3.8102    1.0000 </r>
       <r>    9.3973    1.0000 </r>
       <r>   10.4424    0.0000 </r>
       <r>   12.7956    0.0000 </r>
       <r>   14.1337    0.0000 </r>
       <r>   19.3243    0.0000 </r>
       <r>   28.9461    0.0000 </r>
       <r>   30.7279    0.0000 </r>
      </set>
      <set comment="kpoint 114">
       <r>    5.4792    1.0000 </r>
       <r>    7.3908    1.0000 </r>
       <r>   10.1986    0.0000 </r>
       <r>   12.6272    0.0000 </r>
       <r>   15.4399    0.0000 </r>
       <r>   17.3423    0.0000 </r>
       <r>   28.7502    0.0000 </r>
       <r>   30.9987    0.0000 </r>
      </set>
      <set comment="kpoint 115">
       <r>    5.3543    1.0000 </r>
       <r>    8.9438    1.0000 </r>
       <r>    9.1092    1.0000 </r>
       <r>   13.1799    0.0000 </r>
       <r>   13.9846    0.0000 </r>
       <r>   17.1894    0.0000 </r>
       <r>   29.3567    0.0000 </r>
       <r>   32.3021    0.0000 </r>
      </set>
      <set comment="kpoint 116">
       <r>    6.9842    1.0000 </r>
       <r>    7.2576    1.0000 </r>
       <r>    8.9104    1.0000 </r>
       <r>   13.3220    0.0000 </r>
       <r>   15.0061    0.0000 </r>
       <r>   15.5621    0.0000 </r>
       <r>   29.3336    0.0000 </r>
       <r>   32.8038    0.0000 </r>
      </set>
      <set comment="kpoint 117">
       <r>    5.2268    1.0000 </r>
       <r>    9.9546    0.0102 </r>
       <r>    9.9546    0.0102 </r>
       <r>   11.9675    0.0000 </r>
       <r>   12.8852    0.0000 </r>
       <r>   17.0532    0.0000 </r>
       <r>   31.5708    0.0000 </r>
       <r>   32.1963    0.0000 </r>
      </set>
      <set comment="kpoint 118">
       <r>    6.8588    1.0000 </r>
       <r>    8.6489    1.0000 </r>
       <r>    9.7104    1.0000 </r>
       <r>   12.0063    0.0000 </r>
       <r>   13.3271    0.0000 </r>
       <r>   15.0458    0.0000 </r>
       <r>   31.6505    0.0000 </r>
       <r>   32.9272    0.0000 </r>
      </set>
      <set comment="kpoint 119">
       <r>    8.3403    1.0000 </r>
       <r>    8.6072    1.0000 </r>
       <r>    8.6072    1.0000 </r>
       <r>   12.4199    0.0000 </r>
       <r>   13.4486    0.0000 </r>
       <r>   13.4486    0.0000 </r>
       <r>   32.0765    0.0000 </r>
       <r>   34.2445    0.0000 </r>
      </set>
      <set comment="kpoint 120">
       <r>    8.3838    1.0000 </r>
       <r>    9.4661    1.0000 </r>
       <r>    9.4661    1.0000 </r>
       <r>   11.3544    0.0000 </r>
       <r>   12.3345    0.0000 </r>
       <r>   13.1396    0.0000 </r>
       <r>   34.0166    0.0000 </r>
       <r>   34.1449    0.0000 </r>
      </set>
     </set>
    </set>
   </array>
  </eigenvalues>
  <separator name="orbital magnetization" >
   <v name="MAGDIPOLOUT">      0.00000000      0.00000000      0.00000000</v>
  </separator>
  <dos>
   <i name="efermi">      9.87259862 </i>
   <total>
    <array>
     <dimension dim="1">gridpoints</dimension>
     <dimension dim="2">spin</dimension>
     <field>energy</field>
     <field>total</field>
     <field>integrated</field>
     <set>
      <set comment="spin 1">
       <r>    -6.2450     0.0000     0.0000 </r>
       <r>    -6.1036     0.0000     0.0000 </r>
       <r>    -5.9622     0.0000     0.0000 </r>
       <r>    -5.8208     0.0000     0.0000 </r>
       <r>    -5.6795     0.0000     0.0000 </r>
       <r>    -5.5381     0.0000     0.0000 </r>
       <r>    -5.3967     0.0000     0.0000 </r>
       <r>    -5.2553     0.0000     0.0000 </r>
       <r>    -5.1139     0.0000     0.0000 </r>
       <r>    -4.9725     0.0000     0.0000 </r>
       <r>    -4.8311     0.0000     0.0000 </r>
       <r>    -4.6897     0.0000     0.0000 </r>
       <r>    -4.5483     0.0000     0.0000 </r>
       <r>    -4.4069     0.0000     0.0000 </r>
       <r>    -4.2655     0.0043     0.0006 </r>
       <r>    -4.1241     0.0478     0.0074 </r>
       <r>    -3.9827     0.0284     0.0114 </r>
       <r>    -3.8414     0.0983     0.0253 </r>
       <r>    -3.7000     0.0547     0.0330 </r>
       <r>    -3.5586     0.0982     0.0469 </r>
       <r>    -3.4172     0.0479     0.0537 </r>
       <r>    -3.2758     0.1877     0.0802 </r>
       <r>    -3.1344     0.0442     0.0865 </r>
       <r>    -2.9930     0.1480     0.1074 </r>
       <r>    -2.8516     0.1058     0.1223 </r>
       <r>    -2.7102     0.1064     0.1374 </r>
       <r>    -2.5688     0.1776     0.1625 </r>
       <r>    -2.4274     0.1960     0.1902 </r>
       <r>    -2.2860     0.0994     0.2043 </r>
       <r>    -2.1446     0.1305     0.2227 </r>
       <r>    -2.0033     0.1511     0.2441 </r>
       <r>    -1.8619     0.1615     0.2669 </r>
       <r>    -1.7205     0.2700     0.3051 </r>
       <r>    -1.5791     0.1516     0.3265 </r>
       <r>    -1.4377     0.1936     0.3539 </r>
       <r>    -1.2963     0.1176     0.3705 </r>
       <r>    -1.1549     0.1971     0.3984 </r>
       <r>    -1.0135     0.0514     0.4057 </r>
       <r>    -0.8721     0.3410     0.4539 </r>
       <r>    -0.7307     0.1267     0.4718 </r>
       <r>    -0.5893     0.3953     0.5277 </r>
       <r>    -0.4479     0.1987     0.5558 </r>
       <r>    -0.3066     0.0883     0.5683 </r>
       <r>    -0.1652     0.1009     0.5825 </r>
       <r>    -0.0238     0.3096     0.6263 </r>
       <r>     0.1176     0.1837     0.6523 </r>
       <r>     0.2590     0.3373     0.7000 </r>
       <r>     0.4004     0.2209     0.7312 </r>
       <r>     0.5418     0.1850     0.7574 </r>
       <r>     0.6832     0.4347     0.8188 </r>
       <r>     0.8246     0.1998     0.8471 </r>
       <r>     0.9660     0.1959     0.8748 </r>
       <r>     1.1074     0.1166     0.8913 </r>
       <r>     1.2488     0.2018     0.9198 </r>
       <r>     1.3902     0.2224     0.9513 </r>
       <r>     1.5315     0.4866     1.0200 </r>
       <r>     1.6729     0.1589     1.0425 </r>
       <r>     1.8143     0.4420     1.1050 </r>
       <r>     1.9557     0.1069     1.1201 </r>
       <r>     2.0971     0.3317     1.1670 </r>
       <r>     2.2385     0.2867     1.2076 </r>
       <r>     2.3799     0.3148     1.2521 </r>
       <r>     2.5213     0.1884     1.2787 </r>
       <r>     2.6627     0.3040     1.3217 </r>
       <r>     2.8041     0.3173     1.3666 </r>
       <r>     2.9455     0.1662     1.3901 </r>
       <r>     3.0869     0.6156     1.4771 </r>
       <r>     3.2283     0.1034     1.4917 </r>
       <r>     3.3696     0.2725     1.5303 </r>
       <r>     3.5110     0.3923     1.5857 </r>
       <r>     3.6524     0.2563     1.6220 </r>
       <r>     3.7938     0.3674     1.6739 </r>
       <r>     3.9352     0.3842     1.7283 </r>
       <r>     4.0766     0.2397     1.7622 </r>
       <r>     4.2180     0.1154     1.7785 </r>
       <r>     4.3594     0.3538     1.8285 </r>
       <r>     4.5008     0.3203     1.8738 </r>
       <r>     4.6422     0.4999     1.9445 </r>
       <r>     4.7836     0.4839     2.0129 </r>
       <r>     4.9250     0.1207     2.0299 </r>
       <r>     5.0663     0.3910     2.0852 </r>
       <r>     5.2077     0.1418     2.1053 </r>
       <r>     5.3491     0.3467     2.1543 </r>
       <r>     5.4905     0.6093     2.2404 </r>
       <r>     5.6319     0.2448     2.2750 </r>
       <r>     5.7733     0.5569     2.3538 </r>
       <r>     5.9147     0.3022     2.3965 </r>
       <r>     6.0561     0.1947     2.4241 </r>
       <r>     6.1975     0.4034     2.4811 </r>
       <r>     6.3389     0.2643     2.5185 </r>
       <r>     6.4803     0.0815     2.5300 </r>
       <r>     6.6217     0.6952     2.6283 </r>
       <r>     6.7631     0.3399     2.6763 </r>
       <r>     6.9044     0.4971     2.7466 </r>
       <r>     7.0458     0.5441     2.8236 </r>
       <r>     7.1872     0.2498     2.8589 </r>
       <r>     7.3286     0.3599     2.9098 </r>
       <r>     7.4700     0.3184     2.9548 </r>
       <r>     7.6114     0.4795     3.0226 </r>
       <r>     7.7528     0.4429     3.0852 </r>
       <r>     7.8942     0.5212     3.1589 </r>
       <r>     8.0356     0.2931     3.2003 </r>
       <r>     8.1770     0.1231     3.2177 </r>
       <r>     8.3184     0.2026     3.2464 </r>
       <r>     8.4598     0.7453     3.3518 </r>
       <r>     8.6011     0.5171     3.4249 </r>
       <r>     8.7425     0.3784     3.4784 </r>
       <r>     8.8839     0.4395     3.5405 </r>
       <r>     9.0253     0.4380     3.6025 </r>
       <r>     9.1667     0.5011     3.6733 </r>
       <r>     9.3081     0.5019     3.7443 </r>
       <r>     9.4495     0.4349     3.8058 </r>
       <r>     9.5909     0.5283     3.8805 </r>
       <r>     9.7323     0.5351     3.9561 </r>
       <r>     9.8737     0.3132     4.0004 </r>
       <r>    10.0151     0.4756     4.0677 </r>
       <r>    10.1565     0.2526     4.1034 </r>
       <r>    10.2979     0.3985     4.1597 </r>
       <r>    10.4392     0.4422     4.2222 </r>
       <r>    10.5806     0.5055     4.2937 </r>
       <r>    10.7220     0.5062     4.3653 </r>
       <r>    10.8634     0.5590     4.4443 </r>
       <r>    11.0048     0.7149     4.5454 </r>
       <r>    11.1462     0.1897     4.5722 </r>
       <r>    11.2876     0.3102     4.6161 </r>
       <r>    11.4290     0.2095     4.6457 </r>
       <r>    11.5704     0.6273     4.7344 </r>
       <r>    11.7118     0.6904     4.8320 </r>
       <r>    11.8532     0.2452     4.8667 </r>
       <r>    11.9946     0.6244     4.9550 </r>
       <r>    12.1360     0.4526     5.0190 </r>
       <r>    12.2773     0.2168     5.0497 </r>
       <r>    12.4187     0.3943     5.1054 </r>
       <r>    12.5601     0.1616     5.1283 </r>
       <r>    12.7015     0.5681     5.2086 </r>
       <r>    12.8429     0.2989     5.2508 </r>
       <r>    12.9843     0.7398     5.3554 </r>
       <r>    13.1257     0.4858     5.4241 </r>
       <r>    13.2671     0.4410     5.4865 </r>
       <r>    13.4085     0.8682     5.6092 </r>
       <r>    13.5499     0.4217     5.6689 </r>
       <r>    13.6913     0.4940     5.7387 </r>
       <r>    13.8327     0.3488     5.7880 </r>
       <r>    13.9740     0.4372     5.8499 </r>
       <r>    14.1154     0.4484     5.9132 </r>
       <r>    14.2568     0.3700     5.9656 </r>
       <r>    14.3982     0.5559     6.0442 </r>
       <r>    14.5396     0.8463     6.1638 </r>
       <r>    14.6810     0.2147     6.1942 </r>
       <r>    14.8224     0.4949     6.2642 </r>
       <r>    14.9638     0.2723     6.3027 </r>
       <r>    15.1052     0.6992     6.4015 </r>
       <r>    15.2466     0.4863     6.4703 </r>
       <r>    15.3880     0.5113     6.5426 </r>
       <r>    15.5294     0.7332     6.6462 </r>
       <r>    15.6708     0.4249     6.7063 </r>
       <r>    15.8121     0.5831     6.7888 </r>
       <r>    15.9535     0.5487     6.8664 </r>
       <r>    16.0949     0.8429     6.9855 </r>
       <r>    16.2363     0.5990     7.0702 </r>
       <r>    16.3777     0.1938     7.0976 </r>
       <r>    16.5191     0.7280     7.2006 </r>
       <r>    16.6605     0.3400     7.2486 </r>
       <r>    16.8019     0.2362     7.2820 </r>
       <r>    16.9433     0.3748     7.3350 </r>
       <r>    17.0847     0.5716     7.4159 </r>
       <r>    17.2261     0.8841     7.5409 </r>
       <r>    17.3675     1.2953     7.7240 </r>
       <r>    17.5089     0.8180     7.8397 </r>
       <r>    17.6502     0.4045     7.8969 </r>
       <r>    17.7916     0.4092     7.9547 </r>
       <r>    17.9330     0.3953     8.0106 </r>
       <r>    18.0744     0.7257     8.1132 </r>
       <r>    18.2158     0.4669     8.1792 </r>
       <r>    18.3572     0.3445     8.2280 </r>
       <r>    18.4986     0.1959     8.2557 </r>
       <r>    18.6400     0.3972     8.3118 </r>
       <r>    18.7814     0.3884     8.3667 </r>
       <r>    18.9228     0.1168     8.3833 </r>
       <r>    19.0642     0.4824     8.4515 </r>
       <r>    19.2056     0.6725     8.5466 </r>
       <r>    19.3469     0.4314     8.6076 </r>
       <r>    19.4883     0.5071     8.6792 </r>
       <r>    19.6297     0.6905     8.7769 </r>
       <r>    19.7711     0.6996     8.8758 </r>
       <r>    19.9125     0.3901     8.9310 </r>
       <r>    20.0539     0.1977     8.9589 </r>
       <r>    20.1953     1.0351     9.1053 </r>
       <r>    20.3367     0.4825     9.1735 </r>
       <r>    20.4781     0.2385     9.2072 </r>
       <r>    20.6195     0.7217     9.3093 </r>
       <r>    20.7609     0.3752     9.3623 </r>
       <r>    20.9023     0.6624     9.4560 </r>
       <r>    21.0437     0.7436     9.5611 </r>
       <r>    21.1850     0.4803     9.6290 </r>
       <r>    21.3264     0.4730     9.6959 </r>
       <r>    21.4678     0.6403     9.7864 </r>
       <r>    21.6092     0.8249     9.9031 </r>
       <r>    21.7506     0.9220    10.0334 </r>
       <r>    21.8920     1.3957    10.2308 </r>
       <r>    22.0334     0.7025    10.3301 </r>
       <r>    22.1748     0.7249    10.4326 </r>
       <r>    22.3162     0.8953    10.5592 </r>
       <r>    22.4576     0.6357    10.6491 </r>
       <r>    22.5990     0.2125    10.6791 </r>
       <r>    22.7404     0.1791    10.7044 </r>
       <r>    22.8818     0.2472    10.7394 </r>
       <r>    23.0231     0.7774    10.8493 </r>
       <r>    23.1645     0.8637    10.9714 </r>
       <r>    23.3059     0.9109    11.1002 </r>
       <r>    23.4473     0.4911    11.1697 </r>
       <r>    23.5887     0.5743    11.2509 </r>
       <r>    23.7301     0.5492    11.3285 </r>
       <r>    23.8715     0.5027    11.3996 </r>
       <r>    24.0129     0.4904    11.4689 </r>
       <r>    24.1543     0.2300    11.5015 </r>
       <r>    24.2957     0.6708    11.5963 </r>
       <r>    24.4371     0.5174    11.6695 </r>
       <r>    24.5785     1.1279    11.8289 </r>
       <r>    24.7198     0.7261    11.9316 </r>
       <r>    24.8612     0.4969    12.0019 </r>
       <r>    25.0026     0.4385    12.0639 </r>
       <r>    25.1440     0.6409    12.1545 </r>
       <r>    25.2854     0.6344    12.2442 </r>
       <r>    25.4268     0.5453    12.3213 </r>
       <r>    25.5682     0.8044    12.4350 </r>
       <r>    25.7096     0.3697    12.4873 </r>
       <r>    25.8510     0.6737    12.5825 </r>
       <r>    25.9924     0.4814    12.6506 </r>
       <r>    26.1338     0.6158    12.7377 </r>
       <r>    26.2752     0.6602    12.8310 </r>
       <r>    26.4166     0.7879    12.9424 </r>
       <r>    26.5579     0.7297    13.0456 </r>
       <r>    26.6993     0.5004    13.1164 </r>
       <r>    26.8407     0.9207    13.2465 </r>
       <r>    26.9821     0.4748    13.3137 </r>
       <r>    27.1235     0.7431    13.4187 </r>
       <r>    27.2649     0.5447    13.4957 </r>
       <r>    27.4063     0.6441    13.5868 </r>
       <r>    27.5477     0.2648    13.6242 </r>
       <r>    27.6891     0.5776    13.7059 </r>
       <r>    27.8305     0.6109    13.7923 </r>
       <r>    27.9719     0.7452    13.8977 </r>
       <r>    28.1133     0.6063    13.9834 </r>
       <r>    28.2547     0.4718    14.0501 </r>
       <r>    28.3960     0.5738    14.1312 </r>
       <r>    28.5374     0.6483    14.2229 </r>
       <r>    28.6788     0.9606    14.3587 </r>
       <r>    28.8202     0.6664    14.4529 </r>
       <r>    28.9616     1.2519    14.6299 </r>
       <r>    29.1030     0.7476    14.7356 </r>
       <r>    29.2444     0.2706    14.7739 </r>
       <r>    29.3858     0.6231    14.8620 </r>
       <r>    29.5272     0.5196    14.9355 </r>
       <r>    29.6686     0.5316    15.0106 </r>
       <r>    29.8100     0.8460    15.1302 </r>
       <r>    29.9514     0.8768    15.2542 </r>
       <r>    30.0927     0.6386    15.3445 </r>
       <r>    30.2341     0.2057    15.3736 </r>
       <r>    30.3755     0.6053    15.4592 </r>
       <r>    30.5169     0.4888    15.5283 </r>
       <r>    30.6583     0.8149    15.6435 </r>
       <r>    30.7997     0.5399    15.7198 </r>
       <r>    30.9411     0.1670    15.7435 </r>
       <r>    31.0825     0.4373    15.8053 </r>
       <r>    31.2239     0.1990    15.8334 </r>
       <r>    31.3653     0.0316    15.8379 </r>
       <r>    31.5067     0.1751    15.8627 </r>
       <r>    31.6481     0.2073    15.8920 </r>
       <r>    31.7895     0.1375    15.9114 </r>
       <r>    31.9308     0.0147    15.9135 </r>
       <r>    32.0722     0.0152    15.9156 </r>
       <r>    32.2136     0.0363    15.9208 </r>
       <r>    32.3550     0.1010    15.9350 </r>
       <r>    32.4964     0.0141    15.9370 </r>
       <r>    32.6378     0.0996    15.9511 </r>
       <r>    32.7792     0.0517    15.9584 </r>
       <r>    32.9206     0.1189    15.9752 </r>
       <r>    33.0620     0.0590    15.9836 </r>
       <r>    33.2034     0.0319    15.9881 </r>
       <r>    33.3448     0.0005    15.9881 </r>
       <r>    33.4862     0.0000    15.9881 </r>
       <r>    33.6276     0.0000    15.9881 </r>
       <r>    33.7689     0.0000    15.9881 </r>
       <r>    33.9103     0.0000    15.9882 </r>
       <r>    34.0517     0.0212    15.9911 </r>
       <r>    34.1931     0.0293    15.9953 </r>
       <r>    34.3345     0.0331    16.0000 </r>
       <r>    34.4759     0.0002    16.0000 </r>
       <r>    34.6173     0.0000    16.0000 </r>
       <r>    34.7587     0.0000    16.0000 </r>
       <r>    34.9001     0.0000    16.0000 </r>
       <r>    35.0415     0.0000    16.0000 </r>
       <r>    35.1829     0.0000    16.0000 </r>
       <r>    35.3243     0.0000    16.0000 </r>
       <r>    35.4656     0.0000    16.0000 </r>
       <r>    35.6070     0.0000    16.0000 </r>
       <r>    35.7484     0.0000    16.0000 </r>
       <r>    35.8898     0.0000    16.0000 </r>
       <r>    36.0312     0.0000    16.0000 </r>
       <r>    36.1726     0.0000    16.0000 </r>
      </set>
     </set>
    </array>
   </total>
  </dos>
 </calculation>
 <structure name="finalpos" >
  <crystal>
   <varray name="basis" >
    <v>       1.54082463       1.54082463       1.54082463 </v>
    <v>       1.54082463      -1.54082463      -1.54082463 </v>
    <v>      -1.54082463       1.54082463      -1.54082463 </v>
   </varray>
   <i name="volume">     14.63253682 </i>
   <varray name="rec_basis" >
    <v>       0.32450156       0.32450156       0.00000000 </v>
    <v>       0.32450156       0.00000000      -0.32450156 </v>
    <v>       0.00000000       0.32450156      -0.32450156 </v>
   </varray>
  </crystal>
  <varray name="positions" >
   <v>       0.00000000       0.00000000       0.00000000 </v>
  </varray>
 </structure>
</modeling>
