   1   1   0   0
  0.1387142E+02  0.2696985E-09  0.2696985E-09  0.2696985E-09  0.5000000E-15
  1.000000000000000E-004
  CAR 
 unknown system                          
     39.48414494     -6.18955931  301     10.69315420      1.00000000
     -6.190  0.0000E+00  0.0000E+00
     -6.037  0.0000E+00  0.0000E+00
     -5.885  0.0000E+00  0.0000E+00
     -5.733  0.0000E+00  0.0000E+00
     -5.581  0.0000E+00  0.0000E+00
     -5.428  0.0000E+00  0.0000E+00
     -5.276  0.0000E+00  0.0000E+00
     -5.124  0.0000E+00  0.0000E+00
     -4.972  0.0000E+00  0.0000E+00
     -4.819  0.0000E+00  0.0000E+00
     -4.667  0.0000E+00  0.0000E+00
     -4.515  0.0000E+00  0.0000E+00
     -4.363  0.3572E-16  0.5439E-17
     -4.210  0.1195E-06  0.1819E-07
     -4.058  0.4088E-04  0.6242E-05
     -3.906  0.4910E-03  0.8100E-04
     -3.754  0.3104E-03  0.1283E-03
     -3.601  0.9980E-03  0.2802E-03
     -3.449  0.4793E-03  0.3532E-03
     -3.297  0.4498E-03  0.4217E-03
     -3.145  0.1623E-02  0.6687E-03
     -2.992  0.9132E-03  0.8077E-03
     -2.840  0.1255E-02  0.9987E-03
     -2.688  0.2982E-03  0.1044E-02
     -2.536  0.2056E-02  0.1357E-02
     -2.383  0.1290E-02  0.1554E-02
     -2.231  0.1121E-02  0.1724E-02
     -2.079  0.1555E-02  0.1961E-02
     -1.927  0.3617E-03  0.2016E-02
     -1.774  0.2631E-02  0.2417E-02
     -1.622  0.1438E-02  0.2636E-02
     -1.470  0.2983E-02  0.3090E-02
     -1.318  0.4235E-03  0.3154E-02
     -1.165  0.7248E-03  0.3265E-02
     -1.013  0.2284E-02  0.3612E-02
     -0.861  0.1518E-02  0.3843E-02
     -0.709  0.2919E-02  0.4288E-02
     -0.556  0.8393E-03  0.4416E-02
     -0.404  0.3968E-02  0.5020E-02
     -0.252  0.1227E-02  0.5207E-02
     -0.100  0.1718E-02  0.5468E-02
      0.053  0.7726E-03  0.5586E-02
      0.205  0.1414E-02  0.5801E-02
      0.357  0.3418E-02  0.6321E-02
      0.509  0.2698E-02  0.6732E-02
      0.661  0.3918E-02  0.7329E-02
      0.814  0.2459E-03  0.7366E-02
      0.966  0.2781E-02  0.7790E-02
      1.118  0.2277E-02  0.8136E-02
      1.270  0.2337E-02  0.8492E-02
      1.423  0.1023E-02  0.8648E-02
      1.575  0.9159E-03  0.8787E-02
      1.727  0.6009E-02  0.9702E-02
      1.879  0.1785E-02  0.9974E-02
      2.032  0.4270E-02  0.1062E-01
      2.184  0.1260E-02  0.1082E-01
      2.336  0.2508E-02  0.1120E-01
      2.488  0.1607E-02  0.1144E-01
      2.641  0.4055E-02  0.1206E-01
      2.793  0.1965E-02  0.1236E-01
      2.945  0.1246E-02  0.1255E-01
      3.097  0.4223E-02  0.1319E-01
      3.250  0.1889E-02  0.1348E-01
      3.402  0.5599E-02  0.1433E-01
      3.554  0.6936E-03  0.1444E-01
      3.706  0.5679E-02  0.1530E-01
      3.859  0.2560E-02  0.1569E-01
      4.011  0.1974E-02  0.1599E-01
      4.163  0.1253E-02  0.1618E-01
      4.315  0.1145E-02  0.1636E-01
      4.468  0.4586E-02  0.1706E-01
      4.620  0.3010E-02  0.1751E-01
      4.772  0.6328E-02  0.1848E-01
      4.924  0.7342E-03  0.1859E-01
      5.077  0.3490E-02  0.1912E-01
      5.229  0.4126E-02  0.1975E-01
      5.381  0.4138E-02  0.2038E-01
      5.533  0.2091E-02  0.2070E-01
      5.686  0.3407E-02  0.2122E-01
      5.838  0.5016E-02  0.2198E-01
      5.990  0.1924E-02  0.2227E-01
      6.142  0.1887E-02  0.2256E-01
      6.295  0.1404E-02  0.2277E-01
      6.447  0.4586E-02  0.2347E-01
      6.599  0.4520E-02  0.2416E-01
      6.751  0.5243E-02  0.2496E-01
      6.904  0.2265E-02  0.2530E-01
      7.056  0.1966E-02  0.2560E-01
      7.208  0.4057E-02  0.2622E-01
      7.360  0.5557E-02  0.2707E-01
      7.513  0.3492E-02  0.2760E-01
      7.665  0.1832E-02  0.2788E-01
      7.817  0.5758E-02  0.2875E-01
      7.969  0.2836E-02  0.2918E-01
      8.122  0.1496E-02  0.2941E-01
      8.274  0.1013E-02  0.2957E-01
      8.426  0.3235E-02  0.3006E-01
      8.578  0.7057E-02  0.3113E-01
      8.731  0.6385E-02  0.3211E-01
      8.883  0.6135E-02  0.3304E-01
      9.035  0.1932E-02  0.3333E-01
      9.187  0.2160E-02  0.3366E-01
      9.340  0.4833E-02  0.3440E-01
      9.492  0.2935E-02  0.3485E-01
      9.644  0.2652E-02  0.3525E-01
      9.796  0.2748E-02  0.3567E-01
      9.948  0.6198E-02  0.3661E-01
     10.101  0.4304E-02  0.3727E-01
     10.253  0.2501E-02  0.3765E-01
     10.405  0.3684E-02  0.3821E-01
     10.557  0.5900E-02  0.3911E-01
     10.710  0.6496E-02  0.4010E-01
     10.862  0.3993E-02  0.4070E-01
     11.014  0.2665E-02  0.4111E-01
     11.166  0.8767E-03  0.4124E-01
     11.319  0.6419E-02  0.4222E-01
     11.471  0.5393E-02  0.4304E-01
     11.623  0.4330E-02  0.4370E-01
     11.775  0.3974E-02  0.4430E-01
     11.928  0.7256E-02  0.4541E-01
     12.080  0.1972E-02  0.4571E-01
     12.232  0.3290E-02  0.4621E-01
     12.384  0.3816E-02  0.4679E-01
     12.537  0.3569E-02  0.4733E-01
     12.689  0.5699E-02  0.4820E-01
     12.841  0.7095E-02  0.4928E-01
     12.993  0.3136E-02  0.4976E-01
     13.146  0.7065E-02  0.5084E-01
     13.298  0.2636E-02  0.5124E-01
     13.450  0.5405E-02  0.5206E-01
     13.602  0.3431E-02  0.5258E-01
     13.755  0.7335E-02  0.5370E-01
     13.907  0.6789E-02  0.5473E-01
     14.059  0.3561E-02  0.5527E-01
     14.211  0.3127E-02  0.5575E-01
     14.364  0.5427E-02  0.5658E-01
     14.516  0.7607E-02  0.5774E-01
     14.668  0.4721E-02  0.5845E-01
     14.820  0.3992E-02  0.5906E-01
     14.973  0.5041E-02  0.5983E-01
     15.125  0.4498E-02  0.6051E-01
     15.277  0.7817E-02  0.6170E-01
     15.429  0.5248E-02  0.6250E-01
     15.582  0.4099E-02  0.6313E-01
     15.734  0.5925E-02  0.6403E-01
     15.886  0.1279E-02  0.6422E-01
     16.038  0.2305E-02  0.6457E-01
     16.191  0.7187E-02  0.6567E-01
     16.343  0.4331E-02  0.6633E-01
     16.495  0.6365E-02  0.6730E-01
     16.647  0.5593E-02  0.6815E-01
     16.800  0.4580E-02  0.6885E-01
     16.952  0.3971E-02  0.6945E-01
     17.104  0.3577E-02  0.7000E-01
     17.256  0.5107E-02  0.7077E-01
     17.409  0.3463E-02  0.7130E-01
     17.561  0.3651E-02  0.7186E-01
     17.713  0.5878E-02  0.7275E-01
     17.865  0.6724E-02  0.7377E-01
     18.018  0.3257E-02  0.7427E-01
     18.170  0.3538E-02  0.7481E-01
     18.322  0.4484E-02  0.7549E-01
     18.474  0.7190E-02  0.7659E-01
     18.626  0.2591E-02  0.7698E-01
     18.779  0.5989E-02  0.7789E-01
     18.931  0.7802E-02  0.7908E-01
     19.083  0.4377E-02  0.7975E-01
     19.235  0.6395E-02  0.8072E-01
     19.388  0.3975E-02  0.8133E-01
     19.540  0.3369E-02  0.8184E-01
     19.692  0.7039E-02  0.8291E-01
     19.844  0.4823E-02  0.8364E-01
     19.997  0.4147E-02  0.8428E-01
     20.149  0.8435E-02  0.8556E-01
     20.301  0.4567E-02  0.8626E-01
     20.453  0.2681E-02  0.8666E-01
     20.606  0.3026E-02  0.8712E-01
     20.758  0.7029E-02  0.8819E-01
     20.910  0.4303E-02  0.8885E-01
     21.062  0.7885E-02  0.9005E-01
     21.215  0.9015E-02  0.9142E-01
     21.367  0.5065E-02  0.9219E-01
     21.519  0.3006E-02  0.9265E-01
     21.671  0.3886E-02  0.9324E-01
     21.824  0.1085E-01  0.9489E-01
     21.976  0.6245E-02  0.9585E-01
     22.128  0.7129E-02  0.9693E-01
     22.280  0.4757E-02  0.9766E-01
     22.433  0.2801E-02  0.9808E-01
     22.585  0.9427E-02  0.9952E-01
     22.737  0.5374E-02  0.1003E+00
     22.889  0.2971E-02  0.1008E+00
     23.042  0.4218E-02  0.1014E+00
     23.194  0.4654E-02  0.1021E+00
     23.346  0.6562E-02  0.1031E+00
     23.498  0.5417E-02  0.1040E+00
     23.651  0.3482E-02  0.1045E+00
     23.803  0.4175E-02  0.1051E+00
     23.955  0.1138E-01  0.1069E+00
     24.107  0.4830E-02  0.1076E+00
     24.260  0.8666E-02  0.1089E+00
     24.412  0.9446E-02  0.1104E+00
     24.564  0.7529E-02  0.1115E+00
     24.716  0.3932E-02  0.1121E+00
     24.869  0.2323E-02  0.1125E+00
     25.021  0.6859E-02  0.1135E+00
     25.173  0.4367E-02  0.1142E+00
     25.325  0.5370E-02  0.1150E+00
     25.478  0.8844E-02  0.1163E+00
     25.630  0.4044E-02  0.1169E+00
     25.782  0.5336E-02  0.1178E+00
     25.934  0.3740E-02  0.1183E+00
     26.087  0.8451E-02  0.1196E+00
     26.239  0.1297E-01  0.1216E+00
     26.391  0.6015E-02  0.1225E+00
     26.543  0.2492E-02  0.1229E+00
     26.696  0.7028E-02  0.1239E+00
     26.848  0.8182E-02  0.1252E+00
     27.000  0.5375E-02  0.1260E+00
     27.152  0.6382E-02  0.1270E+00
     27.304  0.7754E-02  0.1282E+00
     27.457  0.7947E-02  0.1294E+00
     27.609  0.4641E-02  0.1301E+00
     27.761  0.1485E-02  0.1303E+00
     27.913  0.5803E-02  0.1312E+00
     28.066  0.4617E-02  0.1319E+00
     28.218  0.9557E-02  0.1333E+00
     28.370  0.6231E-02  0.1343E+00
     28.522  0.7624E-02  0.1355E+00
     28.675  0.6605E-02  0.1365E+00
     28.827  0.4286E-02  0.1371E+00
     28.979  0.3954E-02  0.1377E+00
     29.131  0.1048E-01  0.1393E+00
     29.284  0.5343E-02  0.1401E+00
     29.436  0.2106E-02  0.1404E+00
     29.588  0.1608E-02  0.1407E+00
     29.740  0.1740E-02  0.1410E+00
     29.893  0.9409E-02  0.1424E+00
     30.045  0.4734E-02  0.1431E+00
     30.197  0.5316E-02  0.1439E+00
     30.349  0.3286E-02  0.1444E+00
     30.502  0.3242E-02  0.1449E+00
     30.654  0.1064E-01  0.1465E+00
     30.806  0.7388E-02  0.1477E+00
     30.958  0.5940E-02  0.1486E+00
     31.111  0.4142E-02  0.1492E+00
     31.263  0.2798E-02  0.1496E+00
     31.415  0.2763E-02  0.1500E+00
     31.567  0.3297E-02  0.1505E+00
     31.720  0.6145E-02  0.1515E+00
     31.872  0.2437E-02  0.1519E+00
     32.024  0.3471E-02  0.1524E+00
     32.176  0.2877E-02  0.1528E+00
     32.329  0.6040E-02  0.1537E+00
     32.481  0.3683E-02  0.1543E+00
     32.633  0.2349E-02  0.1547E+00
     32.785  0.8092E-04  0.1547E+00
     32.938  0.2340E-02  0.1550E+00
     33.090  0.4618E-02  0.1557E+00
     33.242  0.9676E-03  0.1559E+00
     33.394  0.1203E-02  0.1561E+00
     33.547  0.1564E-02  0.1563E+00
     33.699  0.6535E-03  0.1564E+00
     33.851  0.3725E-02  0.1570E+00
     34.003  0.2772E-02  0.1574E+00
     34.156  0.6367E-03  0.1575E+00
     34.308  0.1769E-02  0.1577E+00
     34.460  0.1870E-02  0.1580E+00
     34.612  0.1715E-02  0.1583E+00
     34.765  0.1832E-02  0.1586E+00
     34.917  0.1061E-02  0.1587E+00
     35.069  0.1065E-02  0.1589E+00
     35.221  0.5551E-05  0.1589E+00
     35.374  0.1751E-02  0.1592E+00
     35.526  0.5459E-03  0.1592E+00
     35.678  0.3264E-04  0.1593E+00
     35.830  0.5194E-03  0.1593E+00
     35.982  0.6482E-03  0.1594E+00
     36.135  0.7729E-03  0.1595E+00
     36.287  0.1327E-02  0.1598E+00
     36.439  0.1914E-03  0.1598E+00
     36.591  0.7444E-03  0.1599E+00
     36.744  0.2390E-06  0.1599E+00
     36.896  0.7449E-11  0.1599E+00
     37.048  0.5155E-04  0.1599E+00
     37.200  0.4150E-03  0.1600E+00
     37.353  0.1419E-04  0.1600E+00
     37.505  0.2191E-03  0.1600E+00
     37.657  0.7168E-06  0.1600E+00
     37.809  0.0000E+00  0.1600E+00
     37.962  0.0000E+00  0.1600E+00
     38.114  0.0000E+00  0.1600E+00
     38.266  0.0000E+00  0.1600E+00
     38.418  0.0000E+00  0.1600E+00
     38.571  0.0000E+00  0.1600E+00
     38.723  0.0000E+00  0.1600E+00
     38.875  0.0000E+00  0.1600E+00
     39.027  0.0000E+00  0.1600E+00
     39.180  0.0000E+00  0.1600E+00
     39.332  0.0000E+00  0.1600E+00
     39.484  0.0000E+00  0.1600E+00
