    1    1  100    1
  0.1387142E+02  0.2696985E-09  0.2696985E-09  0.2696985E-09  0.5000000E-15
  1.000000000000000E-004
  CAR 
 unknown system                          
      4    120      8
 
  0.0000000E+00  0.0000000E+00  0.0000000E+00  0.2962963E-03
    1       -4.113482   1.000000
    2       22.399065   0.000000
    3       22.399073   0.000000
    4       22.399082   0.000000
    5       22.831274   0.000000
    6       22.831283   0.000000
    7       22.831292   0.000000
    8       28.265009   0.000000
 
  0.6666667E-01  0.0000000E+00  0.0000000E+00  0.2370370E-02
    1       -3.980240   1.000000
    2       20.009272   0.000000
    3       21.580981   0.000000
    4       21.580994   0.000000
    5       23.816658   0.000000
    6       23.816672   0.000000
    7       24.079749   0.000000
    8       29.253062   0.000000
 
  0.1333333E+00  0.0000000E+00  0.0000000E+00  0.2370370E-02
    1       -3.581047   1.000000
    2       17.083418   0.000000
    3       20.783513   0.000000
    4       20.783524   0.000000
    5       24.379751   0.000000
    6       24.965766   0.000000
    7       24.965780   0.000000
    8       28.179271   0.000000
 
  0.2000000E+00 -0.1387779E-16  0.0000000E+00  0.2370370E-02
    1       -2.917550   1.000000
    2       14.172872   0.000000
    3       20.193783   0.000000
    4       20.193793   0.000000
    5       24.311688   0.000000
    6       25.165129   0.000000
    7       25.165139   0.000000
    8       28.180239   0.000000
 
  0.2666667E+00  0.0000000E+00  0.0000000E+00  0.2370370E-02
    1       -1.992500   1.000000
    2       11.397109   0.000000
    3       19.814872   0.000000
    4       19.814881   0.000000
    5       24.203522   0.000000
    6       24.203531   0.000000
    7       24.221230   0.000000
    8       29.610013   0.000000
 
  0.3333333E+00 -0.1387779E-16  0.0000000E+00  0.2370370E-02
    1       -0.809911   1.000000
    2        8.805278   1.000000
    3       19.634858   0.000000
    4       19.634866   0.000000
    5       23.142156   0.000000
    6       23.142165   0.000000
    7       24.223962   0.000000
    8       28.400547   0.000000
 
  0.4000000E+00  0.0000000E+00  0.0000000E+00  0.2370370E-02
    1        0.624056   1.000000
    2        6.424010   1.000000
    3       19.618772   0.000000
    4       19.618778   0.000000
    5       22.286505   0.000000
    6       22.286516   0.000000
    7       24.338116   0.000000
    8       27.431444   0.000000
 
  0.4666667E+00 -0.8326673E-16  0.0000000E+00  0.2370370E-02
    1        2.289290   1.000000
    2        4.283129   1.000000
    3       19.678687   0.000000
    4       19.678692   0.000000
    5       21.782600   0.000000
    6       21.782613   0.000000
    7       24.482489   0.000000
    8       26.846551   0.000000
 
  0.6666667E-01  0.6666667E-01  0.0000000E+00  0.1777778E-02
    1       -3.935842   1.000000
    2       20.520822   0.000000
    3       20.520823   0.000000
    4       21.880107   0.000000
    5       21.995646   0.000000
    6       24.934317   0.000000
    7       24.934318   0.000000
    8       28.098198   0.000000
 
  0.1333333E+00  0.6666667E-01  0.0000000E+00  0.7111111E-02
    1       -3.625341   1.000000
    2       18.121869   0.000000
    3       19.651526   0.000000
    4       21.267738   0.000000
    5       22.634423   0.000000
    6       25.669451   0.000000
    7       26.126837   0.000000
    8       26.576231   0.000000
 
  0.2000000E+00  0.6666667E-01  0.0000000E+00  0.7111111E-02
    1       -3.050019   1.000000
    2       15.222980   0.000000
    3       18.999306   0.000000
    4       20.637656   0.000000
    5       23.317955   0.000000
    6       25.423276   0.000000
    7       26.137801   0.000000
    8       26.747062   0.000000
 
  0.2666667E+00  0.6666667E-01  0.0000000E+00  0.7111111E-02
    1       -2.212241   1.000000
    2       12.405993   0.000000
    3       18.570342   0.000000
    4       20.139016   0.000000
    5       22.637752   0.000000
    6       25.328827   0.000000
    7       26.030433   0.000000
    8       27.206157   0.000000
 
  0.3333333E+00  0.6666667E-01  0.0000000E+00  0.7111111E-02
    1       -1.115561   1.000000
    2        9.754453   1.000000
    3       18.365006   0.000000
    4       19.724311   0.000000
    5       21.688873   0.000000
    6       24.945837   0.000000
    7       25.325784   0.000000
    8       28.841322   0.000000
 
  0.4000000E+00  0.6666667E-01  0.0000000E+00  0.7111111E-02
    1        0.234819   1.000000
    2        7.303559   1.000000
    3       18.379892   0.000000
    4       19.244371   0.000000
    5       21.144464   0.000000
    6       23.949584   0.000000
    7       25.366429   0.000000
    8       28.682973   0.000000
 
  0.4666667E+00  0.6666667E-01  0.0000000E+00  0.7111111E-02
    1        1.827969   1.000000
    2        5.077870   1.000000
    3       18.606481   0.000000
    4       18.660452   0.000000
    5       21.133320   0.000000
    6       23.149093   0.000000
    7       25.413197   0.000000
    8       28.106677   0.000000
 
 -0.4666667E+00  0.6666667E-01  0.0000000E+00  0.7111111E-02
    1        2.966646   1.000000
    2        3.780630   1.000000
    3       18.129413   0.000000
    4       19.025742   0.000000
    5       21.521245   0.000000
    6       22.593219   0.000000
    7       25.349552   0.000000
    8       28.015884   0.000000
 
 -0.4000000E+00  0.6666667E-01  0.0000000E+00  0.7111111E-02
    1        1.271493   1.000000
    2        5.792501   1.000000
    3       17.759862   0.000000
    4       19.594060   0.000000
    5       22.203016   0.000000
    6       22.333591   0.000000
    7       25.173284   0.000000
    8       28.445049   0.000000
 
 -0.3333333E+00  0.6666667E-01  0.0000000E+00  0.7111111E-02
    1       -0.243059   1.000000
    2        8.096218   1.000000
    3       17.593781   0.000000
    4       20.219060   0.000000
    5       22.456231   0.000000
    6       23.127100   0.000000
    7       25.014139   0.000000
    8       29.220254   0.000000
 
 -0.2666667E+00  0.6666667E-01  0.0000000E+00  0.7111111E-02
    1       -1.509624   1.000000
    2       10.616118   0.985331
    3       17.647224   0.000000
    4       20.791103   0.000000
    5       23.037796   0.000000
    6       24.246179   0.000000
    7       24.946874   0.000000
    8       28.914603   0.000000
 
 -0.2000000E+00  0.6666667E-01  0.0000000E+00  0.7111111E-02
    1       -2.520486   1.000000
    2       13.326197   0.000000
    3       17.926359   0.000000
    4       21.331020   0.000000
    5       23.903957   0.000000
    6       24.953712   0.000000
    7       25.445872   0.000000
    8       27.172253   0.000000
 
 -0.1333333E+00  0.6666667E-01  0.0000000E+00  0.7111111E-02
    1       -3.271114   1.000000
    2       16.179070   0.000000
    3       18.434033   0.000000
    4       21.942848   0.000000
    5       24.059373   0.000000
    6       24.908989   0.000000
    7       26.129732   0.000000
    8       26.681342   0.000000
 
 -0.6666667E-01  0.6666667E-01  0.0000000E+00  0.3555556E-02
    1       -3.758372   1.000000
    2       18.936725   0.000000
    3       19.289932   0.000000
    4       22.493328   0.000000
    5       23.175161   0.000000
    6       24.541036   0.000000
    7       25.403287   0.000000
    8       27.840064   0.000000
 
  0.1333333E+00  0.1333333E+00  0.0000000E+00  0.1777778E-02
    1       -3.403803   1.000000
    2       18.707925   0.000000
    3       18.707926   0.000000
    4       20.178216   0.000000
    5       20.923529   0.000000
    6       24.714137   0.000000
    7       27.389050   0.000000
    8       27.389050   0.000000
 
  0.2000000E+00  0.1333333E+00  0.0000000E+00  0.7111111E-02
    1       -2.917341   1.000000
    2       16.421725   0.000000
    3       17.981611   0.000000
    4       19.857223   0.000000
    5       20.982721   0.000000
    6       23.378282   0.000000
    7       28.119128   0.000000
    8       28.371955   0.000000
 
  0.2666667E+00  0.1333333E+00  0.0000000E+00  0.7111111E-02
    1       -2.167970   1.000000
    2       13.625179   0.000000
    3       17.480646   0.000000
    4       19.203259   0.000000
    5       20.699926   0.000000
    6       23.847135   0.000000
    7       28.054487   0.000000
    8       28.293585   0.000000
 
  0.3333333E+00  0.1333333E+00  0.0000000E+00  0.7111111E-02
    1       -1.158810   1.000000
    2       10.934889   0.000000
    3       17.207349   0.000000
    4       18.362394   0.000000
    5       20.054512   0.000000
    6       25.415573   0.000000
    7       27.048041   0.000000
    8       28.447133   0.000000
 
  0.4000000E+00  0.1333333E+00  0.0000000E+00  0.7111111E-02
    1        0.105605   1.000000
    2        8.425228   1.000000
    3       17.161534   0.000000
    4       17.391920   0.000000
    5       19.835349   0.000000
    6       26.026962   0.000000
    7       26.767679   0.000000
    8       29.121649   0.000000
 
  0.4666667E+00  0.1333333E+00  0.0000000E+00  0.7111111E-02
    1        1.617628   1.000000
    2        6.127672   1.000000
    3       16.498952   0.000000
    4       17.341205   0.000000
    5       19.971832   0.000000
    6       25.154317   0.000000
    7       27.182378   0.000000
    8       30.590965   0.000000
 
 -0.4666667E+00  0.1333333E+00  0.0000000E+00  0.7111111E-02
    1        3.313169   1.000000
    2        4.116250   1.000000
    3       15.785449   0.000000
    4       17.742033   0.000000
    5       20.392617   0.000000
    6       24.484212   0.000000
    7       27.080958   0.000000
    8       30.680006   0.000000
 
 -0.4000000E+00  0.1333333E+00  0.0000000E+00  0.7111111E-02
    1        2.173608   1.000000
    2        5.412597   1.000000
    3       15.287521   0.000000
    4       18.355515   0.000000
    5       21.068677   0.000000
    6       24.042890   0.000000
    7       26.823308   0.000000
    8       31.012929   0.000000
 
 -0.3333333E+00  0.1333333E+00  0.0000000E+00  0.7111111E-02
    1        0.582686   1.000000
    2        7.630541   1.000000
    3       15.020192   0.000000
    4       19.164738   0.000000
    5       21.980814   0.000000
    6       23.849366   0.000000
    7       26.569636   0.000000
    8       30.595379   0.000000
 
 -0.2666667E+00  0.1333333E+00  0.0000000E+00  0.7111111E-02
    1       -0.765527   1.000000
    2       10.065947   1.000000
    3       14.992352   0.000000
    4       20.134455   0.000000
    5       23.104414   0.000000
    6       23.922258   0.000000
    7       26.366443   0.000000
    8       28.380590   0.000000
 
 -0.2000000E+00  0.1333333E+00  0.0000000E+00  0.7111111E-02
    1       -1.860392   1.000000
    2       12.676883   0.000000
    3       15.220458   0.000000
    4       21.186834   0.000000
    5       24.248711   0.000000
    6       24.387743   0.000000
    7       26.146325   0.000000
    8       26.447933   0.000000
 
 -0.1333333E+00  0.1333333E+00  0.0000000E+00  0.3555556E-02
    1       -2.696769   1.000000
    2       15.166662   0.000000
    3       15.955790   0.000000
    4       22.105920   0.000000
    5       24.202484   0.000000
    6       25.656919   0.000000
    7       25.664017   0.000000
    8       25.698349   0.000000
 
  0.2000000E+00  0.2000000E+00  0.0000000E+00  0.1777778E-02
    1       -2.520102   1.000000
    2       17.179112   0.000000
    3       17.179113   0.000000
    4       18.553398   0.000000
    5       19.118065   0.000000
    6       21.648749   0.000000
    7       29.879597   0.000000
    8       29.879597   0.000000
 
  0.2666667E+00  0.2000000E+00  0.0000000E+00  0.7111111E-02
    1       -1.859905   1.000000
    2       14.994479   0.000000
    3       16.602189   0.000000
    4       17.839818   0.000000
    5       18.864014   0.000000
    6       21.298442   0.000000
    7       30.164256   0.000000
    8       30.636226   0.000000
 
  0.3333333E+00  0.2000000E+00  0.0000000E+00  0.7111111E-02
    1       -0.939562   1.000000
    2       12.325892   0.000000
    3       16.254111   0.000000
    4       16.536928   0.000000
    5       18.775729   0.000000
    6       22.639029   0.000000
    7       29.316949   0.000000
    8       30.805033   0.000000
 
  0.4000000E+00  0.2000000E+00  0.0000000E+00  0.7111111E-02
    1        0.236916   1.000000
    2        9.778331   1.000000
    3       15.307595   0.000000
    4       16.135609   0.000000
    5       18.687297   0.000000
    6       24.593461   0.000000
    7       28.320965   0.000000
    8       30.729151   0.000000
 
  0.4666667E+00  0.2000000E+00  0.0000000E+00  0.7111111E-02
    1        1.663337   1.000000
    2        7.421302   1.000000
    3       14.257763   0.000000
    4       16.246113   0.000000
    5       18.820668   0.000000
    6       26.668727   0.000000
    7       27.417309   0.000000
    8       30.587939   0.000000
 
 -0.4666667E+00  0.2000000E+00  0.0000000E+00  0.7111111E-02
    1        3.321449   1.000000
    2        5.293019   1.000000
    3       13.425993   0.000000
    4       16.583881   0.000000
    5       19.200495   0.000000
    6       26.686466   0.000000
    7       28.270781   0.000000
    8       30.856680   0.000000
 
 -0.4000000E+00  0.2000000E+00  0.0000000E+00  0.7111111E-02
    1        3.323367   1.000000
    2        5.287364   1.000000
    3       12.829411   0.000000
    4       17.145401   0.000000
    5       19.825948   0.000000
    6       26.163026   0.000000
    7       28.592366   0.000000
    8       32.070445   0.000000
 
 -0.3333333E+00  0.2000000E+00  0.0000000E+00  0.7111111E-02
    1        1.663776   1.000000
    2        7.405375   1.000000
    3       12.480206   0.000000
    4       17.923702   0.000000
    5       20.688596   0.000000
    6       25.864962   0.000000
    7       28.331765   0.000000
    8       30.407097   0.000000
 
 -0.2666667E+00  0.2000000E+00  0.0000000E+00  0.7111111E-02
    1        0.236697   1.000000
    2        9.724107   1.000000
    3       12.405029   0.000000
    4       18.903774   0.000000
    5       21.771413   0.000000
    6       25.803588   0.000000
    7       27.905437   0.000000
    8       28.082990   0.000000
 
 -0.2000000E+00  0.2000000E+00  0.0000000E+00  0.3555556E-02
    1       -0.940026   1.000000
    2       11.896940   0.000000
    3       12.918043   0.000000
    4       20.046472   0.000000
    5       23.037939   0.000000
    6       25.898129   0.000000
    7       26.065091   0.000000
    8       27.218249   0.000000
 
  0.2666667E+00  0.2666667E+00  0.0000000E+00  0.1777778E-02
    1       -1.289394   1.000000
    2       15.948566   0.000000
    3       15.948567   0.000000
    4       16.204668   0.000000
    5       17.195575   0.000000
    6       19.871579   0.000000
    7       32.252812   0.000000
    8       32.278142   0.000000
 
  0.3333333E+00  0.2666667E+00  0.0000000E+00  0.7111111E-02
    1       -0.458817   1.000000
    2       13.848189   0.000000
    3       14.709525   0.000000
    4       15.524031   0.000000
    5       17.577230   0.000000
    6       20.104203   0.000000
    7       31.654287   0.000000
    8       32.943578   0.000000
 
  0.4000000E+00  0.2666667E+00  0.0000000E+00  0.7111111E-02
    1        0.628038   1.000000
    2       11.334947   0.000000
    3       13.321118   0.000000
    4       15.329875   0.000000
    5       17.709456   0.000000
    6       21.749919   0.000000
    7       30.749686   0.000000
    8       32.960821   0.000000
 
  0.4666667E+00  0.2666667E+00  0.0000000E+00  0.7111111E-02
    1        1.965569   1.000000
    2        8.943471   1.000000
    3       12.151012   0.000000
    4       15.366138   0.000000
    5       17.837224   0.000000
    6       23.926548   0.000000
    7       29.854262   0.000000
    8       32.584665   0.000000
 
 -0.4666667E+00  0.2666667E+00  0.0000000E+00  0.7111111E-02
    1        3.542639   1.000000
    2        6.749422   1.000000
    3       11.217493   0.000000
    4       15.632027   0.000000
    5       18.164772   0.000000
    6       26.294774   0.000000
    7       29.087852   0.000000
    8       32.014505   0.000000
 
 -0.4000000E+00  0.2666667E+00  0.0000000E+00  0.7111111E-02
    1        4.691473   1.000000
    2        5.434741   1.000000
    3       10.534412   0.999996
    4       16.125718   0.000000
    5       18.727243   0.000000
    6       28.502508   0.000000
    7       28.610539   0.000000
    8       31.395266   0.000000
 
 -0.3333333E+00  0.2666667E+00  0.0000000E+00  0.7111111E-02
    1        2.994981   1.000000
    2        7.395180   1.000000
    3       10.133002   1.000000
    4       16.843449   0.000000
    5       19.526693   0.000000
    6       28.119021   0.000000
    7       29.977483   0.000000
    8       30.466690   0.000000
 
 -0.2666667E+00  0.2666667E+00  0.0000000E+00  0.3555556E-02
    1        1.492616   1.000000
    2        9.248734   1.000000
    3       10.354768   1.000000
    4       17.776891   0.000000
    5       20.551425   0.000000
    6       27.794679   0.000000
    7       28.227538   0.000000
    8       29.249942   0.000000
 
  0.3333333E+00  0.3333333E+00  0.0000000E+00  0.1777778E-02
    1        0.281183   1.000000
    2       12.965984   0.000000
    3       15.022705   0.000000
    4       15.022706   0.000000
    5       16.157838   0.000000
    6       18.833959   0.000000
    7       33.581580   0.000000
    8       34.389475   0.000000
 
  0.4000000E+00  0.3333333E+00  0.0000000E+00  0.7111111E-02
    1        1.276825   1.000000
    2       11.465212   0.000000
    3       13.094614   0.000000
    4       14.751973   0.000000
    5       16.721290   0.000000
    6       19.307245   0.000000
    7       33.165076   0.000000
    8       34.922870   0.000000
 
  0.4666667E+00  0.3333333E+00  0.0000000E+00  0.7111111E-02
    1        2.522084   1.000000
    2       10.149264   1.000000
    3       10.768004   0.017127
    4       14.712276   0.000000
    5       17.026172   0.000000
    6       21.150476   0.000000
    7       32.360541   0.000000
    8       34.695611   0.000000
 
 -0.4666667E+00  0.3333333E+00  0.0000000E+00  0.7111111E-02
    1        4.005053   1.000000
    2        8.400912   1.000000
    3        9.257684   1.000000
    4       14.903333   0.000000
    5       17.332322   0.000000
    6       23.508852   0.000000
    7       31.593212   0.000000
    8       34.007465   0.000000
 
 -0.4000000E+00  0.3333333E+00  0.0000000E+00  0.7111111E-02
    1        5.667495   1.000000
    2        6.419444   1.000000
    3        8.488591   1.000000
    4       15.324146   0.000000
    5       17.835114   0.000000
    6       26.070695   0.000000
    7       30.939307   0.000000
    8       33.024178   0.000000
 
 -0.3333333E+00  0.3333333E+00  0.0000000E+00  0.3555556E-02
    1        4.566881   1.000000
    2        7.254090   1.000000
    3        8.373534   1.000000
    4       15.972519   0.000000
    5       18.567451   0.000000
    6       28.642855   0.000000
    7       30.185900   0.000000
    8       31.110332   0.000000
 
  0.4000000E+00  0.4000000E+00  0.0000000E+00  0.1777778E-02
    1        2.179076   1.000000
    2        9.879962   1.000000
    3       14.404445   0.000000
    4       14.404446   0.000000
    5       15.459571   0.000000
    6       18.176152   0.000000
    7       34.866262   0.000000
    8       36.201137   0.000000
 
  0.4666667E+00  0.4000000E+00  0.0000000E+00  0.7111111E-02
    1        3.326024   1.000000
    2        8.521488   1.000000
    3       12.598290   0.000000
    4       14.288146   0.000000
    5       16.209544   0.000000
    6       18.831869   0.000000
    7       34.645837   0.000000
    8       36.468631   0.000000
 
 -0.4666667E+00  0.4000000E+00  0.0000000E+00  0.7111111E-02
    1        4.688320   1.000000
    2        7.431486   1.000000
    3       10.383502   1.000000
    4       14.403133   0.000000
    5       16.685301   0.000000
    6       20.847728   0.000000
    7       33.958391   0.000000
    8       35.844683   0.000000
 
 -0.4000000E+00  0.4000000E+00  0.0000000E+00  0.3555556E-02
    1        5.922523   1.000000
    2        6.929750   1.000000
    3        8.341633   1.000000
    4       14.748912   0.000000
    5       17.163739   0.000000
    6       23.367215   0.000000
    7       32.980387   0.000000
    8       34.326906   0.000000
 
  0.4666667E+00  0.4666667E+00  0.0000000E+00  0.1777778E-02
    1        4.350968   1.000000
    2        7.101251   1.000000
    3       14.095087   0.000000
    4       14.095088   0.000000
    5       15.108892   0.000000
    6       17.848958   0.000000
    7       35.792309   0.000000
    8       37.408067   0.000000
 
 -0.4666667E+00  0.4666667E+00  0.0000000E+00  0.3555556E-02
    1        5.256531   1.000000
    2        6.287423   1.000000
    3       12.434435   0.000000
    4       14.133467   0.000000
    5       16.038814   0.000000
    6       18.673058   0.000000
    7       35.473469   0.000000
    8       37.091508   0.000000
 
  0.2000000E+00  0.1333333E+00  0.6666667E-01  0.7111111E-02
    1       -3.226830   1.000000
    2       17.073735   0.000000
    3       17.607939   0.000000
    4       21.764584   0.000000
    5       22.060530   0.000000
    6       25.064136   0.000000
    7       26.609977   0.000000
    8       26.999557   0.000000
 
  0.2666667E+00  0.1333333E+00  0.6666667E-01  0.1422222E-01
    1       -2.564439   1.000000
    2       14.441372   0.000000
    3       16.825155   0.000000
    4       21.035412   0.000000
    5       22.508309   0.000000
    6       24.675906   0.000000
    7       26.809345   0.000000
    8       27.050270   0.000000
 
  0.3333333E+00  0.1333333E+00  0.6666667E-01  0.1422222E-01
    1       -1.640922   1.000000
    2       11.704581   0.000000
    3       16.457874   0.000000
    4       20.110854   0.000000
    5       22.036649   0.000000
    6       25.339884   0.000000
    7       26.242229   0.000000
    8       27.412985   0.000000
 
  0.4000000E+00  0.1333333E+00  0.6666667E-01  0.1422222E-01
    1       -0.460278   1.000000
    2        9.129021   1.000000
    3       16.328925   0.000000
    4       19.106541   0.000000
    5       21.733702   0.000000
    6       24.498327   0.000000
    7       26.593440   0.000000
    8       28.808612   0.000000
 
  0.4666667E+00  0.1333333E+00  0.6666667E-01  0.1422222E-01
    1        0.971378   1.000000
    2        6.756529   1.000000
    3       16.425599   0.000000
    4       18.184803   0.000000
    5       21.726801   0.000000
    6       23.579028   0.000000
    7       26.769616   0.000000
    8       30.205718   0.000000
 
 -0.4666667E+00  0.1333333E+00  0.6666667E-01  0.1422222E-01
    1        2.634724   1.000000
    2        4.620145   1.000000
    3       16.703932   0.000000
    4       17.478476   0.000000
    5       21.903828   0.000000
    6       22.931494   0.000000
    7       26.879287   0.000000
    8       29.908466   0.000000
 
  0.2666667E+00  0.2000000E+00  0.6666667E-01  0.7111111E-02
    1       -2.343948   1.000000
    2       15.474808   0.000000
    3       16.103848   0.000000
    4       19.645880   0.000000
    5       20.553891   0.000000
    6       22.500983   0.000000
    7       28.600317   0.000000
    8       29.275387   0.000000
 
  0.3333333E+00  0.2000000E+00  0.6666667E-01  0.1422222E-01
    1       -1.508980   1.000000
    2       12.988539   0.000000
    3       15.434590   0.000000
    4       18.369123   0.000000
    5       20.783545   0.000000
    6       23.281597   0.000000
    7       27.822750   0.000000
    8       29.738223   0.000000
 
  0.4000000E+00  0.2000000E+00  0.6666667E-01  0.1422222E-01
    1       -0.416001   1.000000
    2       10.389773   1.000000
    3       15.207136   0.000000
    4       17.109586   0.000000
    5       20.663808   0.000000
    6       24.981356   0.000000
    7       26.863156   0.000000
    8       29.885243   0.000000
 
  0.4666667E+00  0.2000000E+00  0.6666667E-01  0.1422222E-01
    1        0.929780   1.000000
    2        7.962000   1.000000
    3       15.188428   0.000000
    4       16.053175   0.000000
    5       20.706557   0.000000
    6       25.513652   0.000000
    7       27.281726   0.000000
    8       30.094878   0.000000
 
 -0.4666667E+00  0.2000000E+00  0.6666667E-01  0.1422222E-01
    1        2.517833   1.000000
    2        5.748801   1.000000
    3       14.942860   0.000000
    4       15.671147   0.000000
    5       20.973919   0.000000
    6       24.797769   0.000000
    7       28.523683   0.000000
    8       30.874229   0.000000
 
 -0.4000000E+00  0.2000000E+00  0.6666667E-01  0.1422222E-01
    1        3.659336   1.000000
    2        4.449601   1.000000
    3       14.343737   0.000000
    4       16.104687   0.000000
    5       21.463171   0.000000
    6       24.211512   0.000000
    7       28.738446   0.000000
    8       32.037246   0.000000
 
 -0.3333333E+00  0.2000000E+00  0.6666667E-01  0.1422222E-01
    1        1.963218   1.000000
    2        6.456915   1.000000
    3       13.923932   0.000000
    4       16.824637   0.000000
    5       22.143860   0.000000
    6       23.865199   0.000000
    7       28.463010   0.000000
    8       30.798941   0.000000
 
 -0.2666667E+00  0.2000000E+00  0.6666667E-01  0.1422222E-01
    1        0.453478   1.000000
    2        8.739500   1.000000
    3       13.740303   0.000000
    4       17.770759   0.000000
    5       22.890310   0.000000
    6       23.870444   0.000000
    7       27.610000   0.000000
    8       29.257984   0.000000
 
 -0.2000000E+00  0.2000000E+00  0.6666667E-01  0.1422222E-01
    1       -0.808881   1.000000
    2       11.206349   0.000000
    3       13.819669   0.000000
    4       18.911596   0.000000
    5       23.367641   0.000000
    6       24.392452   0.000000
    7       26.053688   0.000000
    8       28.622893   0.000000
 
 -0.1333333E+00  0.2000000E+00  0.6666667E-01  0.7111111E-02
    1       -1.816341   1.000000
    2       13.539285   0.000000
    3       14.446086   0.000000
    4       20.171255   0.000000
    5       23.347901   0.000000
    6       24.202494   0.000000
    7       25.996047   0.000000
    8       28.028490   0.000000
 
  0.3333333E+00  0.2666667E+00  0.6666667E-01  0.7111111E-02
    1       -1.114380   1.000000
    2       14.180167   0.000000
    3       14.842460   0.000000
    4       16.509215   0.000000
    5       19.275328   0.000000
    6       21.048817   0.000000
    7       29.981669   0.000000
    8       31.882399   0.000000
 
  0.4000000E+00  0.2666667E+00  0.6666667E-01  0.1422222E-01
    1       -0.110513   1.000000
    2       11.843340   0.000000
    3       14.271552   0.000000
    4       15.142162   0.000000
    5       19.633193   0.000000
    6       22.268782   0.000000
    7       29.087481   0.000000
    8       32.333176   0.000000
 
  0.4666667E+00  0.2666667E+00  0.6666667E-01  0.1422222E-01
    1        1.147010   1.000000
    2        9.394328   1.000000
    3       13.705909   0.000000
    4       14.416551   0.000000
    5       19.715842   0.000000
    6       24.284271   0.000000
    7       28.147737   0.000000
    8       32.262135   0.000000
 
 -0.4666667E+00  0.2666667E+00  0.6666667E-01  0.1422222E-01
    1        2.650364   1.000000
    2        7.123865   1.000000
    3       12.772423   0.000000
    4       14.536120   0.000000
    5       19.951727   0.000000
    6       26.296550   0.000000
    7       27.558851   0.000000
    8       31.907188   0.000000
 
 -0.4000000E+00  0.2666667E+00  0.6666667E-01  0.1422222E-01
    1        4.344061   1.000000
    2        5.117410   1.000000
    3       12.019365   0.000000
    4       14.955369   0.000000
    5       20.404356   0.000000
    6       26.384130   0.000000
    7       29.030837   0.000000
    8       31.268577   0.000000
 
 -0.3333333E+00  0.2666667E+00  0.6666667E-01  0.1422222E-01
    1        3.205209   1.000000
    2        6.401249   1.000000
    3       11.507915   0.000000
    4       15.619347   0.000000
    5       21.079103   0.000000
    6       25.965838   0.000000
    7       29.809195   0.000000
    8       30.686846   0.000000
 
 -0.2666667E+00  0.2666667E+00  0.6666667E-01  0.1422222E-01
    1        1.621750   1.000000
    2        8.561646   1.000000
    3       11.272709   0.000000
    4       16.514673   0.000000
    5       21.961809   0.000000
    6       25.701195   0.000000
    7       27.861856   0.000000
    8       30.635509   0.000000
 
 -0.2000000E+00  0.2666667E+00  0.6666667E-01  0.7111111E-02
    1        0.280382   1.000000
    2       10.575192   0.999576
    3       11.643744   0.000000
    4       17.625731   0.000000
    5       23.003840   0.000000
    6       25.295517   0.000000
    7       26.129650   0.000000
    8       29.867764   0.000000
 
  0.4000000E+00  0.3333333E+00  0.6666667E-01  0.7111111E-02
    1        0.454725   1.000000
    2       13.062743   0.000000
    3       13.202838   0.000000
    4       14.064659   0.000000
    5       18.295874   0.000000
    6       20.101755   0.000000
    7       31.437170   0.000000
    8       34.220825   0.000000
 
  0.4666667E+00  0.3333333E+00  0.6666667E-01  0.1422222E-01
    1        1.621772   1.000000
    2       10.993974   0.000000
    3       11.832184   0.000000
    4       13.612522   0.000000
    5       18.821876   0.000000
    6       21.537464   0.000000
    7       30.601906   0.000000
    8       34.451842   0.000000
 
 -0.4666667E+00  0.3333333E+00  0.6666667E-01  0.1422222E-01
    1        3.034929   1.000000
    2        8.718728   1.000000
    3       10.728731   0.157145
    4       13.692228   0.000000
    5       19.079414   0.000000
    6       23.756053   0.000000
    7       29.766484   0.000000
    8       33.851014   0.000000
 