       N       E                     dE             d eps       ncg     rms          rms(c)
DAV:   1    -0.143317636489E+01   -0.14332E+01   -0.21813E+03  2008   0.503E+02
DAV:   2    -0.487897498088E+01   -0.34458E+01   -0.33031E+01  2912   0.358E+01
DAV:   3    -0.490005219158E+01   -0.21077E-01   -0.21051E-01  2224   0.301E+00
DAV:   4    -0.490007651281E+01   -0.24321E-04   -0.24321E-04  3160   0.116E-01
DAV:   5    -0.490007651514E+01   -0.23317E-08   -0.21643E-08  2208   0.706E-04    0.288E+00
DAV:   6    -0.488607154438E+01    0.14005E-01   -0.39063E-03  2296   0.277E-01    0.159E+00
DAV:   7    -0.487800711103E+01    0.80644E-02   -0.79229E-03  2248   0.394E-01    0.138E-01
DAV:   8    -0.487796598887E+01    0.41122E-04   -0.28203E-05  2944   0.438E-02    0.146E-02
DAV:   9    -0.487796625267E+01   -0.26380E-06   -0.37394E-07  2376   0.358E-03
   1 F= -.48779663E+01 E0= -.48775966E+01  d E =-.487797E+01
