 vasp.6.2.0 18Jan21 (build Aug 12 2022 13:00:08) complex                        
  
 executed on             LinuxIFC date 2024.11.05  05:19:34
 running on    4 total cores
 distrk:  each k-point on    4 cores,    1 groups
 distr:  one band on NCORE=   1 cores,    4 groups


--------------------------------------------------------------------------------------------------------


 INCAR:
   ISTART = 0            (Read existing wavefunction, if there)
   ISPIN = 1            (Non-Spin polarised DFT)
   LREAL = .FALSE.       (Projection operators: automatic)
   LWAVE = .FALSE.        (Write WAVECAR or not)
   LCHARG = .FALSE.        (Write CHGCAR or not)
   ADDGRID = .TRUE.        (Increase grid, helps GGA convergence)
   LASPH = .TRUE.        (Give more accurate total energies and band structure calculations)
   PREC = Accurate      (Accurate strictly avoids any aliasing or wrap around errors)
   ENCUT = 700          (Cut-off energy for plane wave basis set, in eV)
   ISMEAR = 0            (Gaussian smearing, metals:1)
   SIGMA = 0.05         (Smearing value in eV, metals:0.2)
   NELM = 90           (Max electronic SCF steps)
   NELMIN = 6            (Min electronic SCF steps)
   EDIFF = 1E-06        (SCF energy convergence, in eV)
   NSW = 100          (Max ionic steps)
   IBRION = 2            (Algorithm: 0-MD, 1-Quasi-New, 2-CG)
   ISIF = 2            (Stress/relaxation: 2-Ions, 3-Shape/Ions/V, 4-Shape/Ions)
   EDIFFG = -2E-03        (Ionic convergence, eV/AA)
   ISYM = 2              (Symmetry: 0\=none, 2\=GGA, 3\=hybrids)

 POTCAR:    PAW_PBE Si 05Jan2001                  
 POTCAR:    PAW_PBE Si 05Jan2001                  
   VRHFIN =Si: s2p2                                                                                 
   LEXCH  = PE                                                                                      
   EATOM  =   103.0669 eV,    7.5752 Ry                                                             
                                                                                                    
   TITEL  = PAW_PBE Si 05Jan2001                                                                    
   LULTRA =        F    use ultrasoft PP ?                                                          
   IUNSCR =        1    unscreen: 0-lin 1-nonlin 2-no                                               
   RPACOR =    1.500    partial core radius                                                         
   POMASS =   28.085; ZVAL   =    4.000    mass and valenz                                          
   RCORE  =    1.900    outmost cutoff radius                                                       
   RWIGS  =    2.480; RWIGS  =    1.312    wigner-seitz radius (au A)                               
   ENMAX  =  245.345; ENMIN  =  184.009 eV                                                          
   ICORE  =        2    local potential                                                             
   LCOR   =        T    correct aug charges                                                         
   LPAW   =        T    paw PP                                                                      
   EAUG   =  322.069                                                                                
   DEXC   =    0.000                                                                                
   RMAX   =    1.950    core radius for proj-oper                                                   
   RAUG   =    1.300    factor for augmentation sphere                                              
   RDEP   =    1.993    radius for radial grids                                                     
   RDEPT  =    1.837    core radius for aug-charge                                                  
                                                                                                    
   Atomic configuration                                                                             
    6 entries                                                                                       
     n  l   j            E        occ.                                                              
     1  0  0.50     -1785.8828   2.0000                                                             
     2  0  0.50      -139.4969   2.0000                                                             
     2  1  1.50       -95.5546   6.0000                                                             
     3  0  0.50       -10.8127   2.0000                                                             
     3  1  0.50        -4.0811   2.0000                                                             
     3  2  1.50        -4.0817   0.0000                                                             
   Description                                                                                      
     l       E           TYP  RCUT    TYP  RCUT                                                     
     0    -10.8127223     23  1.900                                                                 
     0     -7.6451159     23  1.900                                                                 
     1     -4.0811372     23  1.900                                                                 
     1      2.4879257     23  1.900                                                                 
     2     -4.0817478      7  1.900                                                                 
  local pseudopotential read in
  partial core-charges read in
  partial kinetic energy density read in
  atomic valenz-charges read in
  non local Contribution for L=           0  read in
    real space projection operators read in
  non local Contribution for L=           0  read in
    real space projection operators read in
  non local Contribution for L=           1  read in
    real space projection operators read in
  non local Contribution for L=           1  read in
    real space projection operators read in
    PAW grid and wavefunctions read in
 
   number of l-projection  operators is LMAX  =           4
   number of lm-projection operators is LMMAX =           8
 
  PAW_PBE Si 05Jan2001                  :
 energy of atom  1       EATOM= -103.0669
 kinetic energy error for atom=    0.0003 (will be added to EATOM!!)
 
 
 POSCAR: Si1
  positions in direct lattice
  No initial velocities read in
 exchange correlation table for  LEXCH =        8
   RHO(1)=    0.500       N(1)  =     2000
   RHO(2)=  100.500       N(2)  =     4000
 


--------------------------------------------------------------------------------------------------------


 ion  position               nearest neighbor table
   1  0.000  0.000  0.000-
 
  LATTYP: Found a face centered cubic cell.
 ALAT       =     3.8141125202
  
  Lattice vectors:
  
 A1 = (   2.3356580250,   0.0000000000,   1.3484916600)
 A2 = (   0.7785526750,   2.2020792750,   1.3484916600)
 A3 = (   0.0000000000,   0.0000000000,   2.6969853100)


Analysis of symmetry for initial positions (statically):
=====================================================================
 Subroutine PRICEL returns:
 Original cell was already a primitive cell.
 

 Routine SETGRP: Setting up the symmetry group for a 
 face centered cubic supercell.


 Subroutine GETGRP returns: Found 48 space group operations
 (whereof 48 operations were pure point group operations)
 out of a pool of 48 trial point group operations.


The static configuration has the point symmetry O_h .


Analysis of symmetry for dynamics (positions and initial velocities):
=====================================================================
 Subroutine PRICEL returns:
 Original cell was already a primitive cell.
 

 Routine SETGRP: Setting up the symmetry group for a 
 face centered cubic supercell.


 Subroutine GETGRP returns: Found 48 space group operations
 (whereof 48 operations were pure point group operations)
 out of a pool of 48 trial point group operations.


The dynamic configuration has the point symmetry O_h .


 Subroutine INISYM returns: Found 48 space group operations
 (whereof 48 operations are pure point group operations),
 and found     1 'primitive' translations


----------------------------------------------------------------------------------------

                                     Primitive cell                                     

  volume of cell :      13.8714

  direct lattice vectors                    reciprocal lattice vectors
     2.335658025  0.000000000  1.348491660     0.428144869 -0.151372086  0.000000000
     0.778552675  2.202079275  1.348491660     0.000000000  0.454116258  0.000000000
     0.000000000  0.000000000  2.696985310    -0.214072277 -0.151371974  0.370784370

  length of vectors
     2.696985014  2.696984827  2.696985310     0.454116216  0.454116258  0.454116134

  position of ions in fractional coordinates (direct lattice)
     0.000000000  0.000000000  0.000000000

  ion indices of the primitive-cell ions
   primitive index   ion index
                 1           1

----------------------------------------------------------------------------------------

 
 
 KPOINTS: Automatic                               

Automatic generation of k-mesh.
 Grid dimensions read from file:
 generate k-points for:   15   15   15

 Generating k-lattice:

  Cartesian coordinates                     Fractional coordinates (reciprocal lattice)
     0.028542991 -0.010091472  0.000000000     0.066666667 -0.000000000  0.000000000
     0.000000000  0.030274417  0.000000000     0.000000000  0.066666667  0.000000000
    -0.014271485 -0.010091465  0.024718958     0.000000000  0.000000000  0.066666667

  Length of vectors
     0.030274414  0.030274417  0.030274409

  Shift w.r.t. Gamma in fractional coordinates (k-lattice)
     0.000000000  0.000000000  0.000000000

 
 Subroutine IBZKPT returns following result:
 ===========================================
 
 Found    120 irreducible k-points:
 
 Following reciprocal coordinates:
            Coordinates               Weight
  0.000000  0.000000  0.000000      1.000000
  0.066667  0.000000  0.000000      8.000000
  0.133333  0.000000  0.000000      8.000000
  0.200000 -0.000000  0.000000      8.000000
  0.266667  0.000000  0.000000      8.000000
  0.333333 -0.000000  0.000000      8.000000
  0.400000  0.000000  0.000000      8.000000
  0.466667 -0.000000  0.000000      8.000000
  0.066667  0.066667  0.000000      6.000000
  0.133333  0.066667  0.000000     24.000000
  0.200000  0.066667  0.000000     24.000000
  0.266667  0.066667  0.000000     24.000000
  0.333333  0.066667  0.000000     24.000000
  0.400000  0.066667  0.000000     24.000000
  0.466667  0.066667  0.000000     24.000000
 -0.466667  0.066667  0.000000     24.000000
 -0.400000  0.066667  0.000000     24.000000
 -0.333333  0.066667  0.000000     24.000000
 -0.266667  0.066667  0.000000     24.000000
 -0.200000  0.066667  0.000000     24.000000
 -0.133333  0.066667  0.000000     24.000000
 -0.066667  0.066667  0.000000     12.000000
  0.133333  0.133333  0.000000      6.000000
  0.200000  0.133333  0.000000     24.000000
  0.266667  0.133333  0.000000     24.000000
  0.333333  0.133333  0.000000     24.000000
  0.400000  0.133333  0.000000     24.000000
  0.466667  0.133333  0.000000     24.000000
 -0.466667  0.133333  0.000000     24.000000
 -0.400000  0.133333  0.000000     24.000000
 -0.333333  0.133333  0.000000     24.000000
 -0.266667  0.133333  0.000000     24.000000
 -0.200000  0.133333  0.000000     24.000000
 -0.133333  0.133333  0.000000     12.000000
  0.200000  0.200000  0.000000      6.000000
  0.266667  0.200000  0.000000     24.000000
  0.333333  0.200000  0.000000     24.000000
  0.400000  0.200000  0.000000     24.000000
  0.466667  0.200000  0.000000     24.000000
 -0.466667  0.200000  0.000000     24.000000
 -0.400000  0.200000  0.000000     24.000000
 -0.333333  0.200000  0.000000     24.000000
 -0.266667  0.200000  0.000000     24.000000
 -0.200000  0.200000  0.000000     12.000000
  0.266667  0.266667  0.000000      6.000000
  0.333333  0.266667  0.000000     24.000000
  0.400000  0.266667  0.000000     24.000000
  0.466667  0.266667  0.000000     24.000000
 -0.466667  0.266667  0.000000     24.000000
 -0.400000  0.266667  0.000000     24.000000
 -0.333333  0.266667  0.000000     24.000000
 -0.266667  0.266667  0.000000     12.000000
  0.333333  0.333333  0.000000      6.000000
  0.400000  0.333333  0.000000     24.000000
  0.466667  0.333333  0.000000     24.000000
 -0.466667  0.333333  0.000000     24.000000
 -0.400000  0.333333  0.000000     24.000000
 -0.333333  0.333333  0.000000     12.000000
  0.400000  0.400000  0.000000      6.000000
  0.466667  0.400000  0.000000     24.000000
 -0.466667  0.400000  0.000000     24.000000
 -0.400000  0.400000  0.000000     12.000000
  0.466667  0.466667  0.000000      6.000000
 -0.466667  0.466667  0.000000     12.000000
  0.200000  0.133333  0.066667     24.000000
  0.266667  0.133333  0.066667     48.000000
  0.333333  0.133333  0.066667     48.000000
  0.400000  0.133333  0.066667     48.000000
  0.466667  0.133333  0.066667     48.000000
 -0.466667  0.133333  0.066667     48.000000
  0.266667  0.200000  0.066667     24.000000
  0.333333  0.200000  0.066667     48.000000
  0.400000  0.200000  0.066667     48.000000
  0.466667  0.200000  0.066667     48.000000
 -0.466667  0.200000  0.066667     48.000000
 -0.400000  0.200000  0.066667     48.000000
 -0.333333  0.200000  0.066667     48.000000
 -0.266667  0.200000  0.066667     48.000000
 -0.200000  0.200000  0.066667     48.000000
 -0.133333  0.200000  0.066667     24.000000
  0.333333  0.266667  0.066667     24.000000
  0.400000  0.266667  0.066667     48.000000
  0.466667  0.266667  0.066667     48.000000
 -0.466667  0.266667  0.066667     48.000000
 -0.400000  0.266667  0.066667     48.000000
 -0.333333  0.266667  0.066667     48.000000
 -0.266667  0.266667  0.066667     48.000000
 -0.200000  0.266667  0.066667     24.000000
  0.400000  0.333333  0.066667     24.000000
  0.466667  0.333333  0.066667     48.000000
 -0.466667  0.333333  0.066667     48.000000
 -0.400000  0.333333  0.066667     48.000000
 -0.333333  0.333333  0.066667     48.000000
 -0.266667  0.333333  0.066667     24.000000
  0.466667  0.400000  0.066667     24.000000
 -0.466667  0.400000  0.066667     48.000000
 -0.400000  0.400000  0.066667     48.000000
 -0.333333  0.400000  0.066667     24.000000
 -0.466667  0.466667  0.066667     24.000000
 -0.400000  0.466667  0.066667     24.000000
  0.400000  0.266667  0.133333     24.000000
  0.466667  0.266667  0.133333     48.000000
 -0.466667  0.266667  0.133333     48.000000
 -0.400000  0.266667  0.133333     48.000000
  0.466667  0.333333  0.133333     24.000000
 -0.466667  0.333333  0.133333     48.000000
 -0.400000  0.333333  0.133333     48.000000
 -0.333333  0.333333  0.133333     48.000000
 -0.266667  0.333333  0.133333     48.000000
 -0.200000  0.333333  0.133333     24.000000
 -0.466667  0.400000  0.133333     24.000000
 -0.400000  0.400000  0.133333     48.000000
 -0.333333  0.400000  0.133333     48.000000
 -0.266667  0.400000  0.133333     24.000000
 -0.400000  0.466667  0.133333     24.000000
 -0.333333  0.466667  0.133333     24.000000
 -0.400000  0.400000  0.200000     24.000000
 -0.333333  0.400000  0.200000     48.000000
 -0.333333  0.466667  0.200000     24.000000
 -0.266667  0.466667  0.200000     24.000000
 
 Following cartesian coordinates:
            Coordinates               Weight
  0.000000  0.000000  0.000000      1.000000
  0.028400 -0.010041  0.000000      8.000000
  0.056801 -0.020082  0.000000      8.000000
  0.085201 -0.030123  0.000000      8.000000
  0.113601 -0.040164  0.000000      8.000000
  0.142001 -0.050205  0.000000      8.000000
  0.170402 -0.060246  0.000000      8.000000
  0.198802 -0.070287  0.000000      8.000000
  0.028400  0.020082  0.000000      6.000000
  0.056801  0.010041  0.000000     24.000000
  0.085201  0.000000  0.000000     24.000000
  0.113601 -0.010041  0.000000     24.000000
  0.142001 -0.020082  0.000000     24.000000
  0.170402 -0.030123  0.000000     24.000000
  0.198802 -0.040164  0.000000     24.000000
 -0.198802  0.100410  0.000000     24.000000
 -0.170402  0.090369  0.000000     24.000000
 -0.142001  0.080328  0.000000     24.000000
 -0.113601  0.070287  0.000000     24.000000
 -0.085201  0.060246  0.000000     24.000000
 -0.056801  0.050205  0.000000     24.000000
 -0.028400  0.040164  0.000000     12.000000
  0.056801  0.040164  0.000000      6.000000
  0.085201  0.030123  0.000000     24.000000
  0.113601  0.020082  0.000000     24.000000
  0.142001  0.010041  0.000000     24.000000
  0.170402  0.000000  0.000000     24.000000
  0.198802 -0.010041  0.000000     24.000000
 -0.198802  0.130533  0.000000     24.000000
 -0.170402  0.120492  0.000000     24.000000
 -0.142001  0.110451  0.000000     24.000000
 -0.113601  0.100410  0.000000     24.000000
 -0.085201  0.090369  0.000000     24.000000
 -0.056801  0.080328  0.000000     12.000000
  0.085201  0.060246  0.000000      6.000000
  0.113601  0.050205  0.000000     24.000000
  0.142001  0.040164  0.000000     24.000000
  0.170402  0.030123  0.000000     24.000000
  0.198802  0.020082  0.000000     24.000000
 -0.198802  0.160656  0.000000     24.000000
 -0.170402  0.150615  0.000000     24.000000
 -0.142001  0.140574  0.000000     24.000000
 -0.113601  0.130533  0.000000     24.000000
 -0.085201  0.120492  0.000000     12.000000
  0.113601  0.080328  0.000000      6.000000
  0.142001  0.070287  0.000000     24.000000
  0.170402  0.060246  0.000000     24.000000
  0.198802  0.050205  0.000000     24.000000
 -0.198802  0.190779  0.000000     24.000000
 -0.170402  0.180738  0.000000     24.000000
 -0.142001  0.170697  0.000000     24.000000
 -0.113601  0.160656  0.000000     12.000000
  0.142001  0.100410  0.000000      6.000000
  0.170402  0.090369  0.000000     24.000000
  0.198802  0.080328  0.000000     24.000000
 -0.198802  0.220902  0.000000     24.000000
 -0.170402  0.210861  0.000000     24.000000
 -0.142001  0.200820  0.000000     12.000000
  0.170402  0.120492  0.000000      6.000000
  0.198802  0.110451  0.000000     24.000000
 -0.198802  0.251025  0.000000     24.000000
 -0.170402  0.240984  0.000000     12.000000
  0.198802  0.140574  0.000000      6.000000
 -0.198802  0.281148  0.000000     12.000000
  0.071001  0.020082  0.024595     24.000000
  0.099401  0.010041  0.024595     48.000000
  0.127801  0.000000  0.024595     48.000000
  0.156202 -0.010041  0.024595     48.000000
  0.184602 -0.020082  0.024595     48.000000
 -0.213002  0.120492  0.024595     48.000000
  0.099401  0.040164  0.024595     24.000000
  0.127801  0.030123  0.024595     48.000000
  0.156202  0.020082  0.024595     48.000000
  0.184602  0.010041  0.024595     48.000000
 -0.213002  0.150615  0.024595     48.000000
 -0.184602  0.140574  0.024595     48.000000
 -0.156202  0.130533  0.024595     48.000000
 -0.127801  0.120492  0.024595     48.000000
 -0.099401  0.110451  0.024595     48.000000
 -0.071001  0.100410  0.024595     24.000000
  0.127801  0.060246  0.024595     24.000000
  0.156202  0.050205  0.024595     48.000000
  0.184602  0.040164  0.024595     48.000000
 -0.213002  0.180738  0.024595     48.000000
 -0.184602  0.170697  0.024595     48.000000
 -0.156202  0.160656  0.024595     48.000000
 -0.127801  0.150615  0.024595     48.000000
 -0.099401  0.140574  0.024595     24.000000
  0.156202  0.080328  0.024595     24.000000
  0.184602  0.070287  0.024595     48.000000
 -0.213002  0.210861  0.024595     48.000000
 -0.184602  0.200820  0.024595     48.000000
 -0.156202  0.190779  0.024595     48.000000
 -0.127801  0.180738  0.024595     24.000000
  0.184602  0.100410  0.024595     24.000000
 -0.213002  0.240984  0.024595     48.000000
 -0.184602  0.230943  0.024595     48.000000
 -0.156202  0.220902  0.024595     24.000000
 -0.213002  0.271107  0.024595     24.000000
 -0.184602  0.261066  0.024595     24.000000
  0.142001  0.040164  0.049191     24.000000
  0.170402  0.030123  0.049191     48.000000
 -0.227202  0.170697  0.049191     48.000000
 -0.198802  0.160656  0.049191     48.000000
  0.170402  0.060246  0.049191     24.000000
 -0.227202  0.200820  0.049191     48.000000
 -0.198802  0.190779  0.049191     48.000000
 -0.170402  0.180738  0.049191     48.000000
 -0.142001  0.170697  0.049191     48.000000
 -0.113601  0.160656  0.049191     24.000000
 -0.227202  0.230943  0.049191     24.000000
 -0.198802  0.220902  0.049191     48.000000
 -0.170402  0.210861  0.049191     48.000000
 -0.142001  0.200820  0.049191     24.000000
 -0.198802  0.251025  0.049191     24.000000
 -0.170402  0.240984  0.049191     24.000000
 -0.213002  0.210861  0.073786     24.000000
 -0.184602  0.200820  0.073786     48.000000
 -0.184602  0.230943  0.073786     24.000000
 -0.156201  0.220902  0.073786     24.000000
 


--------------------------------------------------------------------------------------------------------




 Dimension of arrays:
   k-points           NKPTS =    120   k-points in BZ     NKDIM =    120   number of bands    NBANDS=      8
   number of dos      NEDOS =    301   number of ions     NIONS =      1
   non local maximal  LDIM  =      4   non local SUM 2l+1 LMDIM =      8
   total plane-waves  NPLWV =  13824
   max r-space proj   IRMAX =      1   max aug-charges    IRDMAX= 266733
   dimension x,y,z NGX =    24 NGY =   24 NGZ =   24
   dimension x,y,z NGXF=    48 NGYF=   48 NGZF=   48
   support grid    NGXF=    96 NGYF=   96 NGZF=   96
   ions per type =               1
   NGX,Y,Z   is equivalent  to a cutoff of  14.79, 14.79, 14.79 a.u.
   NGXF,Y,Z  is equivalent  to a cutoff of  29.59, 29.59, 29.59 a.u.

 SYSTEM =  unknown system                          
 POSCAR =  Si1                                     

 Startparameter for this run:
   NWRITE =      2    write-flag & timer
   PREC   = accura    normal or accurate (medium, high low for compatibility)
   ISTART =      0    job   : 0-new  1-cont  2-samecut
   ICHARG =      2    charge: 1-file 2-atom 10-const
   ISPIN  =      1    spin polarized calculation?
   LNONCOLLINEAR =      F non collinear calculations
   LSORBIT =      F    spin-orbit coupling
   INIWAV =      1    electr: 0-lowe 1-rand  2-diag
   LASPH  =      T    aspherical Exc in radial PAW
   METAGGA=      F    non-selfconsistent MetaGGA calc.

 Electronic Relaxation 1
   ENCUT  =  700.0 eV  51.45 Ry    7.17 a.u.   5.82  5.82  5.82*2*pi/ulx,y,z
   ENINI  =  700.0     initial cutoff
   ENAUG  =  322.1 eV  augmentation charge cutoff
   NELM   =     90;   NELMIN=  6; NELMDL= -5     # of ELM steps 
   EDIFF  = 0.1E-05   stopping-criterion for ELM
   LREAL  =      F    real-space projection
   NLSPLINE    = F    spline interpolate recip. space projectors
   LCOMPAT=      F    compatible to vasp.4.4
   GGA_COMPAT  = T    GGA compatible to vasp.4.4-vasp.4.6
   LMAXPAW     = -100 max onsite density
   LMAXMIX     =    2 max onsite mixed and CHGCAR
   VOSKOWN=      0    Vosko Wilk Nusair interpolation
   ROPT   =    0.00000
 Ionic relaxation
   EDIFFG = -.2E-02   stopping-criterion for IOM
   NSW    =    100    number of steps for IOM
   NBLOCK =      1;   KBLOCK =    100    inner block; outer block 
   IBRION =      2    ionic relax: 0-MD 1-quasi-New 2-CG
   NFREE  =      1    steps in history (QN), initial steepest desc. (CG)
   ISIF   =      2    stress and relaxation
   IWAVPR =     11    prediction:  0-non 1-charg 2-wave 3-comb
   ISYM   =      2    0-nonsym 1-usesym 2-fastsym
   LCORR  =      T    Harris-Foulkes like correction to forces

   POTIM  = 0.5000    time-step for ionic-motion
   TEIN   =    0.0    initial temperature
   TEBEG  =    0.0;   TEEND  =   0.0 temperature during run
   SMASS  =  -3.00    Nose mass-parameter (am)
   estimated Nose-frequenzy (Omega)   =  0.10E-29 period in steps = 0.13E+47 mass=  -0.166E-27a.u.
   SCALEE = 1.0000    scale energy and forces
   NPACO  =    256;   APACO  = 16.0  distance and # of slots for P.C.
   PSTRESS=    0.0 pullay stress

  Mass of Ions in am
   POMASS =  28.09
  Ionic Valenz
   ZVAL   =   4.00
  Atomic Wigner-Seitz radii
   RWIGS  =  -1.00
  virtual crystal weights 
   VCA    =   1.00
   NELECT =       4.0000    total number of electrons
   NUPDOWN=      -1.0000    fix difference up-down

 DOS related values:
   EMIN   =  10.00;   EMAX   =-10.00  energy-range for DOS
   EFERMI =   0.00
   ISMEAR =     0;   SIGMA  =   0.05  broadening in eV -4-tet -1-fermi 0-gaus

 Electronic relaxation 2 (details)
   IALGO  =     38    algorithm
   LDIAG  =      T    sub-space diagonalisation (order eigenvalues)
   LSUBROT=      F    optimize rotation matrix (better conditioning)
   TURBO    =      0    0=normal 1=particle mesh
   IRESTART =      0    0=no restart 2=restart with 2 vectors
   NREBOOT  =      0    no. of reboots
   NMIN     =      0    reboot dimension
   EREF     =   0.00    reference energy to select bands
   IMIX   =      4    mixing-type and parameters
     AMIX     =   0.40;   BMIX     =  1.00
     AMIX_MAG =   1.60;   BMIX_MAG =  1.00
     AMIN     =   0.10
     WC   =   100.;   INIMIX=   1;  MIXPRE=   1;  MAXMIX= -45

 Intra band minimization:
   WEIMIN = 0.0010     energy-eigenvalue tresh-hold
   EBREAK =  0.31E-07  absolut break condition
   DEPER  =   0.30     relativ break condition  

   TIME   =   0.40     timestep for ELM

  volume/ion in A,a.u.               =      13.87        93.61
  Fermi-wavevector in a.u.,A,eV,Ry     =   1.081570  2.043871 15.916004  1.169793
  Thomas-Fermi vector in A             =   2.217590
 
 Write flags
   LWAVE        =      F    write WAVECAR
   LDOWNSAMPLE  =      F    k-point downsampling of WAVECAR
   LCHARG       =      F    write CHGCAR
   LVTOT        =      F    write LOCPOT, total local potential
   LVHAR        =      F    write LOCPOT, Hartree potential only
   LELF         =      F    write electronic localiz. function (ELF)
   LORBIT       =      0    0 simple, 1 ext, 2 COOP (PROOUT), +10 PAW based schemes


 Dipole corrections
   LMONO  =      F    monopole corrections only (constant potential shift)
   LDIPOL =      F    correct potential (dipole corrections)
   IDIPOL =      0    1-x, 2-y, 3-z, 4-all directions 
   EPSILON=  1.0000000 bulk dielectric constant

 Exchange correlation treatment:
   GGA     =    --    GGA type
   LEXCH   =     8    internal setting for exchange type
   VOSKOWN=      0    Vosko Wilk Nusair interpolation
   LHFCALC =     F    Hartree Fock is set to
   LHFONE  =     F    Hartree Fock one center treatment
   AEXX    =    0.0000 exact exchange contribution

 Linear response parameters
   LEPSILON=     F    determine dielectric tensor
   LRPA    =     F    only Hartree local field effects (RPA)
   LNABLA  =     F    use nabla operator in PAW spheres
   LVEL    =     F    velocity operator in full k-point grid
   LINTERFAST=   F  fast interpolation
   KINTER  =     0    interpolate to denser k-point grid
   CSHIFT  =0.1000    complex shift for real part using Kramers Kronig
   OMEGAMAX=  -1.0    maximum frequency
   DEG_THRESHOLD= 0.2000000E-02 threshold for treating states as degnerate
   RTIME   =   -0.100 relaxation time in fs
  (WPLASMAI=    0.000 imaginary part of plasma frequency in eV, 0.658/RTIME)
   DFIELD  = 0.0000000 0.0000000 0.0000000 field for delta impulse in time
 
 Orbital magnetization related:
   ORBITALMAG=     F  switch on orbital magnetization
   LCHIMAG   =     F  perturbation theory with respect to B field
   DQ        =  0.001000  dq finite difference perturbation B field
   LLRAUG    =     F  two centre corrections for induced B field



--------------------------------------------------------------------------------------------------------


 conjugate gradient relaxation of ions
 charge density and potential will be updated during run
 non-spin polarized calculation
 Variant of blocked Davidson
 Davidson routine will perform the subspace rotation
 perform sub-space diagonalisation
    after iterative eigenvector-optimisation
 modified Broyden-mixing scheme, WC =      100.0
 initial mixing is a Kerker type mixing with AMIX =  0.4000 and BMIX =      1.0000
 Hartree-type preconditioning will be used
 using additional bands            6
 reciprocal scheme for non local part
 use partial core corrections
 calculate Harris-corrections to forces 
   (improved forces if not selfconsistent)
 use gradient corrections 
 use of overlap-Matrix (Vanderbilt PP)
 Gauss-broadening in eV      SIGMA  =   0.05


--------------------------------------------------------------------------------------------------------


  energy-cutoff  :      700.00
  volume of cell :       13.87
      direct lattice vectors                 reciprocal lattice vectors
     2.335658025  0.000000000  1.348491660     0.428144869 -0.151372086  0.000000000
     0.778552675  2.202079275  1.348491660     0.000000000  0.454116258  0.000000000
     0.000000000  0.000000000  2.696985310    -0.214072277 -0.151371974  0.370784370

  length of vectors
     2.696985014  2.696984827  2.696985310     0.454116216  0.454116258  0.454116134


 
 k-points in units of 2pi/SCALE and weight: Automatic                               
   0.00000000  0.00000000  0.00000000       0.000
   0.02840028 -0.01004102  0.00000000       0.002
   0.05680055 -0.02008203  0.00000000       0.002
   0.08520083 -0.03012305  0.00000000       0.002
   0.11360111 -0.04016406  0.00000000       0.002
   0.14200138 -0.05020508  0.00000000       0.002
   0.17040166 -0.06024609  0.00000000       0.002
   0.19880193 -0.07028711  0.00000000       0.002
   0.02840028  0.02008203  0.00000000       0.002
   0.05680055  0.01004102  0.00000000       0.007
   0.08520083  0.00000000  0.00000000       0.007
   0.11360111 -0.01004102  0.00000000       0.007
   0.14200138 -0.02008203  0.00000000       0.007
   0.17040166 -0.03012305  0.00000000       0.007
   0.19880193 -0.04016406  0.00000000       0.007
  -0.19880193  0.10041015  0.00000000       0.007
  -0.17040166  0.09036914  0.00000000       0.007
  -0.14200138  0.08032812  0.00000000       0.007
  -0.11360111  0.07028711  0.00000000       0.007
  -0.08520083  0.06024609  0.00000000       0.007
  -0.05680055  0.05020508  0.00000000       0.007
  -0.02840028  0.04016406  0.00000000       0.004
   0.05680055  0.04016406  0.00000000       0.002
   0.08520083  0.03012305  0.00000000       0.007
   0.11360111  0.02008203  0.00000000       0.007
   0.14200138  0.01004102  0.00000000       0.007
   0.17040166  0.00000000  0.00000000       0.007
   0.19880193 -0.01004102  0.00000000       0.007
  -0.19880193  0.13053320  0.00000000       0.007
  -0.17040166  0.12049218  0.00000000       0.007
  -0.14200138  0.11045117  0.00000000       0.007
  -0.11360111  0.10041015  0.00000000       0.007
  -0.08520083  0.09036914  0.00000000       0.007
  -0.05680055  0.08032812  0.00000000       0.004
   0.08520083  0.06024609  0.00000000       0.002
   0.11360111  0.05020508  0.00000000       0.007
   0.14200138  0.04016406  0.00000000       0.007
   0.17040166  0.03012305  0.00000000       0.007
   0.19880193  0.02008203  0.00000000       0.007
  -0.19880193  0.16065624  0.00000000       0.007
  -0.17040166  0.15061523  0.00000000       0.007
  -0.14200138  0.14057421  0.00000000       0.007
  -0.11360111  0.13053320  0.00000000       0.007
  -0.08520083  0.12049218  0.00000000       0.004
   0.11360111  0.08032812  0.00000000       0.002
   0.14200138  0.07028711  0.00000000       0.007
   0.17040166  0.06024609  0.00000000       0.007
   0.19880193  0.05020508  0.00000000       0.007
  -0.19880193  0.19077929  0.00000000       0.007
  -0.17040166  0.18073827  0.00000000       0.007
  -0.14200138  0.17069726  0.00000000       0.007
  -0.11360111  0.16065624  0.00000000       0.004
   0.14200138  0.10041015  0.00000000       0.002
   0.17040166  0.09036914  0.00000000       0.007
   0.19880193  0.08032812  0.00000000       0.007
  -0.19880193  0.22090233  0.00000000       0.007
  -0.17040166  0.21086132  0.00000000       0.007
  -0.14200138  0.20082030  0.00000000       0.004
   0.17040166  0.12049218  0.00000000       0.002
   0.19880193  0.11045117  0.00000000       0.007
  -0.19880193  0.25102538  0.00000000       0.007
  -0.17040166  0.24098436  0.00000000       0.004
   0.19880193  0.14057421  0.00000000       0.002
  -0.19880193  0.28114842  0.00000000       0.004
   0.07100070  0.02008204  0.02459536       0.007
   0.09940098  0.01004102  0.02459536       0.014
   0.12780125  0.00000001  0.02459536       0.014
   0.15620153 -0.01004101  0.02459536       0.014
   0.18460181 -0.02008202  0.02459536       0.014
  -0.21300206  0.12049219  0.02459536       0.014
   0.09940098  0.04016407  0.02459536       0.007
   0.12780125  0.03012305  0.02459536       0.014
   0.15620153  0.02008204  0.02459536       0.014
   0.18460181  0.01004102  0.02459536       0.014
  -0.21300206  0.15061523  0.02459536       0.014
  -0.18460179  0.14057422  0.02459536       0.014
  -0.15620151  0.13053320  0.02459536       0.014
  -0.12780123  0.12049219  0.02459536       0.014
  -0.09940096  0.11045117  0.02459536       0.014
  -0.07100068  0.10041016  0.02459536       0.007
   0.12780125  0.06024610  0.02459536       0.007
   0.15620153  0.05020508  0.02459536       0.014
   0.18460181  0.04016407  0.02459536       0.014
  -0.21300206  0.18073828  0.02459536       0.014
  -0.18460179  0.17069726  0.02459536       0.014
  -0.15620151  0.16065625  0.02459536       0.014
  -0.12780123  0.15061523  0.02459536       0.014
  -0.09940096  0.14057422  0.02459536       0.007
   0.15620153  0.08032813  0.02459536       0.007
   0.18460181  0.07028711  0.02459536       0.014
  -0.21300206  0.21086132  0.02459536       0.014
  -0.18460179  0.20082031  0.02459536       0.014
  -0.15620151  0.19077929  0.02459536       0.014
  -0.12780123  0.18073828  0.02459536       0.007
   0.18460181  0.10041016  0.02459536       0.007
  -0.21300206  0.24098437  0.02459536       0.014
  -0.18460179  0.23094335  0.02459536       0.014
  -0.15620151  0.22090234  0.02459536       0.007
  -0.21300206  0.27110741  0.02459536       0.007
  -0.18460179  0.26106640  0.02459536       0.007
   0.14200140  0.04016407  0.04919073       0.007
   0.17040168  0.03012306  0.04919073       0.014
  -0.22720219  0.17069727  0.04919073       0.014
  -0.19880191  0.16065626  0.04919073       0.014
   0.17040168  0.06024611  0.04919073       0.007
  -0.22720219  0.20082032  0.04919073       0.014
  -0.19880191  0.19077930  0.04919073       0.014
  -0.17040164  0.18073829  0.04919073       0.014
  -0.14200136  0.17069727  0.04919073       0.014
  -0.11360108  0.16065626  0.04919073       0.007
  -0.22720219  0.23094336  0.04919073       0.007
  -0.19880191  0.22090235  0.04919073       0.014
  -0.17040164  0.21086133  0.04919073       0.014
  -0.14200136  0.20082032  0.04919073       0.007
  -0.19880191  0.25102539  0.04919073       0.007
  -0.17040164  0.24098438  0.04919073       0.007
  -0.21300204  0.21086134  0.07378609       0.007
  -0.18460176  0.20082032  0.07378609       0.014
  -0.18460176  0.23094337  0.07378609       0.007
  -0.15620149  0.22090235  0.07378609       0.007
 
 k-points in reciprocal lattice and weights: Automatic                               
   0.00000000  0.00000000  0.00000000       0.000
   0.06666667  0.00000000  0.00000000       0.002
   0.13333333  0.00000000  0.00000000       0.002
   0.20000000 -0.00000000  0.00000000       0.002
   0.26666667  0.00000000  0.00000000       0.002
   0.33333333 -0.00000000  0.00000000       0.002
   0.40000000  0.00000000  0.00000000       0.002
   0.46666667 -0.00000000  0.00000000       0.002
   0.06666667  0.06666667  0.00000000       0.002
   0.13333333  0.06666667  0.00000000       0.007
   0.20000000  0.06666667  0.00000000       0.007
   0.26666667  0.06666667  0.00000000       0.007
   0.33333333  0.06666667  0.00000000       0.007
   0.40000000  0.06666667  0.00000000       0.007
   0.46666667  0.06666667  0.00000000       0.007
  -0.46666667  0.06666667  0.00000000       0.007
  -0.40000000  0.06666667  0.00000000       0.007
  -0.33333333  0.06666667  0.00000000       0.007
  -0.26666667  0.06666667  0.00000000       0.007
  -0.20000000  0.06666667  0.00000000       0.007
  -0.13333333  0.06666667  0.00000000       0.007
  -0.06666667  0.06666667  0.00000000       0.004
   0.13333333  0.13333333  0.00000000       0.002
   0.20000000  0.13333333  0.00000000       0.007
   0.26666667  0.13333333  0.00000000       0.007
   0.33333333  0.13333333  0.00000000       0.007
   0.40000000  0.13333333  0.00000000       0.007
   0.46666667  0.13333333  0.00000000       0.007
  -0.46666667  0.13333333  0.00000000       0.007
  -0.40000000  0.13333333  0.00000000       0.007
  -0.33333333  0.13333333  0.00000000       0.007
  -0.26666667  0.13333333  0.00000000       0.007
  -0.20000000  0.13333333  0.00000000       0.007
  -0.13333333  0.13333333  0.00000000       0.004
   0.20000000  0.20000000  0.00000000       0.002
   0.26666667  0.20000000  0.00000000       0.007
   0.33333333  0.20000000  0.00000000       0.007
   0.40000000  0.20000000  0.00000000       0.007
   0.46666667  0.20000000  0.00000000       0.007
  -0.46666667  0.20000000  0.00000000       0.007
  -0.40000000  0.20000000  0.00000000       0.007
  -0.33333333  0.20000000  0.00000000       0.007
  -0.26666667  0.20000000  0.00000000       0.007
  -0.20000000  0.20000000  0.00000000       0.004
   0.26666667  0.26666667  0.00000000       0.002
   0.33333333  0.26666667  0.00000000       0.007
   0.40000000  0.26666667  0.00000000       0.007
   0.46666667  0.26666667  0.00000000       0.007
  -0.46666667  0.26666667  0.00000000       0.007
  -0.40000000  0.26666667  0.00000000       0.007
  -0.33333333  0.26666667  0.00000000       0.007
  -0.26666667  0.26666667  0.00000000       0.004
   0.33333333  0.33333333  0.00000000       0.002
   0.40000000  0.33333333  0.00000000       0.007
   0.46666667  0.33333333  0.00000000       0.007
  -0.46666667  0.33333333  0.00000000       0.007
  -0.40000000  0.33333333  0.00000000       0.007
  -0.33333333  0.33333333  0.00000000       0.004
   0.40000000  0.40000000  0.00000000       0.002
   0.46666667  0.40000000  0.00000000       0.007
  -0.46666667  0.40000000  0.00000000       0.007
  -0.40000000  0.40000000  0.00000000       0.004
   0.46666667  0.46666667  0.00000000       0.002
  -0.46666667  0.46666667  0.00000000       0.004
   0.20000000  0.13333333  0.06666667       0.007
   0.26666667  0.13333333  0.06666667       0.014
   0.33333333  0.13333333  0.06666667       0.014
   0.40000000  0.13333333  0.06666667       0.014
   0.46666667  0.13333333  0.06666667       0.014
  -0.46666667  0.13333333  0.06666667       0.014
   0.26666667  0.20000000  0.06666667       0.007
   0.33333333  0.20000000  0.06666667       0.014
   0.40000000  0.20000000  0.06666667       0.014
   0.46666667  0.20000000  0.06666667       0.014
  -0.46666667  0.20000000  0.06666667       0.014
  -0.40000000  0.20000000  0.06666667       0.014
  -0.33333333  0.20000000  0.06666667       0.014
  -0.26666667  0.20000000  0.06666667       0.014
  -0.20000000  0.20000000  0.06666667       0.014
  -0.13333333  0.20000000  0.06666667       0.007
   0.33333333  0.26666667  0.06666667       0.007
   0.40000000  0.26666667  0.06666667       0.014
   0.46666667  0.26666667  0.06666667       0.014
  -0.46666667  0.26666667  0.06666667       0.014
  -0.40000000  0.26666667  0.06666667       0.014
  -0.33333333  0.26666667  0.06666667       0.014
  -0.26666667  0.26666667  0.06666667       0.014
  -0.20000000  0.26666667  0.06666667       0.007
   0.40000000  0.33333333  0.06666667       0.007
   0.46666667  0.33333333  0.06666667       0.014
  -0.46666667  0.33333333  0.06666667       0.014
  -0.40000000  0.33333333  0.06666667       0.014
  -0.33333333  0.33333333  0.06666667       0.014
  -0.26666667  0.33333333  0.06666667       0.007
   0.46666667  0.40000000  0.06666667       0.007
  -0.46666667  0.40000000  0.06666667       0.014
  -0.40000000  0.40000000  0.06666667       0.014
  -0.33333333  0.40000000  0.06666667       0.007
  -0.46666667  0.46666667  0.06666667       0.007
  -0.40000000  0.46666667  0.06666667       0.007
   0.40000000  0.26666667  0.13333333       0.007
   0.46666667  0.26666667  0.13333333       0.014
  -0.46666667  0.26666667  0.13333333       0.014
  -0.40000000  0.26666667  0.13333333       0.014
   0.46666667  0.33333333  0.13333333       0.007
  -0.46666667  0.33333333  0.13333333       0.014
  -0.40000000  0.33333333  0.13333333       0.014
  -0.33333333  0.33333333  0.13333333       0.014
  -0.26666667  0.33333333  0.13333333       0.014
  -0.20000000  0.33333333  0.13333333       0.007
  -0.46666667  0.40000000  0.13333333       0.007
  -0.40000000  0.40000000  0.13333333       0.014
  -0.33333333  0.40000000  0.13333333       0.014
  -0.26666667  0.40000000  0.13333333       0.007
  -0.40000000  0.46666667  0.13333333       0.007
  -0.33333333  0.46666667  0.13333333       0.007
  -0.40000000  0.40000000  0.20000000       0.007
  -0.33333333  0.40000000  0.20000000       0.014
  -0.33333333  0.46666667  0.20000000       0.007
  -0.26666667  0.46666667  0.20000000       0.007
 
 position of ions in fractional coordinates (direct lattice) 
   0.00000000  0.00000000  0.00000000
 
 position of ions in cartesian coordinates  (Angst):
   0.00000000  0.00000000  0.00000000
 


--------------------------------------------------------------------------------------------------------


 k-point   1 :   0.0000 0.0000 0.0000  plane waves:     561
 k-point   2 :   0.0667 0.0000 0.0000  plane waves:     573
 k-point   3 :   0.1333 0.0000 0.0000  plane waves:     576
 k-point   4 :   0.2000-0.0000 0.0000  plane waves:     582
 k-point   5 :   0.2667 0.0000 0.0000  plane waves:     577
 k-point   6 :   0.3333-0.0000 0.0000  plane waves:     589
 k-point   7 :   0.4000 0.0000 0.0000  plane waves:     589
 k-point   8 :   0.4667-0.0000 0.0000  plane waves:     580
 k-point   9 :   0.0667 0.0667 0.0000  plane waves:     569
 k-point  10 :   0.1333 0.0667 0.0000  plane waves:     571
 k-point  11 :   0.2000 0.0667 0.0000  plane waves:     577
 k-point  12 :   0.2667 0.0667 0.0000  plane waves:     582
 k-point  13 :   0.3333 0.0667 0.0000  plane waves:     590
 k-point  14 :   0.4000 0.0667 0.0000  plane waves:     593
 k-point  15 :   0.4667 0.0667 0.0000  plane waves:     589
 k-point  16 :  -0.4667 0.0667 0.0000  plane waves:     581
 k-point  17 :  -0.4000 0.0667 0.0000  plane waves:     586
 k-point  18 :  -0.3333 0.0667 0.0000  plane waves:     585
 k-point  19 :  -0.2667 0.0667 0.0000  plane waves:     585
 k-point  20 :  -0.2000 0.0667 0.0000  plane waves:     576
 k-point  21 :  -0.1333 0.0667 0.0000  plane waves:     570
 k-point  22 :  -0.0667 0.0667 0.0000  plane waves:     573
 k-point  23 :   0.1333 0.1333 0.0000  plane waves:     568
 k-point  24 :   0.2000 0.1333 0.0000  plane waves:     576
 k-point  25 :   0.2667 0.1333 0.0000  plane waves:     580
 k-point  26 :   0.3333 0.1333 0.0000  plane waves:     588
 k-point  27 :   0.4000 0.1333 0.0000  plane waves:     585
 k-point  28 :   0.4667 0.1333 0.0000  plane waves:     586
 k-point  29 :  -0.4667 0.1333 0.0000  plane waves:     584
 k-point  30 :  -0.4000 0.1333 0.0000  plane waves:     586
 k-point  31 :  -0.3333 0.1333 0.0000  plane waves:     585
 k-point  32 :  -0.2667 0.1333 0.0000  plane waves:     585
 k-point  33 :  -0.2000 0.1333 0.0000  plane waves:     580
 k-point  34 :  -0.1333 0.1333 0.0000  plane waves:     576
 k-point  35 :   0.2000 0.2000 0.0000  plane waves:     576
 k-point  36 :   0.2667 0.2000 0.0000  plane waves:     580
 k-point  37 :   0.3333 0.2000 0.0000  plane waves:     583
 k-point  38 :   0.4000 0.2000 0.0000  plane waves:     592
 k-point  39 :   0.4667 0.2000 0.0000  plane waves:     580
 k-point  40 :  -0.4667 0.2000 0.0000  plane waves:     576
 k-point  41 :  -0.4000 0.2000 0.0000  plane waves:     576
 k-point  42 :  -0.3333 0.2000 0.0000  plane waves:     583
 k-point  43 :  -0.2667 0.2000 0.0000  plane waves:     589
 k-point  44 :  -0.2000 0.2000 0.0000  plane waves:     592
 k-point  45 :   0.2667 0.2667 0.0000  plane waves:     576
 k-point  46 :   0.3333 0.2667 0.0000  plane waves:     582
 k-point  47 :   0.4000 0.2667 0.0000  plane waves:     585
 k-point  48 :   0.4667 0.2667 0.0000  plane waves:     582
 k-point  49 :  -0.4667 0.2667 0.0000  plane waves:     578
 k-point  50 :  -0.4000 0.2667 0.0000  plane waves:     583
 k-point  51 :  -0.3333 0.2667 0.0000  plane waves:     583
 k-point  52 :  -0.2667 0.2667 0.0000  plane waves:     582
 k-point  53 :   0.3333 0.3333 0.0000  plane waves:     576
 k-point  54 :   0.4000 0.3333 0.0000  plane waves:     585
 k-point  55 :   0.4667 0.3333 0.0000  plane waves:     589
 k-point  56 :  -0.4667 0.3333 0.0000  plane waves:     583
 k-point  57 :  -0.4000 0.3333 0.0000  plane waves:     583
 k-point  58 :  -0.3333 0.3333 0.0000  plane waves:     578
 k-point  59 :   0.4000 0.4000 0.0000  plane waves:     596
 k-point  60 :   0.4667 0.4000 0.0000  plane waves:     589
 k-point  61 :  -0.4667 0.4000 0.0000  plane waves:     594
 k-point  62 :  -0.4000 0.4000 0.0000  plane waves:     586
 k-point  63 :   0.4667 0.4667 0.0000  plane waves:     588
 k-point  64 :  -0.4667 0.4667 0.0000  plane waves:     592
 k-point  65 :   0.2000 0.1333 0.0667  plane waves:     577
 k-point  66 :   0.2667 0.1333 0.0667  plane waves:     576
 k-point  67 :   0.3333 0.1333 0.0667  plane waves:     583
 k-point  68 :   0.4000 0.1333 0.0667  plane waves:     588
 k-point  69 :   0.4667 0.1333 0.0667  plane waves:     586
 k-point  70 :  -0.4667 0.1333 0.0667  plane waves:     584
 k-point  71 :   0.2667 0.2000 0.0667  plane waves:     579
 k-point  72 :   0.3333 0.2000 0.0667  plane waves:     586
 k-point  73 :   0.4000 0.2000 0.0667  plane waves:     588
 k-point  74 :   0.4667 0.2000 0.0667  plane waves:     583
 k-point  75 :  -0.4667 0.2000 0.0667  plane waves:     584
 k-point  76 :  -0.4000 0.2000 0.0667  plane waves:     581
 k-point  77 :  -0.3333 0.2000 0.0667  plane waves:     581
 k-point  78 :  -0.2667 0.2000 0.0667  plane waves:     583
 k-point  79 :  -0.2000 0.2000 0.0667  plane waves:     584
 k-point  80 :  -0.1333 0.2000 0.0667  plane waves:     582
 k-point  81 :   0.3333 0.2667 0.0667  plane waves:     581
 k-point  82 :   0.4000 0.2667 0.0667  plane waves:     586
 k-point  83 :   0.4667 0.2667 0.0667  plane waves:     586
 k-point  84 :  -0.4667 0.2667 0.0667  plane waves:     582
 k-point  85 :  -0.4000 0.2667 0.0667  plane waves:     579
 k-point  86 :  -0.3333 0.2667 0.0667  plane waves:     578
 k-point  87 :  -0.2667 0.2667 0.0667  plane waves:     581
 k-point  88 :  -0.2000 0.2667 0.0667  plane waves:     582
 k-point  89 :   0.4000 0.3333 0.0667  plane waves:     585
 k-point  90 :   0.4667 0.3333 0.0667  plane waves:     585
 k-point  91 :  -0.4667 0.3333 0.0667  plane waves:     585
 k-point  92 :  -0.4000 0.3333 0.0667  plane waves:     587
 k-point  93 :  -0.3333 0.3333 0.0667  plane waves:     584
 k-point  94 :  -0.2667 0.3333 0.0667  plane waves:     584
 k-point  95 :   0.4667 0.4000 0.0667  plane waves:     589
 k-point  96 :  -0.4667 0.4000 0.0667  plane waves:     587
 k-point  97 :  -0.4000 0.4000 0.0667  plane waves:     584
 k-point  98 :  -0.3333 0.4000 0.0667  plane waves:     585
 k-point  99 :  -0.4667 0.4667 0.0667  plane waves:     592
 k-point 100 :  -0.4000 0.4667 0.0667  plane waves:     588
 k-point 101 :   0.4000 0.2667 0.1333  plane waves:     588
 k-point 102 :   0.4667 0.2667 0.1333  plane waves:     584
 k-point 103 :  -0.4667 0.2667 0.1333  plane waves:     582
 k-point 104 :  -0.4000 0.2667 0.1333  plane waves:     583
 k-point 105 :   0.4667 0.3333 0.1333  plane waves:     584
 k-point 106 :  -0.4667 0.3333 0.1333  plane waves:     579
 k-point 107 :  -0.4000 0.3333 0.1333  plane waves:     579
 k-point 108 :  -0.3333 0.3333 0.1333  plane waves:     581
 k-point 109 :  -0.2667 0.3333 0.1333  plane waves:     578
 k-point 110 :  -0.2000 0.3333 0.1333  plane waves:     579
 k-point 111 :  -0.4667 0.4000 0.1333  plane waves:     584
 k-point 112 :  -0.4000 0.4000 0.1333  plane waves:     583
 k-point 113 :  -0.3333 0.4000 0.1333  plane waves:     587
 k-point 114 :  -0.2667 0.4000 0.1333  plane waves:     584
 k-point 115 :  -0.4000 0.4667 0.1333  plane waves:     587
 k-point 116 :  -0.3333 0.4667 0.1333  plane waves:     588
 k-point 117 :  -0.4000 0.4000 0.2000  plane waves:     575
 k-point 118 :  -0.3333 0.4000 0.2000  plane waves:     586
 k-point 119 :  -0.3333 0.4667 0.2000  plane waves:     591
 k-point 120 :  -0.2667 0.4667 0.2000  plane waves:     589

 maximum and minimum number of plane-waves per node :       596      561

 maximum number of plane-waves:       596
 maximum index in each direction: 
   IXMAX=    6   IYMAX=    5   IZMAX=    5
   IXMIN=   -6   IYMIN=   -6   IZMIN=   -5


 serial   3D FFT for wavefunctions
 parallel 3D FFT for charge:
    minimum data exchange during FFTs selected (reduces bandwidth)


 total amount of memory used by VASP MPI-rank0    43011. kBytes
=======================================================================

   base      :      30000. kBytes
   nonl-proj :       4586. kBytes
   fftplans  :       4177. kBytes
   grid      :       1926. kBytes
   one-center:          3. kBytes
   wavefun   :       2319. kBytes
 
     INWAV:  cpu time    0.0000: real time    0.0007
 Broyden mixing: mesh for mixing (old mesh)
   NGX = 11   NGY = 11   NGZ = 11
  (NGX  = 48   NGY  = 48   NGZ  = 48)
  gives a total of   1331 points

 initial charge density was supplied:
 charge density of overlapping atoms calculated
 number of electron       4.0000000 magnetization 
 keeping initial charge density in first step


--------------------------------------------------------------------------------------------------------


 Maximum index for augmentation-charges        64735 (set IRDMAX)


--------------------------------------------------------------------------------------------------------


 First call to EWALD:  gamma=   0.738
 Maximum number of real-space cells 3x 3x 3
 Maximum number of reciprocal cells 3x 3x 3

    FEWALD:  cpu time    0.0030: real time    0.0033


--------------------------------------- Iteration      1(   1)  ---------------------------------------


    POTLOK:  cpu time    0.0310: real time    0.0341
    SETDIJ:  cpu time    0.1900: real time    0.1908
     EDDAV:  cpu time    0.9938: real time    0.9945
       DOS:  cpu time    0.0020: real time    0.0017
    --------------------------------------------
      LOOP:  cpu time    1.2168: real time    1.2214

 eigenvalue-minimisations  :  2008
 total energy-change (2. order) :-0.1433176E+01  (-0.2181304E+03)
 number of electron       4.0000000 magnetization 
 augmentation part        4.0000000 magnetization 

 Free energy of the ion-electron system (eV)
  ---------------------------------------------------
  alpha Z        PSCENC =         2.42679850
  Ewald energy   TEWEN  =      -138.47734964
  -Hartree energ DENC   =        -0.51327895
  -exchange      EXHF   =         0.00000000
  -V(xc)+E(xc)   XCENC  =        -8.69276952
  PAW double counting   =        88.12379961      -70.53051779
  entropy T*S    EENTRO =        -0.00055563
  eigenvalues    EBANDS =        23.16407338
  atomic energy  EATOM  =       103.06662367
  Solvation  Ediel_sol  =         0.00000000
  ---------------------------------------------------
  free energy    TOTEN  =        -1.43317636 eV

  energy without entropy =       -1.43262074  energy(sigma->0) =       -1.43289855


--------------------------------------------------------------------------------------------------------




--------------------------------------- Iteration      1(   2)  ---------------------------------------


     EDDAV:  cpu time    1.3938: real time    1.4221
       DOS:  cpu time    0.0010: real time    0.0020
    --------------------------------------------
      LOOP:  cpu time    1.3958: real time    1.4241

 eigenvalue-minimisations  :  2912
 total energy-change (2. order) :-0.3445799E+01  (-0.3303081E+01)
 number of electron       4.0000000 magnetization 
 augmentation part        4.0000000 magnetization 

 Free energy of the ion-electron system (eV)
  ---------------------------------------------------
  alpha Z        PSCENC =         2.42679850
  Ewald energy   TEWEN  =      -138.47734964
  -Hartree energ DENC   =        -0.51327895
  -exchange      EXHF   =         0.00000000
  -V(xc)+E(xc)   XCENC  =        -8.69276952
  PAW double counting   =        88.12379961      -70.53051779
  entropy T*S    EENTRO =        -0.00067718
  eigenvalues    EBANDS =        19.71839632
  atomic energy  EATOM  =       103.06662367
  Solvation  Ediel_sol  =         0.00000000
  ---------------------------------------------------
  free energy    TOTEN  =        -4.87897498 eV

  energy without entropy =       -4.87829780  energy(sigma->0) =       -4.87863639


--------------------------------------------------------------------------------------------------------




--------------------------------------- Iteration      1(   3)  ---------------------------------------


     EDDAV:  cpu time    1.5048: real time    1.5176
       DOS:  cpu time    0.0020: real time    0.0019
    --------------------------------------------
      LOOP:  cpu time    1.5058: real time    1.5197

 eigenvalue-minimisations  :  2224
 total energy-change (2. order) :-0.2107721E-01  (-0.2105103E-01)
 number of electron       4.0000000 magnetization 
 augmentation part        4.0000000 magnetization 

 Free energy of the ion-electron system (eV)
  ---------------------------------------------------
  alpha Z        PSCENC =         2.42679850
  Ewald energy   TEWEN  =      -138.47734964
  -Hartree energ DENC   =        -0.51327895
  -exchange      EXHF   =         0.00000000
  -V(xc)+E(xc)   XCENC  =        -8.69276952
  PAW double counting   =        88.12379961      -70.53051779
  entropy T*S    EENTRO =        -0.00066277
  eigenvalues    EBANDS =        19.69730469
  atomic energy  EATOM  =       103.06662367
  Solvation  Ediel_sol  =         0.00000000
  ---------------------------------------------------
  free energy    TOTEN  =        -4.90005219 eV

  energy without entropy =       -4.89938943  energy(sigma->0) =       -4.89972081


--------------------------------------------------------------------------------------------------------




--------------------------------------- Iteration      1(   4)  ---------------------------------------


     EDDAV:  cpu time    1.4608: real time    1.4739
       DOS:  cpu time    0.0020: real time    0.0019
    --------------------------------------------
      LOOP:  cpu time    1.4638: real time    1.4758

 eigenvalue-minimisations  :  3160
 total energy-change (2. order) :-0.2432122E-04  (-0.2432105E-04)
 number of electron       4.0000000 magnetization 
 augmentation part        4.0000000 magnetization 

 Free energy of the ion-electron system (eV)
  ---------------------------------------------------
  alpha Z        PSCENC =         2.42679850
  Ewald energy   TEWEN  =      -138.47734964
  -Hartree energ DENC   =        -0.51327895
  -exchange      EXHF   =         0.00000000
  -V(xc)+E(xc)   XCENC  =        -8.69276952
  PAW double counting   =        88.12379961      -70.53051779
  entropy T*S    EENTRO =        -0.00066282
  eigenvalues    EBANDS =        19.69728042
  atomic energy  EATOM  =       103.06662367
  Solvation  Ediel_sol  =         0.00000000
  ---------------------------------------------------
  free energy    TOTEN  =        -4.90007651 eV

  energy without entropy =       -4.89941369  energy(sigma->0) =       -4.89974510


--------------------------------------------------------------------------------------------------------




--------------------------------------- Iteration      1(   5)  ---------------------------------------


     EDDAV:  cpu time    1.0668: real time    1.0791
       DOS:  cpu time    0.0020: real time    0.0022
    CHARGE:  cpu time    0.0860: real time    0.0866
    MIXING:  cpu time    0.0010: real time    0.0014
    --------------------------------------------
      LOOP:  cpu time    1.1558: real time    1.1693

 eigenvalue-minimisations  :  2208
 total energy-change (2. order) :-0.2331731E-08  (-0.2164330E-08)
 number of electron       4.0000000 magnetization 
 augmentation part       -0.2391191 magnetization 

 Broyden mixing:
  rms(total) = 0.28780E+00    rms(broyden)= 0.28780E+00
  rms(prec ) = 0.42667E+00
  weight for this iteration     100.00

 Free energy of the ion-electron system (eV)
  ---------------------------------------------------
  alpha Z        PSCENC =         2.42679850
  Ewald energy   TEWEN  =      -138.47734964
  -Hartree energ DENC   =        -0.51327895
  -exchange      EXHF   =         0.00000000
  -V(xc)+E(xc)   XCENC  =        -8.69276952
  PAW double counting   =        88.12379961      -70.53051779
  entropy T*S    EENTRO =        -0.00066282
  eigenvalues    EBANDS =        19.69728042
  atomic energy  EATOM  =       103.06662367
  Solvation  Ediel_sol  =         0.00000000
  ---------------------------------------------------
  free energy    TOTEN  =        -4.90007652 eV

  energy without entropy =       -4.89941370  energy(sigma->0) =       -4.89974511


--------------------------------------------------------------------------------------------------------




--------------------------------------- Iteration      1(   6)  ---------------------------------------


    POTLOK:  cpu time    0.0330: real time    0.0434
    SETDIJ:  cpu time    0.1760: real time    0.1764
     EDDAV:  cpu time    1.1028: real time    1.1035
       DOS:  cpu time    0.0010: real time    0.0019
    CHARGE:  cpu time    0.0820: real time    0.0827
    MIXING:  cpu time    0.0020: real time    0.0017
    --------------------------------------------
      LOOP:  cpu time    1.3958: real time    1.4095

 eigenvalue-minimisations  :  2296
 total energy-change (2. order) : 0.1400497E-01  (-0.3906302E-03)
 number of electron       4.0000000 magnetization 
 augmentation part       -0.2413558 magnetization 

 Broyden mixing:
  rms(total) = 0.15898E+00    rms(broyden)= 0.15898E+00
  rms(prec ) = 0.24651E+00
  weight for this iteration     100.00

 eigenvalues of (default mixing * dielectric matrix)
  average eigenvalue GAMMA=   2.2237
  2.2237

 Free energy of the ion-electron system (eV)
  ---------------------------------------------------
  alpha Z        PSCENC =         2.42679850
  Ewald energy   TEWEN  =      -138.47734964
  -Hartree energ DENC   =        -0.44776250
  -exchange      EXHF   =         0.00000000
  -V(xc)+E(xc)   XCENC  =        -8.67023581
  PAW double counting   =       175.19077794     -157.59855139
  entropy T*S    EENTRO =        -0.00070039
  eigenvalues    EBANDS =        19.62432807
  atomic energy  EATOM  =       103.06662367
  Solvation  Ediel_sol  =         0.00000000
  ---------------------------------------------------
  free energy    TOTEN  =        -4.88607154 eV

  energy without entropy =       -4.88537115  energy(sigma->0) =       -4.88572135


--------------------------------------------------------------------------------------------------------




--------------------------------------- Iteration      1(   7)  ---------------------------------------


    POTLOK:  cpu time    0.0310: real time    0.0422
    SETDIJ:  cpu time    0.1770: real time    0.1764
     EDDAV:  cpu time    1.0778: real time    1.0794
       DOS:  cpu time    0.0020: real time    0.0020
    CHARGE:  cpu time    0.0820: real time    0.0823
    MIXING:  cpu time    0.0010: real time    0.0015
    --------------------------------------------
      LOOP:  cpu time    1.3718: real time    1.3839

 eigenvalue-minimisations  :  2248
 total energy-change (2. order) : 0.8064433E-02  (-0.7922876E-03)
 number of electron       4.0000000 magnetization 
 augmentation part       -0.2446053 magnetization 

 Broyden mixing:
  rms(total) = 0.13765E-01    rms(broyden)= 0.13765E-01
  rms(prec ) = 0.18421E-01
  weight for this iteration     100.00

 eigenvalues of (default mixing * dielectric matrix)
  average eigenvalue GAMMA=   2.3833
  2.3833  2.3833

 Free energy of the ion-electron system (eV)
  ---------------------------------------------------
  alpha Z        PSCENC =         2.42679850
  Ewald energy   TEWEN  =      -138.47734964
  -Hartree energ DENC   =        -0.38482918
  -exchange      EXHF   =         0.00000000
  -V(xc)+E(xc)   XCENC  =        -8.63287653
  PAW double counting   =       343.53099986     -325.94446752
  entropy T*S    EENTRO =        -0.00074017
  eigenvalues    EBANDS =        19.53783390
  atomic energy  EATOM  =       103.06662367
  Solvation  Ediel_sol  =         0.00000000
  ---------------------------------------------------
  free energy    TOTEN  =        -4.87800711 eV

  energy without entropy =       -4.87726694  energy(sigma->0) =       -4.87763703


--------------------------------------------------------------------------------------------------------




--------------------------------------- Iteration      1(   8)  ---------------------------------------


    POTLOK:  cpu time    0.0320: real time    0.0428
    SETDIJ:  cpu time    0.1760: real time    0.1769
     EDDAV:  cpu time    1.3708: real time    1.3720
       DOS:  cpu time    0.0010: real time    0.0020
    CHARGE:  cpu time    0.0830: real time    0.0828
    MIXING:  cpu time    0.0020: real time    0.0015
    --------------------------------------------
      LOOP:  cpu time    1.6637: real time    1.6779

 eigenvalue-minimisations  :  2944
 total energy-change (2. order) : 0.4112216E-04  (-0.2820295E-05)
 number of electron       4.0000000 magnetization 
 augmentation part       -0.2446964 magnetization 

 Broyden mixing:
  rms(total) = 0.14637E-02    rms(broyden)= 0.14637E-02
  rms(prec ) = 0.23086E-02
  weight for this iteration     100.00

 eigenvalues of (default mixing * dielectric matrix)
  average eigenvalue GAMMA=   2.0164
  1.0146  2.4200  2.6147

 Free energy of the ion-electron system (eV)
  ---------------------------------------------------
  alpha Z        PSCENC =         2.42679850
  Ewald energy   TEWEN  =      -138.47734964
  -Hartree energ DENC   =        -0.38738317
  -exchange      EXHF   =         0.00000000
  -V(xc)+E(xc)   XCENC  =        -8.62877158
  PAW double counting   =       328.13685989     -310.55702443
  entropy T*S    EENTRO =        -0.00073923
  eigenvalues    EBANDS =        19.54302000
  atomic energy  EATOM  =       103.06662367
  Solvation  Ediel_sol  =         0.00000000
  ---------------------------------------------------
  free energy    TOTEN  =        -4.87796599 eV

  energy without entropy =       -4.87722676  energy(sigma->0) =       -4.87759637


--------------------------------------------------------------------------------------------------------




--------------------------------------- Iteration      1(   9)  ---------------------------------------


    POTLOK:  cpu time    0.0320: real time    0.0421
    SETDIJ:  cpu time    0.1750: real time    0.1759
     EDDAV:  cpu time    1.1448: real time    1.1457
       DOS:  cpu time    0.0010: real time    0.0021
    --------------------------------------------
      LOOP:  cpu time    1.3538: real time    1.3658

 eigenvalue-minimisations  :  2376
 total energy-change (2. order) :-0.2638043E-06  (-0.3739390E-07)
 number of electron       4.0000000 magnetization 
 augmentation part       -0.2446964 magnetization 

 Free energy of the ion-electron system (eV)
  ---------------------------------------------------
  alpha Z        PSCENC =         2.42679850
  Ewald energy   TEWEN  =      -138.47734964
  -Hartree energ DENC   =        -0.38759875
  -exchange      EXHF   =         0.00000000
  -V(xc)+E(xc)   XCENC  =        -8.62817502
  PAW double counting   =       326.32625885     -308.74711914
  entropy T*S    EENTRO =        -0.00073922
  eigenvalues    EBANDS =        19.54333450
  atomic energy  EATOM  =       103.06662367
  Solvation  Ediel_sol  =         0.00000000
  ---------------------------------------------------
  free energy    TOTEN  =        -4.87796625 eV

  energy without entropy =       -4.87722703  energy(sigma->0) =       -4.87759664


--------------------------------------------------------------------------------------------------------




 average (electrostatic) potential at core
  the test charge radii are     0.9892
  (the norm of the test charge is              1.0000)
       1 -79.3444
 
 
 
 E-fermi :  10.6932     XC(G=0): -11.3670     alpha+bet :-17.2906

 Fermi energy:        10.6931542015

 k-point     1 :       0.0000    0.0000    0.0000
  band No.  band energies     occupation 
      1      -4.1135      2.00000
      2      22.3991      0.00000
      3      22.3991      0.00000
      4      22.3991      0.00000
      5      22.8313      0.00000
      6      22.8313      0.00000
      7      22.8313      0.00000
      8      28.2650      0.00000

 k-point     2 :       0.0667    0.0000    0.0000
  band No.  band energies     occupation 
      1      -3.9802      2.00000
      2      20.0093      0.00000
      3      21.5810      0.00000
      4      21.5810      0.00000
      5      23.8167      0.00000
      6      23.8167      0.00000
      7      24.0797      0.00000
      8      29.2531      0.00000

 k-point     3 :       0.1333    0.0000    0.0000
  band No.  band energies     occupation 
      1      -3.5810      2.00000
      2      17.0834      0.00000
      3      20.7835      0.00000
      4      20.7835      0.00000
      5      24.3798      0.00000
      6      24.9658      0.00000
      7      24.9658      0.00000
      8      28.1793      0.00000

 k-point     4 :       0.2000   -0.0000    0.0000
  band No.  band energies     occupation 
      1      -2.9176      2.00000
      2      14.1729      0.00000
      3      20.1938      0.00000
      4      20.1938      0.00000
      5      24.3117      0.00000
      6      25.1651      0.00000
      7      25.1651      0.00000
      8      28.1802      0.00000

 k-point     5 :       0.2667    0.0000    0.0000
  band No.  band energies     occupation 
      1      -1.9925      2.00000
      2      11.3971      0.00000
      3      19.8149      0.00000
      4      19.8149      0.00000
      5      24.2035      0.00000
      6      24.2035      0.00000
      7      24.2212      0.00000
      8      29.6100      0.00000

 k-point     6 :       0.3333   -0.0000    0.0000
  band No.  band energies     occupation 
      1      -0.8099      2.00000
      2       8.8053      2.00000
      3      19.6349      0.00000
      4      19.6349      0.00000
      5      23.1422      0.00000
      6      23.1422      0.00000
      7      24.2240      0.00000
      8      28.4005      0.00000

 k-point     7 :       0.4000    0.0000    0.0000
  band No.  band energies     occupation 
      1       0.6241      2.00000
      2       6.4240      2.00000
      3      19.6188      0.00000
      4      19.6188      0.00000
      5      22.2865      0.00000
      6      22.2865      0.00000
      7      24.3381      0.00000
      8      27.4314      0.00000

 k-point     8 :       0.4667   -0.0000    0.0000
  band No.  band energies     occupation 
      1       2.2893      2.00000
      2       4.2831      2.00000
      3      19.6787      0.00000
      4      19.6787      0.00000
      5      21.7826      0.00000
      6      21.7826      0.00000
      7      24.4825      0.00000
      8      26.8466      0.00000

 k-point     9 :       0.0667    0.0667    0.0000
  band No.  band energies     occupation 
      1      -3.9358      2.00000
      2      20.5208      0.00000
      3      20.5208      0.00000
      4      21.8801      0.00000
      5      21.9956      0.00000
      6      24.9343      0.00000
      7      24.9343      0.00000
      8      28.0982      0.00000

 k-point    10 :       0.1333    0.0667    0.0000
  band No.  band energies     occupation 
      1      -3.6253      2.00000
      2      18.1219      0.00000
      3      19.6515      0.00000
      4      21.2677      0.00000
      5      22.6344      0.00000
      6      25.6695      0.00000
      7      26.1268      0.00000
      8      26.5762      0.00000

 k-point    11 :       0.2000    0.0667    0.0000
  band No.  band energies     occupation 
      1      -3.0500      2.00000
      2      15.2230      0.00000
      3      18.9993      0.00000
      4      20.6377      0.00000
      5      23.3180      0.00000
      6      25.4233      0.00000
      7      26.1378      0.00000
      8      26.7471      0.00000

 k-point    12 :       0.2667    0.0667    0.0000
  band No.  band energies     occupation 
      1      -2.2122      2.00000
      2      12.4060      0.00000
      3      18.5703      0.00000
      4      20.1390      0.00000
      5      22.6378      0.00000
      6      25.3288      0.00000
      7      26.0304      0.00000
      8      27.2062      0.00000

 k-point    13 :       0.3333    0.0667    0.0000
  band No.  band energies     occupation 
      1      -1.1156      2.00000
      2       9.7545      2.00000
      3      18.3650      0.00000
      4      19.7243      0.00000
      5      21.6889      0.00000
      6      24.9458      0.00000
      7      25.3258      0.00000
      8      28.8413      0.00000

 k-point    14 :       0.4000    0.0667    0.0000
  band No.  band energies     occupation 
      1       0.2348      2.00000
      2       7.3036      2.00000
      3      18.3799      0.00000
      4      19.2444      0.00000
      5      21.1445      0.00000
      6      23.9496      0.00000
      7      25.3664      0.00000
      8      28.6830      0.00000

 k-point    15 :       0.4667    0.0667    0.0000
  band No.  band energies     occupation 
      1       1.8280      2.00000
      2       5.0779      2.00000
      3      18.6065      0.00000
      4      18.6605      0.00000
      5      21.1333      0.00000
      6      23.1491      0.00000
      7      25.4132      0.00000
      8      28.1067      0.00000

 k-point    16 :      -0.4667    0.0667    0.0000
  band No.  band energies     occupation 
      1       2.9666      2.00000
      2       3.7806      2.00000
      3      18.1294      0.00000
      4      19.0257      0.00000
      5      21.5212      0.00000
      6      22.5932      0.00000
      7      25.3496      0.00000
      8      28.0159      0.00000

 k-point    17 :      -0.4000    0.0667    0.0000
  band No.  band energies     occupation 
      1       1.2715      2.00000
      2       5.7925      2.00000
      3      17.7599      0.00000
      4      19.5941      0.00000
      5      22.2030      0.00000
      6      22.3336      0.00000
      7      25.1733      0.00000
      8      28.4450      0.00000

 k-point    18 :      -0.3333    0.0667    0.0000
  band No.  band energies     occupation 
      1      -0.2431      2.00000
      2       8.0962      2.00000
      3      17.5938      0.00000
      4      20.2191      0.00000
      5      22.4562      0.00000
      6      23.1271      0.00000
      7      25.0141      0.00000
      8      29.2203      0.00000

 k-point    19 :      -0.2667    0.0667    0.0000
  band No.  band energies     occupation 
      1      -1.5096      2.00000
      2      10.6161      1.97066
      3      17.6472      0.00000
      4      20.7911      0.00000
      5      23.0378      0.00000
      6      24.2462      0.00000
      7      24.9469      0.00000
      8      28.9146      0.00000

 k-point    20 :      -0.2000    0.0667    0.0000
  band No.  band energies     occupation 
      1      -2.5205      2.00000
      2      13.3262      0.00000
      3      17.9264      0.00000
      4      21.3310      0.00000
      5      23.9040      0.00000
      6      24.9537      0.00000
      7      25.4459      0.00000
      8      27.1723      0.00000

 k-point    21 :      -0.1333    0.0667    0.0000
  band No.  band energies     occupation 
      1      -3.2711      2.00000
      2      16.1791      0.00000
      3      18.4340      0.00000
      4      21.9428      0.00000
      5      24.0594      0.00000
      6      24.9090      0.00000
      7      26.1297      0.00000
      8      26.6813      0.00000

 k-point    22 :      -0.0667    0.0667    0.0000
  band No.  band energies     occupation 
      1      -3.7584      2.00000
      2      18.9367      0.00000
      3      19.2899      0.00000
      4      22.4933      0.00000
      5      23.1752      0.00000
      6      24.5410      0.00000
      7      25.4033      0.00000
      8      27.8401      0.00000

 k-point    23 :       0.1333    0.1333    0.0000
  band No.  band energies     occupation 
      1      -3.4038      2.00000
      2      18.7079      0.00000
      3      18.7079      0.00000
      4      20.1782      0.00000
      5      20.9235      0.00000
      6      24.7141      0.00000
      7      27.3890      0.00000
      8      27.3891      0.00000

 k-point    24 :       0.2000    0.1333    0.0000
  band No.  band energies     occupation 
      1      -2.9173      2.00000
      2      16.4217      0.00000
      3      17.9816      0.00000
      4      19.8572      0.00000
      5      20.9827      0.00000
      6      23.3783      0.00000
      7      28.1191      0.00000
      8      28.3720      0.00000

 k-point    25 :       0.2667    0.1333    0.0000
  band No.  band energies     occupation 
      1      -2.1680      2.00000
      2      13.6252      0.00000
      3      17.4806      0.00000
      4      19.2033      0.00000
      5      20.6999      0.00000
      6      23.8471      0.00000
      7      28.0545      0.00000
      8      28.2936      0.00000

 k-point    26 :       0.3333    0.1333    0.0000
  band No.  band energies     occupation 
      1      -1.1588      2.00000
      2      10.9349      0.00000
      3      17.2073      0.00000
      4      18.3624      0.00000
      5      20.0545      0.00000
      6      25.4156      0.00000
      7      27.0480      0.00000
      8      28.4471      0.00000

 k-point    27 :       0.4000    0.1333    0.0000
  band No.  band energies     occupation 
      1       0.1056      2.00000
      2       8.4252      2.00000
      3      17.1615      0.00000
      4      17.3919      0.00000
      5      19.8353      0.00000
      6      26.0270      0.00000
      7      26.7677      0.00000
      8      29.1216      0.00000

 k-point    28 :       0.4667    0.1333    0.0000
  band No.  band energies     occupation 
      1       1.6176      2.00000
      2       6.1277      2.00000
      3      16.4990      0.00000
      4      17.3412      0.00000
      5      19.9718      0.00000
      6      25.1543      0.00000
      7      27.1824      0.00000
      8      30.5910      0.00000

 k-point    29 :      -0.4667    0.1333    0.0000
  band No.  band energies     occupation 
      1       3.3132      2.00000
      2       4.1162      2.00000
      3      15.7854      0.00000
      4      17.7420      0.00000
      5      20.3926      0.00000
      6      24.4842      0.00000
      7      27.0810      0.00000
      8      30.6800      0.00000

 k-point    30 :      -0.4000    0.1333    0.0000
  band No.  band energies     occupation 
      1       2.1736      2.00000
      2       5.4126      2.00000
      3      15.2875      0.00000
      4      18.3555      0.00000
      5      21.0687      0.00000
      6      24.0429      0.00000
      7      26.8233      0.00000
      8      31.0129      0.00000

 k-point    31 :      -0.3333    0.1333    0.0000
  band No.  band energies     occupation 
      1       0.5827      2.00000
      2       7.6305      2.00000
      3      15.0202      0.00000
      4      19.1647      0.00000
      5      21.9808      0.00000
      6      23.8494      0.00000
      7      26.5696      0.00000
      8      30.5954      0.00000

 k-point    32 :      -0.2667    0.1333    0.0000
  band No.  band energies     occupation 
      1      -0.7655      2.00000
      2      10.0659      2.00000
      3      14.9924      0.00000
      4      20.1345      0.00000
      5      23.1044      0.00000
      6      23.9223      0.00000
      7      26.3664      0.00000
      8      28.3806      0.00000

 k-point    33 :      -0.2000    0.1333    0.0000
  band No.  band energies     occupation 
      1      -1.8604      2.00000
      2      12.6769      0.00000
      3      15.2205      0.00000
      4      21.1868      0.00000
      5      24.2487      0.00000
      6      24.3877      0.00000
      7      26.1463      0.00000
      8      26.4479      0.00000

 k-point    34 :      -0.1333    0.1333    0.0000
  band No.  band energies     occupation 
      1      -2.6968      2.00000
      2      15.1667      0.00000
      3      15.9558      0.00000
      4      22.1059      0.00000
      5      24.2025      0.00000
      6      25.6569      0.00000
      7      25.6640      0.00000
      8      25.6983      0.00000

 k-point    35 :       0.2000    0.2000    0.0000
  band No.  band energies     occupation 
      1      -2.5201      2.00000
      2      17.1791      0.00000
      3      17.1791      0.00000
      4      18.5534      0.00000
      5      19.1181      0.00000
      6      21.6487      0.00000
      7      29.8796      0.00000
      8      29.8796      0.00000

 k-point    36 :       0.2667    0.2000    0.0000
  band No.  band energies     occupation 
      1      -1.8599      2.00000
      2      14.9945      0.00000
      3      16.6022      0.00000
      4      17.8398      0.00000
      5      18.8640      0.00000
      6      21.2984      0.00000
      7      30.1643      0.00000
      8      30.6362      0.00000

 k-point    37 :       0.3333    0.2000    0.0000
  band No.  band energies     occupation 
      1      -0.9396      2.00000
      2      12.3259      0.00000
      3      16.2541      0.00000
      4      16.5369      0.00000
      5      18.7757      0.00000
      6      22.6390      0.00000
      7      29.3169      0.00000
      8      30.8050      0.00000

 k-point    38 :       0.4000    0.2000    0.0000
  band No.  band energies     occupation 
      1       0.2369      2.00000
      2       9.7783      2.00000
      3      15.3076      0.00000
      4      16.1356      0.00000
      5      18.6873      0.00000
      6      24.5935      0.00000
      7      28.3210      0.00000
      8      30.7292      0.00000

 k-point    39 :       0.4667    0.2000    0.0000
  band No.  band energies     occupation 
      1       1.6633      2.00000
      2       7.4213      2.00000
      3      14.2578      0.00000
      4      16.2461      0.00000
      5      18.8207      0.00000
      6      26.6687      0.00000
      7      27.4173      0.00000
      8      30.5879      0.00000

 k-point    40 :      -0.4667    0.2000    0.0000
  band No.  band energies     occupation 
      1       3.3214      2.00000
      2       5.2930      2.00000
      3      13.4260      0.00000
      4      16.5839      0.00000
      5      19.2005      0.00000
      6      26.6865      0.00000
      7      28.2708      0.00000
      8      30.8567      0.00000

 k-point    41 :      -0.4000    0.2000    0.0000
  band No.  band energies     occupation 
      1       3.3234      2.00000
      2       5.2874      2.00000
      3      12.8294      0.00000
      4      17.1454      0.00000
      5      19.8259      0.00000
      6      26.1630      0.00000
      7      28.5924      0.00000
      8      32.0704      0.00000

[...]
      7      27.5589      0.00000
      8      31.9072      0.00000

 k-point    85 :      -0.4000    0.2667    0.0667
  band No.  band energies     occupation 
      1       4.3441      2.00000
      2       5.1174      2.00000
      3      12.0194      0.00000
      4      14.9554      0.00000
      5      20.4044      0.00000
      6      26.3841      0.00000
      7      29.0308      0.00000
      8      31.2686      0.00000

 k-point    86 :      -0.3333    0.2667    0.0667
  band No.  band energies     occupation 
      1       3.2052      2.00000
      2       6.4012      2.00000
      3      11.5079      0.00000
      4      15.6193      0.00000
      5      21.0791      0.00000
      6      25.9658      0.00000
      7      29.8092      0.00000
      8      30.6868      0.00000

 k-point    87 :      -0.2667    0.2667    0.0667
  band No.  band energies     occupation 
      1       1.6217      2.00000
      2       8.5616      2.00000
      3      11.2727      0.00000
      4      16.5147      0.00000
      5      21.9618      0.00000
      6      25.7012      0.00000
      7      27.8619      0.00000
      8      30.6355      0.00000

 k-point    88 :      -0.2000    0.2667    0.0667
  band No.  band energies     occupation 
      1       0.2804      2.00000
      2      10.5752      1.99915
      3      11.6437      0.00000
      4      17.6257      0.00000
      5      23.0038      0.00000
      6      25.2955      0.00000
      7      26.1297      0.00000
      8      29.8678      0.00000

 k-point    89 :       0.4000    0.3333    0.0667
  band No.  band energies     occupation 
      1       0.4547      2.00000
      2      13.0627      0.00000
      3      13.2028      0.00000
      4      14.0647      0.00000
      5      18.2959      0.00000
      6      20.1018      0.00000
      7      31.4372      0.00000
      8      34.2208      0.00000

 k-point    90 :       0.4667    0.3333    0.0667
  band No.  band energies     occupation 
      1       1.6218      2.00000
      2      10.9940      0.00000
      3      11.8322      0.00000
      4      13.6125      0.00000
      5      18.8219      0.00000
      6      21.5375      0.00000
      7      30.6019      0.00000
      8      34.4518      0.00000

 k-point    91 :      -0.4667    0.3333    0.0667
  band No.  band energies     occupation 
      1       3.0349      2.00000
      2       8.7187      2.00000
      3      10.7287      0.31429
      4      13.6922      0.00000
      5      19.0794      0.00000
      6      23.7561      0.00000
      7      29.7665      0.00000
      8      33.8510      0.00000

 k-point    92 :      -0.4000    0.3333    0.0667
  band No.  band energies     occupation 
      1       4.6744      2.00000
      2       6.6205      2.00000
      3       9.8765      2.00000
      4      14.0396      0.00000
      5      19.4867      0.00000
      6      26.1807      0.00000
      7      29.0964      0.00000
      8      32.5100      0.00000

 k-point    93 :      -0.3333    0.3333    0.0667
  band No.  band energies     occupation 
      1       4.6882      2.00000
      2       6.5644      2.00000
      3       9.3066      2.00000
      4      14.6319      0.00000
      5      20.1066      0.00000
      6      28.0536      0.00000
      7      29.1197      0.00000
      8      30.5025      0.00000

 k-point    94 :      -0.2667    0.3333    0.0667
  band No.  band energies     occupation 
      1       3.0385      2.00000
      2       8.2521      2.00000
      3       9.3653      2.00000
      4      15.4604      0.00000
      5      20.9413      0.00000
      6      27.8472      0.00000
      7      28.1280      0.00000
      8      31.2445      0.00000

 k-point    95 :       0.4667    0.4000    0.0667
  band No.  band energies     occupation 
      1       2.3507      2.00000
      2      10.0381      2.00000
      3      12.5488      0.00000
      4      13.3634      0.00000
      5      17.6367      0.00000
      6      19.4810      0.00000
      7      33.0251      0.00000
      8      36.1599      0.00000

 k-point    96 :      -0.4667    0.4000    0.0667
  band No.  band energies     occupation 
      1       3.6665      2.00000
      2       8.8409      2.00000
      3      10.5596      1.99984
      4      13.1126      0.00000
      5      18.3327      0.00000
      6      21.0917      0.00000
      7      32.3080      0.00000
      8      35.3186      0.00000

 k-point    97 :      -0.4000    0.4000    0.0667
  band No.  band energies     occupation 
      1       5.1919      2.00000
      2       7.8593      2.00000
      3       8.5000      2.00000
      4      13.3650      0.00000
      5      18.7585      0.00000
      6      23.4808      0.00000
      7      31.5937      0.00000
      8      33.3820      0.00000

 k-point    98 :      -0.3333    0.4000    0.0667
  band No.  band energies     occupation 
      1       6.3814      2.00000
      2       6.5885      2.00000
      3       7.7348      2.00000
      4      13.8775      0.00000
      5      19.3299      0.00000
      6      26.0880      0.00000
      7      30.9173      0.00000
      8      31.0527      0.00000

 k-point    99 :      -0.4667    0.4667    0.0667
  band No.  band energies     occupation 
      1       4.5198      2.00000
      2       7.2680      2.00000
      3      12.2212      0.00000
      4      13.0380      0.00000
      5      17.3058      0.00000
      6      19.1696      0.00000
      7      34.5781      0.00000
      8      36.1275      0.00000

 k-point   100 :      -0.4000    0.4667    0.0667
  band No.  band energies     occupation 
      1       5.5895      2.00000
      2       6.6236      2.00000
      3      10.3864      2.00000
      4      12.9494      0.00000
      5      18.1691      0.00000
      6      20.9419      0.00000
      7      33.8613      0.00000
      8      34.2801      0.00000

 k-point   101 :       0.4000    0.2667    0.1333
  band No.  band energies     occupation 
      1      -0.5902      2.00000
      2      12.2263      0.00000
      3      13.1870      0.00000
      4      16.9738      0.00000
      5      22.1527      0.00000
      6      23.2437      0.00000
      7      26.8706      0.00000
      8      30.9615      0.00000

 k-point   102 :       0.4667    0.2667    0.1333
  band No.  band energies     occupation 
      1       0.5843      2.00000
      2      10.0512      2.00000
      3      12.6947      0.00000
      4      15.6993      0.00000
      5      22.4825      0.00000
      6      24.5513      0.00000
      7      26.1065      0.00000
      8      31.5333      0.00000

 k-point   103 :      -0.4667    0.2667    0.1333
  band No.  band energies     occupation 
      1       2.0084      2.00000
      2       7.7377      2.00000
      3      12.7623      0.00000
      4      14.6426      0.00000
      5      22.5981      0.00000
      6      24.5449      0.00000
      7      27.3764      0.00000
      8      31.6263      0.00000

 k-point   104 :      -0.4000    0.2667    0.1333
  band No.  band energies     occupation 
      1       3.6647      2.00000
      2       5.6232      2.00000
      3      13.0521      0.00000
      4      13.8648      0.00000
      5      22.7875      0.00000
      6      24.0104      0.00000
      7      29.4677      0.00000
      8      31.0956      0.00000

 k-point   105 :       0.4667    0.3333    0.1333
  band No.  band energies     occupation 
      1       0.9745      2.00000
      2      11.2373      0.00000
      3      12.1869      0.00000
      4      13.7338      0.00000
      5      21.2090      0.00000
      6      22.4717      0.00000
      7      28.1805      0.00000
      8      33.7217      0.00000

 k-point   106 :      -0.4667    0.3333    0.1333
  band No.  band energies     occupation 
      1       2.3097      2.00000
      2       9.2190      2.00000
      3      11.8007      0.00000
      4      12.6117      0.00000
      5      21.7528      0.00000
      6      24.1658      0.00000
      7      27.3091      0.00000
      8      33.7513      0.00000

 k-point   107 :      -0.4000    0.3333    0.1333
  band No.  band energies     occupation 
      1       3.8843      2.00000
      2       7.0674      2.00000
      3      11.4559      0.00000
      4      12.2634      0.00000
      5      22.0869      0.00000
      6      25.7673      0.00000
      7      27.2544      0.00000
      8      32.2017      0.00000

 k-point   108 :      -0.3333    0.3333    0.1333
  band No.  band energies     occupation 
      1       5.0296      2.00000
      2       5.7670      2.00000
      3      10.8352      0.00006
      4      12.7162      0.00000
      5      22.5798      0.00000
      6      25.5439      0.00000
      7      29.0100      0.00000
      8      30.2888      0.00000

 k-point   109 :      -0.2667    0.3333    0.1333
  band No.  band energies     occupation 
      1       3.3360      2.00000
      2       7.7275      2.00000
      3      10.4450      2.00000
      4      13.4685      0.00000
      5      23.2324      0.00000
      6      25.1547      0.00000
      7      27.4528      0.00000
      8      31.7729      0.00000

 k-point   110 :      -0.2000    0.3333    0.1333
  band No.  band energies     occupation 
      1       1.8375      2.00000
      2       9.5812      2.00000
      3      10.6610      1.63709
      4      14.4691      0.00000
      5      23.9144      0.00000
      6      24.4179      0.00000
      7      25.9092      0.00000
      8      32.9821      0.00000

 k-point   111 :      -0.4667    0.4000    0.1333
  band No.  band energies     occupation 
      1       2.8647      2.00000
      2      10.4716      2.00000
      3      10.5765      1.99903
      4      11.7168      0.00000
      5      20.5681      0.00000
      6      21.9269      0.00000
      7      29.7979      0.00000
      8      34.9214      0.00000

 k-point   112 :      -0.4000    0.4000    0.1333
  band No.  band energies     occupation 
      1       4.3449      2.00000
      2       8.6900      2.00000
      3       9.5452      2.00000
      4      11.4738      0.00000
      5      21.2964      0.00000
      6      23.8172      0.00000
      7      29.0025      0.00000
      8      32.9050      0.00000

 k-point   113 :      -0.3333    0.4000    0.1333
  band No.  band energies     occupation 
      1       6.0059      2.00000
      2       6.7383      2.00000
      3       8.8060      2.00000
      4      11.8619      0.00000
      5      21.8037      0.00000
      6      26.1860      0.00000
      7      28.3680      0.00000
      8      30.5455      0.00000

 k-point   114 :      -0.2667    0.4000    0.1333
  band No.  band energies     occupation 
      1       4.9019      2.00000
      2       7.5871      2.00000
      3       8.6938      2.00000
      4      12.5383      0.00000
      5      22.4622      0.00000
      6      27.2866      0.00000
      7      27.5821      0.00000
      8      29.8396      0.00000

 k-point   115 :      -0.4000    0.4667    0.1333
  band No.  band energies     occupation 
      1       5.0254      2.00000
      2       7.7622      2.00000
      3      10.2457      2.00000
      4      11.3323      0.00000
      5      20.2451      0.00000
      6      21.6465      0.00000
      7      31.6246      0.00000
      8      33.4999      0.00000

 k-point   116 :      -0.3333    0.4667    0.1333
  band No.  band energies     occupation 
      1       6.2556      2.00000
      2       7.2682      2.00000
      3       8.6030      2.00000
      4      11.2936      0.00000
      5      21.1421      0.00000
      6      23.6916      0.00000
      7      30.6632      0.00000
      8      31.2672      0.00000

 k-point   117 :      -0.4000    0.4000    0.2000
  band No.  band energies     occupation 
      1       3.7177      2.00000
      2       8.9176      2.00000
      3       9.9572      2.00000
      4      11.4665      0.00000
      5      23.8041      0.00000
      6      24.3667      0.00000
      7      26.6071      0.00000
      8      32.4003      0.00000

 k-point   118 :      -0.3333    0.4000    0.2000
  band No.  band energies     occupation 
      1       5.3523      2.00000
      2       7.2269      2.00000
      3       9.8582      2.00000
      4      10.6698      1.49072
      5      24.2665      0.00000
      6      25.3143      0.00000
      7      27.1215      0.00000
      8      30.0941      0.00000

 k-point   119 :      -0.3333    0.4667    0.2000
  band No.  band energies     occupation 
      1       5.8636      2.00000
      2       8.5268      2.00000
      3       8.5856      2.00000
      4       9.8202      2.00000
      5      23.4921      0.00000
      6      24.3257      0.00000
      7      28.2030      0.00000
      8      30.5121      0.00000

 k-point   120 :      -0.2667    0.4667    0.2000
  band No.  band energies     occupation 
      1       7.0109      2.00000
      2       7.2545      2.00000
      3       8.3186      2.00000
      4       9.8927      2.00000
      5      24.3062      0.00000
      6      26.2206      0.00000
      7      26.9942      0.00000
      8      28.8898      0.00000


--------------------------------------------------------------------------------------------------------


 soft charge-density along one line, spin component           1
         0         1         2         3         4         5         6         7         8         9
 total charge-density along one line
 
 pseudopotential strength for first ion, spin component:           1
 17.903  24.976  -0.000   0.000   0.000  -0.000   0.000   0.000
 24.976  34.847  -0.000   0.000   0.000  -0.000   0.000   0.000
 -0.000  -0.000   4.087   0.000   0.000   7.613   0.000   0.000
  0.000   0.000   0.000   4.087   0.000   0.000   7.613   0.000
  0.000   0.000   0.000   0.000   4.087   0.000   0.000   7.613
 -0.000  -0.000   7.613   0.000   0.000  14.192   0.000   0.000
  0.000   0.000   0.000   7.613   0.000   0.000  14.192   0.000
  0.000   0.000   0.000   0.000   7.613   0.000   0.000  14.192
 total augmentation occupancy for first ion, spin component:           1
  5.183  -2.227   0.000   0.000   0.000   0.000   0.000   0.000
 -2.227   1.415   0.000   0.000   0.000   0.000   0.000   0.000
  0.000   0.000   2.439  -0.000  -0.000  -0.590   0.000   0.000
  0.000   0.000  -0.000   2.439  -0.000   0.000  -0.590   0.000
  0.000   0.000  -0.000  -0.000   2.439   0.000   0.000  -0.590
  0.000   0.000  -0.590   0.000   0.000   0.158  -0.000  -0.000
  0.000   0.000   0.000  -0.590   0.000  -0.000   0.158  -0.000
  0.000   0.000   0.000   0.000  -0.590  -0.000  -0.000   0.158


------------------------ aborting loop because EDIFF is reached ----------------------------------------


    CHARGE:  cpu time    0.0830: real time    0.0829
    FORLOC:  cpu time    0.0010: real time    0.0014
    FORNL :  cpu time    0.1430: real time    0.1433
    STRESS:  cpu time    1.0048: real time    1.0068
    FORCOR:  cpu time    0.0310: real time    0.0307
    FORHAR:  cpu time    0.0060: real time    0.0057
    MIXING:  cpu time    0.0010: real time    0.0012
    OFIELD:  cpu time    0.0000: real time    0.0002

  FORCE on cell =-STRESS in cart. coord.  units (eV):
  Direction    XX          YY          ZZ          XY          YZ          ZX
  --------------------------------------------------------------------------------------
  Alpha Z     2.42680     2.42680     2.42680
  Ewald     -46.15912   -46.15912   -46.15912     0.00000     0.00001     0.00001
  Hartree     0.12918     0.12918     0.12918     0.00000     0.00000     0.00000
  E(xc)     -12.83102   -12.83102   -12.83102     0.00000    -0.00000    -0.00000
  Local      -4.59234    -4.59234    -4.59234     0.00000     0.00000     0.00000
  n-local    35.94421    38.54229    40.53072    -0.12971     0.08963    -0.17087
  augment    -6.23159    -6.23159    -6.23159    -0.00000    -0.00000    -0.00000
  Kinetic    53.56898    27.68054     6.43132    -4.39170     2.17176    -0.26678
  Fock        0.00000     0.00000     0.00000     0.00000     0.00000     0.00000
  -------------------------------------------------------------------------------------
  Total       0.30792     0.30792     0.30792     0.00000    -0.00000    -0.00000
  in kB      35.56516    35.56515    35.56515     0.00000    -0.00001    -0.00002
  external pressure =       35.57 kB  Pullay stress =        0.00 kB


 VOLUME and BASIS-vectors are now :
 -----------------------------------------------------------------------------
  energy-cutoff  :      700.00
  volume of cell :       13.87
      direct lattice vectors                 reciprocal lattice vectors
     2.335658025  0.000000000  1.348491660     0.428144869 -0.151372086  0.000000000
     0.778552675  2.202079275  1.348491660     0.000000000  0.454116258  0.000000000
     0.000000000  0.000000000  2.696985310    -0.214072277 -0.151371974  0.370784370

  length of vectors
     2.696985014  2.696984827  2.696985310     0.454116216  0.454116258  0.454116134


 FORCES acting on ions
    electron-ion (+dipol)            ewald-force                    non-local-force                 convergence-correction
 -----------------------------------------------------------------------------------------------
   -.849E-15 -.137E-15 0.171E-15   0.471E-15 0.108E-15 0.971E-16   -.103E-23 0.000E+00 0.000E+00   0.303E-16 0.693E-17 0.879E-17
 -----------------------------------------------------------------------------------------------
   -.849E-15 -.137E-15 0.171E-15   0.471E-15 0.108E-15 0.971E-16   -.103E-23 0.000E+00 0.000E+00   0.303E-16 0.693E-17 0.879E-17
 
 
 POSITION                                       TOTAL-FORCE (eV/Angst)
 -----------------------------------------------------------------------------------
      0.00000      0.00000      0.00000        -0.000000      0.000000      0.000000
 -----------------------------------------------------------------------------------
    total drift:                               -0.000000     -0.000000      0.000000


--------------------------------------------------------------------------------------------------------



  FREE ENERGIE OF THE ION-ELECTRON SYSTEM (eV)
  ---------------------------------------------------
  free  energy   TOTEN  =        -4.87796625 eV

  energy  without entropy=       -4.87722703  energy(sigma->0) =       -4.87759664
 


--------------------------------------------------------------------------------------------------------


    POTLOK:  cpu time    0.2090: real time    0.2152


--------------------------------------------------------------------------------------------------------




--------------------------------------------------------------------------------------------------------


  
 reached required accuracy - stopping structural energy minimisation
     LOOP+:  cpu time   14.2178: real time   14.4750
    4ORBIT:  cpu time    0.0000: real time    0.0000

 total amount of memory used by VASP MPI-rank0    43011. kBytes
=======================================================================

   base      :      30000. kBytes
   nonl-proj :       4586. kBytes
   fftplans  :       4177. kBytes
   grid      :       1926. kBytes
   one-center:          3. kBytes
   wavefun   :       2319. kBytes
 
  
  
 General timing and accounting informations for this job:
 ========================================================
  
                  Total CPU time used (sec):       15.128
                            User time (sec):       14.842
                          System time (sec):        0.286
                         Elapsed time (sec):       16.036
  
                   Maximum memory used (kb):       87264.
                   Average memory used (kb):          N/A
  
                          Minor page faults:        16817
                          Major page faults:            1
                 Voluntary context switches:        14689
