<?xml version="1.0" encoding="ISO-8859-1"?>
<modeling>
 <generator>
  <i name="program" type="string">vasp </i>
  <i name="version" type="string">6.2.0  </i>
  <i name="subversion" type="string">18Jan21 (build Aug 12 2022 13:00:08) complex                          parallel </i>
  <i name="platform" type="string">LinuxIFC </i>
  <i name="date" type="string">2024 11 05 </i>
  <i name="time" type="string">05:19:34 </i>
 </generator>
 <incar>
  <i type="int" name="ISTART">     0</i>
  <i type="string" name="PREC">Accurate      (Accurate strictly avoids</i>
  <i type="logical" name="ADDGRID"> T  </i>
  <i type="int" name="ISPIN">     1</i>
  <i type="int" name="NELM">    90</i>
  <i type="int" name="NELMIN">     6</i>
  <i type="int" name="IBRION">     2</i>
  <i name="EDIFF">      0.00000100</i>
  <i name="EDIFFG">     -0.00200000</i>
  <i type="int" name="NSW">   100</i>
  <i type="int" name="ISIF">     2</i>
  <i type="int" name="ISYM">     2</i>
  <i name="ENCUT">    700.00000000</i>
  <i type="logical" name="LREAL"> F  </i>
  <i type="int" name="ISMEAR">     0</i>
  <i name="SIGMA">      0.05000000</i>
  <i type="logical" name="LWAVE"> F  </i>
  <i type="logical" name="LCHARG"> F  </i>
  <i type="logical" name="LASPH"> T  </i>
 </incar>
 <primitive_cell>
  <structure name="primitive_cell" >
   <crystal>
    <varray name="basis" >
     <v>       2.33565803       0.00000000       1.34849166 </v>
     <v>       0.77855267       2.20207928       1.34849166 </v>
     <v>       0.00000000       0.00000000       2.69698531 </v>
    </varray>
    <i name="volume">     13.87141568 </i>
    <varray name="rec_basis" >
     <v>       0.42814487      -0.15137209       0.00000000 </v>
     <v>       0.00000000       0.45411626       0.00000000 </v>
     <v>      -0.21407228      -0.15137197       0.37078437 </v>
    </varray>
   </crystal>
   <varray name="positions" >
    <v>       0.00000000       0.00000000       0.00000000 </v>
   </varray>
  </structure>
  <varray name="primitive_index" >
   <v type="int" >        1 </v>
  </varray>
 </primitive_cell>
 <kpoints>
  <generation param="Monkhorst-Pack">
   <v type="int" name="divisions">      15       15       15 </v>
   <v name="usershift">      0.00000000       0.00000000       0.00000000 </v>
   <v name="genvec1">      0.06666667      -0.00000000       0.00000000 </v>
   <v name="genvec2">      0.00000000       0.06666667       0.00000000 </v>
   <v name="genvec3">      0.00000000       0.00000000       0.06666667 </v>
   <v name="shift">      0.00000000       0.00000000       0.00000000 </v>
  </generation>
  <varray name="kpointlist" >
   <v>       0.00000000       0.00000000       0.00000000 </v>
   <v>       0.06666667       0.00000000       0.00000000 </v>
   <v>       0.13333333       0.00000000       0.00000000 </v>
   <v>       0.20000000      -0.00000000       0.00000000 </v>
   <v>       0.26666667       0.00000000       0.00000000 </v>
   <v>       0.33333333      -0.00000000       0.00000000 </v>
   <v>       0.40000000       0.00000000       0.00000000 </v>
   <v>       0.46666667      -0.00000000       0.00000000 </v>
   <v>       0.06666667       0.06666667       0.00000000 </v>
   <v>       0.13333333       0.06666667       0.00000000 </v>
   <v>       0.20000000       0.06666667       0.00000000 </v>
   <v>       0.26666667       0.06666667       0.00000000 </v>
   <v>       0.33333333       0.06666667       0.00000000 </v>
   <v>       0.40000000       0.06666667       0.00000000 </v>
   <v>       0.46666667       0.06666667       0.00000000 </v>
   <v>      -0.46666667       0.06666667       0.00000000 </v>
   <v>      -0.40000000       0.06666667       0.00000000 </v>
   <v>      -0.33333333       0.06666667       0.00000000 </v>
   <v>      -0.26666667       0.06666667       0.00000000 </v>
   <v>      -0.20000000       0.06666667       0.00000000 </v>
   <v>      -0.13333333       0.06666667       0.00000000 </v>
   <v>      -0.06666667       0.06666667       0.00000000 </v>
   <v>       0.13333333       0.13333333       0.00000000 </v>
   <v>       0.20000000       0.13333333       0.00000000 </v>
   <v>       0.26666667       0.13333333       0.00000000 </v>
   <v>       0.33333333       0.13333333       0.00000000 </v>
   <v>       0.40000000       0.13333333       0.00000000 </v>
   <v>       0.46666667       0.13333333       0.00000000 </v>
   <v>      -0.46666667       0.13333333       0.00000000 </v>
   <v>      -0.40000000       0.13333333       0.00000000 </v>
   <v>      -0.33333333       0.13333333       0.00000000 </v>
   <v>      -0.26666667       0.13333333       0.00000000 </v>
   <v>      -0.20000000       0.13333333       0.00000000 </v>
   <v>      -0.13333333       0.13333333       0.00000000 </v>
   <v>       0.20000000       0.20000000       0.00000000 </v>
   <v>       0.26666667       0.20000000       0.00000000 </v>
   <v>       0.33333333       0.20000000       0.00000000 </v>
   <v>       0.40000000       0.20000000       0.00000000 </v>
   <v>       0.46666667       0.20000000       0.00000000 </v>
   <v>      -0.46666667       0.20000000       0.00000000 </v>
   <v>      -0.40000000       0.20000000       0.00000000 </v>
   <v>      -0.33333333       0.20000000       0.00000000 </v>
   <v>      -0.26666667       0.20000000       0.00000000 </v>
   <v>      -0.20000000       0.20000000       0.00000000 </v>
   <v>       0.26666667       0.26666667       0.00000000 </v>
   <v>       0.33333333       0.26666667       0.00000000 </v>
   <v>       0.40000000       0.26666667       0.00000000 </v>
   <v>       0.46666667       0.26666667       0.00000000 </v>
   <v>      -0.46666667       0.26666667       0.00000000 </v>
   <v>      -0.40000000       0.26666667       0.00000000 </v>
   <v>      -0.33333333       0.26666667       0.00000000 </v>
   <v>      -0.26666667       0.26666667       0.00000000 </v>
   <v>       0.33333333       0.33333333       0.00000000 </v>
   <v>       0.40000000       0.33333333       0.00000000 </v>
   <v>       0.46666667       0.33333333       0.00000000 </v>
   <v>      -0.46666667       0.33333333       0.00000000 </v>
   <v>      -0.40000000       0.33333333       0.00000000 </v>
   <v>      -0.33333333       0.33333333       0.00000000 </v>
   <v>       0.40000000       0.40000000       0.00000000 </v>
   <v>       0.46666667       0.40000000       0.00000000 </v>
   <v>      -0.46666667       0.40000000       0.00000000 </v>
   <v>      -0.40000000       0.40000000       0.00000000 </v>
   <v>       0.46666667       0.46666667       0.00000000 </v>
   <v>      -0.46666667       0.46666667       0.00000000 </v>
   <v>       0.20000000       0.13333333       0.06666667 </v>
   <v>       0.26666667       0.13333333       0.06666667 </v>
   <v>       0.33333333       0.13333333       0.06666667 </v>
   <v>       0.40000000       0.13333333       0.06666667 </v>
   <v>       0.46666667       0.13333333       0.06666667 </v>
   <v>      -0.46666667       0.13333333       0.06666667 </v>
   <v>       0.26666667       0.20000000       0.06666667 </v>
   <v>       0.33333333       0.20000000       0.06666667 </v>
   <v>       0.40000000       0.20000000       0.06666667 </v>
   <v>       0.46666667       0.20000000       0.06666667 </v>
   <v>      -0.46666667       0.20000000       0.06666667 </v>
   <v>      -0.40000000       0.20000000       0.06666667 </v>
   <v>      -0.33333333       0.20000000       0.06666667 </v>
   <v>      -0.26666667       0.20000000       0.06666667 </v>
   <v>      -0.20000000       0.20000000       0.06666667 </v>
   <v>      -0.13333333       0.20000000       0.06666667 </v>
   <v>       0.33333333       0.26666667       0.06666667 </v>
   <v>       0.40000000       0.26666667       0.06666667 </v>
   <v>       0.46666667       0.26666667       0.06666667 </v>
   <v>      -0.46666667       0.26666667       0.06666667 </v>
   <v>      -0.40000000       0.26666667       0.06666667 </v>
   <v>      -0.33333333       0.26666667       0.06666667 </v>
   <v>      -0.26666667       0.26666667       0.06666667 </v>
   <v>      -0.20000000       0.26666667       0.06666667 </v>
   <v>       0.40000000       0.33333333       0.06666667 </v>
   <v>       0.46666667       0.33333333       0.06666667 </v>
   <v>      -0.46666667       0.33333333       0.06666667 </v>
   <v>      -0.40000000       0.33333333       0.06666667 </v>
   <v>      -0.33333333       0.33333333       0.06666667 </v>
   <v>      -0.26666667       0.33333333       0.06666667 </v>
   <v>       0.46666667       0.40000000       0.06666667 </v>
   <v>      -0.46666667       0.40000000       0.06666667 </v>
   <v>      -0.40000000       0.40000000       0.06666667 </v>
   <v>      -0.33333333       0.40000000       0.06666667 </v>
   <v>      -0.46666667       0.46666667       0.06666667 </v>
   <v>      -0.40000000       0.46666667       0.06666667 </v>
   <v>       0.40000000       0.26666667       0.13333333 </v>
   <v>       0.46666667       0.26666667       0.13333333 </v>
   <v>      -0.46666667       0.26666667       0.13333333 </v>
   <v>      -0.40000000       0.26666667       0.13333333 </v>
   <v>       0.46666667       0.33333333       0.13333333 </v>
   <v>      -0.46666667       0.33333333       0.13333333 </v>
   <v>      -0.40000000       0.33333333       0.13333333 </v>
   <v>      -0.33333333       0.33333333       0.13333333 </v>
   <v>      -0.26666667       0.33333333       0.13333333 </v>
   <v>      -0.20000000       0.33333333       0.13333333 </v>
   <v>      -0.46666667       0.40000000       0.13333333 </v>
   <v>      -0.40000000       0.40000000       0.13333333 </v>
   <v>      -0.33333333       0.40000000       0.13333333 </v>
   <v>      -0.26666667       0.40000000       0.13333333 </v>
   <v>      -0.40000000       0.46666667       0.13333333 </v>
   <v>      -0.33333333       0.46666667       0.13333333 </v>
   <v>      -0.40000000       0.40000000       0.20000000 </v>
   <v>      -0.33333333       0.40000000       0.20000000 </v>
   <v>      -0.33333333       0.46666667       0.20000000 </v>
   <v>      -0.26666667       0.46666667       0.20000000 </v>
  </varray>
  <varray name="weights" >
   <v>       0.00029630 </v>
   <v>       0.00237037 </v>
   <v>       0.00237037 </v>
   <v>       0.00237037 </v>
   <v>       0.00237037 </v>
   <v>       0.00237037 </v>
   <v>       0.00237037 </v>
   <v>       0.00237037 </v>
   <v>       0.00177778 </v>
   <v>       0.00711111 </v>
   <v>       0.00711111 </v>
   <v>       0.00711111 </v>
   <v>       0.00711111 </v>
   <v>       0.00711111 </v>
   <v>       0.00711111 </v>
   <v>       0.00711111 </v>
   <v>       0.00711111 </v>
   <v>       0.00711111 </v>
   <v>       0.00711111 </v>
   <v>       0.00711111 </v>
   <v>       0.00711111 </v>
   <v>       0.00355556 </v>
   <v>       0.00177778 </v>
   <v>       0.00711111 </v>
   <v>       0.00711111 </v>
   <v>       0.00711111 </v>
   <v>       0.00711111 </v>
   <v>       0.00711111 </v>
   <v>       0.00711111 </v>
   <v>       0.00711111 </v>
   <v>       0.00711111 </v>
   <v>       0.00711111 </v>
   <v>       0.00711111 </v>
   <v>       0.00355556 </v>
   <v>       0.00177778 </v>
   <v>       0.00711111 </v>
   <v>       0.00711111 </v>
   <v>       0.00711111 </v>
   <v>       0.00711111 </v>
   <v>       0.00711111 </v>
   <v>       0.00711111 </v>
   <v>       0.00711111 </v>
   <v>       0.00711111 </v>
   <v>       0.00355556 </v>
   <v>       0.00177778 </v>
   <v>       0.00711111 </v>
   <v>       0.00711111 </v>
   <v>       0.00711111 </v>
   <v>       0.00711111 </v>
   <v>       0.00711111 </v>
   <v>       0.00711111 </v>
   <v>       0.00355556 </v>
   <v>       0.00177778 </v>
   <v>       0.00711111 </v>
   <v>       0.00711111 </v>
   <v>       0.00711111 </v>
   <v>       0.00711111 </v>
   <v>       0.00355556 </v>
   <v>       0.00177778 </v>
   <v>       0.00711111 </v>
   <v>       0.00711111 </v>
   <v>       0.00355556 </v>
   <v>       0.00177778 </v>
   <v>       0.00355556 </v>
   <v>       0.00711111 </v>
   <v>       0.01422222 </v>
   <v>       0.01422222 </v>
   <v>       0.01422222 </v>
   <v>       0.01422222 </v>
   <v>       0.01422222 </v>
   <v>       0.00711111 </v>
   <v>       0.01422222 </v>
   <v>       0.01422222 </v>
   <v>       0.01422222 </v>
   <v>       0.01422222 </v>
   <v>       0.01422222 </v>
   <v>       0.01422222 </v>
   <v>       0.01422222 </v>
   <v>       0.01422222 </v>
   <v>       0.00711111 </v>
   <v>       0.00711111 </v>
   <v>       0.01422222 </v>
   <v>       0.01422222 </v>
   <v>       0.01422222 </v>
   <v>       0.01422222 </v>
   <v>       0.01422222 </v>
   <v>       0.01422222 </v>
   <v>       0.00711111 </v>
   <v>       0.00711111 </v>
   <v>       0.01422222 </v>
   <v>       0.01422222 </v>
   <v>       0.01422222 </v>
   <v>       0.01422222 </v>
   <v>       0.00711111 </v>
   <v>       0.00711111 </v>
   <v>       0.01422222 </v>
   <v>       0.01422222 </v>
   <v>       0.00711111 </v>
   <v>       0.00711111 </v>
   <v>       0.00711111 </v>
   <v>       0.00711111 </v>
   <v>       0.01422222 </v>
   <v>       0.01422222 </v>
   <v>       0.01422222 </v>
   <v>       0.00711111 </v>
   <v>       0.01422222 </v>
   <v>       0.01422222 </v>
   <v>       0.01422222 </v>
   <v>       0.01422222 </v>
   <v>       0.00711111 </v>
   <v>       0.00711111 </v>
   <v>       0.01422222 </v>
   <v>       0.01422222 </v>
   <v>       0.00711111 </v>
   <v>       0.00711111 </v>
   <v>       0.00711111 </v>
   <v>       0.00711111 </v>
   <v>       0.01422222 </v>
   <v>       0.00711111 </v>
   <v>       0.00711111 </v>
  </varray>
 </kpoints>
 <parameters>
  <separator name="general" >
   <i type="string" name="SYSTEM">unknown system</i>
   <i type="logical" name="LCOMPAT"> F  </i>
  </separator>
  <separator name="electronic" >
   <i type="string" name="PREC">accura</i>
   <i name="ENMAX">    700.00000000</i>
   <i name="ENAUG">    322.06900000</i>
   <i name="EDIFF">      0.00000100</i>
   <i type="int" name="IALGO">    38</i>
   <i type="int" name="IWAVPR">    11</i>
   <i type="int" name="NBANDS">     8</i>
   <i type="int" name="NBANDSLOW">    -1</i>
   <i type="int" name="NBANDSHIGH">    -1</i>
   <i name="NELECT">      4.00000000</i>
   <i type="int" name="TURBO">     0</i>
   <i type="int" name="IRESTART">     0</i>
   <i type="int" name="NREBOOT">     0</i>
   <i type="int" name="NMIN">     0</i>
   <i name="EREF">      0.00000000</i>
   <separator name="electronic smearing" >
    <i type="int" name="ISMEAR">     0</i>
    <i name="SIGMA">      0.05000000</i>
    <i name="KSPACING">      0.50000000</i>
    <i type="logical" name="KGAMMA"> T  </i>
    <i type="logical" name="KBLOWUP"> T  </i>
   </separator>
   <separator name="electronic projectors" >
    <i type="logical" name="LREAL"> F  </i>
    <v name="ROPT">      0.00000000</v>
    <i type="int" name="LMAXPAW">  -100</i>
    <i type="int" name="LMAXMIX">     2</i>
    <i type="logical" name="NLSPLINE"> F  </i>
   </separator>
   <separator name="electronic startup" >
    <i type="int" name="ISTART">     0</i>
    <i type="int" name="ICHARG">     2</i>
    <i type="int" name="INIWAV">     1</i>
   </separator>
   <separator name="electronic spin" >
    <i type="int" name="ISPIN">     1</i>
    <i type="logical" name="LNONCOLLINEAR"> F  </i>
    <v name="MAGMOM">      1.00000000</v>
    <i name="NUPDOWN">     -1.00000000</i>
    <i type="logical" name="LSORBIT"> F  </i>
    <v name="SAXIS">      0.00000000      0.00000000      1.00000000</v>
    <i type="logical" name="LSPIRAL"> F  </i>
    <v name="QSPIRAL">      0.00000000      0.00000000      0.00000000</v>
    <i type="logical" name="LZEROZ"> F  </i>
   </separator>
   <separator name="electronic exchange-correlation" >
    <i type="logical" name="LASPH"> T  </i>
    <i type="logical" name="LMETAGGA"> F  </i>
   </separator>
   <separator name="electronic convergence" >
    <i type="int" name="NELM">    90</i>
    <i type="int" name="NELMDL">    -5</i>
    <i type="int" name="NELMIN">     6</i>
    <i name="ENINI">    700.00000000</i>
    <separator name="electronic convergence detail" >
     <i type="logical" name="LDIAG"> T  </i>
     <i type="logical" name="LSUBROT"> F  </i>
     <i name="WEIMIN">      0.00100000</i>
     <i name="EBREAK">      0.00000003</i>
     <i name="DEPER">      0.30000000</i>
     <i type="int" name="NRMM">     4</i>
     <i name="TIME">      0.40000000</i>
    </separator>
   </separator>
   <separator name="electronic mixer" >
    <i name="AMIX">      0.40000000</i>
    <i name="BMIX">      1.00000000</i>
    <i name="AMIN">      0.10000000</i>
    <i name="AMIX_MAG">      1.60000000</i>
    <i name="BMIX_MAG">      1.00000000</i>
    <separator name="electronic mixer details" >
     <i type="int" name="IMIX">     4</i>
     <i type="logical" name="MIXFIRST"> F  </i>
     <i type="int" name="MAXMIX">   -45</i>
     <i name="WC">    100.00000000</i>
     <i type="int" name="INIMIX">     1</i>
     <i type="int" name="MIXPRE">     1</i>
     <i type="int" name="MREMOVE">     5</i>
    </separator>
   </separator>
   <separator name="electronic dipolcorrection" >
    <i type="logical" name="LDIPOL"> F  </i>
    <i type="logical" name="LMONO"> F  </i>
    <i type="int" name="IDIPOL">     0</i>
    <i name="EPSILON">      1.00000000</i>
    <v name="DIPOL">   -100.00000000   -100.00000000   -100.00000000</v>
    <i name="EFIELD">      0.00000000</i>
   </separator>
  </separator>
  <separator name="grids" >
   <i type="int" name="NGX">    24</i>
   <i type="int" name="NGY">    24</i>
   <i type="int" name="NGZ">    24</i>
   <i type="int" name="NGXF">    48</i>
   <i type="int" name="NGYF">    48</i>
   <i type="int" name="NGZF">    48</i>
   <i type="logical" name="ADDGRID"> T  </i>
  </separator>
  <separator name="ionic" >
   <i type="int" name="NSW">   100</i>
   <i type="int" name="IBRION">     2</i>
   <i type="int" name="MDALGO">     0</i>
   <i type="int" name="ISIF">     2</i>
   <i name="PSTRESS">      0.00000000</i>
   <i name="EDIFFG">     -0.00200000</i>
   <i type="int" name="NFREE">     1</i>
   <i name="POTIM">      0.50000000</i>
   <i name="SMASS">     -3.00000000</i>
   <i name="SCALEE">      1.00000000</i>
  </separator>
  <separator name="ionic md" >
   <i name="TEBEG">      0.00010000</i>
   <i name="TEEND">      0.00010000</i>
   <i type="int" name="NBLOCK">     1</i>
   <i type="int" name="KBLOCK">   100</i>
   <i type="int" name="NPACO">   256</i>
   <i name="APACO">     16.00000000</i>
  </separator>
  <separator name="symmetry" >
   <i type="int" name="ISYM">     2</i>
   <i name="SYMPREC">      0.00001000</i>
  </separator>
  <separator name="dos" >
   <i type="int" name="LORBIT">     0</i>
   <v name="RWIGS">     -1.00000000</v>
   <i type="int" name="NEDOS">   301</i>
   <i name="EMIN">     10.00000000</i>
   <i name="EMAX">    -10.00000000</i>
   <i name="EFERMI">      0.00000000</i>
  </separator>
  <separator name="writing" >
   <i type="int" name="NWRITE">     2</i>
   <i type="logical" name="LWAVE"> F  </i>
   <i type="logical" name="LDOWNSAMPLE"> F  </i>
   <i type="logical" name="LCHARG"> F  </i>
   <i type="logical" name="LPARD"> F  </i>
   <i type="logical" name="LVTOT"> F  </i>
   <i type="logical" name="LVHAR"> F  </i>
   <i type="logical" name="LELF"> F  </i>
   <i type="logical" name="LOPTICS"> F  </i>
   <v name="STM">      0.00000000      0.00000000      0.00000000      0.00000000      0.00000000      0.00000000      0.00000000</v>
  </separator>
  <separator name="performance" >
   <i type="int" name="NPAR">     4</i>
   <i type="int" name="NSIM">     4</i>
   <i type="int" name="NBLK">    -1</i>
   <i type="logical" name="LPLANE"> T  </i>
   <i type="logical" name="LSCALAPACK"> T  </i>
   <i type="logical" name="LSCAAWARE"> F  </i>
   <i type="logical" name="LSCALU"> F  </i>
   <i type="logical" name="LASYNC"> F  </i>
   <i type="logical" name="LORBITALREAL"> F  </i>
  </separator>
  <separator name="miscellaneous" >
   <i type="int" name="IDIOT">     3</i>
   <i type="int" name="PHON_NSTRUCT">    -1</i>
   <i type="logical" name="LMUSIC"> F  </i>
   <v name="POMASS">     28.08500000</v>
   <v name="DARWINR">      0.00000000</v>
   <v name="DARWINV">      1.00000000</v>
   <i type="logical" name="LCORR"> T  </i>
  </separator>
  <i type="logical" name="GGA_COMPAT"> T  </i>
  <i type="logical" name="LBERRY"> F  </i>
  <i type="int" name="ICORELEVEL">     0</i>
  <i type="logical" name="LDAU"> F  </i>
  <i type="int" name="I_CONSTRAINED_M">     0</i>
  <separator name="electronic exchange-correlation" >
   <i type="string" name="GGA">--</i>
   <i type="int" name="VOSKOWN">     0</i>
   <i type="logical" name="LHFCALC"> F  </i>
   <i type="string" name="PRECFOCK"></i>
   <i type="logical" name="LSYMGRAD"> F  </i>
   <i type="logical" name="LHFONE"> F  </i>
   <i type="logical" name="LRHFCALC"> F  </i>
   <i type="logical" name="LTHOMAS"> F  </i>
   <i type="logical" name="LMODELHF"> F  </i>
   <i type="logical" name="LFOCKACE"> F  </i>
   <i name="ENCUT4O">     -1.00000000</i>
   <i type="int" name="EXXOEP">     0</i>
   <i type="int" name="FOURORBIT">     0</i>
   <i name="AEXX">      0.00000000</i>
   <i name="HFALPHA">      0.00000000</i>
   <i name="MCALPHA">      0.00000000</i>
   <i name="ALDAX">      1.00000000</i>
   <i name="AGGAX">      1.00000000</i>
   <i name="ALDAC">      1.00000000</i>
   <i name="AGGAC">      1.00000000</i>
   <i type="int" name="NKREDX">     1</i>
   <i type="int" name="NKREDY">     1</i>
   <i type="int" name="NKREDZ">     1</i>
   <i type="logical" name="SHIFTRED"> F  </i>
   <i type="logical" name="ODDONLY"> F  </i>
   <i type="logical" name="EVENONLY"> F  </i>
   <i type="int" name="LMAXFOCK">     0</i>
   <i type="int" name="NMAXFOCKAE">     0</i>
   <i type="logical" name="LFOCKAEDFT"> F  </i>
   <i name="HFSCREEN">      0.00000000</i>
   <i name="HFSCREENC">      0.00000000</i>
   <i type="int" name="NBANDSGWLOW">     0</i>
  </separator>
  <separator name="vdW DFT" >
   <i type="logical" name="LUSE_VDW"> F  </i>
   <i name="Zab_VDW">     -0.84910000</i>
   <i name="PARAM1">      0.12340000</i>
   <i name="PARAM2">      1.00000000</i>
   <i name="PARAM3">      0.00000000</i>
  </separator>
  <separator name="model GW" >
   <i type="int" name="MODEL_GW">     0</i>
   <i name="MODEL_EPS0">      8.32284941</i>
   <i name="MODEL_ALPHA">      1.00000000</i>
  </separator>
  <separator name="linear response parameters" >
   <i type="logical" name="LEPSILON"> F  </i>
   <i type="logical" name="LRPA"> F  </i>
   <i type="logical" name="LNABLA"> F  </i>
   <i type="logical" name="LVEL"> F  </i>
   <i type="int" name="KINTER">     0</i>
   <i name="CSHIFT">      0.10000000</i>
   <i name="OMEGAMAX">     -1.00000000</i>
   <i name="DEG_THRESHOLD">      0.00200000</i>
   <i name="RTIME">     -0.10000000</i>
   <i name="WPLASMAI">      0.00000000</i>
   <v name="DFIELD">      0.00000000      0.00000000      0.00000000</v>
   <v name="WPLASMA">      0.00000000      0.00000000      0.00000000      0.00000000      0.00000000      0.00000000      0.00000000      0.00000000      0.00000000</v>
  </separator>
  <separator name="orbital magnetization" >
   <i type="logical" name="NUCIND"> F  </i>
   <v name="MAGPOS">      0.00000000      0.00000000      0.00000000</v>
   <i type="logical" name="LNICSALL"> T  </i>
   <i type="logical" name="ORBITALMAG"> F  </i>
   <i type="logical" name="LMAGBLOCH"> F  </i>
   <i type="logical" name="LCHIMAG"> F  </i>
   <i type="logical" name="LGAUGE"> T  </i>
   <i type="int" name="MAGATOM">     0</i>
   <v name="MAGDIPOL">      0.00000000      0.00000000      0.00000000</v>
   <v name="AVECCONST">      0.00000000      0.00000000      0.00000000</v>
  </separator>
  <separator name="response functions" >
   <i type="logical" name="LFINITE_TEMPERATURE"> F  </i>
   <i type="logical" name="LADDER"> F  </i>
   <i type="logical" name="LRPAFORCE"> F  </i>
   <i type="logical" name="LFXC"> F  </i>
   <i type="logical" name="LHARTREE"> T  </i>
   <i type="int" name="IBSE">     0</i>
   <v type="int" name="KPOINT">    -1     0     0     0</v>
   <i type="logical" name="LTCTC"> F  </i>
   <i type="logical" name="LTCTE"> F  </i>
   <i type="logical" name="LTETE"> F  </i>
   <i type="logical" name="LTRIPLET"> F  </i>
   <i type="logical" name="LFXCEPS"> F  </i>
   <i type="logical" name="LFXHEG"> F  </i>
   <i type="int" name="NATURALO">     2</i>
   <i type="logical" name="LHOLEGF"> F  </i>
   <i type="logical" name="L2ORDER"> F  </i>
   <i type="logical" name="LDMP1"> F  </i>
   <i type="logical" name="LMP2LT"> F  </i>
   <i type="logical" name="LSMP2LT"> F  </i>
   <i type="logical" name="LGWLF"> F  </i>
   <i name="ENCUTGW">     -2.00000000</i>
   <i name="ENCUTGWSOFT">     -2.00000000</i>
   <i name="ENCUTLF">     -1.00000000</i>
   <i type="logical" name="LESF_SPLINES"> F  </i>
   <i type="int" name="LMAXMP2">    -1</i>
   <i name="SCISSOR">      0.00000000</i>
   <i type="int" name="NOMEGA">     0</i>
   <i type="int" name="NOMEGAR">     0</i>
   <i type="int" name="NBANDSGW">    -1</i>
   <i type="int" name="NBANDSO">    -1</i>
   <i type="int" name="NBANDSV">    -1</i>
   <i type="int" name="NELM">    90</i>
   <i type="int" name="NELMHF">     1</i>
   <i type="int" name="DIM">     3</i>
   <i type="int" name="IESPILON">     4</i>
   <i type="int" name="ANTIRES">     0</i>
   <i name="OMEGAMAX">    -30.00000000</i>
   <i name="OMEGAMIN">    -30.00000000</i>
   <i name="OMEGATL">   -200.00000000</i>
   <i type="int" name="OMEGAGRID">     0</i>
   <i name="CSHIFT">     -0.10000000</i>
   <i type="logical" name="LSELFENERGY"> F  </i>
   <i type="logical" name="LSPECTRAL"> F  </i>
   <i type="logical" name="LSPECTRALGW"> F  </i>
   <i type="logical" name="LSINGLES"> F  </i>
   <i type="logical" name="LFERMIGW"> F  </i>
   <i type="logical" name="ODDONLYGW"> F  </i>
   <i type="logical" name="EVENONLYGW"> F  </i>
   <i type="int" name="NKREDLFX">     1</i>
   <i type="int" name="NKREDLFY">     1</i>
   <i type="int" name="NKREDLFZ">     1</i>
   <i type="int" name="MAXMEM">  2800</i>
   <i type="int" name="TELESCOPE">     0</i>
   <i type="int" name="NTAUPAR">    -1</i>
   <i type="int" name="NOMEGAPAR">    -1</i>
   <i name="DAMP_NEWTON">      0.80000001</i>
   <i name="LAMBDA">      1.00000000</i>
  </separator>
  <separator name="External order field" >
   <i name="OFIELD_KAPPA">      0.00000000</i>
   <v name="OFIELD_K">      0.00000000      0.00000000      0.00000000</v>
   <i name="OFIELD_Q6_NEAR">      0.00000000</i>
   <i name="OFIELD_Q6_FAR">      0.00000000</i>
   <i name="OFIELD_A">      0.00000000</i>
  </separator>
 </parameters>
 <atominfo>
  <atoms>       1 </atoms>
  <types>       1 </types>
  <array name="atoms" >
   <dimension dim="1">ion</dimension>
   <field type="string">element</field>
   <field type="int">atomtype</field>
   <set>
    <rc><c>Si</c><c>   1</c></rc>
   </set>
  </array>
  <array name="atomtypes" >
   <dimension dim="1">type</dimension>
   <field type="int">atomspertype</field>
   <field type="string">element</field>
   <field>mass</field>
   <field>valence</field>
   <field type="string">pseudopotential</field>
   <set>
    <rc><c>   1</c><c>Si</c><c>     28.08500000</c><c>      4.00000000</c><c>  PAW_PBE Si 05Jan2001                  </c></rc>
   </set>
  </array>
 </atominfo>
 <structure name="initialpos" >
  <crystal>
   <varray name="basis" >
    <v>       2.33565803       0.00000000       1.34849166 </v>
    <v>       0.77855267       2.20207928       1.34849166 </v>
    <v>       0.00000000       0.00000000       2.69698531 </v>
   </varray>
   <i name="volume">     13.87141568 </i>
   <varray name="rec_basis" >
    <v>       0.42814487      -0.15137209       0.00000000 </v>
    <v>       0.00000000       0.45411626       0.00000000 </v>
    <v>      -0.21407228      -0.15137197       0.37078437 </v>
   </varray>
  </crystal>
  <varray name="positions" >
   <v>       0.00000000       0.00000000       0.00000000 </v>
  </varray>
 </structure>
 <calculation>
  <scstep>
   <time name="dav">    0.99    0.99</time>
   <time name="total">    1.22    1.22</time>
   <energy>
    <i name="alphaZ">      2.42679850 </i>
    <i name="ewald">   -138.47734964 </i>
    <i name="hartreedc">     -0.51327895 </i>
    <i name="XCdc">     -8.69276952 </i>
    <i name="pawpsdc">     88.12379961 </i>
    <i name="pawaedc">    -70.53051779 </i>
    <i name="eentropy">     -0.00055563 </i>
    <i name="bandstr">     23.16407338 </i>
    <i name="atom">    103.06662367 </i>
    <i name="e_fr_energy">     -1.43317636 </i>
    <i name="e_wo_entrp">     -1.43262074 </i>
    <i name="e_0_energy">     -1.43289855 </i>
   </energy>
  </scstep>
  <scstep>
   <time name="dav">    1.39    1.42</time>
   <time name="total">    1.40    1.42</time>
   <energy>
    <i name="e_fr_energy">     -4.87897498 </i>
    <i name="e_wo_entrp">     -4.87829780 </i>
    <i name="e_0_energy">     -4.87863639 </i>
   </energy>
  </scstep>
  <scstep>
   <time name="dav">    1.50    1.52</time>
   <time name="total">    1.51    1.52</time>
   <energy>
    <i name="e_fr_energy">     -4.90005219 </i>
    <i name="e_wo_entrp">     -4.89938943 </i>
    <i name="e_0_energy">     -4.89972081 </i>
   </energy>
  </scstep>
  <scstep>
   <time name="dav">    1.46    1.47</time>
   <time name="total">    1.46    1.48</time>
   <energy>
    <i name="e_fr_energy">     -4.90007651 </i>
    <i name="e_wo_entrp">     -4.89941369 </i>
    <i name="e_0_energy">     -4.89974510 </i>
   </energy>
  </scstep>
  <scstep>
   <time name="dav">    1.07    1.08</time>
   <time name="total">    1.16    1.17</time>
   <energy>
    <i name="e_fr_energy">     -4.90007652 </i>
    <i name="e_wo_entrp">     -4.89941370 </i>
    <i name="e_0_energy">     -4.89974511 </i>
   </energy>
  </scstep>
  <scstep>
   <time name="dav">    1.10    1.10</time>
   <time name="total">    1.40    1.41</time>
   <energy>
    <i name="e_fr_energy">     -4.88607154 </i>
    <i name="e_wo_entrp">     -4.88537115 </i>
    <i name="e_0_energy">     -4.88572135 </i>
   </energy>
  </scstep>
  <scstep>
   <time name="dav">    1.08    1.08</time>
   <time name="total">    1.37    1.38</time>
   <energy>
    <i name="e_fr_energy">     -4.87800711 </i>
    <i name="e_wo_entrp">     -4.87726694 </i>
    <i name="e_0_energy">     -4.87763703 </i>
   </energy>
  </scstep>
  <scstep>
   <time name="dav">    1.37    1.37</time>
   <time name="total">    1.66    1.68</time>
   <energy>
    <i name="e_fr_energy">     -4.87796599 </i>
    <i name="e_wo_entrp">     -4.87722676 </i>
    <i name="e_0_energy">     -4.87759637 </i>
   </energy>
  </scstep>
  <scstep>
   <time name="dav">    1.14    1.15</time>
   <time name="total">    1.35    1.37</time>
   <energy>
    <i name="alphaZ">      2.42679850 </i>
    <i name="ewald">   -138.47734964 </i>
    <i name="hartreedc">     -0.38759875 </i>
    <i name="XCdc">     -8.62817502 </i>
    <i name="pawpsdc">    326.32625885 </i>
    <i name="pawaedc">   -308.74711914 </i>
    <i name="eentropy">     -0.00073922 </i>
    <i name="bandstr">     19.54333450 </i>
    <i name="atom">    103.06662367 </i>
    <i name="e_fr_energy">     -4.87796625 </i>
    <i name="e_wo_entrp">     -4.87722703 </i>
    <i name="e_0_energy">     -4.87759664 </i>
   </energy>
  </scstep>
  <structure>
   <crystal>
    <varray name="basis" >
     <v>       2.33565803       0.00000000       1.34849166 </v>
     <v>       0.77855267       2.20207928       1.34849166 </v>
     <v>       0.00000000       0.00000000       2.69698531 </v>
    </varray>
    <i name="volume">     13.87141568 </i>
    <varray name="rec_basis" >
     <v>       0.42814487      -0.15137209       0.00000000 </v>
     <v>       0.00000000       0.45411626       0.00000000 </v>
     <v>      -0.21407228      -0.15137197       0.37078437 </v>
    </varray>
   </crystal>
   <varray name="positions" >
    <v>       0.00000000       0.00000000       0.00000000 </v>
   </varray>
  </structure>
  <varray name="forces" >
   <v>      -0.00000000       0.00000000       0.00000000 </v>
  </varray>
  <varray name="stress" >
   <v>      35.56515745       0.00000000      -0.00001515 </v>
   <v>       0.00000000      35.56515005      -0.00001071 </v>
   <v>      -0.00001515      -0.00001071      35.56515036 </v>
  </varray>
  <energy>
   <i name="e_fr_energy">     -4.87796625 </i>
   <i name="e_wo_entrp">     -4.87722703 </i>
   <i name="e_0_energy">     -4.87759664 </i>
  </energy>
  <time name="totalsc">   14.22   14.48</time>
  <eigenvalues>
   <array>
    <dimension dim="1">band</dimension>
    <dimension dim="2">kpoint</dimension>
    <dimension dim="3">spin</dimension>
    <field>eigene</field>
    <field>occ</field>
    <set>
     <set comment="spin 1">
      <set comment="kpoint 1">
       <r>   -4.1135    1.0000 </r>
       <r>   22.3991    0.0000 </r>
       <r>   22.3991    0.0000 </r>
       <r>   22.3991    0.0000 </r>
       <r>   22.8313    0.0000 </r>
       <r>   22.8313    0.0000 </r>
       <r>   22.8313    0.0000 </r>
       <r>   28.2650    0.0000 </r>
      </set>
      <set comment="kpoint 2">
       <r>   -3.9802    1.0000 </r>
       <r>   20.0093    0.0000 </r>
       <r>   21.5810    0.0000 </r>
       <r>   21.5810    0.0000 </r>
       <r>   23.8167    0.0000 </r>
       <r>   23.8167    0.0000 </r>
       <r>   24.0797    0.0000 </r>
       <r>   29.2531    0.0000 </r>
      </set>
      <set comment="kpoint 3">
       <r>   -3.5810    1.0000 </r>
       <r>   17.0834    0.0000 </r>
       <r>   20.7835    0.0000 </r>
       <r>   20.7835    0.0000 </r>
       <r>   24.3798    0.0000 </r>
       <r>   24.9658    0.0000 </r>
       <r>   24.9658    0.0000 </r>
       <r>   28.1793    0.0000 </r>
      </set>
      <set comment="kpoint 4">
       <r>   -2.9176    1.0000 </r>
       <r>   14.1729    0.0000 </r>
       <r>   20.1938    0.0000 </r>
       <r>   20.1938    0.0000 </r>
       <r>   24.3117    0.0000 </r>
       <r>   25.1651    0.0000 </r>
       <r>   25.1651    0.0000 </r>
       <r>   28.1802    0.0000 </r>
      </set>
      <set comment="kpoint 5">
       <r>   -1.9925    1.0000 </r>
       <r>   11.3971    0.0000 </r>
       <r>   19.8149    0.0000 </r>
       <r>   19.8149    0.0000 </r>
       <r>   24.2035    0.0000 </r>
       <r>   24.2035    0.0000 </r>
       <r>   24.2212    0.0000 </r>
       <r>   29.6100    0.0000 </r>
      </set>
      <set comment="kpoint 6">
       <r>   -0.8099    1.0000 </r>
       <r>    8.8053    1.0000 </r>
       <r>   19.6349    0.0000 </r>
       <r>   19.6349    0.0000 </r>
       <r>   23.1422    0.0000 </r>
       <r>   23.1422    0.0000 </r>
       <r>   24.2240    0.0000 </r>
       <r>   28.4005    0.0000 </r>
      </set>
      <set comment="kpoint 7">
       <r>    0.6241    1.0000 </r>
       <r>    6.4240    1.0000 </r>
       <r>   19.6188    0.0000 </r>
       <r>   19.6188    0.0000 </r>
       <r>   22.2865    0.0000 </r>
       <r>   22.2865    0.0000 </r>
       <r>   24.3381    0.0000 </r>
       <r>   27.4314    0.0000 </r>
      </set>
      <set comment="kpoint 8">
       <r>    2.2893    1.0000 </r>
       <r>    4.2831    1.0000 </r>
       <r>   19.6787    0.0000 </r>
       <r>   19.6787    0.0000 </r>
       <r>   21.7826    0.0000 </r>
       <r>   21.7826    0.0000 </r>
       <r>   24.4825    0.0000 </r>
       <r>   26.8466    0.0000 </r>
      </set>
      <set comment="kpoint 9">
       <r>   -3.9358    1.0000 </r>
       <r>   20.5208    0.0000 </r>
       <r>   20.5208    0.0000 </r>
       <r>   21.8801    0.0000 </r>
       <r>   21.9956    0.0000 </r>
       <r>   24.9343    0.0000 </r>
       <r>   24.9343    0.0000 </r>
       <r>   28.0982    0.0000 </r>
      </set>
      <set comment="kpoint 10">
       <r>   -3.6253    1.0000 </r>
       <r>   18.1219    0.0000 </r>
       <r>   19.6515    0.0000 </r>
       <r>   21.2677    0.0000 </r>
       <r>   22.6344    0.0000 </r>
       <r>   25.6695    0.0000 </r>
       <r>   26.1268    0.0000 </r>
       <r>   26.5762    0.0000 </r>
      </set>
      <set comment="kpoint 11">
       <r>   -3.0500    1.0000 </r>
       <r>   15.2230    0.0000 </r>
       <r>   18.9993    0.0000 </r>
       <r>   20.6377    0.0000 </r>
       <r>   23.3180    0.0000 </r>
       <r>   25.4233    0.0000 </r>
       <r>   26.1378    0.0000 </r>
       <r>   26.7471    0.0000 </r>
      </set>
      <set comment="kpoint 12">
       <r>   -2.2122    1.0000 </r>
       <r>   12.4060    0.0000 </r>
       <r>   18.5703    0.0000 </r>
       <r>   20.1390    0.0000 </r>
       <r>   22.6378    0.0000 </r>
       <r>   25.3288    0.0000 </r>
       <r>   26.0304    0.0000 </r>
       <r>   27.2062    0.0000 </r>
      </set>
      <set comment="kpoint 13">
       <r>   -1.1156    1.0000 </r>
       <r>    9.7545    1.0000 </r>
       <r>   18.3650    0.0000 </r>
       <r>   19.7243    0.0000 </r>
       <r>   21.6889    0.0000 </r>
       <r>   24.9458    0.0000 </r>
       <r>   25.3258    0.0000 </r>
       <r>   28.8413    0.0000 </r>
      </set>
      <set comment="kpoint 14">
       <r>    0.2348    1.0000 </r>
       <r>    7.3036    1.0000 </r>
       <r>   18.3799    0.0000 </r>
       <r>   19.2444    0.0000 </r>
       <r>   21.1445    0.0000 </r>
       <r>   23.9496    0.0000 </r>
       <r>   25.3664    0.0000 </r>
       <r>   28.6830    0.0000 </r>
      </set>
      <set comment="kpoint 15">
       <r>    1.8280    1.0000 </r>
       <r>    5.0779    1.0000 </r>
       <r>   18.6065    0.0000 </r>
       <r>   18.6605    0.0000 </r>
       <r>   21.1333    0.0000 </r>
       <r>   23.1491    0.0000 </r>
       <r>   25.4132    0.0000 </r>
       <r>   28.1067    0.0000 </r>
      </set>
      <set comment="kpoint 16">
       <r>    2.9666    1.0000 </r>
       <r>    3.7806    1.0000 </r>
       <r>   18.1294    0.0000 </r>
       <r>   19.0257    0.0000 </r>
       <r>   21.5212    0.0000 </r>
       <r>   22.5932    0.0000 </r>
       <r>   25.3496    0.0000 </r>
       <r>   28.0159    0.0000 </r>
      </set>
      <set comment="kpoint 17">
       <r>    1.2715    1.0000 </r>
       <r>    5.7925    1.0000 </r>
       <r>   17.7599    0.0000 </r>
       <r>   19.5941    0.0000 </r>
       <r>   22.2030    0.0000 </r>
       <r>   22.3336    0.0000 </r>
       <r>   25.1733    0.0000 </r>
       <r>   28.4450    0.0000 </r>
      </set>
      <set comment="kpoint 18">
       <r>   -0.2431    1.0000 </r>
       <r>    8.0962    1.0000 </r>
       <r>   17.5938    0.0000 </r>
       <r>   20.2191    0.0000 </r>
       <r>   22.4562    0.0000 </r>
       <r>   23.1271    0.0000 </r>
       <r>   25.0141    0.0000 </r>
       <r>   29.2203    0.0000 </r>
      </set>
      <set comment="kpoint 19">
       <r>   -1.5096    1.0000 </r>
       <r>   10.6161    0.9853 </r>
       <r>   17.6472    0.0000 </r>
       <r>   20.7911    0.0000 </r>
       <r>   23.0378    0.0000 </r>
       <r>   24.2462    0.0000 </r>
       <r>   24.9469    0.0000 </r>
       <r>   28.9146    0.0000 </r>
      </set>
      <set comment="kpoint 20">
       <r>   -2.5205    1.0000 </r>
       <r>   13.3262    0.0000 </r>
       <r>   17.9264    0.0000 </r>
       <r>   21.3310    0.0000 </r>
       <r>   23.9040    0.0000 </r>
       <r>   24.9537    0.0000 </r>
       <r>   25.4459    0.0000 </r>
       <r>   27.1723    0.0000 </r>
      </set>
      <set comment="kpoint 21">
       <r>   -3.2711    1.0000 </r>
       <r>   16.1791    0.0000 </r>
       <r>   18.4340    0.0000 </r>
       <r>   21.9428    0.0000 </r>
       <r>   24.0594    0.0000 </r>
       <r>   24.9090    0.0000 </r>
       <r>   26.1297    0.0000 </r>
       <r>   26.6813    0.0000 </r>
      </set>
      <set comment="kpoint 22">
       <r>   -3.7584    1.0000 </r>
       <r>   18.9367    0.0000 </r>
       <r>   19.2899    0.0000 </r>
       <r>   22.4933    0.0000 </r>
       <r>   23.1752    0.0000 </r>
       <r>   24.5410    0.0000 </r>
       <r>   25.4033    0.0000 </r>
       <r>   27.8401    0.0000 </r>
      </set>
      <set comment="kpoint 23">
       <r>   -3.4038    1.0000 </r>
       <r>   18.7079    0.0000 </r>
       <r>   18.7079    0.0000 </r>
       <r>   20.1782    0.0000 </r>
       <r>   20.9235    0.0000 </r>
       <r>   24.7141    0.0000 </r>
       <r>   27.3890    0.0000 </r>
       <r>   27.3891    0.0000 </r>
      </set>
      <set comment="kpoint 24">
       <r>   -2.9173    1.0000 </r>
       <r>   16.4217    0.0000 </r>
       <r>   17.9816    0.0000 </r>
       <r>   19.8572    0.0000 </r>
       <r>   20.9827    0.0000 </r>
       <r>   23.3783    0.0000 </r>
       <r>   28.1191    0.0000 </r>
       <r>   28.3720    0.0000 </r>
      </set>
      <set comment="kpoint 25">
       <r>   -2.1680    1.0000 </r>
       <r>   13.6252    0.0000 </r>
       <r>   17.4806    0.0000 </r>
       <r>   19.2033    0.0000 </r>
       <r>   20.6999    0.0000 </r>
       <r>   23.8471    0.0000 </r>
       <r>   28.0545    0.0000 </r>
       <r>   28.2936    0.0000 </r>
      </set>
      <set comment="kpoint 26">
       <r>   -1.1588    1.0000 </r>
       <r>   10.9349    0.0000 </r>
       <r>   17.2073    0.0000 </r>
       <r>   18.3624    0.0000 </r>
       <r>   20.0545    0.0000 </r>
       <r>   25.4156    0.0000 </r>
       <r>   27.0480    0.0000 </r>
       <r>   28.4471    0.0000 </r>
      </set>
      <set comment="kpoint 27">
       <r>    0.1056    1.0000 </r>
       <r>    8.4252    1.0000 </r>
       <r>   17.1615    0.0000 </r>
       <r>   17.3919    0.0000 </r>
       <r>   19.8353    0.0000 </r>
       <r>   26.0270    0.0000 </r>
       <r>   26.7677    0.0000 </r>
       <r>   29.1216    0.0000 </r>
      </set>
      <set comment="kpoint 28">
       <r>    1.6176    1.0000 </r>
       <r>    6.1277    1.0000 </r>
       <r>   16.4990    0.0000 </r>
       <r>   17.3412    0.0000 </r>
       <r>   19.9718    0.0000 </r>
       <r>   25.1543    0.0000 </r>
       <r>   27.1824    0.0000 </r>
       <r>   30.5910    0.0000 </r>
      </set>
      <set comment="kpoint 29">
       <r>    3.3132    1.0000 </r>
       <r>    4.1162    1.0000 </r>
       <r>   15.7854    0.0000 </r>
       <r>   17.7420    0.0000 </r>
       <r>   20.3926    0.0000 </r>
       <r>   24.4842    0.0000 </r>
       <r>   27.0810    0.0000 </r>
       <r>   30.6800    0.0000 </r>
      </set>
      <set comment="kpoint 30">
       <r>    2.1736    1.0000 </r>
       <r>    5.4126    1.0000 </r>
       <r>   15.2875    0.0000 </r>
       <r>   18.3555    0.0000 </r>
       <r>   21.0687    0.0000 </r>
       <r>   24.0429    0.0000 </r>
       <r>   26.8233    0.0000 </r>
       <r>   31.0129    0.0000 </r>
      </set>
      <set comment="kpoint 31">
       <r>    0.5827    1.0000 </r>
       <r>    7.6305    1.0000 </r>
       <r>   15.0202    0.0000 </r>
       <r>   19.1647    0.0000 </r>
       <r>   21.9808    0.0000 </r>
       <r>   23.8494    0.0000 </r>
       <r>   26.5696    0.0000 </r>
       <r>   30.5954    0.0000 </r>
      </set>
      <set comment="kpoint 32">
       <r>   -0.7655    1.0000 </r>
       <r>   10.0659    1.0000 </r>
       <r>   14.9924    0.0000 </r>
       <r>   20.1345    0.0000 </r>
       <r>   23.1044    0.0000 </r>
       <r>   23.9223    0.0000 </r>
       <r>   26.3664    0.0000 </r>
       <r>   28.3806    0.0000 </r>
      </set>
      <set comment="kpoint 33">
       <r>   -1.8604    1.0000 </r>
       <r>   12.6769    0.0000 </r>
       <r>   15.2205    0.0000 </r>
       <r>   21.1868    0.0000 </r>
       <r>   24.2487    0.0000 </r>
       <r>   24.3877    0.0000 </r>
       <r>   26.1463    0.0000 </r>
       <r>   26.4479    0.0000 </r>
      </set>
      <set comment="kpoint 34">
       <r>   -2.6968    1.0000 </r>
       <r>   15.1667    0.0000 </r>
       <r>   15.9558    0.0000 </r>
       <r>   22.1059    0.0000 </r>
       <r>   24.2025    0.0000 </r>
       <r>   25.6569    0.0000 </r>
       <r>   25.6640    0.0000 </r>
       <r>   25.6983    0.0000 </r>
      </set>
      <set comment="kpoint 35">
       <r>   -2.5201    1.0000 </r>
       <r>   17.1791    0.0000 </r>
       <r>   17.1791    0.0000 </r>
       <r>   18.5534    0.0000 </r>
       <r>   19.1181    0.0000 </r>
       <r>   21.6487    0.0000 </r>
       <r>   29.8796    0.0000 </r>
       <r>   29.8796    0.0000 </r>
      </set>
      <set comment="kpoint 36">
       <r>   -1.8599    1.0000 </r>
       <r>   14.9945    0.0000 </r>
       <r>   16.6022    0.0000 </r>
       <r>   17.8398    0.0000 </r>
       <r>   18.8640    0.0000 </r>
       <r>   21.2984    0.0000 </r>
       <r>   30.1643    0.0000 </r>
       <r>   30.6362    0.0000 </r>
      </set>
      <set comment="kpoint 37">
       <r>   -0.9396    1.0000 </r>
       <r>   12.3259    0.0000 </r>
       <r>   16.2541    0.0000 </r>
       <r>   16.5369    0.0000 </r>
       <r>   18.7757    0.0000 </r>
       <r>   22.6390    0.0000 </r>
       <r>   29.3169    0.0000 </r>
       <r>   30.8050    0.0000 </r>
      </set>
      <set comment="kpoint 38">
       <r>    0.2369    1.0000 </r>
       <r>    9.7783    1.0000 </r>
       <r>   15.3076    0.0000 </r>
       <r>   16.1356    0.0000 </r>
       <r>   18.6873    0.0000 </r>
       <r>   24.5935    0.0000 </r>
       <r>   28.3210    0.0000 </r>
       <r>   30.7292    0.0000 </r>
      </set>
      <set comment="kpoint 39">
       <r>    1.6633    1.0000 </r>
       <r>    7.4213    1.0000 </r>
       <r>   14.2578    0.0000 </r>
       <r>   16.2461    0.0000 </r>
       <r>   18.8207    0.0000 </r>
       <r>   26.6687    0.0000 </r>
       <r>   27.4173    0.0000 </r>
       <r>   30.5879    0.0000 </r>
      </set>
      <set comment="kpoint 40">
       <r>    3.3214    1.0000 </r>
       <r>    5.2930    1.0000 </r>
       <r>   13.4260    0.0000 </r>
       <r>   16.5839    0.0000 </r>
       <r>   19.2005    0.0000 </r>
       <r>   26.6865    0.0000 </r>
       <r>   28.2708    0.0000 </r>
       <r>   30.8567    0.0000 </r>
      </set>
      <set comment="kpoint 41">
       <r>    3.3234    1.0000 </r>
       <r>    5.2874    1.0000 </r>
       <r>   12.8294    0.0000 </r>
       <r>   17.1454    0.0000 </r>
       <r>   19.8259    0.0000 </r>
       <r>   26.1630    0.0000 </r>
       <r>   28.5924    0.0000 </r>
       <r>   32.0704    0.0000 </r>
      </set>
      <set comment="kpoint 42">
       <r>    1.6638    1.0000 </r>
       <r>    7.4054    1.0000 </r>
       <r>   12.4802    0.0000 </r>
       <r>   17.9237    0.0000 </r>
       <r>   20.6886    0.0000 </r>
       <r>   25.8650    0.0000 </r>
       <r>   28.3318    0.0000 </r>
       <r>   30.4071    0.0000 </r>
      </set>
      <set comment="kpoint 43">
       <r>    0.2367    1.0000 </r>
       <r>    9.7241    1.0000 </r>
       <r>   12.4050    0.0000 </r>
       <r>   18.9038    0.0000 </r>
       <r>   21.7714    0.0000 </r>
       <r>   25.8036    0.0000 </r>
       <r>   27.9054    0.0000 </r>
       <r>   28.0830    0.0000 </r>
      </set>
      <set comment="kpoint 44">
       <r>   -0.9400    1.0000 </r>
       <r>   11.8969    0.0000 </r>
       <r>   12.9180    0.0000 </r>
       <r>   20.0465    0.0000 </r>
       <r>   23.0379    0.0000 </r>
       <r>   25.8981    0.0000 </r>
       <r>   26.0651    0.0000 </r>
       <r>   27.2182    0.0000 </r>
      </set>
      <set comment="kpoint 45">
       <r>   -1.2894    1.0000 </r>
       <r>   15.9486    0.0000 </r>
       <r>   15.9486    0.0000 </r>
       <r>   16.2047    0.0000 </r>
       <r>   17.1956    0.0000 </r>
       <r>   19.8716    0.0000 </r>
       <r>   32.2528    0.0000 </r>
       <r>   32.2781    0.0000 </r>
      </set>
      <set comment="kpoint 46">
       <r>   -0.4588    1.0000 </r>
       <r>   13.8482    0.0000 </r>
       <r>   14.7095    0.0000 </r>
       <r>   15.5240    0.0000 </r>
       <r>   17.5772    0.0000 </r>
       <r>   20.1042    0.0000 </r>
       <r>   31.6543    0.0000 </r>
       <r>   32.9436    0.0000 </r>
      </set>
      <set comment="kpoint 47">
       <r>    0.6280    1.0000 </r>
       <r>   11.3349    0.0000 </r>
       <r>   13.3211    0.0000 </r>
       <r>   15.3299    0.0000 </r>
       <r>   17.7095    0.0000 </r>
       <r>   21.7499    0.0000 </r>
       <r>   30.7497    0.0000 </r>
       <r>   32.9608    0.0000 </r>
      </set>
      <set comment="kpoint 48">
       <r>    1.9656    1.0000 </r>
       <r>    8.9435    1.0000 </r>
       <r>   12.1510    0.0000 </r>
       <r>   15.3661    0.0000 </r>
       <r>   17.8372    0.0000 </r>
       <r>   23.9265    0.0000 </r>
       <r>   29.8543    0.0000 </r>
       <r>   32.5847    0.0000 </r>
      </set>
      <set comment="kpoint 49">
       <r>    3.5426    1.0000 </r>
       <r>    6.7494    1.0000 </r>
       <r>   11.2175    0.0000 </r>
       <r>   15.6320    0.0000 </r>
       <r>   18.1648    0.0000 </r>
       <r>   26.2948    0.0000 </r>
       <r>   29.0879    0.0000 </r>
       <r>   32.0145    0.0000 </r>
      </set>
      <set comment="kpoint 50">
       <r>    4.6915    1.0000 </r>
       <r>    5.4347    1.0000 </r>
       <r>   10.5344    1.0000 </r>
       <r>   16.1257    0.0000 </r>
       <r>   18.7272    0.0000 </r>
       <r>   28.5025    0.0000 </r>
       <r>   28.6105    0.0000 </r>
       <r>   31.3953    0.0000 </r>
      </set>
      <set comment="kpoint 51">
       <r>    2.9950    1.0000 </r>
       <r>    7.3952    1.0000 </r>
       <r>   10.1330    1.0000 </r>
       <r>   16.8434    0.0000 </r>
       <r>   19.5267    0.0000 </r>
       <r>   28.1190    0.0000 </r>
       <r>   29.9775    0.0000 </r>
       <r>   30.4667    0.0000 </r>
      </set>
      <set comment="kpoint 52">
       <r>    1.4926    1.0000 </r>
       <r>    9.2487    1.0000 </r>
       <r>   10.3548    1.0000 </r>
       <r>   17.7769    0.0000 </r>
       <r>   20.5514    0.0000 </r>
       <r>   27.7947    0.0000 </r>
       <r>   28.2275    0.0000 </r>
       <r>   29.2499    0.0000 </r>
      </set>
      <set comment="kpoint 53">
       <r>    0.2812    1.0000 </r>
       <r>   12.9660    0.0000 </r>
       <r>   15.0227    0.0000 </r>
       <r>   15.0227    0.0000 </r>
       <r>   16.1578    0.0000 </r>
       <r>   18.8340    0.0000 </r>
       <r>   33.5816    0.0000 </r>
       <r>   34.3895    0.0000 </r>
      </set>
      <set comment="kpoint 54">
       <r>    1.2768    1.0000 </r>
       <r>   11.4652    0.0000 </r>
       <r>   13.0946    0.0000 </r>
       <r>   14.7520    0.0000 </r>
       <r>   16.7213    0.0000 </r>
       <r>   19.3072    0.0000 </r>
       <r>   33.1651    0.0000 </r>
       <r>   34.9229    0.0000 </r>
      </set>
      <set comment="kpoint 55">
       <r>    2.5221    1.0000 </r>
       <r>   10.1493    1.0000 </r>
       <r>   10.7680    0.0171 </r>
       <r>   14.7123    0.0000 </r>
       <r>   17.0262    0.0000 </r>
       <r>   21.1505    0.0000 </r>
       <r>   32.3605    0.0000 </r>
       <r>   34.6956    0.0000 </r>
      </set>
      <set comment="kpoint 56">
       <r>    4.0051    1.0000 </r>
       <r>    8.4009    1.0000 </r>
       <r>    9.2577    1.0000 </r>
       <r>   14.9033    0.0000 </r>
       <r>   17.3323    0.0000 </r>
       <r>   23.5089    0.0000 </r>
       <r>   31.5932    0.0000 </r>
       <r>   34.0075    0.0000 </r>
      </set>
      <set comment="kpoint 57">
       <r>    5.6675    1.0000 </r>
       <r>    6.4194    1.0000 </r>
       <r>    8.4886    1.0000 </r>
       <r>   15.3241    0.0000 </r>
       <r>   17.8351    0.0000 </r>
       <r>   26.0707    0.0000 </r>
       <r>   30.9393    0.0000 </r>
       <r>   33.0242    0.0000 </r>
      </set>
      <set comment="kpoint 58">
       <r>    4.5669    1.0000 </r>
       <r>    7.2541    1.0000 </r>
       <r>    8.3735    1.0000 </r>
       <r>   15.9725    0.0000 </r>
       <r>   18.5675    0.0000 </r>
       <r>   28.6429    0.0000 </r>
       <r>   30.1859    0.0000 </r>
       <r>   31.1103    0.0000 </r>
      </set>
      <set comment="kpoint 59">
       <r>    2.1791    1.0000 </r>
       <r>    9.8800    1.0000 </r>
       <r>   14.4044    0.0000 </r>
       <r>   14.4044    0.0000 </r>
       <r>   15.4596    0.0000 </r>
       <r>   18.1762    0.0000 </r>
       <r>   34.8663    0.0000 </r>
       <r>   36.2011    0.0000 </r>
      </set>
      <set comment="kpoint 60">
       <r>    3.3260    1.0000 </r>
       <r>    8.5215    1.0000 </r>
       <r>   12.5983    0.0000 </r>
       <r>   14.2881    0.0000 </r>
       <r>   16.2095    0.0000 </r>
       <r>   18.8319    0.0000 </r>
       <r>   34.6458    0.0000 </r>
       <r>   36.4686    0.0000 </r>
      </set>
      <set comment="kpoint 61">
       <r>    4.6883    1.0000 </r>
       <r>    7.4315    1.0000 </r>
       <r>   10.3835    1.0000 </r>
       <r>   14.4031    0.0000 </r>
       <r>   16.6853    0.0000 </r>
       <r>   20.8477    0.0000 </r>
       <r>   33.9584    0.0000 </r>
       <r>   35.8447    0.0000 </r>
      </set>
      <set comment="kpoint 62">
       <r>    5.9225    1.0000 </r>
       <r>    6.9297    1.0000 </r>
       <r>    8.3416    1.0000 </r>
       <r>   14.7489    0.0000 </r>
       <r>   17.1637    0.0000 </r>
       <r>   23.3672    0.0000 </r>
       <r>   32.9804    0.0000 </r>
       <r>   34.3269    0.0000 </r>
      </set>
      <set comment="kpoint 63">
       <r>    4.3510    1.0000 </r>
       <r>    7.1013    1.0000 </r>
       <r>   14.0951    0.0000 </r>
       <r>   14.0951    0.0000 </r>
       <r>   15.1089    0.0000 </r>
       <r>   17.8490    0.0000 </r>
       <r>   35.7923    0.0000 </r>
       <r>   37.4081    0.0000 </r>
      </set>
      <set comment="kpoint 64">
       <r>    5.2565    1.0000 </r>
       <r>    6.2874    1.0000 </r>
       <r>   12.4344    0.0000 </r>
       <r>   14.1335    0.0000 </r>
       <r>   16.0388    0.0000 </r>
       <r>   18.6731    0.0000 </r>
       <r>   35.4735    0.0000 </r>
       <r>   37.0915    0.0000 </r>
      </set>
      <set comment="kpoint 65">
       <r>   -3.2268    1.0000 </r>
       <r>   17.0737    0.0000 </r>
       <r>   17.6079    0.0000 </r>
       <r>   21.7646    0.0000 </r>
       <r>   22.0605    0.0000 </r>
       <r>   25.0641    0.0000 </r>
       <r>   26.6100    0.0000 </r>
       <r>   26.9996    0.0000 </r>
      </set>
      <set comment="kpoint 66">
       <r>   -2.5644    1.0000 </r>
       <r>   14.4414    0.0000 </r>
       <r>   16.8252    0.0000 </r>
       <r>   21.0354    0.0000 </r>
       <r>   22.5083    0.0000 </r>
       <r>   24.6759    0.0000 </r>
       <r>   26.8093    0.0000 </r>
       <r>   27.0503    0.0000 </r>
      </set>
      <set comment="kpoint 67">
       <r>   -1.6409    1.0000 </r>
       <r>   11.7046    0.0000 </r>
       <r>   16.4579    0.0000 </r>
       <r>   20.1109    0.0000 </r>
       <r>   22.0366    0.0000 </r>
       <r>   25.3399    0.0000 </r>
       <r>   26.2422    0.0000 </r>
       <r>   27.4130    0.0000 </r>
      </set>
      <set comment="kpoint 68">
       <r>   -0.4603    1.0000 </r>
       <r>    9.1290    1.0000 </r>
       <r>   16.3289    0.0000 </r>
       <r>   19.1065    0.0000 </r>
       <r>   21.7337    0.0000 </r>
       <r>   24.4983    0.0000 </r>
       <r>   26.5934    0.0000 </r>
       <r>   28.8086    0.0000 </r>
      </set>
      <set comment="kpoint 69">
       <r>    0.9714    1.0000 </r>
       <r>    6.7565    1.0000 </r>
       <r>   16.4256    0.0000 </r>
       <r>   18.1848    0.0000 </r>
       <r>   21.7268    0.0000 </r>
       <r>   23.5790    0.0000 </r>
       <r>   26.7696    0.0000 </r>
       <r>   30.2057    0.0000 </r>
      </set>
      <set comment="kpoint 70">
       <r>    2.6347    1.0000 </r>
       <r>    4.6201    1.0000 </r>
       <r>   16.7039    0.0000 </r>
       <r>   17.4785    0.0000 </r>
       <r>   21.9038    0.0000 </r>
       <r>   22.9315    0.0000 </r>
       <r>   26.8793    0.0000 </r>
       <r>   29.9085    0.0000 </r>
      </set>
      <set comment="kpoint 71">
       <r>   -2.3439    1.0000 </r>
       <r>   15.4748    0.0000 </r>
       <r>   16.1038    0.0000 </r>
       <r>   19.6459    0.0000 </r>
       <r>   20.5539    0.0000 </r>
       <r>   22.5010    0.0000 </r>
       <r>   28.6003    0.0000 </r>
       <r>   29.2754    0.0000 </r>
      </set>
      <set comment="kpoint 72">
       <r>   -1.5090    1.0000 </r>
       <r>   12.9885    0.0000 </r>
       <r>   15.4346    0.0000 </r>
       <r>   18.3691    0.0000 </r>
       <r>   20.7835    0.0000 </r>
       <r>   23.2816    0.0000 </r>
       <r>   27.8228    0.0000 </r>
       <r>   29.7382    0.0000 </r>
      </set>
      <set comment="kpoint 73">
       <r>   -0.4160    1.0000 </r>
       <r>   10.3898    1.0000 </r>
       <r>   15.2071    0.0000 </r>
       <r>   17.1096    0.0000 </r>
       <r>   20.6638    0.0000 </r>
       <r>   24.9814    0.0000 </r>
       <r>   26.8632    0.0000 </r>
       <r>   29.8852    0.0000 </r>
      </set>
      <set comment="kpoint 74">
       <r>    0.9298    1.0000 </r>
       <r>    7.9620    1.0000 </r>
       <r>   15.1884    0.0000 </r>
       <r>   16.0532    0.0000 </r>
       <r>   20.7066    0.0000 </r>
       <r>   25.5137    0.0000 </r>
       <r>   27.2817    0.0000 </r>
       <r>   30.0949    0.0000 </r>
      </set>
      <set comment="kpoint 75">
       <r>    2.5178    1.0000 </r>
       <r>    5.7488    1.0000 </r>
       <r>   14.9429    0.0000 </r>
       <r>   15.6711    0.0000 </r>
       <r>   20.9739    0.0000 </r>
       <r>   24.7978    0.0000 </r>
       <r>   28.5237    0.0000 </r>
       <r>   30.8742    0.0000 </r>
      </set>
      <set comment="kpoint 76">
       <r>    3.6593    1.0000 </r>
       <r>    4.4496    1.0000 </r>
       <r>   14.3437    0.0000 </r>
       <r>   16.1047    0.0000 </r>
       <r>   21.4632    0.0000 </r>
       <r>   24.2115    0.0000 </r>
       <r>   28.7384    0.0000 </r>
       <r>   32.0372    0.0000 </r>
      </set>
      <set comment="kpoint 77">
       <r>    1.9632    1.0000 </r>
       <r>    6.4569    1.0000 </r>
       <r>   13.9239    0.0000 </r>
       <r>   16.8246    0.0000 </r>
       <r>   22.1439    0.0000 </r>
       <r>   23.8652    0.0000 </r>
       <r>   28.4630    0.0000 </r>
       <r>   30.7989    0.0000 </r>
      </set>
      <set comment="kpoint 78">
       <r>    0.4535    1.0000 </r>
       <r>    8.7395    1.0000 </r>
       <r>   13.7403    0.0000 </r>
       <r>   17.7708    0.0000 </r>
       <r>   22.8903    0.0000 </r>
       <r>   23.8704    0.0000 </r>
       <r>   27.6100    0.0000 </r>
       <r>   29.2580    0.0000 </r>
      </set>
      <set comment="kpoint 79">
       <r>   -0.8089    1.0000 </r>
       <r>   11.2063    0.0000 </r>
       <r>   13.8197    0.0000 </r>
       <r>   18.9116    0.0000 </r>
       <r>   23.3676    0.0000 </r>
       <r>   24.3925    0.0000 </r>
       <r>   26.0537    0.0000 </r>
       <r>   28.6229    0.0000 </r>
      </set>
      <set comment="kpoint 80">
       <r>   -1.8163    1.0000 </r>
       <r>   13.5393    0.0000 </r>
       <r>   14.4461    0.0000 </r>
       <r>   20.1713    0.0000 </r>
       <r>   23.3479    0.0000 </r>
       <r>   24.2025    0.0000 </r>
       <r>   25.9960    0.0000 </r>
       <r>   28.0285    0.0000 </r>
      </set>
      <set comment="kpoint 81">
       <r>   -1.1144    1.0000 </r>
       <r>   14.1802    0.0000 </r>
       <r>   14.8425    0.0000 </r>
       <r>   16.5092    0.0000 </r>
       <r>   19.2753    0.0000 </r>
       <r>   21.0488    0.0000 </r>
       <r>   29.9817    0.0000 </r>
       <r>   31.8824    0.0000 </r>
      </set>
      <set comment="kpoint 82">
       <r>   -0.1105    1.0000 </r>
       <r>   11.8433    0.0000 </r>
       <r>   14.2716    0.0000 </r>
       <r>   15.1422    0.0000 </r>
       <r>   19.6332    0.0000 </r>
       <r>   22.2688    0.0000 </r>
       <r>   29.0875    0.0000 </r>
       <r>   32.3332    0.0000 </r>
      </set>
      <set comment="kpoint 83">
       <r>    1.1470    1.0000 </r>
       <r>    9.3943    1.0000 </r>
       <r>   13.7059    0.0000 </r>
       <r>   14.4166    0.0000 </r>
       <r>   19.7158    0.0000 </r>
       <r>   24.2843    0.0000 </r>
       <r>   28.1477    0.0000 </r>
       <r>   32.2621    0.0000 </r>
      </set>
      <set comment="kpoint 84">
       <r>    2.6504    1.0000 </r>
       <r>    7.1239    1.0000 </r>
       <r>   12.7724    0.0000 </r>
       <r>   14.5361    0.0000 </r>
       <r>   19.9517    0.0000 </r>
       <r>   26.2966    0.0000 </r>
       <r>   27.5589    0.0000 </r>
       <r>   31.9072    0.0000 </r>
      </set>
      <set comment="kpoint 85">
       <r>    4.3441    1.0000 </r>
       <r>    5.1174    1.0000 </r>
       <r>   12.0194    0.0000 </r>
       <r>   14.9554    0.0000 </r>
       <r>   20.4044    0.0000 </r>
       <r>   26.3841    0.0000 </r>
       <r>   29.0308    0.0000 </r>
       <r>   31.2686    0.0000 </r>
      </set>
      <set comment="kpoint 86">
       <r>    3.2052    1.0000 </r>
       <r>    6.4012    1.0000 </r>
       <r>   11.5079    0.0000 </r>
       <r>   15.6193    0.0000 </r>
       <r>   21.0791    0.0000 </r>
       <r>   25.9658    0.0000 </r>
       <r>   29.8092    0.0000 </r>
       <r>   30.6868    0.0000 </r>
      </set>
      <set comment="kpoint 87">
       <r>    1.6217    1.0000 </r>
       <r>    8.5616    1.0000 </r>
       <r>   11.2727    0.0000 </r>
       <r>   16.5147    0.0000 </r>
       <r>   21.9618    0.0000 </r>
       <r>   25.7012    0.0000 </r>
       <r>   27.8619    0.0000 </r>
       <r>   30.6355    0.0000 </r>
      </set>
      <set comment="kpoint 88">
       <r>    0.2804    1.0000 </r>
       <r>   10.5752    0.9996 </r>
       <r>   11.6437    0.0000 </r>
       <r>   17.6257    0.0000 </r>
       <r>   23.0038    0.0000 </r>
       <r>   25.2955    0.0000 </r>
       <r>   26.1297    0.0000 </r>
       <r>   29.8678    0.0000 </r>
      </set>
      <set comment="kpoint 89">
       <r>    0.4547    1.0000 </r>
       <r>   13.0627    0.0000 </r>
       <r>   13.2028    0.0000 </r>
       <r>   14.0647    0.0000 </r>
       <r>   18.2959    0.0000 </r>
       <r>   20.1018    0.0000 </r>
       <r>   31.4372    0.0000 </r>
       <r>   34.2208    0.0000 </r>
      </set>
      <set comment="kpoint 90">
       <r>    1.6218    1.0000 </r>
       <r>   10.9940    0.0000 </r>
       <r>   11.8322    0.0000 </r>
       <r>   13.6125    0.0000 </r>
       <r>   18.8219    0.0000 </r>
       <r>   21.5375    0.0000 </r>
       <r>   30.6019    0.0000 </r>
       <r>   34.4518    0.0000 </r>
      </set>
      <set comment="kpoint 91">
       <r>    3.0349    1.0000 </r>
       <r>    8.7187    1.0000 </r>
       <r>   10.7287    0.1571 </r>
       <r>   13.6922    0.0000 </r>
       <r>   19.0794    0.0000 </r>
       <r>   23.7561    0.0000 </r>
       <r>   29.7665    0.0000 </r>
       <r>   33.8510    0.0000 </r>
      </set>
      <set comment="kpoint 92">
       <r>    4.6744    1.0000 </r>
       <r>    6.6205    1.0000 </r>
       <r>    9.8765    1.0000 </r>
       <r>   14.0396    0.0000 </r>
       <r>   19.4867    0.0000 </r>
       <r>   26.1807    0.0000 </r>
       <r>   29.0964    0.0000 </r>
       <r>   32.5100    0.0000 </r>
      </set>
      <set comment="kpoint 93">
       <r>    4.6882    1.0000 </r>
       <r>    6.5644    1.0000 </r>
       <r>    9.3066    1.0000 </r>
       <r>   14.6319    0.0000 </r>
       <r>   20.1066    0.0000 </r>
       <r>   28.0536    0.0000 </r>
       <r>   29.1197    0.0000 </r>
       <r>   30.5025    0.0000 </r>
      </set>
      <set comment="kpoint 94">
       <r>    3.0385    1.0000 </r>
       <r>    8.2521    1.0000 </r>
       <r>    9.3653    1.0000 </r>
       <r>   15.4604    0.0000 </r>
       <r>   20.9413    0.0000 </r>
       <r>   27.8472    0.0000 </r>
       <r>   28.1280    0.0000 </r>
       <r>   31.2445    0.0000 </r>
      </set>
      <set comment="kpoint 95">
       <r>    2.3507    1.0000 </r>
       <r>   10.0381    1.0000 </r>
       <r>   12.5488    0.0000 </r>
       <r>   13.3634    0.0000 </r>
       <r>   17.6367    0.0000 </r>
       <r>   19.4810    0.0000 </r>
       <r>   33.0251    0.0000 </r>
       <r>   36.1599    0.0000 </r>
      </set>
      <set comment="kpoint 96">
       <r>    3.6665    1.0000 </r>
       <r>    8.8409    1.0000 </r>
       <r>   10.5596    0.9999 </r>
       <r>   13.1126    0.0000 </r>
       <r>   18.3327    0.0000 </r>
       <r>   21.0917    0.0000 </r>
       <r>   32.3080    0.0000 </r>
       <r>   35.3186    0.0000 </r>
      </set>
      <set comment="kpoint 97">
       <r>    5.1919    1.0000 </r>
       <r>    7.8593    1.0000 </r>
       <r>    8.5000    1.0000 </r>
       <r>   13.3650    0.0000 </r>
       <r>   18.7585    0.0000 </r>
       <r>   23.4808    0.0000 </r>
       <r>   31.5937    0.0000 </r>
       <r>   33.3820    0.0000 </r>
      </set>
      <set comment="kpoint 98">
       <r>    6.3814    1.0000 </r>
       <r>    6.5885    1.0000 </r>
       <r>    7.7348    1.0000 </r>
       <r>   13.8775    0.0000 </r>
       <r>   19.3299    0.0000 </r>
       <r>   26.0880    0.0000 </r>
       <r>   30.9173    0.0000 </r>
       <r>   31.0527    0.0000 </r>
      </set>
      <set comment="kpoint 99">
       <r>    4.5198    1.0000 </r>
       <r>    7.2680    1.0000 </r>
       <r>   12.2212    0.0000 </r>
       <r>   13.0380    0.0000 </r>
       <r>   17.3058    0.0000 </r>
       <r>   19.1696    0.0000 </r>
       <r>   34.5781    0.0000 </r>
       <r>   36.1275    0.0000 </r>
      </set>
      <set comment="kpoint 100">
       <r>    5.5895    1.0000 </r>
       <r>    6.6236    1.0000 </r>
       <r>   10.3864    1.0000 </r>
       <r>   12.9494    0.0000 </r>
       <r>   18.1691    0.0000 </r>
       <r>   20.9419    0.0000 </r>
       <r>   33.8613    0.0000 </r>
       <r>   34.2801    0.0000 </r>
      </set>
      <set comment="kpoint 101">
       <r>   -0.5902    1.0000 </r>
       <r>   12.2263    0.0000 </r>
       <r>   13.1870    0.0000 </r>
       <r>   16.9738    0.0000 </r>
       <r>   22.1527    0.0000 </r>
       <r>   23.2437    0.0000 </r>
       <r>   26.8706    0.0000 </r>
       <r>   30.9615    0.0000 </r>
      </set>
      <set comment="kpoint 102">
       <r>    0.5843    1.0000 </r>
       <r>   10.0512    1.0000 </r>
       <r>   12.6947    0.0000 </r>
       <r>   15.6993    0.0000 </r>
       <r>   22.4825    0.0000 </r>
       <r>   24.5513    0.0000 </r>
       <r>   26.1065    0.0000 </r>
       <r>   31.5333    0.0000 </r>
      </set>
      <set comment="kpoint 103">
       <r>    2.0084    1.0000 </r>
       <r>    7.7377    1.0000 </r>
       <r>   12.7623    0.0000 </r>
       <r>   14.6426    0.0000 </r>
       <r>   22.5981    0.0000 </r>
       <r>   24.5449    0.0000 </r>
       <r>   27.3764    0.0000 </r>
       <r>   31.6263    0.0000 </r>
      </set>
      <set comment="kpoint 104">
       <r>    3.6647    1.0000 </r>
       <r>    5.6232    1.0000 </r>
       <r>   13.0521    0.0000 </r>
       <r>   13.8648    0.0000 </r>
       <r>   22.7875    0.0000 </r>
       <r>   24.0104    0.0000 </r>
       <r>   29.4677    0.0000 </r>
       <r>   31.0956    0.0000 </r>
      </set>
      <set comment="kpoint 105">
       <r>    0.9745    1.0000 </r>
       <r>   11.2373    0.0000 </r>
       <r>   12.1869    0.0000 </r>
       <r>   13.7338    0.0000 </r>
       <r>   21.2090    0.0000 </r>
       <r>   22.4717    0.0000 </r>
       <r>   28.1805    0.0000 </r>
       <r>   33.7217    0.0000 </r>
      </set>
      <set comment="kpoint 106">
       <r>    2.3097    1.0000 </r>
       <r>    9.2190    1.0000 </r>
       <r>   11.8007    0.0000 </r>
       <r>   12.6117    0.0000 </r>
       <r>   21.7528    0.0000 </r>
       <r>   24.1658    0.0000 </r>
       <r>   27.3091    0.0000 </r>
       <r>   33.7513    0.0000 </r>
      </set>
      <set comment="kpoint 107">
       <r>    3.8843    1.0000 </r>
       <r>    7.0674    1.0000 </r>
       <r>   11.4559    0.0000 </r>
       <r>   12.2634    0.0000 </r>
       <r>   22.0869    0.0000 </r>
       <r>   25.7673    0.0000 </r>
       <r>   27.2544    0.0000 </r>
       <r>   32.2017    0.0000 </r>
      </set>
      <set comment="kpoint 108">
       <r>    5.0296    1.0000 </r>
       <r>    5.7670    1.0000 </r>
       <r>   10.8352    0.0000 </r>
       <r>   12.7162    0.0000 </r>
       <r>   22.5798    0.0000 </r>
       <r>   25.5439    0.0000 </r>
       <r>   29.0100    0.0000 </r>
       <r>   30.2888    0.0000 </r>
      </set>
      <set comment="kpoint 109">
       <r>    3.3360    1.0000 </r>
       <r>    7.7275    1.0000 </r>
       <r>   10.4450    1.0000 </r>
       <r>   13.4685    0.0000 </r>
       <r>   23.2324    0.0000 </r>
       <r>   25.1547    0.0000 </r>
       <r>   27.4528    0.0000 </r>
       <r>   31.7729    0.0000 </r>
      </set>
      <set comment="kpoint 110">
       <r>    1.8375    1.0000 </r>
       <r>    9.5812    1.0000 </r>
       <r>   10.6610    0.8185 </r>
       <r>   14.4691    0.0000 </r>
       <r>   23.9144    0.0000 </r>
       <r>   24.4179    0.0000 </r>
       <r>   25.9092    0.0000 </r>
       <r>   32.9821    0.0000 </r>
      </set>
      <set comment="kpoint 111">
       <r>    2.8647    1.0000 </r>
       <r>   10.4716    1.0000 </r>
       <r>   10.5765    0.9995 </r>
       <r>   11.7168    0.0000 </r>
       <r>   20.5681    0.0000 </r>
       <r>   21.9269    0.0000 </r>
       <r>   29.7979    0.0000 </r>
       <r>   34.9214    0.0000 </r>
      </set>
      <set comment="kpoint 112">
       <r>    4.3449    1.0000 </r>
       <r>    8.6900    1.0000 </r>
       <r>    9.5452    1.0000 </r>
       <r>   11.4738    0.0000 </r>
       <r>   21.2964    0.0000 </r>
       <r>   23.8172    0.0000 </r>
       <r>   29.0025    0.0000 </r>
       <r>   32.9050    0.0000 </r>
      </set>
      <set comment="kpoint 113">
       <r>    6.0059    1.0000 </r>
       <r>    6.7383    1.0000 </r>
       <r>    8.8060    1.0000 </r>
       <r>   11.8619    0.0000 </r>
       <r>   21.8037    0.0000 </r>
       <r>   26.1860    0.0000 </r>
       <r>   28.3680    0.0000 </r>
       <r>   30.5455    0.0000 </r>
      </set>
      <set comment="kpoint 114">
       <r>    4.9019    1.0000 </r>
       <r>    7.5871    1.0000 </r>
       <r>    8.6938    1.0000 </r>
       <r>   12.5383    0.0000 </r>
       <r>   22.4622    0.0000 </r>
       <r>   27.2866    0.0000 </r>
       <r>   27.5821    0.0000 </r>
       <r>   29.8396    0.0000 </r>
      </set>
      <set comment="kpoint 115">
       <r>    5.0254    1.0000 </r>
       <r>    7.7622    1.0000 </r>
       <r>   10.2457    1.0000 </r>
       <r>   11.3323    0.0000 </r>
       <r>   20.2451    0.0000 </r>
       <r>   21.6465    0.0000 </r>
       <r>   31.6246    0.0000 </r>
       <r>   33.4999    0.0000 </r>
      </set>
      <set comment="kpoint 116">
       <r>    6.2556    1.0000 </r>
       <r>    7.2682    1.0000 </r>
       <r>    8.6030    1.0000 </r>
       <r>   11.2936    0.0000 </r>
       <r>   21.1421    0.0000 </r>
       <r>   23.6916    0.0000 </r>
       <r>   30.6632    0.0000 </r>
       <r>   31.2672    0.0000 </r>
      </set>
      <set comment="kpoint 117">
       <r>    3.7177    1.0000 </r>
       <r>    8.9176    1.0000 </r>
       <r>    9.9572    1.0000 </r>
       <r>   11.4665    0.0000 </r>
       <r>   23.8041    0.0000 </r>
       <r>   24.3667    0.0000 </r>
       <r>   26.6071    0.0000 </r>
       <r>   32.4003    0.0000 </r>
      </set>
      <set comment="kpoint 118">
       <r>    5.3523    1.0000 </r>
       <r>    7.2269    1.0000 </r>
       <r>    9.8582    1.0000 </r>
       <r>   10.6698    0.7454 </r>
       <r>   24.2665    0.0000 </r>
       <r>   25.3143    0.0000 </r>
       <r>   27.1215    0.0000 </r>
       <r>   30.0941    0.0000 </r>
      </set>
      <set comment="kpoint 119">
       <r>    5.8636    1.0000 </r>
       <r>    8.5268    1.0000 </r>
       <r>    8.5856    1.0000 </r>
       <r>    9.8202    1.0000 </r>
       <r>   23.4921    0.0000 </r>
       <r>   24.3257    0.0000 </r>
       <r>   28.2030    0.0000 </r>
       <r>   30.5121    0.0000 </r>
      </set>
      <set comment="kpoint 120">
       <r>    7.0109    1.0000 </r>
       <r>    7.2545    1.0000 </r>
       <r>    8.3186    1.0000 </r>
       <r>    9.8927    1.0000 </r>
       <r>   24.3062    0.0000 </r>
       <r>   26.2206    0.0000 </r>
       <r>   26.9942    0.0000 </r>
       <r>   28.8898    0.0000 </r>
      </set>
     </set>
    </set>
   </array>
  </eigenvalues>
  <separator name="orbital magnetization" >
   <v name="MAGDIPOLOUT">      0.00000000      0.00000000      0.00000000</v>
  </separator>
  <dos>
   <i name="efermi">     10.69315420 </i>
   <total>
    <array>
     <dimension dim="1">gridpoints</dimension>
     <dimension dim="2">spin</dimension>
     <field>energy</field>
     <field>total</field>
     <field>integrated</field>
     <set>
      <set comment="spin 1">
       <r>    -6.1896     0.0000     0.0000 </r>
       <r>    -6.0373     0.0000     0.0000 </r>
       <r>    -5.8851     0.0000     0.0000 </r>
       <r>    -5.7328     0.0000     0.0000 </r>
       <r>    -5.5806     0.0000     0.0000 </r>
       <r>    -5.4283     0.0000     0.0000 </r>
       <r>    -5.2761     0.0000     0.0000 </r>
       <r>    -5.1238     0.0000     0.0000 </r>
       <r>    -4.9716     0.0000     0.0000 </r>
       <r>    -4.8193     0.0000     0.0000 </r>
       <r>    -4.6671     0.0000     0.0000 </r>
       <r>    -4.5149     0.0000     0.0000 </r>
       <r>    -4.3626     0.0000     0.0000 </r>
       <r>    -4.2104     0.0000     0.0000 </r>
       <r>    -4.0581     0.0041     0.0006 </r>
       <r>    -3.9059     0.0491     0.0081 </r>
       <r>    -3.7536     0.0310     0.0128 </r>
       <r>    -3.6014     0.0998     0.0280 </r>
       <r>    -3.4491     0.0479     0.0353 </r>
       <r>    -3.2969     0.0450     0.0422 </r>
       <r>    -3.1446     0.1623     0.0669 </r>
       <r>    -2.9924     0.0913     0.0808 </r>
       <r>    -2.8402     0.1255     0.0999 </r>
       <r>    -2.6879     0.0298     0.1044 </r>
       <r>    -2.5357     0.2056     0.1357 </r>
       <r>    -2.3834     0.1290     0.1554 </r>
       <r>    -2.2312     0.1121     0.1724 </r>
       <r>    -2.0789     0.1555     0.1961 </r>
       <r>    -1.9267     0.0362     0.2016 </r>
       <r>    -1.7744     0.2631     0.2417 </r>
       <r>    -1.6222     0.1438     0.2636 </r>
       <r>    -1.4699     0.2983     0.3090 </r>
       <r>    -1.3177     0.0423     0.3154 </r>
       <r>    -1.1655     0.0725     0.3265 </r>
       <r>    -1.0132     0.2284     0.3612 </r>
       <r>    -0.8610     0.1518     0.3843 </r>
       <r>    -0.7087     0.2919     0.4288 </r>
       <r>    -0.5565     0.0839     0.4416 </r>
       <r>    -0.4042     0.3968     0.5020 </r>
       <r>    -0.2520     0.1227     0.5207 </r>
       <r>    -0.0997     0.1718     0.5468 </r>
       <r>     0.0525     0.0773     0.5586 </r>
       <r>     0.2048     0.1414     0.5801 </r>
       <r>     0.3570     0.3418     0.6321 </r>
       <r>     0.5093     0.2698     0.6732 </r>
       <r>     0.6615     0.3918     0.7329 </r>
       <r>     0.8137     0.0246     0.7366 </r>
       <r>     0.9660     0.2781     0.7790 </r>
       <r>     1.1182     0.2277     0.8136 </r>
       <r>     1.2705     0.2337     0.8492 </r>
       <r>     1.4227     0.1023     0.8648 </r>
       <r>     1.5750     0.0916     0.8787 </r>
       <r>     1.7272     0.6009     0.9702 </r>
       <r>     1.8795     0.1785     0.9974 </r>
       <r>     2.0317     0.4270     1.0624 </r>
       <r>     2.1840     0.1260     1.0815 </r>
       <r>     2.3362     0.2508     1.1197 </r>
       <r>     2.4884     0.1607     1.1442 </r>
       <r>     2.6407     0.4055     1.2059 </r>
       <r>     2.7929     0.1965     1.2359 </r>
       <r>     2.9452     0.1246     1.2548 </r>
       <r>     3.0974     0.4223     1.3191 </r>
       <r>     3.2497     0.1889     1.3479 </r>
       <r>     3.4019     0.5599     1.4331 </r>
       <r>     3.5542     0.0694     1.4437 </r>
       <r>     3.7064     0.5679     1.5301 </r>
       <r>     3.8587     0.2560     1.5691 </r>
       <r>     4.0109     0.1974     1.5992 </r>
       <r>     4.1631     0.1253     1.6182 </r>
       <r>     4.3154     0.1145     1.6357 </r>
       <r>     4.4676     0.4586     1.7055 </r>
       <r>     4.6199     0.3010     1.7513 </r>
       <r>     4.7721     0.6328     1.8477 </r>
       <r>     4.9244     0.0734     1.8589 </r>
       <r>     5.0766     0.3490     1.9120 </r>
       <r>     5.2289     0.4126     1.9748 </r>
       <r>     5.3811     0.4138     2.0378 </r>
       <r>     5.5334     0.2091     2.0697 </r>
       <r>     5.6856     0.3407     2.1215 </r>
       <r>     5.8378     0.5016     2.1979 </r>
       <r>     5.9901     0.1924     2.2272 </r>
       <r>     6.1423     0.1887     2.2559 </r>
       <r>     6.2946     0.1404     2.2773 </r>
       <r>     6.4468     0.4586     2.3471 </r>
       <r>     6.5991     0.4520     2.4159 </r>
       <r>     6.7513     0.5243     2.4958 </r>
       <r>     6.9036     0.2265     2.5302 </r>
       <r>     7.0558     0.1966     2.5602 </r>
       <r>     7.2081     0.4057     2.6219 </r>
       <r>     7.3603     0.5557     2.7065 </r>
       <r>     7.5126     0.3492     2.7597 </r>
       <r>     7.6648     0.1832     2.7876 </r>
       <r>     7.8170     0.5758     2.8753 </r>
       <r>     7.9693     0.2836     2.9184 </r>
       <r>     8.1215     0.1496     2.9412 </r>
       <r>     8.2738     0.1013     2.9567 </r>
       <r>     8.4260     0.3235     3.0059 </r>
       <r>     8.5783     0.7057     3.1133 </r>
       <r>     8.7305     0.6385     3.2105 </r>
       <r>     8.8828     0.6135     3.3040 </r>
       <r>     9.0350     0.1932     3.3334 </r>
       <r>     9.1873     0.2160     3.3663 </r>
       <r>     9.3395     0.4833     3.4398 </r>
       <r>     9.4917     0.2935     3.4845 </r>
       <r>     9.6440     0.2652     3.5249 </r>
       <r>     9.7962     0.2748     3.5667 </r>
       <r>     9.9485     0.6198     3.6611 </r>
       <r>    10.1007     0.4304     3.7266 </r>
       <r>    10.2530     0.2501     3.7647 </r>
       <r>    10.4052     0.3684     3.8208 </r>
       <r>    10.5575     0.5900     3.9106 </r>
       <r>    10.7097     0.6496     4.0095 </r>
       <r>    10.8620     0.3993     4.0703 </r>
       <r>    11.0142     0.2665     4.1109 </r>
       <r>    11.1664     0.0877     4.1242 </r>
       <r>    11.3187     0.6419     4.2219 </r>
       <r>    11.4709     0.5393     4.3040 </r>
       <r>    11.6232     0.4330     4.3700 </r>
       <r>    11.7754     0.3974     4.4305 </r>
       <r>    11.9277     0.7256     4.5409 </r>
       <r>    12.0799     0.1972     4.5710 </r>
       <r>    12.2322     0.3290     4.6210 </r>
       <r>    12.3844     0.3816     4.6791 </r>
       <r>    12.5367     0.3569     4.7335 </r>
       <r>    12.6889     0.5699     4.8203 </r>
       <r>    12.8412     0.7095     4.9283 </r>
       <r>    12.9934     0.3136     4.9760 </r>
       <r>    13.1456     0.7065     5.0836 </r>
       <r>    13.2979     0.2636     5.1237 </r>
       <r>    13.4501     0.5405     5.2060 </r>
       <r>    13.6024     0.3431     5.2582 </r>
       <r>    13.7546     0.7335     5.3699 </r>
       <r>    13.9069     0.6789     5.4733 </r>
       <r>    14.0591     0.3561     5.5275 </r>
       <r>    14.2114     0.3127     5.5751 </r>
       <r>    14.3636     0.5427     5.6577 </r>
       <r>    14.5159     0.7607     5.7735 </r>
       <r>    14.6681     0.4721     5.8454 </r>
       <r>    14.8203     0.3992     5.9062 </r>
       <r>    14.9726     0.5041     5.9829 </r>
       <r>    15.1248     0.4498     6.0514 </r>
       <r>    15.2771     0.7817     6.1704 </r>
       <r>    15.4293     0.5248     6.2503 </r>
       <r>    15.5816     0.4099     6.3127 </r>
       <r>    15.7338     0.5925     6.4029 </r>
       <r>    15.8861     0.1279     6.4224 </r>
       <r>    16.0383     0.2305     6.4575 </r>
       <r>    16.1906     0.7187     6.5669 </r>
       <r>    16.3428     0.4331     6.6328 </r>
       <r>    16.4950     0.6365     6.7297 </r>
       <r>    16.6473     0.5593     6.8149 </r>
       <r>    16.7995     0.4580     6.8846 </r>
       <r>    16.9518     0.3971     6.9451 </r>
       <r>    17.1040     0.3577     6.9995 </r>
       <r>    17.2563     0.5107     7.0773 </r>
       <r>    17.4085     0.3463     7.1300 </r>
       <r>    17.5608     0.3651     7.1856 </r>
       <r>    17.7130     0.5878     7.2751 </r>
       <r>    17.8653     0.6724     7.3775 </r>
       <r>    18.0175     0.3257     7.4270 </r>
       <r>    18.1697     0.3538     7.4809 </r>
       <r>    18.3220     0.4484     7.5492 </r>
       <r>    18.4742     0.7190     7.6586 </r>
       <r>    18.6265     0.2591     7.6981 </r>
       <r>    18.7787     0.5989     7.7893 </r>
       <r>    18.9310     0.7802     7.9080 </r>
       <r>    19.0832     0.4377     7.9747 </r>
       <r>    19.2355     0.6395     8.0720 </r>
       <r>    19.3877     0.3975     8.1325 </r>
       <r>    19.5400     0.3369     8.1838 </r>
       <r>    19.6922     0.7039     8.2910 </r>
       <r>    19.8445     0.4823     8.3644 </r>
       <r>    19.9967     0.4147     8.4276 </r>
       <r>    20.1489     0.8435     8.5560 </r>
       <r>    20.3012     0.4567     8.6255 </r>
       <r>    20.4534     0.2681     8.6663 </r>
       <r>    20.6057     0.3026     8.7124 </r>
       <r>    20.7579     0.7029     8.8194 </r>
       <r>    20.9102     0.4303     8.8849 </r>
       <r>    21.0624     0.7885     9.0050 </r>
       <r>    21.2147     0.9015     9.1422 </r>
       <r>    21.3669     0.5065     9.2193 </r>
       <r>    21.5192     0.3006     9.2651 </r>
       <r>    21.6714     0.3886     9.3243 </r>
       <r>    21.8236     1.0851     9.4895 </r>
       <r>    21.9759     0.6245     9.5845 </r>
       <r>    22.1281     0.7129     9.6931 </r>
       <r>    22.2804     0.4757     9.7655 </r>
       <r>    22.4326     0.2801     9.8082 </r>
       <r>    22.5849     0.9427     9.9517 </r>
       <r>    22.7371     0.5374    10.0335 </r>
       <r>    22.8894     0.2971    10.0787 </r>
       <r>    23.0416     0.4218    10.1429 </r>
       <r>    23.1939     0.4654    10.2138 </r>
       <r>    23.3461     0.6562    10.3137 </r>
       <r>    23.4983     0.5417    10.3962 </r>
       <r>    23.6506     0.3482    10.4492 </r>
       <r>    23.8028     0.4175    10.5127 </r>
       <r>    23.9551     1.1384    10.6861 </r>
       <r>    24.1073     0.4830    10.7596 </r>
       <r>    24.2596     0.8666    10.8915 </r>
       <r>    24.4118     0.9446    11.0353 </r>
       <r>    24.5641     0.7529    11.1500 </r>
       <r>    24.7163     0.3932    11.2098 </r>
       <r>    24.8686     0.2323    11.2452 </r>
       <r>    25.0208     0.6859    11.3496 </r>
       <r>    25.1731     0.4367    11.4161 </r>
       <r>    25.3253     0.5370    11.4979 </r>
       <r>    25.4775     0.8844    11.6325 </r>
       <r>    25.6298     0.4044    11.6941 </r>
       <r>    25.7820     0.5336    11.7753 </r>
       <r>    25.9343     0.3740    11.8323 </r>
       <r>    26.0865     0.8451    11.9609 </r>
       <r>    26.2388     1.2974    12.1584 </r>
       <r>    26.3910     0.6015    12.2500 </r>
       <r>    26.5433     0.2492    12.2879 </r>
       <r>    26.6955     0.7028    12.3949 </r>
       <r>    26.8478     0.8182    12.5195 </r>
       <r>    27.0000     0.5375    12.6013 </r>
       <r>    27.1522     0.6382    12.6985 </r>
       <r>    27.3045     0.7754    12.8166 </r>
       <r>    27.4567     0.7947    12.9375 </r>
       <r>    27.6090     0.4641    13.0082 </r>
       <r>    27.7612     0.1485    13.0308 </r>
       <r>    27.9135     0.5803    13.1191 </r>
       <r>    28.0657     0.4617    13.1894 </r>
       <r>    28.2180     0.9557    13.3349 </r>
       <r>    28.3702     0.6231    13.4298 </r>
       <r>    28.5225     0.7624    13.5459 </r>
       <r>    28.6747     0.6605    13.6464 </r>
       <r>    28.8269     0.4286    13.7117 </r>
       <r>    28.9792     0.3954    13.7719 </r>
       <r>    29.1314     1.0485    13.9315 </r>
       <r>    29.2837     0.5343    14.0129 </r>
       <r>    29.4359     0.2106    14.0449 </r>
       <r>    29.5882     0.1608    14.0694 </r>
       <r>    29.7404     0.1740    14.0959 </r>
       <r>    29.8927     0.9409    14.2391 </r>
       <r>    30.0449     0.4734    14.3112 </r>
       <r>    30.1972     0.5316    14.3921 </r>
       <r>    30.3494     0.3286    14.4422 </r>
       <r>    30.5016     0.3242    14.4915 </r>
       <r>    30.6539     1.0640    14.6535 </r>
       <r>    30.8061     0.7388    14.7660 </r>
       <r>    30.9584     0.5940    14.8564 </r>
       <r>    31.1106     0.4142    14.9195 </r>
       <r>    31.2629     0.2798    14.9621 </r>
       <r>    31.4151     0.2763    15.0042 </r>
       <r>    31.5674     0.3297    15.0544 </r>
       <r>    31.7196     0.6145    15.1479 </r>
       <r>    31.8719     0.2437    15.1850 </r>
       <r>    32.0241     0.3471    15.2378 </r>
       <r>    32.1764     0.2877    15.2817 </r>
       <r>    32.3286     0.6040    15.3736 </r>
       <r>    32.4808     0.3683    15.4297 </r>
       <r>    32.6331     0.2349    15.4654 </r>
       <r>    32.7853     0.0081    15.4667 </r>
       <r>    32.9376     0.2340    15.5023 </r>
       <r>    33.0898     0.4618    15.5726 </r>
       <r>    33.2421     0.0968    15.5873 </r>
       <r>    33.3943     0.1203    15.6057 </r>
       <r>    33.5466     0.1564    15.6295 </r>
       <r>    33.6988     0.0654    15.6394 </r>
       <r>    33.8511     0.3725    15.6961 </r>
       <r>    34.0033     0.2772    15.7383 </r>
       <r>    34.1555     0.0637    15.7480 </r>
       <r>    34.3078     0.1769    15.7750 </r>
       <r>    34.4600     0.1870    15.8034 </r>
       <r>    34.6123     0.1715    15.8295 </r>
       <r>    34.7645     0.1832    15.8574 </r>
       <r>    34.9168     0.1061    15.8736 </r>
       <r>    35.0690     0.1065    15.8898 </r>
       <r>    35.2213     0.0006    15.8899 </r>
       <r>    35.3735     0.1751    15.9165 </r>
       <r>    35.5258     0.0546    15.9248 </r>
       <r>    35.6780     0.0033    15.9253 </r>
       <r>    35.8302     0.0519    15.9332 </r>
       <r>    35.9825     0.0648    15.9431 </r>
       <r>    36.1347     0.0773    15.9549 </r>
       <r>    36.2870     0.1327    15.9751 </r>
       <r>    36.4392     0.0191    15.9780 </r>
       <r>    36.5915     0.0744    15.9893 </r>
       <r>    36.7437     0.0000    15.9893 </r>
       <r>    36.8960     0.0000    15.9893 </r>
       <r>    37.0482     0.0052    15.9901 </r>
       <r>    37.2005     0.0415    15.9964 </r>
       <r>    37.3527     0.0014    15.9967 </r>
       <r>    37.5050     0.0219    16.0000 </r>
       <r>    37.6572     0.0001    16.0000 </r>
       <r>    37.8094     0.0000    16.0000 </r>
       <r>    37.9617     0.0000    16.0000 </r>
       <r>    38.1139     0.0000    16.0000 </r>
       <r>    38.2662     0.0000    16.0000 </r>
       <r>    38.4184     0.0000    16.0000 </r>
       <r>    38.5707     0.0000    16.0000 </r>
       <r>    38.7229     0.0000    16.0000 </r>
       <r>    38.8752     0.0000    16.0000 </r>
       <r>    39.0274     0.0000    16.0000 </r>
       <r>    39.1797     0.0000    16.0000 </r>
       <r>    39.3319     0.0000    16.0000 </r>
       <r>    39.4841     0.0000    16.0000 </r>
      </set>
     </set>
    </array>
   </total>
  </dos>
 </calculation>
 <structure name="finalpos" >
  <crystal>
   <varray name="basis" >
    <v>       2.33565803       0.00000000       1.34849166 </v>
    <v>       0.77855267       2.20207928       1.34849166 </v>
    <v>       0.00000000       0.00000000       2.69698531 </v>
   </varray>
   <i name="volume">     13.87141568 </i>
   <varray name="rec_basis" >
    <v>       0.42814487      -0.15137209       0.00000000 </v>
    <v>       0.00000000       0.45411626       0.00000000 </v>
    <v>      -0.21407228      -0.15137197       0.37078437 </v>
   </varray>
  </crystal>
  <varray name="positions" >
   <v>       0.00000000       0.00000000       0.00000000 </v>
  </varray>
 </structure>
</modeling>
