unknown system                          
           1
     2.335658    0.000000    1.348492
     0.778553    2.202079    1.348492
     0.000000    0.000000    2.696985
   Si
     1
Direct configuration=     1
   0.00000000  0.00000000  0.00000000
