   2   2   0   0
  0.2016476E+02  0.3849278E-09  0.3849279E-09  0.3849278E-09  0.5000000E-15
  1.000000000000000E-004
  CAR 
 unknown system                          
     16.41251185     -7.27531923  301      5.83441479      1.00000000
     -7.275  0.0000E+00  0.0000E+00
     -7.196  0.0000E+00  0.0000E+00
     -7.117  0.0000E+00  0.0000E+00
     -7.038  0.0000E+00  0.0000E+00
     -6.959  0.0000E+00  0.0000E+00
     -6.881  0.0000E+00  0.0000E+00
     -6.802  0.0000E+00  0.0000E+00
     -6.723  0.0000E+00  0.0000E+00
     -6.644  0.0000E+00  0.0000E+00
     -6.565  0.0000E+00  0.0000E+00
     -6.486  0.1666E-19  0.1316E-20
     -6.407  0.1469E-12  0.1160E-13
     -6.328  0.9711E-08  0.7668E-09
     -6.249  0.6602E-05  0.5221E-06
     -6.170  0.2189E-03  0.1781E-04
     -6.091  0.8657E-03  0.8617E-04
     -6.012  0.1325E-02  0.1908E-03
     -5.933  0.1892E-02  0.3402E-03
     -5.854  0.1402E-02  0.4509E-03
     -5.775  0.2885E-02  0.6787E-03
     -5.696  0.2505E-02  0.8765E-03
     -5.617  0.1835E-02  0.1021E-02
     -5.538  0.3218E-02  0.1275E-02
     -5.459  0.3828E-02  0.1578E-02
     -5.380  0.3162E-02  0.1827E-02
     -5.301  0.2231E-02  0.2004E-02
     -5.222  0.3806E-02  0.2304E-02
     -5.143  0.4794E-02  0.2683E-02
     -5.064  0.5077E-02  0.3084E-02
     -4.985  0.1993E-02  0.3241E-02
     -4.907  0.4240E-02  0.3576E-02
     -4.828  0.5266E-02  0.3992E-02
     -4.749  0.4445E-02  0.4343E-02
     -4.670  0.6119E-02  0.4826E-02
     -4.591  0.5566E-02  0.5265E-02
     -4.512  0.2879E-02  0.5492E-02
     -4.433  0.5368E-02  0.5916E-02
     -4.354  0.6393E-02  0.6421E-02
     -4.275  0.6769E-02  0.6956E-02
     -4.196  0.7771E-02  0.7569E-02
     -4.117  0.6322E-02  0.8068E-02
     -4.038  0.4539E-02  0.8427E-02
     -3.959  0.6073E-02  0.8906E-02
     -3.880  0.1050E-01  0.9735E-02
     -3.801  0.1201E-01  0.1068E-01
     -3.722  0.9575E-02  0.1144E-01
     -3.643  0.4306E-02  0.1178E-01
     -3.564  0.6981E-02  0.1233E-01
     -3.485  0.9273E-02  0.1306E-01
     -3.406  0.8634E-02  0.1374E-01
     -3.327  0.7588E-02  0.1434E-01
     -3.248  0.9280E-02  0.1508E-01
     -3.169  0.2866E-02  0.1530E-01
     -3.090  0.5571E-02  0.1574E-01
     -3.012  0.5925E-02  0.1621E-01
     -2.933  0.1068E-01  0.1705E-01
     -2.854  0.4806E-02  0.1743E-01
     -2.775  0.3281E-02  0.1769E-01
     -2.696  0.2885E-02  0.1792E-01
     -2.617  0.4099E-02  0.1824E-01
     -2.538  0.9189E-02  0.1897E-01
     -2.459  0.3741E-02  0.1926E-01
     -2.380  0.1232E-02  0.1936E-01
     -2.301  0.1892E-02  0.1951E-01
     -2.222  0.1991E-02  0.1967E-01
     -2.143  0.3363E-02  0.1993E-01
     -2.064  0.1524E-02  0.2005E-01
     -1.985  0.1048E-02  0.2014E-01
     -1.906  0.9989E-03  0.2022E-01
     -1.827  0.1181E-02  0.2031E-01
     -1.748  0.1329E-02  0.2041E-01
     -1.669  0.1959E-02  0.2057E-01
     -1.590  0.5111E-02  0.2097E-01
     -1.511  0.6036E-02  0.2145E-01
     -1.432  0.4550E-02  0.2181E-01
     -1.353  0.3028E-02  0.2205E-01
     -1.274  0.3188E-02  0.2230E-01
     -1.195  0.7030E-02  0.2285E-01
     -1.116  0.1886E-01  0.2434E-01
     -1.038  0.1676E-01  0.2567E-01
     -0.959  0.1130E-01  0.2656E-01
     -0.880  0.8048E-02  0.2719E-01
     -0.801  0.6928E-02  0.2774E-01
     -0.722  0.1072E-01  0.2859E-01
     -0.643  0.9408E-02  0.2933E-01
     -0.564  0.3901E-02  0.2964E-01
     -0.485  0.6296E-02  0.3014E-01
     -0.406  0.8549E-02  0.3081E-01
     -0.327  0.2941E-02  0.3104E-01
     -0.248  0.3245E-02  0.3130E-01
     -0.169  0.9039E-02  0.3201E-01
     -0.090  0.4461E-02  0.3237E-01
     -0.011  0.3034E-02  0.3261E-01
      0.068  0.5573E-02  0.3305E-01
      0.147  0.4104E-02  0.3337E-01
      0.226  0.1565E-02  0.3349E-01
      0.305  0.2963E-02  0.3373E-01
      0.384  0.7110E-02  0.3429E-01
      0.463  0.4485E-02  0.3464E-01
      0.542  0.2340E-02  0.3483E-01
      0.621  0.6796E-03  0.3488E-01
      0.700  0.2800E-02  0.3510E-01
      0.779  0.5487E-02  0.3554E-01
      0.858  0.2597E-02  0.3574E-01
      0.936  0.1680E-03  0.3575E-01
      1.015  0.1927E-02  0.3591E-01
      1.094  0.6097E-02  0.3639E-01
      1.173  0.3092E-02  0.3663E-01
      1.252  0.9050E-03  0.3670E-01
      1.331  0.2048E-02  0.3686E-01
      1.410  0.4843E-02  0.3725E-01
      1.489  0.9668E-02  0.3801E-01
      1.568  0.7207E-02  0.3858E-01
      1.647  0.1383E-01  0.3967E-01
      1.726  0.1284E-01  0.4068E-01
      1.805  0.1192E-01  0.4163E-01
      1.884  0.1403E-01  0.4273E-01
      1.963  0.8369E-02  0.4340E-01
      2.042  0.6716E-02  0.4393E-01
      2.121  0.7892E-02  0.4455E-01
      2.200  0.1691E-01  0.4588E-01
      2.279  0.1343E-01  0.4694E-01
      2.358  0.7145E-02  0.4751E-01
      2.437  0.8315E-02  0.4817E-01
      2.516  0.9049E-02  0.4888E-01
      2.595  0.1377E-01  0.4997E-01
      2.674  0.1755E-01  0.5135E-01
      2.753  0.1391E-01  0.5245E-01
      2.831  0.1073E-01  0.5330E-01
      2.910  0.1565E-01  0.5453E-01
      2.989  0.1527E-01  0.5574E-01
      3.068  0.1400E-01  0.5684E-01
      3.147  0.1821E-01  0.5828E-01
      3.226  0.1166E-01  0.5920E-01
      3.305  0.8904E-02  0.5991E-01
      3.384  0.1496E-01  0.6109E-01
      3.463  0.2407E-01  0.6299E-01
      3.542  0.1380E-01  0.6408E-01
      3.621  0.1298E-01  0.6510E-01
      3.700  0.9478E-02  0.6585E-01
      3.779  0.1027E-01  0.6666E-01
      3.858  0.1383E-01  0.6775E-01
      3.937  0.1257E-01  0.6875E-01
      4.016  0.1426E-01  0.6987E-01
      4.095  0.1371E-01  0.7096E-01
      4.174  0.8808E-02  0.7165E-01
      4.253  0.1375E-01  0.7274E-01
      4.332  0.1417E-01  0.7386E-01
      4.411  0.6021E-02  0.7433E-01
      4.490  0.1361E-01  0.7541E-01
      4.569  0.1109E-01  0.7628E-01
      4.648  0.4440E-02  0.7663E-01
      4.727  0.5854E-02  0.7709E-01
      4.805  0.7464E-02  0.7768E-01
      4.884  0.3488E-02  0.7796E-01
      4.963  0.2976E-02  0.7819E-01
      5.042  0.6161E-02  0.7868E-01
      5.121  0.4592E-02  0.7904E-01
      5.200  0.3409E-02  0.7931E-01
      5.279  0.2288E-02  0.7949E-01
      5.358  0.2346E-02  0.7968E-01
      5.437  0.1591E-02  0.7980E-01
      5.516  0.8604E-03  0.7987E-01
      5.595  0.1370E-02  0.7998E-01
      5.674  0.2420E-03  0.8000E-01
      5.753  0.1153E-04  0.8000E-01
      5.832  0.1222E-07  0.8000E-01
      5.911  0.1165E-12  0.8000E-01
      5.990  0.1084E-14  0.8000E-01
      6.069  0.6548E-09  0.8000E-01
      6.148  0.3345E-05  0.8000E-01
      6.227  0.2244E-03  0.8002E-01
      6.306  0.6081E-03  0.8007E-01
      6.385  0.1406E-02  0.8018E-01
      6.464  0.2462E-02  0.8037E-01
      6.543  0.2687E-02  0.8058E-01
      6.622  0.1341E-02  0.8069E-01
      6.701  0.5589E-02  0.8113E-01
      6.779  0.4602E-02  0.8149E-01
      6.858  0.3277E-02  0.8175E-01
      6.937  0.7618E-02  0.8235E-01
      7.016  0.5707E-02  0.8281E-01
      7.095  0.8575E-02  0.8348E-01
      7.174  0.6390E-02  0.8399E-01
      7.253  0.4934E-02  0.8438E-01
      7.332  0.7525E-02  0.8497E-01
      7.411  0.8046E-02  0.8561E-01
      7.490  0.8987E-02  0.8632E-01
      7.569  0.1423E-01  0.8744E-01
      7.648  0.1164E-01  0.8836E-01
      7.727  0.1140E-01  0.8926E-01
      7.806  0.1502E-01  0.9044E-01
      7.885  0.1353E-01  0.9151E-01
      7.964  0.2401E-01  0.9341E-01
      8.043  0.1640E-01  0.9470E-01
      8.122  0.1195E-01  0.9565E-01
      8.201  0.1751E-01  0.9703E-01
      8.280  0.1632E-01  0.9832E-01
      8.359  0.6804E-02  0.9886E-01
      8.438  0.7390E-02  0.9944E-01
      8.517  0.1274E-01  0.1004E+00
      8.596  0.9362E-02  0.1012E+00
      8.674  0.9475E-02  0.1019E+00
      8.753  0.7444E-02  0.1025E+00
      8.832  0.1650E-01  0.1038E+00
      8.911  0.2709E-01  0.1060E+00
      8.990  0.2199E-01  0.1077E+00
      9.069  0.2045E-01  0.1093E+00
      9.148  0.2035E-01  0.1109E+00
      9.227  0.1608E-01  0.1122E+00
      9.306  0.1583E-01  0.1134E+00
      9.385  0.1633E-01  0.1147E+00
      9.464  0.2005E-01  0.1163E+00
      9.543  0.1439E-01  0.1174E+00
      9.622  0.1080E-01  0.1183E+00
      9.701  0.1221E-01  0.1193E+00
      9.780  0.1079E-01  0.1201E+00
      9.859  0.1038E-01  0.1209E+00
      9.938  0.1391E-01  0.1220E+00
     10.017  0.9348E-02  0.1228E+00
     10.096  0.1269E-01  0.1238E+00
     10.175  0.1759E-01  0.1252E+00
     10.254  0.1766E-01  0.1266E+00
     10.333  0.7169E-02  0.1271E+00
     10.412  0.6214E-02  0.1276E+00
     10.491  0.1293E-01  0.1286E+00
     10.570  0.2258E-01  0.1304E+00
     10.648  0.1210E-01  0.1314E+00
     10.727  0.1596E-01  0.1326E+00
     10.806  0.1829E-01  0.1341E+00
     10.885  0.9657E-02  0.1348E+00
     10.964  0.1218E-01  0.1358E+00
     11.043  0.1011E-01  0.1366E+00
     11.122  0.5517E-02  0.1370E+00
     11.201  0.7726E-02  0.1376E+00
     11.280  0.7596E-02  0.1382E+00
     11.359  0.8259E-02  0.1389E+00
     11.438  0.7746E-02  0.1395E+00
     11.517  0.7817E-02  0.1401E+00
     11.596  0.1454E-01  0.1413E+00
     11.675  0.1408E-01  0.1424E+00
     11.754  0.1399E-01  0.1435E+00
     11.833  0.1770E-01  0.1449E+00
     11.912  0.1381E-01  0.1460E+00
     11.991  0.1140E-01  0.1469E+00
     12.070  0.9369E-02  0.1476E+00
     12.149  0.6938E-02  0.1482E+00
     12.228  0.5186E-02  0.1486E+00
     12.307  0.4488E-02  0.1489E+00
     12.386  0.1054E-01  0.1498E+00
     12.465  0.3748E-02  0.1501E+00
     12.543  0.5068E-02  0.1505E+00
     12.622  0.7171E-02  0.1510E+00
     12.701  0.6096E-02  0.1515E+00
     12.780  0.5855E-02  0.1520E+00
     12.859  0.6311E-02  0.1525E+00
     12.938  0.9020E-02  0.1532E+00
     13.017  0.5575E-02  0.1536E+00
     13.096  0.1497E-01  0.1548E+00
     13.175  0.9478E-02  0.1556E+00
     13.254  0.2868E-02  0.1558E+00
     13.333  0.4440E-02  0.1561E+00
     13.412  0.3581E-02  0.1564E+00
     13.491  0.5306E-02  0.1568E+00
     13.570  0.5392E-02  0.1573E+00
     13.649  0.1318E-02  0.1574E+00
     13.728  0.1762E-02  0.1575E+00
     13.807  0.4659E-02  0.1579E+00
     13.886  0.1219E-02  0.1580E+00
     13.965  0.1972E-02  0.1581E+00
     14.044  0.3468E-02  0.1584E+00
     14.123  0.2349E-02  0.1586E+00
     14.202  0.2684E-02  0.1588E+00
     14.281  0.3250E-02  0.1590E+00
     14.360  0.6540E-02  0.1596E+00
     14.439  0.1024E-02  0.1596E+00
     14.517  0.4181E-05  0.1596E+00
     14.596  0.2472E-09  0.1596E+00
     14.675  0.1380E-15  0.1596E+00
     14.754  0.0000E+00  0.1596E+00
     14.833  0.3644E-14  0.1596E+00
     14.912  0.2317E-08  0.1596E+00
     14.991  0.1220E-04  0.1596E+00
     15.070  0.7210E-03  0.1597E+00
     15.149  0.1163E-02  0.1598E+00
     15.228  0.1252E-02  0.1599E+00
     15.307  0.6370E-03  0.1599E+00
     15.386  0.6478E-03  0.1600E+00
     15.465  0.6980E-04  0.1600E+00
     15.544  0.1160E-06  0.1600E+00
     15.623  0.1762E-11  0.1600E+00
     15.702  0.2000E-18  0.1600E+00
     15.781  0.0000E+00  0.1600E+00
     15.860  0.0000E+00  0.1600E+00
     15.939  0.0000E+00  0.1600E+00
     16.018  0.0000E+00  0.1600E+00
     16.097  0.0000E+00  0.1600E+00
     16.176  0.0000E+00  0.1600E+00
     16.255  0.0000E+00  0.1600E+00
     16.334  0.0000E+00  0.1600E+00
     16.413  0.0000E+00  0.1600E+00
