    2    2  100    1
  0.2016476E+02  0.3849278E-09  0.3849279E-09  0.3849278E-09  0.5000000E-15
  1.000000000000000E-004
  CAR 
 unknown system                          
      8    120      8
 
  0.0000000E+00  0.0000000E+00  0.0000000E+00  0.2962963E-03
    1       -6.198600   1.000000
    2        5.616140   1.000000
    3        5.616141   1.000000
    4        5.616143   1.000000
    5        8.173180   0.000000
    6        8.173187   0.000000
    7        8.173189   0.000000
    8        8.750516   0.000000
 
  0.6666667E-01 -0.3469447E-17  0.0000000E+00  0.2370370E-02
    1       -6.141352   1.000000
    2        5.023173   1.000000
    3        5.523102   1.000000
    4        5.523104   1.000000
    5        8.208565   0.000000
    6        8.310007   0.000000
    7        8.310015   0.000000
    8        9.211323   0.000000
 
  0.1333333E+00 -0.6938894E-17  0.0000000E+00  0.2370370E-02
    1       -5.970701   1.000000
    2        3.872431   1.000000
    3        5.302740   1.000000
    4        5.302742   1.000000
    5        8.029907   0.000000
    6        8.633293   0.000000
    7        8.633301   0.000000
    8       10.296598   0.000000
 
  0.2000000E+00  0.0000000E+00  0.0000000E+00  0.2370370E-02
    1       -5.690588   1.000000
    2        2.634321   1.000000
    3        5.048620   1.000000
    4        5.048622   1.000000
    5        7.769003   0.000000
    6        8.960800   0.000000
    7        8.960807   0.000000
    8       11.495057   0.000000
 
  0.2666667E+00 -0.1387779E-16  0.0000000E+00  0.2370370E-02
    1       -5.309893   1.000000
    2        1.438681   1.000000
    3        4.817111   1.000000
    4        4.817114   1.000000
    5        7.515962   0.000000
    6        9.129465   0.000000
    7        9.129474   0.000000
    8       12.640697   0.000000
 
  0.3333333E+00 -0.1387779E-16  0.0000000E+00  0.2370370E-02
    1       -4.848515   1.000000
    2        0.346764   1.000000
    3        4.633697   1.000000
    4        4.633699   1.000000
    5        7.309096   0.000000
    6        9.119762   0.000000
    7        9.119771   0.000000
    8       13.400280   0.000000
 
  0.4000000E+00 -0.2775558E-16  0.0000000E+00  0.2370370E-02
    1       -4.357460   1.000000
    2       -0.571962   1.000000
    3        4.508662   1.000000
    4        4.508665   1.000000
    5        7.165465   0.000000
    6        9.036957   0.000000
    7        9.036966   0.000000
    8       13.421772   0.000000
 
  0.4666667E+00 -0.2775558E-16  0.0000000E+00  0.2370370E-02
    1       -3.979748   1.000000
    2       -1.165478   1.000000
    3        4.445650   1.000000
    4        4.445653   1.000000
    5        7.092341   0.000000
    6        8.974533   0.000000
    7        8.974542   0.000000
    8       13.332208   0.000000
 
  0.6666667E-01  0.6666667E-01  0.0000000E+00  0.1777778E-02
    1       -6.122204   1.000000
    2        5.132314   1.000000
    3        5.330106   1.000000
    4        5.330107   1.000000
    5        7.994634   0.000000
    6        8.553269   0.000000
    7        8.553274   0.000000
    8        9.211562   0.000000
 
  0.1333333E+00  0.6666667E-01  0.0000000E+00  0.7111111E-02
    1       -5.989149   1.000000
    2        4.208838   1.000000
    3        5.057312   1.000000
    4        5.222798   1.000000
    5        7.992026   0.000000
    6        8.617228   0.000000
    7        8.947487   0.000000
    8       10.004667   0.000000
 
  0.2000000E+00  0.6666667E-01  0.0000000E+00  0.7111111E-02
    1       -5.745043   1.000000
    2        3.022724   1.000000
    3        4.786887   1.000000
    4        5.007501   1.000000
    5        8.068369   0.000000
    6        8.614939   0.000000
    7        9.331032   0.000000
    8       10.884211   0.000000
 
  0.2666667E+00  0.6666667E-01  0.0000000E+00  0.7111111E-02
    1       -5.396678   1.000000
    2        1.828660   1.000000
    3        4.562339   1.000000
    4        4.737205   1.000000
    5        7.924959   0.000000
    6        8.803363   0.000000
    7        9.543381   0.000000
    8       11.370362   0.000000
 
  0.3333333E+00  0.6666667E-01  0.0000000E+00  0.7111111E-02
    1       -4.958967   1.000000
    2        0.709245   1.000000
    3        4.403171   1.000000
    4        4.477818   1.000000
    5        7.731984   0.000000
    6        8.897828   0.000000
    7        9.533801   0.000000
    8       11.935972   0.000000
 
  0.4000000E+00  0.6666667E-01  0.0000000E+00  0.7111111E-02
    1       -4.468412   1.000000
    2       -0.270618   1.000000
    3        4.259761   1.000000
    4        4.316729   1.000000
    5        7.576785   0.000000
    6        8.886292   0.000000
    7        9.398964   0.000000
    8       12.736918   0.000000
 
  0.4666667E+00  0.6666667E-01  0.0000000E+00  0.7111111E-02
    1       -4.026648   1.000000
    2       -0.995658   1.000000
    3        4.097610   1.000000
    4        4.303938   1.000000
    5        7.482791   0.000000
    6        8.875311   0.000000
    7        9.249822   0.000000
    8       13.380857   0.000000
 
 -0.4666667E+00  0.6666667E-01  0.0000000E+00  0.7111111E-02
    1       -3.875800   1.000000
    2       -1.217470   1.000000
    3        3.999917   1.000000
    4        4.361994   1.000000
    5        7.457940   0.000000
    6        8.923784   0.000000
    7        9.146678   0.000000
    8       13.520350   0.000000
 
 -0.4000000E+00  0.6666667E-01  0.0000000E+00  0.7111111E-02
    1       -4.157365   1.000000
    2       -0.793242   1.000000
    3        3.972852   1.000000
    4        4.485583   1.000000
    5        7.504092   0.000000
    6        9.042165   0.000000
    7        9.105740   0.000000
    8       13.491005   0.000000
 
 -0.3333333E+00  0.6666667E-01  0.0000000E+00  0.7111111E-02
    1       -4.634423   1.000000
    2        0.037079   1.000000
    3        4.021108   1.000000
    4        4.667051   1.000000
    5        7.619379   0.000000
    6        9.102649   0.000000
    7        9.200580   0.000000
    8       13.081631   0.000000
 
 -0.2666667E+00  0.6666667E-01  0.0000000E+00  0.7111111E-02
    1       -5.113830   1.000000
    2        1.071538   1.000000
    3        4.147656   1.000000
    4        4.894947   1.000000
    5        7.797548   0.000000
    6        9.062186   0.000000
    7        9.313632   0.000000
    8       12.325779   0.000000
 
 -0.2000000E+00  0.6666667E-01  0.0000000E+00  0.7111111E-02
    1       -5.524165   1.000000
    2        2.219137   1.000000
    3        4.353391   1.000000
    4        5.149225   1.000000
    5        8.023922   0.000000
    6        8.884140   0.000000
    7        9.233404   0.000000
    8       11.588953   0.000000
 
 -0.1333333E+00  0.6666667E-01  0.0000000E+00  0.7111111E-02
    1       -5.838757   1.000000
    2        3.405757   1.000000
    3        4.639805   1.000000
    4        5.390208   1.000000
    5        8.264593   0.000000
    6        8.581839   0.000000
    7        8.887479   0.000000
    8       10.774494   0.000000
 
 -0.6666667E-01  0.6666667E-01  0.0000000E+00  0.3555556E-02
    1       -6.046207   1.000000
    2        4.460636   1.000000
    3        5.042484   1.000000
    4        5.543556   1.000000
    5        8.330568   0.000000
    6        8.430950   0.000000
    7        8.438599   0.000000
    8        9.838916   0.000000
 
  0.1333333E+00  0.1333333E+00  0.0000000E+00  0.1777778E-02
    1       -5.893730   1.000000
    2        4.126931   1.000000
    3        4.753561   1.000000
    4        4.753561   1.000000
    5        7.572778   0.000000
    6        9.408985   0.000000
    7        9.408988   0.000000
    8        9.882172   0.000000
 
  0.2000000E+00  0.1333333E+00  0.0000000E+00  0.7111111E-02
    1       -5.686336   1.000000
    2        3.253153   1.000000
    3        4.466125   1.000000
    4        4.535441   1.000000
    5        7.539316   0.000000
    6        9.424136   0.000000
    7        9.874597   0.000000
    8       10.218683   0.000000
 
  0.2666667E+00  0.1333333E+00  0.0000000E+00  0.7111111E-02
    1       -5.372114   1.000000
    2        2.162243   1.000000
    3        4.234355   1.000000
    4        4.250105   1.000000
    5        7.729807   0.000000
    6        9.338134   0.000000
    7       10.181526   0.000000
    8       10.267019   0.000000
 
  0.3333333E+00  0.1333333E+00  0.0000000E+00  0.7111111E-02
    1       -4.962215   1.000000
    2        1.072385   1.000000
    3        3.923685   1.000000
    4        4.076850   1.000000
    5        7.826405   0.000000
    6        9.353342   0.000000
    7       10.231532   0.000000
    8       10.478580   0.000000
 
  0.4000000E+00  0.1333333E+00  0.0000000E+00  0.7111111E-02
    1       -4.482867   1.000000
    2        0.072325   1.000000
    3        3.620098   1.000000
    4        4.001355   1.000000
    5        7.799193   0.000000
    6        9.293593   0.000000
    7       10.094456   0.000000
    8       11.179707   0.000000
 
  0.4666667E+00  0.1333333E+00  0.0000000E+00  0.7111111E-02
    1       -4.004904   1.000000
    2       -0.739199   1.000000
    3        3.370421   1.000000
    4        4.009415   1.000000
    5        7.768779   0.000000
    6        9.217086   0.000000
    7        9.897658   0.000000
    8       12.188174   0.000000
 
 -0.4666667E+00  0.1333333E+00  0.0000000E+00  0.7111111E-02
    1       -3.723219   1.000000
    2       -1.154446   1.000000
    3        3.191162   1.000000
    4        4.098252   1.000000
    5        7.795703   0.000000
    6        9.194698   0.000000
    7        9.720796   0.000000
    8       13.292374   0.000000
 
 -0.4000000E+00  0.1333333E+00  0.0000000E+00  0.7111111E-02
    1       -3.878808   1.000000
    2       -0.928353   1.000000
    3        3.093584   1.000000
    4        4.261219   1.000000
    5        7.892931   0.000000
    6        9.247590   0.000000
    7        9.593368   0.000000
    8       13.725620   0.000000
 
 -0.3333333E+00  0.1333333E+00  0.0000000E+00  0.7111111E-02
    1       -4.323374   1.000000
    2       -0.212747   1.000000
    3        3.087662   1.000000
    4        4.487059   1.000000
    5        8.052172   0.000000
    6        9.366236   0.000000
    7        9.502195   0.000000
    8       12.880242   0.000000
 
 -0.2666667E+00  0.1333333E+00  0.0000000E+00  0.7111111E-02
    1       -4.813471   1.000000
    2        0.733999   1.000000
    3        3.186202   1.000000
    4        4.757406   1.000000
    5        8.255007   0.000000
    6        9.380898   0.000000
    7        9.483960   0.000000
    8       11.981418   0.000000
 
 -0.2000000E+00  0.1333333E+00  0.0000000E+00  0.7111111E-02
    1       -5.249540   1.000000
    2        1.769735   1.000000
    3        3.417685   1.000000
    4        5.040696   1.000000
    5        8.471206   0.000000
    6        9.134863   0.000000
    7        9.408855   0.000000
    8       11.365096   0.000000
 
 -0.1333333E+00  0.1333333E+00  0.0000000E+00  0.3555556E-02
    1       -5.596155   1.000000
    2        2.730738   1.000000
    3        3.872138   1.000000
    4        5.280628   1.000000
    5        8.598282   0.000000
    6        8.801508   0.000000
    7        9.035328   0.000000
    8       11.111968   0.000000
 
  0.2000000E+00  0.2000000E+00  0.0000000E+00  0.1777778E-02
    1       -5.515532   1.000000
    2        2.981606   1.000000
    3        4.161866   1.000000
    4        4.161868   1.000000
    5        7.092669   0.000000
    6        9.469567   0.000000
    7       10.457422   0.000000
    8       10.457424   0.000000
 
  0.2666667E+00  0.2000000E+00  0.0000000E+00  0.7111111E-02
    1       -5.236314   1.000000
    2        2.215764   1.000000
    3        3.853609   1.000000
    4        3.914827   1.000000
    5        7.083699   0.000000
    6        9.115457   0.000000
    7       10.728059   0.000000
    8       10.916440   0.000000
 
  0.3333333E+00  0.2000000E+00  0.0000000E+00  0.7111111E-02
    1       -4.857044   1.000000
    2        1.286838   1.000000
    3        3.450592   1.000000
    4        3.745069   1.000000
    5        7.295589   0.000000
    6        9.132313   0.000000
    7       10.643806   0.000000
    8       11.096411   0.000000
 
  0.4000000E+00  0.2000000E+00  0.0000000E+00  0.7111111E-02
    1       -4.396571   1.000000
    2        0.352789   1.000000
    3        3.039418   1.000000
    4        3.661715   1.000000
    5        7.403332   0.000000
    6        9.686105   0.000000
    7       10.476914   0.000000
    8       11.012337   0.000000
 
  0.4666667E+00  0.2000000E+00  0.0000000E+00  0.7111111E-02
    1       -3.903888   1.000000
    2       -0.476493   1.000000
    3        2.684719   1.000000
    4        3.667602   1.000000
    5        7.437694   0.000000
    6       10.316598   0.000000
    7       10.646577   0.000000
    8       10.807063   0.000000
 
 -0.4666667E+00  0.2000000E+00  0.0000000E+00  0.7111111E-02
    1       -3.523285   1.000000
    2       -1.026623   1.000000
    3        2.414854   1.000000
    4        3.761113   1.000000
    5        7.514882   0.000000
    6       10.211441   0.000000
    7       10.587429   0.000000
    8       11.819746   0.000000
 
 -0.4000000E+00  0.2000000E+00  0.0000000E+00  0.7111111E-02
    1       -3.535721   1.000000
    2       -1.005522   1.000000
    3        2.246824   1.000000
    4        3.936351   1.000000
    5        7.674819   0.000000
    6       10.163196   0.000000
    7       10.396834   0.000000
    8       13.111057   0.000000
 
 -0.3333333E+00  0.2000000E+00  0.0000000E+00  0.7111111E-02
    1       -3.927175   1.000000
    2       -0.433745   1.000000
    3        2.199833   1.000000
    4        4.181835   1.000000
    5        7.914978   0.000000
    6       10.169103   0.000000
    7       10.223775   0.000000
    8       12.758486   0.000000
 
 -0.2666667E+00  0.2000000E+00  0.0000000E+00  0.7111111E-02
    1       -4.418768   1.000000
    2        0.372550   1.000000
    3        2.312787   1.000000
    4        4.477066   1.000000
    5        8.204734   0.000000
    6        9.984886   0.000000
    7       10.164626   0.000000
    8       11.772558   0.000000
 
 -0.2000000E+00  0.2000000E+00  0.0000000E+00  0.3555556E-02
    1       -4.875001   1.000000
    2        1.169686   1.000000
    3        2.682880   1.000000
    4        4.785146   1.000000
    5        8.467295   0.000000
    6        9.581921   0.000000
    7        9.885902   0.000000
    8       11.273378   0.000000
 
  0.2666667E+00  0.2666667E+00  0.0000000E+00  0.1777778E-02
    1       -4.991749   1.000000
    2        1.802287   1.000000
    3        3.649160   1.000000
    4        3.649162   1.000000
    5        6.672627   0.000000
    6        8.511223   0.000000
    7       11.596761   0.000000
    8       11.596761   0.000000
 
  0.3333333E+00  0.2666667E+00  0.0000000E+00  0.7111111E-02
    1       -4.644520   1.000000
    2        1.122878   1.000000
    3        3.301641   1.000000
    4        3.460239   1.000000
    5        6.715076   0.000000
    6        8.208811   0.000000
    7       11.875105   0.000000
    8       12.012854   0.000000
 
  0.4000000E+00  0.2666667E+00  0.0000000E+00  0.7111111E-02
    1       -4.208106   1.000000
    2        0.363072   1.000000
    3        2.792792   1.000000
    4        3.359057   1.000000
    5        6.925274   0.000000
    6        8.406636   0.000000
    7       11.810438   0.000000
    8       12.064836   0.000000
 
  0.4666667E+00  0.2666667E+00  0.0000000E+00  0.7111111E-02
    1       -3.716172   1.000000
    2       -0.378361   1.000000
    3        2.292265   1.000000
    4        3.349885   1.000000
    5        7.020096   0.000000
    6        9.172067   0.000000
    7       11.666251   0.000000
    8       11.895141   0.000000
 
 -0.4666667E+00  0.2666667E+00  0.0000000E+00  0.7111111E-02
    1       -3.270269   1.000000
    2       -0.966631   1.000000
    3        1.891911   1.000000
    4        3.432393   1.000000
    5        7.113247   0.000000
    6       10.256517   0.000000
    7       11.544947   0.000000
    8       11.657758   0.000000
 
 -0.4000000E+00  0.2666667E+00  0.0000000E+00  0.7111111E-02
    1       -3.144270   1.000000
    2       -1.113961   1.000000
    3        1.633060   1.000000
    4        3.601946   1.000000
    5        7.286951   0.000000
    6       11.233724   0.000000
    7       11.415331   0.000000
    8       11.748342   0.000000
 
 -0.3333333E+00  0.2666667E+00  0.0000000E+00  0.7111111E-02
    1       -3.468194   1.000000
    2       -0.707990   1.000000
    3        1.557381   1.000000
    4        3.848320   1.000000
    5        7.551997   0.000000
    6       11.135981   0.000000
    7       11.275773   0.000000
    8       12.664552   0.000000
 
 -0.2666667E+00  0.2666667E+00  0.0000000E+00  0.3555556E-02
    1       -3.951410   1.000000
    2       -0.116798   1.000000
    3        1.749220   1.000000
    4        4.152116   1.000000
    5        7.884036   0.000000
    6       10.662774   0.000000
    7       11.002396   0.000000
    8       11.858982   0.000000
 
  0.3333333E+00  0.3333333E+00  0.0000000E+00  0.1777778E-02
    1       -4.328719   1.000000
    2        0.626052   1.000000
    3        3.249260   1.000000
    4        3.249262   1.000000
    5        6.374781   0.000000
    6        7.638015   0.000000
    7       12.789275   0.000000
    8       12.789275   0.000000
 
  0.4000000E+00  0.3333333E+00  0.0000000E+00  0.7111111E-02
    1       -3.919115   1.000000
    2        0.010989   1.000000
    3        2.905478   1.000000
    4        3.125436   1.000000
    5        6.477889   0.000000
    6        7.462642   0.000000
    7       13.091144   0.000000
    8       13.147545   0.000000
 
  0.4666667E+00  0.3333333E+00  0.0000000E+00  0.7111111E-02
    1       -3.438381   1.000000
    2       -0.611125   1.000000
    3        2.349113   1.000000
    4        3.094583   1.000000
    5        6.661759   0.000000
    6        7.899583   0.000000
    7       13.046478   0.000000
    8       13.096670   0.000000
 
 -0.4666667E+00  0.3333333E+00  0.0000000E+00  0.7111111E-02
    1       -2.955684   1.000000
    2       -1.155149   1.000000
    3        1.810130   1.000000
    4        3.157679   1.000000
    5        6.767489   0.000000
    6        8.865795   0.000000
    7       12.869278   0.000000
    8       12.915005   0.000000
 
 -0.4000000E+00  0.3333333E+00  0.0000000E+00  0.7111111E-02
    1       -2.724426   1.000000
    2       -1.384613   1.000000
    3        1.427554   1.000000
    4        3.311442   1.000000
    5        6.937314   0.000000
    6       10.083629   0.000000
    7       12.559206   0.000000
    8       12.787504   0.000000
 
 -0.3333333E+00  0.3333333E+00  0.0000000E+00  0.3555556E-02
    1       -3.001860   1.000000
    2       -1.097171   1.000000
    3        1.305753   1.000000
    4        3.547325   1.000000
    5        7.204232   0.000000
    6       11.393612   0.000000
    7       12.024146   0.000000
    8       12.587172   0.000000
 
  0.4000000E+00  0.4000000E+00  0.0000000E+00  0.1777778E-02
    1       -3.535498   1.000000
    2       -0.520908   1.000000
    3        2.976960   1.000000
    4        2.976963   1.000000
    5        6.234205   0.000000
    6        6.965853   0.000000
    7       14.016918   0.000000
    8       14.016919   0.000000
 
  0.4666667E+00  0.4000000E+00  0.0000000E+00  0.7111111E-02
    1       -3.071845   1.000000
    2       -1.080772   1.000000
    3        2.668090   1.000000
    4        2.921219   1.000000
    5        6.390170   0.000000
    6        6.945925   0.000000
    7       14.310056   0.000000
    8       14.335285   0.000000
 
 -0.4666667E+00  0.4000000E+00  0.0000000E+00  0.7111111E-02
    1       -2.573403   1.000000
    2       -1.589376   1.000000
    3        2.130470   1.000000
    4        2.960494   1.000000
    5        6.525310   0.000000
    6        7.645153   0.000000
    7       14.145571   0.000000
    8       14.307301   0.000000
 
 -0.4000000E+00  0.4000000E+00  0.0000000E+00  0.3555556E-02
    1       -2.360144   1.000000
    2       -1.756919   1.000000
    3        1.647079   1.000000
    4        3.092848   1.000000
    5        6.680123   0.000000
    6        8.765198   0.000000
    7       13.613322   0.000000
    8       14.188419   0.000000
 
  0.4666667E+00  0.4666667E+00  0.0000000E+00  0.1777778E-02
    1       -2.624591   1.000000
    2       -1.612685   1.000000
    3        2.839337   1.000000
    4        2.839339   1.000000
    5        6.274316   0.000000
    6        6.513381   0.000000
    7       15.215582   0.000000
    8       15.215584   0.000000
 
 -0.4666667E+00  0.4666667E+00  0.0000000E+00  0.3555556E-02
    1       -2.147822   1.000000
    2       -2.088512   1.000000
    3        2.589047   1.000000
    4        2.852644   1.000000
    5        6.403174   0.000000
    6        6.729875   0.000000
    7       15.190547   0.000000
    8       15.335792   0.000000
 
  0.2000000E+00  0.1333333E+00  0.6666667E-01  0.7111111E-02
    1       -5.819076   1.000000
    2        3.557365   1.000000
    3        4.461408   1.000000
    4        5.146606   1.000000
    5        7.977918   0.000000
    6        8.877678   0.000000
    7        9.271627   0.000000
    8       10.494078   0.000000
 
  0.2666667E+00  0.1333333E+00  0.6666667E-01  0.1422222E-01
    1       -5.539875   1.000000
    2        2.546548   1.000000
    3        4.024502   1.000000
    4        4.968465   1.000000
    5        8.162116   0.000000
    6        8.869819   0.000000
    7        9.661749   0.000000
    8       10.724348   0.000000
 
  0.3333333E+00  0.1333333E+00  0.6666667E-01  0.1422222E-01
    1       -5.160205   1.000000
    2        1.439642   1.000000
    3        3.750384   1.000000
    4        4.715834   1.000000
    5        8.195589   0.000000
    6        8.921626   0.000000
    7        9.858117   0.000000
    8       10.959647   0.000000
 
  0.4000000E+00  0.1333333E+00  0.6666667E-01  0.1422222E-01
    1       -4.699604   1.000000
    2        0.389613   1.000000
    3        3.574345   1.000000
    4        4.469237   1.000000
    5        8.086204   0.000000
    6        8.927792   0.000000
    7        9.834079   0.000000
    8       11.576520   0.000000
 
  0.4666667E+00  0.1333333E+00  0.6666667E-01  0.1422222E-01
    1       -4.208080   1.000000
    2       -0.508958   1.000000
    3        3.473539   1.000000
    4        4.276665   1.000000
    5        7.979184   0.000000
    6        8.856031   0.000000
    7        9.736659   0.000000
    8       12.492697   0.000000
 
 -0.4666667E+00  0.1333333E+00  0.6666667E-01  0.1422222E-01
    1       -3.827888   1.000000
    2       -1.096094   1.000000
    3        3.430154   1.000000
    4        4.170285   1.000000
    5        7.920349   0.000000
    6        8.798073   0.000000
    7        9.666512   0.000000
    8       13.450642   0.000000
 
  0.2666667E+00  0.2000000E+00  0.6666667E-01  0.7111111E-02
    1       -5.443345   1.000000
    2        2.591950   1.000000
    3        3.867108   1.000000
    4        4.455558   1.000000
    5        7.516922   0.000000
    6        9.488043   0.000000
    7       10.148013   0.000000
    8       10.353510   0.000000
 
  0.3333333E+00  0.2000000E+00  0.6666667E-01  0.1422222E-01
    1       -5.096561   1.000000
    2        1.683395   1.000000
    3        3.428928   1.000000
    4        4.255599   1.000000
    5        7.749211   0.000000
    6        9.476710   0.000000
    7        9.999684   0.000000
    8       10.723244   0.000000
 
  0.4000000E+00  0.2000000E+00  0.6666667E-01  0.1422222E-01
    1       -4.660380   1.000000
    2        0.705084   1.000000
    3        3.132788   1.000000
    4        4.023295   1.000000
    5        7.901340   0.000000
    6        9.590637   0.000000
    7       10.088511   0.000000
    8       10.824096   0.000000
 
  0.4666667E+00  0.2000000E+00  0.6666667E-01  0.1422222E-01
    1       -4.169817   1.000000
    2       -0.202679   1.000000
    3        2.913913   1.000000
    4        3.855724   1.000000
    5        7.935283   0.000000
    6        9.407979   0.000000
    7       10.704472   0.000000
    8       10.949050   0.000000
 
 -0.4666667E+00  0.2000000E+00  0.6666667E-01  0.1422222E-01
    1       -3.724769   1.000000
    2       -0.895310   1.000000
    3        2.746530   1.000000
    4        3.798368   1.000000
    5        7.977445   0.000000
    6        9.218997   0.000000
    7       10.628024   0.000000
    8       12.023167   0.000000
 
 -0.4000000E+00  0.2000000E+00  0.6666667E-01  0.1422222E-01
    1       -3.574006   1.000000
    2       -1.106489   1.000000
    3        2.633723   1.000000
    4        3.858175   1.000000
    5        8.083511   0.000000
    6        9.087349   0.000000
    7       10.556089   0.000000
    8       13.247991   0.000000
 
 -0.3333333E+00  0.2000000E+00  0.6666667E-01  0.1422222E-01
    1       -3.863774   1.000000
    2       -0.687297   1.000000
    3        2.593868   1.000000
    4        4.020404   1.000000
    5        8.256988   0.000000
    6        9.025095   0.000000
    7       10.525676   0.000000
    8       12.365744   0.000000
 
 -0.2666667E+00  0.2000000E+00  0.6666667E-01  0.1422222E-01
    1       -4.343513   1.000000
    2        0.099494   1.000000
    3        2.651779   1.000000
    4        4.260543   1.000000
    5        8.471449   0.000000
    6        9.008702   0.000000
    7       10.499306   0.000000
    8       11.364317   0.000000
 
 -0.2000000E+00  0.2000000E+00  0.6666667E-01  0.1422222E-01
    1       -4.821069   1.000000
    2        1.020554   1.000000
    3        2.847960   1.000000
    4        4.543447   1.000000
    5        8.656418   0.000000
    6        8.938654   0.000000
    7       10.385852   0.000000
    8       10.698606   0.000000
 
 -0.1333333E+00  0.2000000E+00  0.6666667E-01  0.7111111E-02
    1       -5.228249   1.000000
    2        1.895030   1.000000
    3        3.275135   1.000000
    4        4.811103   1.000000
    5        8.491525   0.000000
    6        8.928293   0.000000
    7       10.088934   0.000000
    8       10.513485   0.000000
 
  0.3333333E+00  0.2666667E+00  0.6666667E-01  0.7111111E-02
    1       -4.923582   1.000000
    2        1.574827   1.000000
    3        3.357517   1.000000
    4        3.787616   1.000000
    5        7.106835   0.000000
    6        8.774346   0.000000
    7       10.895352   0.000000
    8       11.530039   0.000000
 
  0.4000000E+00  0.2666667E+00  0.6666667E-01  0.1422222E-01
    1       -4.515656   1.000000
    2        0.794637   1.000000
    3        2.908884   1.000000
    4        3.582376   1.000000
    5        7.370197   0.000000
    6        8.825538   0.000000
    7       10.743631   0.000000
    8       11.877877   0.000000
 
  0.4666667E+00  0.2666667E+00  0.6666667E-01  0.1422222E-01
    1       -4.037069   1.000000
    2       -0.015530   1.000000
    3        2.518576   1.000000
    4        3.434190   1.000000
    5        7.513488   0.000000
    6        9.444777   0.000000
    7       10.513010   0.000000
    8       11.905911   0.000000
 
 -0.4666667E+00  0.2666667E+00  0.6666667E-01  0.1422222E-01
    1       -3.556041   1.000000
    2       -0.723892   1.000000
    3        2.195485   1.000000
    4        3.403198   1.000000
    5        7.592235   0.000000
    6       10.198333   0.000000
    7       10.545680   0.000000
    8       11.807374   0.000000
 
 -0.4000000E+00  0.2666667E+00  0.6666667E-01  0.1422222E-01
    1       -3.274908   1.000000
    2       -1.093128   1.000000
    3        1.963289   1.000000
    4        3.488624   1.000000
    5        7.726094   0.000000
    6       10.048933   0.000000
    7       11.650548   0.000000
    8       11.768795   0.000000
 
 -0.3333333E+00  0.2666667E+00  0.6666667E-01  0.1422222E-01
    1       -3.451507   1.000000
    2       -0.857916   1.000000
    3        1.849745   1.000000
    4        3.674868   1.000000
    5        7.944425   0.000000
    6        9.902245   0.000000
    7       11.574688   0.000000
    8       12.322708   0.000000
 
 -0.2666667E+00  0.2666667E+00  0.6666667E-01  0.1422222E-01
    1       -3.906042   1.000000
    2       -0.225811   1.000000
    3        1.898586   1.000000
    4        3.940082   1.000000
    5        8.236383   0.000000
    6        9.751402   0.000000
    7       11.189366   0.000000
    8       11.535266   0.000000
 
 -0.2000000E+00  0.2666667E+00  0.6666667E-01  0.7111111E-02
    1       -4.392527   1.000000
    2        0.468529   1.000000
    3        2.199073   1.000000
    4        4.250067   1.000000
    5        8.556334   0.000000
    6        9.389331   0.000000
    7       10.649144   0.000000
    8       11.106950   0.000000
 
  0.4000000E+00  0.3333333E+00  0.6666667E-01  0.7111111E-02
    1       -4.266898   1.000000
    2        0.515326   1.000000
    3        2.968720   1.000000
    4        3.251353   1.000000
    5        6.809636   0.000000
    6        7.947273   0.000000
    7       11.947792   0.000000
    8       12.757436   0.000000
 
  0.4666667E+00  0.3333333E+00  0.6666667E-01  0.1422222E-01
    1       -3.807811   1.000000
    2       -0.141745   1.000000
    3        2.495391   1.000000
    4        3.089146   1.000000
    5        7.088203   0.000000
    6        8.184631   0.000000
    7       11.757862   0.000000
    8       13.095037   0.000000
 
 -0.4666667E+00  0.3333333E+00  0.6666667E-01  0.1422222E-01
    1       -3.312709   1.000000
    2       -0.769349   1.000000
    3        2.002240   1.000000
    4        3.061064   1.000000
    5        7.215583   0.000000
    6        9.027022   0.000000
    7       11.516347   0.000000
    8       13.085274   0.000000
 