 vasp.6.2.0 18Jan21 (build Aug 12 2022 13:00:08) complex                        
  
 executed on             LinuxIFC date 2024.11.03  22:28:21
 running on    4 total cores
 distrk:  each k-point on    4 cores,    1 groups
 distr:  one band on NCORE=   1 cores,    4 groups


--------------------------------------------------------------------------------------------------------


 INCAR:
   ISTART = 0            (Read existing wavefunction, if there)
   ISPIN = 1            (Non-Spin polarised DFT)
   LREAL = .FALSE.       (Projection operators: automatic)
   LWAVE = .FALSE.        (Write WAVECAR or not)
   LCHARG = .FALSE.        (Write CHGCAR or not)
   ADDGRID = .TRUE.        (Increase grid, helps GGA convergence)
   LASPH = .TRUE.        (Give more accurate total energies and band structure calculations)
   PREC = Accurate      (Accurate strictly avoids any aliasing or wrap around errors)
   ENCUT = 650          (Cut-off energy for plane wave basis set, in eV)
   ISMEAR = 0            (Gaussian smearing, metals:1)
   SIGMA = 0.05         (Smearing value in eV, metals:0.2)
   NELM = 90           (Max electronic SCF steps)
   NELMIN = 6            (Min electronic SCF steps)
   EDIFF = 1E-06        (SCF energy convergence, in eV)
   NSW = 100          (Max ionic steps)
   IBRION = 2            (Algorithm: 0-MD, 1-Quasi-New, 2-CG)
   ISIF = 3            (Stress/relaxation: 2-Ions, 3-Shape/Ions/V, 4-Shape/Ions)
   EDIFFG = -2E-03        (Ionic convergence, eV/AA)
   ISYM = 2              (Symmetry: 0\=none, 2\=GGA, 3\=hybrids)

 POTCAR:    PAW_PBE Si 05Jan2001                  
 POTCAR:    PAW_PBE Si 05Jan2001                  
   VRHFIN =Si: s2p2                                                                                 
   LEXCH  = PE                                                                                      
   EATOM  =   103.0669 eV,    7.5752 Ry                                                             
                                                                                                    
   TITEL  = PAW_PBE Si 05Jan2001                                                                    
   LULTRA =        F    use ultrasoft PP ?                                                          
   IUNSCR =        1    unscreen: 0-lin 1-nonlin 2-no                                               
   RPACOR =    1.500    partial core radius                                                         
   POMASS =   28.085; ZVAL   =    4.000    mass and valenz                                          
   RCORE  =    1.900    outmost cutoff radius                                                       
   RWIGS  =    2.480; RWIGS  =    1.312    wigner-seitz radius (au A)                               
   ENMAX  =  245.345; ENMIN  =  184.009 eV                                                          
   ICORE  =        2    local potential                                                             
   LCOR   =        T    correct aug charges                                                         
   LPAW   =        T    paw PP                                                                      
   EAUG   =  322.069                                                                                
   DEXC   =    0.000                                                                                
   RMAX   =    1.950    core radius for proj-oper                                                   
   RAUG   =    1.300    factor for augmentation sphere                                              
   RDEP   =    1.993    radius for radial grids                                                     
   RDEPT  =    1.837    core radius for aug-charge                                                  
                                                                                                    
   Atomic configuration                                                                             
    6 entries                                                                                       
     n  l   j            E        occ.                                                              
     1  0  0.50     -1785.8828   2.0000                                                             
     2  0  0.50      -139.4969   2.0000                                                             
     2  1  1.50       -95.5546   6.0000                                                             
     3  0  0.50       -10.8127   2.0000                                                             
     3  1  0.50        -4.0811   2.0000                                                             
     3  2  1.50        -4.0817   0.0000                                                             
   Description                                                                                      
     l       E           TYP  RCUT    TYP  RCUT                                                     
     0    -10.8127223     23  1.900                                                                 
     0     -7.6451159     23  1.900                                                                 
     1     -4.0811372     23  1.900                                                                 
     1      2.4879257     23  1.900                                                                 
     2     -4.0817478      7  1.900                                                                 
  local pseudopotential read in
  partial core-charges read in
  partial kinetic energy density read in
  atomic valenz-charges read in
  non local Contribution for L=           0  read in
    real space projection operators read in
  non local Contribution for L=           0  read in
    real space projection operators read in
  non local Contribution for L=           1  read in
    real space projection operators read in
  non local Contribution for L=           1  read in
    real space projection operators read in
    PAW grid and wavefunctions read in
 
   number of l-projection  operators is LMAX  =           4
   number of lm-projection operators is LMMAX =           8
 
  PAW_PBE Si 05Jan2001                  :
 energy of atom  1       EATOM= -103.0669
 kinetic energy error for atom=    0.0003 (will be added to EATOM!!)
 
 
 POSCAR: Si2
  positions in direct lattice
  No initial velocities read in
 exchange correlation table for  LEXCH =        8
   RHO(1)=    0.500       N(1)  =     2000
   RHO(2)=  100.500       N(2)  =     4000
 


--------------------------------------------------------------------------------------------------------


 ion  position               nearest neighbor table
   1  0.875  0.875  0.875-   2 2.36   2 2.36   2 2.36   2 2.36
   2  0.125  0.125  0.125-   1 2.36   1 2.36   1 2.36   1 2.36
 
  LATTYP: Found a face centered cubic cell.
 ALAT       =     5.4437031493
  
  Lattice vectors:
  
 A1 = (   3.3335730000,   0.0000000000,   1.9246390000)
 A2 = (   1.1111910000,   3.1429240000,   1.9246390000)
 A3 = (   0.0000000000,   0.0000000000,   3.8492780000)


Analysis of symmetry for initial positions (statically):
=====================================================================
 Subroutine PRICEL returns:
 Original cell was already a primitive cell.
 

 Routine SETGRP: Setting up the symmetry group for a 
 face centered cubic supercell.


 Subroutine GETGRP returns: Found 48 space group operations
 (whereof 12 operations were pure point group operations)
 out of a pool of 48 trial point group operations.


The static configuration has the point symmetry D_3d.
 The point group associated with its full space group is O_h .


Analysis of symmetry for dynamics (positions and initial velocities):
=====================================================================
 Subroutine PRICEL returns:
 Original cell was already a primitive cell.
 

 Routine SETGRP: Setting up the symmetry group for a 
 face centered cubic supercell.


 Subroutine GETGRP returns: Found 48 space group operations
 (whereof 12 operations were pure point group operations)
 out of a pool of 48 trial point group operations.


The dynamic configuration has the point symmetry D_3d.
 The point group associated with its full space group is O_h .


 Subroutine INISYM returns: Found 48 space group operations
 (whereof 12 operations are pure point group operations),
 and found     1 'primitive' translations


----------------------------------------------------------------------------------------

                                     Primitive cell                                     

  volume of cell :      40.3295

  direct lattice vectors                    reciprocal lattice vectors
     3.333573000  0.000000000  1.924639000     0.299978432 -0.106058350  0.000000000
     1.111191000  3.142924000  1.924639000     0.000000000  0.318175050  0.000000000
     0.000000000  0.000000000  3.849278000    -0.149989216 -0.106058350  0.259788979

  length of vectors
     3.849278403  3.849279412  3.849278000     0.318175161  0.318175050  0.318175190

  position of ions in fractional coordinates (direct lattice)
     0.875000000  0.875000000  0.875000000
     0.125000000  0.125000000  0.125000000

  ion indices of the primitive-cell ions
   primitive index   ion index
                 1           1
                 2           2

----------------------------------------------------------------------------------------

 
 
 KPOINTS: Automatic                               

Automatic generation of k-mesh.
 Grid dimensions read from file:
 generate k-points for:   15   15   15

 Generating k-lattice:

  Cartesian coordinates                     Fractional coordinates (reciprocal lattice)
     0.019998562 -0.007070557  0.000000000     0.066666667  0.000000000  0.000000000
     0.000000000  0.021211670  0.000000000     0.000000000  0.066666667  0.000000000
    -0.009999281 -0.007070557  0.017319265     0.000000000  0.000000000  0.066666667

  Length of vectors
     0.021211677  0.021211670  0.021211679

  Shift w.r.t. Gamma in fractional coordinates (k-lattice)
     0.000000000  0.000000000  0.000000000

 
 Subroutine IBZKPT returns following result:
 ===========================================
 
 Found    120 irreducible k-points:
 
 Following reciprocal coordinates:
            Coordinates               Weight
  0.000000  0.000000  0.000000      1.000000
  0.066667 -0.000000  0.000000      8.000000
  0.133333 -0.000000  0.000000      8.000000
  0.200000  0.000000  0.000000      8.000000
  0.266667 -0.000000  0.000000      8.000000
  0.333333 -0.000000  0.000000      8.000000
  0.400000 -0.000000  0.000000      8.000000
  0.466667 -0.000000  0.000000      8.000000
  0.066667  0.066667  0.000000      6.000000
  0.133333  0.066667  0.000000     24.000000
  0.200000  0.066667  0.000000     24.000000
  0.266667  0.066667  0.000000     24.000000
  0.333333  0.066667  0.000000     24.000000
  0.400000  0.066667  0.000000     24.000000
  0.466667  0.066667  0.000000     24.000000
 -0.466667  0.066667  0.000000     24.000000
 -0.400000  0.066667  0.000000     24.000000
 -0.333333  0.066667  0.000000     24.000000
 -0.266667  0.066667  0.000000     24.000000
 -0.200000  0.066667  0.000000     24.000000
 -0.133333  0.066667  0.000000     24.000000
 -0.066667  0.066667  0.000000     12.000000
  0.133333  0.133333  0.000000      6.000000
  0.200000  0.133333  0.000000     24.000000
  0.266667  0.133333  0.000000     24.000000
  0.333333  0.133333  0.000000     24.000000
  0.400000  0.133333  0.000000     24.000000
  0.466667  0.133333  0.000000     24.000000
 -0.466667  0.133333  0.000000     24.000000
 -0.400000  0.133333  0.000000     24.000000
 -0.333333  0.133333  0.000000     24.000000
 -0.266667  0.133333  0.000000     24.000000
 -0.200000  0.133333  0.000000     24.000000
 -0.133333  0.133333  0.000000     12.000000
  0.200000  0.200000  0.000000      6.000000
  0.266667  0.200000  0.000000     24.000000
  0.333333  0.200000  0.000000     24.000000
  0.400000  0.200000  0.000000     24.000000
  0.466667  0.200000  0.000000     24.000000
 -0.466667  0.200000  0.000000     24.000000
 -0.400000  0.200000  0.000000     24.000000
 -0.333333  0.200000  0.000000     24.000000
 -0.266667  0.200000  0.000000     24.000000
 -0.200000  0.200000  0.000000     12.000000
  0.266667  0.266667  0.000000      6.000000
  0.333333  0.266667  0.000000     24.000000
  0.400000  0.266667  0.000000     24.000000
  0.466667  0.266667  0.000000     24.000000
 -0.466667  0.266667  0.000000     24.000000
 -0.400000  0.266667  0.000000     24.000000
 -0.333333  0.266667  0.000000     24.000000
 -0.266667  0.266667  0.000000     12.000000
  0.333333  0.333333  0.000000      6.000000
  0.400000  0.333333  0.000000     24.000000
  0.466667  0.333333  0.000000     24.000000
 -0.466667  0.333333  0.000000     24.000000
 -0.400000  0.333333  0.000000     24.000000
 -0.333333  0.333333  0.000000     12.000000
  0.400000  0.400000  0.000000      6.000000
  0.466667  0.400000  0.000000     24.000000
 -0.466667  0.400000  0.000000     24.000000
 -0.400000  0.400000  0.000000     12.000000
  0.466667  0.466667  0.000000      6.000000
 -0.466667  0.466667  0.000000     12.000000
  0.200000  0.133333  0.066667     24.000000
  0.266667  0.133333  0.066667     48.000000
  0.333333  0.133333  0.066667     48.000000
  0.400000  0.133333  0.066667     48.000000
  0.466667  0.133333  0.066667     48.000000
 -0.466667  0.133333  0.066667     48.000000
  0.266667  0.200000  0.066667     24.000000
  0.333333  0.200000  0.066667     48.000000
  0.400000  0.200000  0.066667     48.000000
  0.466667  0.200000  0.066667     48.000000
 -0.466667  0.200000  0.066667     48.000000
 -0.400000  0.200000  0.066667     48.000000
 -0.333333  0.200000  0.066667     48.000000
 -0.266667  0.200000  0.066667     48.000000
 -0.200000  0.200000  0.066667     48.000000
 -0.133333  0.200000  0.066667     24.000000
  0.333333  0.266667  0.066667     24.000000
  0.400000  0.266667  0.066667     48.000000
  0.466667  0.266667  0.066667     48.000000
 -0.466667  0.266667  0.066667     48.000000
 -0.400000  0.266667  0.066667     48.000000
 -0.333333  0.266667  0.066667     48.000000
 -0.266667  0.266667  0.066667     48.000000
 -0.200000  0.266667  0.066667     24.000000
  0.400000  0.333333  0.066667     24.000000
  0.466667  0.333333  0.066667     48.000000
 -0.466667  0.333333  0.066667     48.000000
 -0.400000  0.333333  0.066667     48.000000
 -0.333333  0.333333  0.066667     48.000000
 -0.266667  0.333333  0.066667     24.000000
  0.466667  0.400000  0.066667     24.000000
 -0.466667  0.400000  0.066667     48.000000
 -0.400000  0.400000  0.066667     48.000000
 -0.333333  0.400000  0.066667     24.000000
 -0.466667  0.466667  0.066667     24.000000
 -0.400000  0.466667  0.066667     24.000000
  0.400000  0.266667  0.133333     24.000000
  0.466667  0.266667  0.133333     48.000000
 -0.466667  0.266667  0.133333     48.000000
 -0.400000  0.266667  0.133333     48.000000
  0.466667  0.333333  0.133333     24.000000
 -0.466667  0.333333  0.133333     48.000000
 -0.400000  0.333333  0.133333     48.000000
 -0.333333  0.333333  0.133333     48.000000
 -0.266667  0.333333  0.133333     48.000000
 -0.200000  0.333333  0.133333     24.000000
 -0.466667  0.400000  0.133333     24.000000
 -0.400000  0.400000  0.133333     48.000000
 -0.333333  0.400000  0.133333     48.000000
 -0.266667  0.400000  0.133333     24.000000
 -0.400000  0.466667  0.133333     24.000000
 -0.333333  0.466667  0.133333     24.000000
 -0.400000  0.400000  0.200000     24.000000
 -0.333333  0.400000  0.200000     48.000000
 -0.333333  0.466667  0.200000     24.000000
 -0.266667  0.466667  0.200000     24.000000
 
 Following cartesian coordinates:
            Coordinates               Weight
  0.000000  0.000000  0.000000      1.000000
  0.019999 -0.007071  0.000000      8.000000
  0.039997 -0.014141  0.000000      8.000000
  0.059996 -0.021212  0.000000      8.000000
  0.079994 -0.028282  0.000000      8.000000
  0.099993 -0.035353  0.000000      8.000000
  0.119991 -0.042423  0.000000      8.000000
  0.139990 -0.049494  0.000000      8.000000
  0.019999  0.014141  0.000000      6.000000
  0.039997  0.007071  0.000000     24.000000
  0.059996  0.000000  0.000000     24.000000
  0.079994 -0.007071  0.000000     24.000000
  0.099993 -0.014141  0.000000     24.000000
  0.119991 -0.021212  0.000000     24.000000
  0.139990 -0.028282  0.000000     24.000000
 -0.139990  0.070706  0.000000     24.000000
 -0.119991  0.063635  0.000000     24.000000
 -0.099993  0.056564  0.000000     24.000000
 -0.079994  0.049494  0.000000     24.000000
 -0.059996  0.042423  0.000000     24.000000
 -0.039997  0.035353  0.000000     24.000000
 -0.019999  0.028282  0.000000     12.000000
  0.039997  0.028282  0.000000      6.000000
  0.059996  0.021212  0.000000     24.000000
  0.079994  0.014141  0.000000     24.000000
  0.099993  0.007071  0.000000     24.000000
  0.119991  0.000000  0.000000     24.000000
  0.139990 -0.007071  0.000000     24.000000
 -0.139990  0.091917  0.000000     24.000000
 -0.119991  0.084847  0.000000     24.000000
 -0.099993  0.077776  0.000000     24.000000
 -0.079994  0.070706  0.000000     24.000000
 -0.059996  0.063635  0.000000     24.000000
 -0.039997  0.056564  0.000000     12.000000
  0.059996  0.042423  0.000000      6.000000
  0.079994  0.035353  0.000000     24.000000
  0.099993  0.028282  0.000000     24.000000
  0.119991  0.021212  0.000000     24.000000
  0.139990  0.014141  0.000000     24.000000
 -0.139990  0.113129  0.000000     24.000000
 -0.119991  0.106058  0.000000     24.000000
 -0.099993  0.098988  0.000000     24.000000
 -0.079994  0.091917  0.000000     24.000000
 -0.059996  0.084847  0.000000     12.000000
  0.079994  0.056564  0.000000      6.000000
  0.099993  0.049494  0.000000     24.000000
  0.119991  0.042423  0.000000     24.000000
  0.139990  0.035353  0.000000     24.000000
 -0.139990  0.134341  0.000000     24.000000
 -0.119991  0.127270  0.000000     24.000000
 -0.099993  0.120199  0.000000     24.000000
 -0.079994  0.113129  0.000000     12.000000
  0.099993  0.070706  0.000000      6.000000
  0.119991  0.063635  0.000000     24.000000
  0.139990  0.056564  0.000000     24.000000
 -0.139990  0.155552  0.000000     24.000000
 -0.119991  0.148482  0.000000     24.000000
 -0.099993  0.141411  0.000000     12.000000
  0.119991  0.084847  0.000000      6.000000
  0.139990  0.077776  0.000000     24.000000
 -0.139990  0.176764  0.000000     24.000000
 -0.119991  0.169693  0.000000     12.000000
  0.139990  0.098988  0.000000      6.000000
 -0.139990  0.197976  0.000000     12.000000
  0.049996  0.014141  0.017319     24.000000
  0.069995  0.007071  0.017319     48.000000
  0.089994 -0.000000  0.017319     48.000000
  0.109992 -0.007071  0.017319     48.000000
  0.129991 -0.014141  0.017319     48.000000
 -0.149989  0.084847  0.017319     48.000000
  0.069995  0.028282  0.017319     24.000000
  0.089994  0.021212  0.017319     48.000000
  0.109992  0.014141  0.017319     48.000000
  0.129991  0.007071  0.017319     48.000000
 -0.149989  0.106058  0.017319     48.000000
 -0.129991  0.098988  0.017319     48.000000
 -0.109992  0.091917  0.017319     48.000000
 -0.089994  0.084847  0.017319     48.000000
 -0.069995  0.077776  0.017319     48.000000
 -0.049996  0.070706  0.017319     24.000000
  0.089994  0.042423  0.017319     24.000000
  0.109992  0.035353  0.017319     48.000000
  0.129991  0.028282  0.017319     48.000000
 -0.149989  0.127270  0.017319     48.000000
 -0.129991  0.120199  0.017319     48.000000
 -0.109992  0.113129  0.017319     48.000000
 -0.089994  0.106058  0.017319     48.000000
 -0.069995  0.098988  0.017319     24.000000
  0.109992  0.056564  0.017319     24.000000
  0.129991  0.049494  0.017319     48.000000
 -0.149989  0.148482  0.017319     48.000000
 -0.129991  0.141411  0.017319     48.000000
 -0.109992  0.134341  0.017319     48.000000
 -0.089994  0.127270  0.017319     24.000000
  0.129991  0.070706  0.017319     24.000000
 -0.149989  0.169693  0.017319     48.000000
 -0.129991  0.162623  0.017319     48.000000
 -0.109992  0.155552  0.017319     24.000000
 -0.149989  0.190905  0.017319     24.000000
 -0.129991  0.183834  0.017319     24.000000
  0.099993  0.028282  0.034639     24.000000
  0.119991  0.021212  0.034639     48.000000
 -0.159988  0.120199  0.034639     48.000000
 -0.139990  0.113129  0.034639     48.000000
  0.119991  0.042423  0.034639     24.000000
 -0.159988  0.141411  0.034639     48.000000
 -0.139990  0.134341  0.034639     48.000000
 -0.119991  0.127270  0.034639     48.000000
 -0.099993  0.120199  0.034639     48.000000
 -0.079994  0.113129  0.034639     24.000000
 -0.159988  0.162623  0.034639     24.000000
 -0.139990  0.155552  0.034639     48.000000
 -0.119991  0.148482  0.034639     48.000000
 -0.099993  0.141411  0.034639     24.000000
 -0.139990  0.176764  0.034639     24.000000
 -0.119991  0.169693  0.034639     24.000000
 -0.149989  0.148482  0.051958     24.000000
 -0.129991  0.141411  0.051958     48.000000
 -0.129991  0.162623  0.051958     24.000000
 -0.109992  0.155552  0.051958     24.000000
 


--------------------------------------------------------------------------------------------------------




 Dimension of arrays:
   k-points           NKPTS =    120   k-points in BZ     NKDIM =    120   number of bands    NBANDS=      8
   number of dos      NEDOS =    301   number of ions     NIONS =      2
   non local maximal  LDIM  =      4   non local SUM 2l+1 LMDIM =      8
   total plane-waves  NPLWV =  32768
   max r-space proj   IRMAX =      1   max aug-charges    IRDMAX= 217503
   dimension x,y,z NGX =    32 NGY =   32 NGZ =   32
   dimension x,y,z NGXF=    64 NGYF=   64 NGZF=   64
   support grid    NGXF=   128 NGYF=  128 NGZF=  128
   ions per type =               2
   NGX,Y,Z   is equivalent  to a cutoff of  13.82, 13.82, 13.82 a.u.
   NGXF,Y,Z  is equivalent  to a cutoff of  27.64, 27.64, 27.64 a.u.

 SYSTEM =  unknown system                          
 POSCAR =  Si2                                     

 Startparameter for this run:
   NWRITE =      2    write-flag & timer
   PREC   = accura    normal or accurate (medium, high low for compatibility)
   ISTART =      0    job   : 0-new  1-cont  2-samecut
   ICHARG =      2    charge: 1-file 2-atom 10-const
   ISPIN  =      1    spin polarized calculation?
   LNONCOLLINEAR =      F non collinear calculations
   LSORBIT =      F    spin-orbit coupling
   INIWAV =      1    electr: 0-lowe 1-rand  2-diag
   LASPH  =      T    aspherical Exc in radial PAW
   METAGGA=      F    non-selfconsistent MetaGGA calc.

 Electronic Relaxation 1
   ENCUT  =  650.0 eV  47.77 Ry    6.91 a.u.   8.00  8.00  8.00*2*pi/ulx,y,z
   ENINI  =  650.0     initial cutoff
   ENAUG  =  322.1 eV  augmentation charge cutoff
   NELM   =     90;   NELMIN=  6; NELMDL= -5     # of ELM steps 
   EDIFF  = 0.1E-05   stopping-criterion for ELM
   LREAL  =      F    real-space projection
   NLSPLINE    = F    spline interpolate recip. space projectors
   LCOMPAT=      F    compatible to vasp.4.4
   GGA_COMPAT  = T    GGA compatible to vasp.4.4-vasp.4.6
   LMAXPAW     = -100 max onsite density
   LMAXMIX     =    2 max onsite mixed and CHGCAR
   VOSKOWN=      0    Vosko Wilk Nusair interpolation
   ROPT   =    0.00000
 Ionic relaxation
   EDIFFG = -.2E-02   stopping-criterion for IOM
   NSW    =    100    number of steps for IOM
   NBLOCK =      1;   KBLOCK =    100    inner block; outer block 
   IBRION =      2    ionic relax: 0-MD 1-quasi-New 2-CG
   NFREE  =      1    steps in history (QN), initial steepest desc. (CG)
   ISIF   =      3    stress and relaxation
   IWAVPR =     11    prediction:  0-non 1-charg 2-wave 3-comb
   ISYM   =      2    0-nonsym 1-usesym 2-fastsym
   LCORR  =      T    Harris-Foulkes like correction to forces

   POTIM  = 0.5000    time-step for ionic-motion
   TEIN   =    0.0    initial temperature
   TEBEG  =    0.0;   TEEND  =   0.0 temperature during run
   SMASS  =  -3.00    Nose mass-parameter (am)
   estimated Nose-frequenzy (Omega)   =  0.10E-29 period in steps = 0.13E+47 mass=  -0.339E-27a.u.
   SCALEE = 1.0000    scale energy and forces
   NPACO  =    256;   APACO  = 16.0  distance and # of slots for P.C.
   PSTRESS=    0.0 pullay stress

  Mass of Ions in am
   POMASS =  28.09
  Ionic Valenz
   ZVAL   =   4.00
  Atomic Wigner-Seitz radii
   RWIGS  =  -1.00
  virtual crystal weights 
   VCA    =   1.00
   NELECT =       8.0000    total number of electrons
   NUPDOWN=      -1.0000    fix difference up-down

 DOS related values:
   EMIN   =  10.00;   EMAX   =-10.00  energy-range for DOS
   EFERMI =   0.00
   ISMEAR =     0;   SIGMA  =   0.05  broadening in eV -4-tet -1-fermi 0-gaus

 Electronic relaxation 2 (details)
   IALGO  =     38    algorithm
   LDIAG  =      T    sub-space diagonalisation (order eigenvalues)
   LSUBROT=      F    optimize rotation matrix (better conditioning)
   TURBO    =      0    0=normal 1=particle mesh
   IRESTART =      0    0=no restart 2=restart with 2 vectors
   NREBOOT  =      0    no. of reboots
   NMIN     =      0    reboot dimension
   EREF     =   0.00    reference energy to select bands
   IMIX   =      4    mixing-type and parameters
     AMIX     =   0.40;   BMIX     =  1.00
     AMIX_MAG =   1.60;   BMIX_MAG =  1.00
     AMIN     =   0.10
     WC   =   100.;   INIMIX=   1;  MIXPRE=   1;  MAXMIX= -45

 Intra band minimization:
   WEIMIN = 0.0010     energy-eigenvalue tresh-hold
   EBREAK =  0.31E-07  absolut break condition
   DEPER  =   0.30     relativ break condition  

   TIME   =   0.40     timestep for ELM

  volume/ion in A,a.u.               =      20.16       136.08
  Fermi-wavevector in a.u.,A,eV,Ry     =   0.954766  1.804247 12.402783  0.911579
  Thomas-Fermi vector in A             =   2.083543
 
 Write flags
   LWAVE        =      F    write WAVECAR
   LDOWNSAMPLE  =      F    k-point downsampling of WAVECAR
   LCHARG       =      F    write CHGCAR
   LVTOT        =      F    write LOCPOT, total local potential
   LVHAR        =      F    write LOCPOT, Hartree potential only
   LELF         =      F    write electronic localiz. function (ELF)
   LORBIT       =      0    0 simple, 1 ext, 2 COOP (PROOUT), +10 PAW based schemes


 Dipole corrections
   LMONO  =      F    monopole corrections only (constant potential shift)
   LDIPOL =      F    correct potential (dipole corrections)
   IDIPOL =      0    1-x, 2-y, 3-z, 4-all directions 
   EPSILON=  1.0000000 bulk dielectric constant

 Exchange correlation treatment:
   GGA     =    --    GGA type
   LEXCH   =     8    internal setting for exchange type
   VOSKOWN=      0    Vosko Wilk Nusair interpolation
   LHFCALC =     F    Hartree Fock is set to
   LHFONE  =     F    Hartree Fock one center treatment
   AEXX    =    0.0000 exact exchange contribution

 Linear response parameters
   LEPSILON=     F    determine dielectric tensor
   LRPA    =     F    only Hartree local field effects (RPA)
   LNABLA  =     F    use nabla operator in PAW spheres
   LVEL    =     F    velocity operator in full k-point grid
   LINTERFAST=   F  fast interpolation
   KINTER  =     0    interpolate to denser k-point grid
   CSHIFT  =0.1000    complex shift for real part using Kramers Kronig
   OMEGAMAX=  -1.0    maximum frequency
   DEG_THRESHOLD= 0.2000000E-02 threshold for treating states as degnerate
   RTIME   =   -0.100 relaxation time in fs
  (WPLASMAI=    0.000 imaginary part of plasma frequency in eV, 0.658/RTIME)
   DFIELD  = 0.0000000 0.0000000 0.0000000 field for delta impulse in time
 
 Orbital magnetization related:
   ORBITALMAG=     F  switch on orbital magnetization
   LCHIMAG   =     F  perturbation theory with respect to B field
   DQ        =  0.001000  dq finite difference perturbation B field
   LLRAUG    =     F  two centre corrections for induced B field



--------------------------------------------------------------------------------------------------------


 conjugate gradient relaxation of ions
 charge density and potential will be updated during run
 non-spin polarized calculation
 Variant of blocked Davidson
 Davidson routine will perform the subspace rotation
 perform sub-space diagonalisation
    after iterative eigenvector-optimisation
 modified Broyden-mixing scheme, WC =      100.0
 initial mixing is a Kerker type mixing with AMIX =  0.4000 and BMIX =      1.0000
 Hartree-type preconditioning will be used
 using additional bands            4
 reciprocal scheme for non local part
 use partial core corrections
 calculate Harris-corrections to forces 
   (improved forces if not selfconsistent)
 use gradient corrections 
 use of overlap-Matrix (Vanderbilt PP)
 Gauss-broadening in eV      SIGMA  =   0.05


--------------------------------------------------------------------------------------------------------


  energy-cutoff  :      650.00
  volume of cell :       40.33
      direct lattice vectors                 reciprocal lattice vectors
     3.333573000  0.000000000  1.924639000     0.299978432 -0.106058350  0.000000000
     1.111191000  3.142924000  1.924639000     0.000000000  0.318175050  0.000000000
     0.000000000  0.000000000  3.849278000    -0.149989216 -0.106058350  0.259788979

  length of vectors
     3.849278403  3.849279412  3.849278000     0.318175161  0.318175050  0.318175190


 
 k-points in units of 2pi/SCALE and weight: Automatic                               
   0.00000000  0.00000000  0.00000000       0.000
   0.01999856 -0.00707056  0.00000000       0.002
   0.03999712 -0.01414111  0.00000000       0.002
   0.05999569 -0.02121167  0.00000000       0.002
   0.07999425 -0.02828223  0.00000000       0.002
   0.09999281 -0.03535278  0.00000000       0.002
   0.11999137 -0.04242334  0.00000000       0.002
   0.13998993 -0.04949390  0.00000000       0.002
   0.01999856  0.01414111  0.00000000       0.002
   0.03999712  0.00707056  0.00000000       0.007
   0.05999569  0.00000000  0.00000000       0.007
   0.07999425 -0.00707056  0.00000000       0.007
   0.09999281 -0.01414111  0.00000000       0.007
   0.11999137 -0.02121167  0.00000000       0.007
   0.13998993 -0.02828223  0.00000000       0.007
  -0.13998993  0.07070557  0.00000000       0.007
  -0.11999137  0.06363501  0.00000000       0.007
  -0.09999281  0.05656445  0.00000000       0.007
  -0.07999425  0.04949390  0.00000000       0.007
  -0.05999569  0.04242334  0.00000000       0.007
  -0.03999712  0.03535278  0.00000000       0.007
  -0.01999856  0.02828223  0.00000000       0.004
   0.03999712  0.02828223  0.00000000       0.002
   0.05999569  0.02121167  0.00000000       0.007
   0.07999425  0.01414111  0.00000000       0.007
   0.09999281  0.00707056  0.00000000       0.007
   0.11999137  0.00000000  0.00000000       0.007
   0.13998993 -0.00707056  0.00000000       0.007
  -0.13998993  0.09191724  0.00000000       0.007
  -0.11999137  0.08484668  0.00000000       0.007
  -0.09999281  0.07777612  0.00000000       0.007
  -0.07999425  0.07070557  0.00000000       0.007
  -0.05999569  0.06363501  0.00000000       0.007
  -0.03999712  0.05656445  0.00000000       0.004
   0.05999569  0.04242334  0.00000000       0.002
   0.07999425  0.03535278  0.00000000       0.007
   0.09999281  0.02828223  0.00000000       0.007
   0.11999137  0.02121167  0.00000000       0.007
   0.13998993  0.01414111  0.00000000       0.007
  -0.13998993  0.11312891  0.00000000       0.007
  -0.11999137  0.10605835  0.00000000       0.007
  -0.09999281  0.09898779  0.00000000       0.007
  -0.07999425  0.09191724  0.00000000       0.007
  -0.05999569  0.08484668  0.00000000       0.004
   0.07999425  0.05656445  0.00000000       0.002
   0.09999281  0.04949390  0.00000000       0.007
   0.11999137  0.04242334  0.00000000       0.007
   0.13998993  0.03535278  0.00000000       0.007
  -0.13998993  0.13434058  0.00000000       0.007
  -0.11999137  0.12727002  0.00000000       0.007
  -0.09999281  0.12019946  0.00000000       0.007
  -0.07999425  0.11312891  0.00000000       0.004
   0.09999281  0.07070557  0.00000000       0.002
   0.11999137  0.06363501  0.00000000       0.007
   0.13998993  0.05656445  0.00000000       0.007
  -0.13998993  0.15555225  0.00000000       0.007
  -0.11999137  0.14848169  0.00000000       0.007
  -0.09999281  0.14141113  0.00000000       0.004
   0.11999137  0.08484668  0.00000000       0.002
   0.13998993  0.07777612  0.00000000       0.007
  -0.13998993  0.17676392  0.00000000       0.007
  -0.11999137  0.16969336  0.00000000       0.004
   0.13998993  0.09898779  0.00000000       0.002
  -0.13998993  0.19797559  0.00000000       0.004
   0.04999641  0.01414111  0.01731927       0.007
   0.06999497  0.00707056  0.01731927       0.014
   0.08999353 -0.00000000  0.01731927       0.014
   0.10999209 -0.00707056  0.01731927       0.014
   0.12999065 -0.01414111  0.01731927       0.014
  -0.14998922  0.08484668  0.01731927       0.014
   0.06999497  0.02828223  0.01731927       0.007
   0.08999353  0.02121167  0.01731927       0.014
   0.10999209  0.01414111  0.01731927       0.014
   0.12999065  0.00707056  0.01731927       0.014
  -0.14998922  0.10605835  0.01731927       0.014
  -0.12999065  0.09898779  0.01731927       0.014
  -0.10999209  0.09191724  0.01731927       0.014
  -0.08999353  0.08484668  0.01731927       0.014
  -0.06999497  0.07777612  0.01731927       0.014
  -0.04999641  0.07070557  0.01731927       0.007
   0.08999353  0.04242334  0.01731927       0.007
   0.10999209  0.03535278  0.01731927       0.014
   0.12999065  0.02828223  0.01731927       0.014
  -0.14998922  0.12727002  0.01731927       0.014
  -0.12999065  0.12019946  0.01731927       0.014
  -0.10999209  0.11312891  0.01731927       0.014
  -0.08999353  0.10605835  0.01731927       0.014
  -0.06999497  0.09898779  0.01731927       0.007
   0.10999209  0.05656445  0.01731927       0.007
   0.12999065  0.04949390  0.01731927       0.014
  -0.14998922  0.14848169  0.01731927       0.014
  -0.12999065  0.14141113  0.01731927       0.014
  -0.10999209  0.13434058  0.01731927       0.014
  -0.08999353  0.12727002  0.01731927       0.007
   0.12999065  0.07070557  0.01731927       0.007
  -0.14998922  0.16969336  0.01731927       0.014
  -0.12999065  0.16262280  0.01731927       0.014
  -0.10999209  0.15555225  0.01731927       0.007
  -0.14998922  0.19090503  0.01731927       0.007
  -0.12999065  0.18383447  0.01731927       0.007
   0.09999281  0.02828223  0.03463853       0.007
   0.11999137  0.02121167  0.03463853       0.014
  -0.15998850  0.12019946  0.03463853       0.014
  -0.13998993  0.11312891  0.03463853       0.014
   0.11999137  0.04242334  0.03463853       0.007
  -0.15998850  0.14141113  0.03463853       0.014
  -0.13998993  0.13434058  0.03463853       0.014
  -0.11999137  0.12727002  0.03463853       0.014
  -0.09999281  0.12019946  0.03463853       0.014
  -0.07999425  0.11312891  0.03463853       0.007
  -0.15998850  0.16262280  0.03463853       0.007
  -0.13998993  0.15555225  0.03463853       0.014
  -0.11999137  0.14848169  0.03463853       0.014
  -0.09999281  0.14141113  0.03463853       0.007
  -0.13998993  0.17676392  0.03463853       0.007
  -0.11999137  0.16969336  0.03463853       0.007
  -0.14998922  0.14848169  0.05195780       0.007
  -0.12999065  0.14141113  0.05195780       0.014
  -0.12999065  0.16262280  0.05195780       0.007
  -0.10999209  0.15555225  0.05195780       0.007
 
 k-points in reciprocal lattice and weights: Automatic                               
   0.00000000  0.00000000  0.00000000       0.000
   0.06666667 -0.00000000  0.00000000       0.002
   0.13333333 -0.00000000  0.00000000       0.002
   0.20000000  0.00000000  0.00000000       0.002
   0.26666667 -0.00000000  0.00000000       0.002
   0.33333333 -0.00000000  0.00000000       0.002
   0.40000000 -0.00000000  0.00000000       0.002
   0.46666667 -0.00000000  0.00000000       0.002
   0.06666667  0.06666667  0.00000000       0.002
   0.13333333  0.06666667  0.00000000       0.007
   0.20000000  0.06666667  0.00000000       0.007
   0.26666667  0.06666667  0.00000000       0.007
   0.33333333  0.06666667  0.00000000       0.007
   0.40000000  0.06666667  0.00000000       0.007
   0.46666667  0.06666667  0.00000000       0.007
  -0.46666667  0.06666667  0.00000000       0.007
  -0.40000000  0.06666667  0.00000000       0.007
  -0.33333333  0.06666667  0.00000000       0.007
  -0.26666667  0.06666667  0.00000000       0.007
  -0.20000000  0.06666667  0.00000000       0.007
  -0.13333333  0.06666667  0.00000000       0.007
  -0.06666667  0.06666667  0.00000000       0.004
   0.13333333  0.13333333  0.00000000       0.002
   0.20000000  0.13333333  0.00000000       0.007
   0.26666667  0.13333333  0.00000000       0.007
   0.33333333  0.13333333  0.00000000       0.007
   0.40000000  0.13333333  0.00000000       0.007
   0.46666667  0.13333333  0.00000000       0.007
  -0.46666667  0.13333333  0.00000000       0.007
  -0.40000000  0.13333333  0.00000000       0.007
  -0.33333333  0.13333333  0.00000000       0.007
  -0.26666667  0.13333333  0.00000000       0.007
  -0.20000000  0.13333333  0.00000000       0.007
  -0.13333333  0.13333333  0.00000000       0.004
   0.20000000  0.20000000  0.00000000       0.002
   0.26666667  0.20000000  0.00000000       0.007
   0.33333333  0.20000000  0.00000000       0.007
   0.40000000  0.20000000  0.00000000       0.007
   0.46666667  0.20000000  0.00000000       0.007
  -0.46666667  0.20000000  0.00000000       0.007
  -0.40000000  0.20000000  0.00000000       0.007
  -0.33333333  0.20000000  0.00000000       0.007
  -0.26666667  0.20000000  0.00000000       0.007
  -0.20000000  0.20000000  0.00000000       0.004
   0.26666667  0.26666667  0.00000000       0.002
   0.33333333  0.26666667  0.00000000       0.007
   0.40000000  0.26666667  0.00000000       0.007
   0.46666667  0.26666667  0.00000000       0.007
  -0.46666667  0.26666667  0.00000000       0.007
  -0.40000000  0.26666667  0.00000000       0.007
  -0.33333333  0.26666667  0.00000000       0.007
  -0.26666667  0.26666667  0.00000000       0.004
   0.33333333  0.33333333  0.00000000       0.002
   0.40000000  0.33333333  0.00000000       0.007
   0.46666667  0.33333333  0.00000000       0.007
  -0.46666667  0.33333333  0.00000000       0.007
  -0.40000000  0.33333333  0.00000000       0.007
  -0.33333333  0.33333333  0.00000000       0.004
   0.40000000  0.40000000  0.00000000       0.002
   0.46666667  0.40000000  0.00000000       0.007
  -0.46666667  0.40000000  0.00000000       0.007
  -0.40000000  0.40000000  0.00000000       0.004
   0.46666667  0.46666667  0.00000000       0.002
  -0.46666667  0.46666667  0.00000000       0.004
   0.20000000  0.13333333  0.06666667       0.007
   0.26666667  0.13333333  0.06666667       0.014
   0.33333333  0.13333333  0.06666667       0.014
   0.40000000  0.13333333  0.06666667       0.014
   0.46666667  0.13333333  0.06666667       0.014
  -0.46666667  0.13333333  0.06666667       0.014
   0.26666667  0.20000000  0.06666667       0.007
   0.33333333  0.20000000  0.06666667       0.014
   0.40000000  0.20000000  0.06666667       0.014
   0.46666667  0.20000000  0.06666667       0.014
  -0.46666667  0.20000000  0.06666667       0.014
  -0.40000000  0.20000000  0.06666667       0.014
  -0.33333333  0.20000000  0.06666667       0.014
  -0.26666667  0.20000000  0.06666667       0.014
  -0.20000000  0.20000000  0.06666667       0.014
  -0.13333333  0.20000000  0.06666667       0.007
   0.33333333  0.26666667  0.06666667       0.007
   0.40000000  0.26666667  0.06666667       0.014
   0.46666667  0.26666667  0.06666667       0.014
  -0.46666667  0.26666667  0.06666667       0.014
  -0.40000000  0.26666667  0.06666667       0.014
  -0.33333333  0.26666667  0.06666667       0.014
  -0.26666667  0.26666667  0.06666667       0.014
  -0.20000000  0.26666667  0.06666667       0.007
   0.40000000  0.33333333  0.06666667       0.007
   0.46666667  0.33333333  0.06666667       0.014
  -0.46666667  0.33333333  0.06666667       0.014
  -0.40000000  0.33333333  0.06666667       0.014
  -0.33333333  0.33333333  0.06666667       0.014
  -0.26666667  0.33333333  0.06666667       0.007
   0.46666667  0.40000000  0.06666667       0.007
  -0.46666667  0.40000000  0.06666667       0.014
  -0.40000000  0.40000000  0.06666667       0.014
  -0.33333333  0.40000000  0.06666667       0.007
  -0.46666667  0.46666667  0.06666667       0.007
  -0.40000000  0.46666667  0.06666667       0.007
   0.40000000  0.26666667  0.13333333       0.007
   0.46666667  0.26666667  0.13333333       0.014
  -0.46666667  0.26666667  0.13333333       0.014
  -0.40000000  0.26666667  0.13333333       0.014
   0.46666667  0.33333333  0.13333333       0.007
  -0.46666667  0.33333333  0.13333333       0.014
  -0.40000000  0.33333333  0.13333333       0.014
  -0.33333333  0.33333333  0.13333333       0.014
  -0.26666667  0.33333333  0.13333333       0.014
  -0.20000000  0.33333333  0.13333333       0.007
  -0.46666667  0.40000000  0.13333333       0.007
  -0.40000000  0.40000000  0.13333333       0.014
  -0.33333333  0.40000000  0.13333333       0.014
  -0.26666667  0.40000000  0.13333333       0.007
  -0.40000000  0.46666667  0.13333333       0.007
  -0.33333333  0.46666667  0.13333333       0.007
  -0.40000000  0.40000000  0.20000000       0.007
  -0.33333333  0.40000000  0.20000000       0.014
  -0.33333333  0.46666667  0.20000000       0.007
  -0.26666667  0.46666667  0.20000000       0.007
 
 position of ions in fractional coordinates (direct lattice) 
   0.87500000  0.87500000  0.87500000
   0.12500000  0.12500000  0.12500000
 
 position of ions in cartesian coordinates  (Angst):
   3.88916850  2.75005850  6.73623650
   0.55559550  0.39286550  0.96231950
 


--------------------------------------------------------------------------------------------------------


 k-point   1 :   0.0000 0.0000 0.0000  plane waves:    1471
 k-point   2 :   0.0667-0.0000 0.0000  plane waves:    1468
 k-point   3 :   0.1333-0.0000 0.0000  plane waves:    1498
 k-point   4 :   0.2000 0.0000 0.0000  plane waves:    1504
 k-point   5 :   0.2667-0.0000 0.0000  plane waves:    1513
 k-point   6 :   0.3333-0.0000 0.0000  plane waves:    1504
 k-point   7 :   0.4000-0.0000 0.0000  plane waves:    1504
 k-point   8 :   0.4667-0.0000 0.0000  plane waves:    1502
 k-point   9 :   0.0667 0.0667 0.0000  plane waves:    1467
 k-point  10 :   0.1333 0.0667 0.0000  plane waves:    1494
 k-point  11 :   0.2000 0.0667 0.0000  plane waves:    1504
 k-point  12 :   0.2667 0.0667 0.0000  plane waves:    1508
 k-point  13 :   0.3333 0.0667 0.0000  plane waves:    1517
 k-point  14 :   0.4000 0.0667 0.0000  plane waves:    1504
 k-point  15 :   0.4667 0.0667 0.0000  plane waves:    1511
 k-point  16 :  -0.4667 0.0667 0.0000  plane waves:    1508
 k-point  17 :  -0.4000 0.0667 0.0000  plane waves:    1509
 k-point  18 :  -0.3333 0.0667 0.0000  plane waves:    1508
 k-point  19 :  -0.2667 0.0667 0.0000  plane waves:    1506
 k-point  20 :  -0.2000 0.0667 0.0000  plane waves:    1509
 k-point  21 :  -0.1333 0.0667 0.0000  plane waves:    1507
 k-point  22 :  -0.0667 0.0667 0.0000  plane waves:    1484
 k-point  23 :   0.1333 0.1333 0.0000  plane waves:    1499
 k-point  24 :   0.2000 0.1333 0.0000  plane waves:    1505
 k-point  25 :   0.2667 0.1333 0.0000  plane waves:    1509
 k-point  26 :   0.3333 0.1333 0.0000  plane waves:    1515
 k-point  27 :   0.4000 0.1333 0.0000  plane waves:    1509
 k-point  28 :   0.4667 0.1333 0.0000  plane waves:    1519
 k-point  29 :  -0.4667 0.1333 0.0000  plane waves:    1514
 k-point  30 :  -0.4000 0.1333 0.0000  plane waves:    1511
 k-point  31 :  -0.3333 0.1333 0.0000  plane waves:    1516
 k-point  32 :  -0.2667 0.1333 0.0000  plane waves:    1520
 k-point  33 :  -0.2000 0.1333 0.0000  plane waves:    1510
 k-point  34 :  -0.1333 0.1333 0.0000  plane waves:    1506
 k-point  35 :   0.2000 0.2000 0.0000  plane waves:    1491
 k-point  36 :   0.2667 0.2000 0.0000  plane waves:    1502
 k-point  37 :   0.3333 0.2000 0.0000  plane waves:    1520
 k-point  38 :   0.4000 0.2000 0.0000  plane waves:    1514
 k-point  39 :   0.4667 0.2000 0.0000  plane waves:    1517
 k-point  40 :  -0.4667 0.2000 0.0000  plane waves:    1517
 k-point  41 :  -0.4000 0.2000 0.0000  plane waves:    1507
 k-point  42 :  -0.3333 0.2000 0.0000  plane waves:    1518
 k-point  43 :  -0.2667 0.2000 0.0000  plane waves:    1520
 k-point  44 :  -0.2000 0.2000 0.0000  plane waves:    1520
 k-point  45 :   0.2667 0.2667 0.0000  plane waves:    1507
 k-point  46 :   0.3333 0.2667 0.0000  plane waves:    1521
 k-point  47 :   0.4000 0.2667 0.0000  plane waves:    1519
 k-point  48 :   0.4667 0.2667 0.0000  plane waves:    1516
 k-point  49 :  -0.4667 0.2667 0.0000  plane waves:    1517
 k-point  50 :  -0.4000 0.2667 0.0000  plane waves:    1518
 k-point  51 :  -0.3333 0.2667 0.0000  plane waves:    1516
 k-point  52 :  -0.2667 0.2667 0.0000  plane waves:    1524
 k-point  53 :   0.3333 0.3333 0.0000  plane waves:    1527
 k-point  54 :   0.4000 0.3333 0.0000  plane waves:    1526
 k-point  55 :   0.4667 0.3333 0.0000  plane waves:    1525
 k-point  56 :  -0.4667 0.3333 0.0000  plane waves:    1521
 k-point  57 :  -0.4000 0.3333 0.0000  plane waves:    1520
 k-point  58 :  -0.3333 0.3333 0.0000  plane waves:    1516
 k-point  59 :   0.4000 0.4000 0.0000  plane waves:    1524
 k-point  60 :   0.4667 0.4000 0.0000  plane waves:    1526
 k-point  61 :  -0.4667 0.4000 0.0000  plane waves:    1521
 k-point  62 :  -0.4000 0.4000 0.0000  plane waves:    1522
 k-point  63 :   0.4667 0.4667 0.0000  plane waves:    1528
 k-point  64 :  -0.4667 0.4667 0.0000  plane waves:    1540
 k-point  65 :   0.2000 0.1333 0.0667  plane waves:    1499
 k-point  66 :   0.2667 0.1333 0.0667  plane waves:    1506
 k-point  67 :   0.3333 0.1333 0.0667  plane waves:    1514
 k-point  68 :   0.4000 0.1333 0.0667  plane waves:    1521
 k-point  69 :   0.4667 0.1333 0.0667  plane waves:    1517
 k-point  70 :  -0.4667 0.1333 0.0667  plane waves:    1510
 k-point  71 :   0.2667 0.2000 0.0667  plane waves:    1506
 k-point  72 :   0.3333 0.2000 0.0667  plane waves:    1512
 k-point  73 :   0.4000 0.2000 0.0667  plane waves:    1515
 k-point  74 :   0.4667 0.2000 0.0667  plane waves:    1519
 k-point  75 :  -0.4667 0.2000 0.0667  plane waves:    1518
 k-point  76 :  -0.4000 0.2000 0.0667  plane waves:    1518
 k-point  77 :  -0.3333 0.2000 0.0667  plane waves:    1518
 k-point  78 :  -0.2667 0.2000 0.0667  plane waves:    1517
 k-point  79 :  -0.2000 0.2000 0.0667  plane waves:    1525
 k-point  80 :  -0.1333 0.2000 0.0667  plane waves:    1511
 k-point  81 :   0.3333 0.2667 0.0667  plane waves:    1518
 k-point  82 :   0.4000 0.2667 0.0667  plane waves:    1520
 k-point  83 :   0.4667 0.2667 0.0667  plane waves:    1522
 k-point  84 :  -0.4667 0.2667 0.0667  plane waves:    1518
 k-point  85 :  -0.4000 0.2667 0.0667  plane waves:    1526
 k-point  86 :  -0.3333 0.2667 0.0667  plane waves:    1525
 k-point  87 :  -0.2667 0.2667 0.0667  plane waves:    1520
 k-point  88 :  -0.2000 0.2667 0.0667  plane waves:    1521
 k-point  89 :   0.4000 0.3333 0.0667  plane waves:    1520
 k-point  90 :   0.4667 0.3333 0.0667  plane waves:    1523
 k-point  91 :  -0.4667 0.3333 0.0667  plane waves:    1516
 k-point  92 :  -0.4000 0.3333 0.0667  plane waves:    1525
 k-point  93 :  -0.3333 0.3333 0.0667  plane waves:    1526
 k-point  94 :  -0.2667 0.3333 0.0667  plane waves:    1519
 k-point  95 :   0.4667 0.4000 0.0667  plane waves:    1523
 k-point  96 :  -0.4667 0.4000 0.0667  plane waves:    1527
 k-point  97 :  -0.4000 0.4000 0.0667  plane waves:    1522
 k-point  98 :  -0.3333 0.4000 0.0667  plane waves:    1523
 k-point  99 :  -0.4667 0.4667 0.0667  plane waves:    1535
 k-point 100 :  -0.4000 0.4667 0.0667  plane waves:    1526
 k-point 101 :   0.4000 0.2667 0.1333  plane waves:    1514
 k-point 102 :   0.4667 0.2667 0.1333  plane waves:    1521
 k-point 103 :  -0.4667 0.2667 0.1333  plane waves:    1517
 k-point 104 :  -0.4000 0.2667 0.1333  plane waves:    1523
 k-point 105 :   0.4667 0.3333 0.1333  plane waves:    1519
 k-point 106 :  -0.4667 0.3333 0.1333  plane waves:    1518
 k-point 107 :  -0.4000 0.3333 0.1333  plane waves:    1522
 k-point 108 :  -0.3333 0.3333 0.1333  plane waves:    1526
 k-point 109 :  -0.2667 0.3333 0.1333  plane waves:    1523
 k-point 110 :  -0.2000 0.3333 0.1333  plane waves:    1517
 k-point 111 :  -0.4667 0.4000 0.1333  plane waves:    1524
 k-point 112 :  -0.4000 0.4000 0.1333  plane waves:    1527
 k-point 113 :  -0.3333 0.4000 0.1333  plane waves:    1523
 k-point 114 :  -0.2667 0.4000 0.1333  plane waves:    1525
 k-point 115 :  -0.4000 0.4667 0.1333  plane waves:    1528
 k-point 116 :  -0.3333 0.4667 0.1333  plane waves:    1525
 k-point 117 :  -0.4000 0.4000 0.2000  plane waves:    1531
 k-point 118 :  -0.3333 0.4000 0.2000  plane waves:    1521
 k-point 119 :  -0.3333 0.4667 0.2000  plane waves:    1523
 k-point 120 :  -0.2667 0.4667 0.2000  plane waves:    1527

 maximum and minimum number of plane-waves per node :      1540     1467

 maximum number of plane-waves:      1540
 maximum index in each direction: 
   IXMAX=    8   IYMAX=    8   IZMAX=    8
   IXMIN=   -8   IYMIN=   -8   IZMIN=   -8


 serial   3D FFT for wavefunctions
 parallel 3D FFT for charge:
    minimum data exchange during FFTs selected (reduces bandwidth)


 total amount of memory used by VASP MPI-rank0    62236. kBytes
=======================================================================

   base      :      30000. kBytes
   nonl-proj :      11876. kBytes
   fftplans  :       9841. kBytes
   grid      :       4538. kBytes
   one-center:          6. kBytes
   wavefun   :       5975. kBytes
 
     INWAV:  cpu time    0.0000: real time    0.0006
 Broyden mixing: mesh for mixing (old mesh)
   NGX = 17   NGY = 17   NGZ = 17
  (NGX  = 64   NGY  = 64   NGZ  = 64)
  gives a total of   4913 points

 initial charge density was supplied:
 charge density of overlapping atoms calculated
 number of electron       8.0000000 magnetization 
 keeping initial charge density in first step


--------------------------------------------------------------------------------------------------------


 Maximum index for augmentation-charges        52609 (set IRDMAX)


--------------------------------------------------------------------------------------------------------


 First call to EWALD:  gamma=   0.517
 Maximum number of real-space cells 3x 3x 3
 Maximum number of reciprocal cells 3x 3x 3

    FEWALD:  cpu time    0.0030: real time    0.0036


--------------------------------------- Iteration      1(   1)  ---------------------------------------


    POTLOK:  cpu time    0.0700: real time    0.0723
    SETDIJ:  cpu time    0.2080: real time    0.2087
     EDDAV:  cpu time    1.4238: real time    1.4249
       DOS:  cpu time    0.0010: real time    0.0024
    --------------------------------------------
      LOOP:  cpu time    1.7037: real time    1.7086

 eigenvalue-minimisations  :  1920
 total energy-change (2. order) : 0.7522592E+01  (-0.3679925E+03)
 number of electron       8.0000000 magnetization 
 augmentation part        8.0000000 magnetization 

 Free energy of the ion-electron system (eV)
  ---------------------------------------------------
  alpha Z        PSCENC =         3.33880741
  Ewald energy   TEWEN  =      -227.98820643
  -Hartree energ DENC   =       -11.11484531
  -exchange      EXHF   =         0.00000000
  -V(xc)+E(xc)   XCENC  =       -18.63153721
  PAW double counting   =       176.24759923     -141.06103558
  entropy T*S    EENTRO =        -0.00014715
  eigenvalues    EBANDS =        20.59876640
  atomic energy  EATOM  =       206.13319108
  Solvation  Ediel_sol  =         0.00000000
  ---------------------------------------------------
  free energy    TOTEN  =         7.52259244 eV

  energy without entropy =        7.52273959  energy(sigma->0) =        7.52266602


--------------------------------------------------------------------------------------------------------




--------------------------------------- Iteration      1(   2)  ---------------------------------------


     EDDAV:  cpu time    1.9427: real time    1.9600
       DOS:  cpu time    0.0010: real time    0.0017
    --------------------------------------------
      LOOP:  cpu time    1.9427: real time    1.9615

 eigenvalue-minimisations  :  2824
 total energy-change (2. order) :-0.1827412E+02  (-0.1759424E+02)
 number of electron       8.0000000 magnetization 
 augmentation part        8.0000000 magnetization 

 Free energy of the ion-electron system (eV)
  ---------------------------------------------------
  alpha Z        PSCENC =         3.33880741
  Ewald energy   TEWEN  =      -227.98820643
  -Hartree energ DENC   =       -11.11484531
  -exchange      EXHF   =         0.00000000
  -V(xc)+E(xc)   XCENC  =       -18.63153721
  PAW double counting   =       176.24759923     -141.06103558
  entropy T*S    EENTRO =        -0.00000000
  eigenvalues    EBANDS =         2.32450145
  atomic energy  EATOM  =       206.13319108
  Solvation  Ediel_sol  =         0.00000000
  ---------------------------------------------------
  free energy    TOTEN  =       -10.75152535 eV

  energy without entropy =      -10.75152535  energy(sigma->0) =      -10.75152535


--------------------------------------------------------------------------------------------------------




--------------------------------------- Iteration      1(   3)  ---------------------------------------


     EDDAV:  cpu time    1.8727: real time    1.8906
       DOS:  cpu time    0.0020: real time    0.0016
    --------------------------------------------
      LOOP:  cpu time    1.8747: real time    1.8922

 eigenvalue-minimisations  :  2696
 total energy-change (2. order) :-0.2711944E+00  (-0.2711944E+00)
 number of electron       8.0000000 magnetization 
 augmentation part        8.0000000 magnetization 

 Free energy of the ion-electron system (eV)
  ---------------------------------------------------
  alpha Z        PSCENC =         3.33880741
  Ewald energy   TEWEN  =      -227.98820643
  -Hartree energ DENC   =       -11.11484531
  -exchange      EXHF   =         0.00000000
  -V(xc)+E(xc)   XCENC  =       -18.63153721
  PAW double counting   =       176.24759923     -141.06103558
  entropy T*S    EENTRO =        -0.00000000
  eigenvalues    EBANDS =         2.05330701
  atomic energy  EATOM  =       206.13319108
  Solvation  Ediel_sol  =         0.00000000
  ---------------------------------------------------
  free energy    TOTEN  =       -11.02271979 eV

  energy without entropy =      -11.02271979  energy(sigma->0) =      -11.02271979


--------------------------------------------------------------------------------------------------------




--------------------------------------- Iteration      1(   4)  ---------------------------------------


     EDDAV:  cpu time    1.9817: real time    2.0297
       DOS:  cpu time    0.0000: real time    0.0016
    --------------------------------------------
      LOOP:  cpu time    1.9827: real time    2.0313

 eigenvalue-minimisations  :  2888
 total energy-change (2. order) :-0.1077832E-02  (-0.1077832E-02)
 number of electron       8.0000000 magnetization 
 augmentation part        8.0000000 magnetization 

 Free energy of the ion-electron system (eV)
  ---------------------------------------------------
  alpha Z        PSCENC =         3.33880741
  Ewald energy   TEWEN  =      -227.98820643
  -Hartree energ DENC   =       -11.11484531
  -exchange      EXHF   =         0.00000000
  -V(xc)+E(xc)   XCENC  =       -18.63153721
  PAW double counting   =       176.24759923     -141.06103558
  entropy T*S    EENTRO =        -0.00000000
  eigenvalues    EBANDS =         2.05222918
  atomic energy  EATOM  =       206.13319108
  Solvation  Ediel_sol  =         0.00000000
  ---------------------------------------------------
  free energy    TOTEN  =       -11.02379762 eV

  energy without entropy =      -11.02379762  energy(sigma->0) =      -11.02379762


--------------------------------------------------------------------------------------------------------




--------------------------------------- Iteration      1(   5)  ---------------------------------------


     EDDAV:  cpu time    1.8837: real time    1.9019
       DOS:  cpu time    0.0020: real time    0.0017
    CHARGE:  cpu time    0.1510: real time    0.1521
    MIXING:  cpu time    0.0030: real time    0.0031
    --------------------------------------------
      LOOP:  cpu time    2.0397: real time    2.0588

 eigenvalue-minimisations  :  2720
 total energy-change (2. order) :-0.2618581E-05  (-0.2618574E-05)
 number of electron       8.0000000 magnetization 
 augmentation part       -0.4703605 magnetization 

 Broyden mixing:
  rms(total) = 0.48309E+00    rms(broyden)= 0.48309E+00
  rms(prec ) = 0.94539E+00
  weight for this iteration     100.00

 Free energy of the ion-electron system (eV)
  ---------------------------------------------------
  alpha Z        PSCENC =         3.33880741
  Ewald energy   TEWEN  =      -227.98820643
  -Hartree energ DENC   =       -11.11484531
  -exchange      EXHF   =         0.00000000
  -V(xc)+E(xc)   XCENC  =       -18.63153721
  PAW double counting   =       176.24759923     -141.06103558
  entropy T*S    EENTRO =        -0.00000000
  eigenvalues    EBANDS =         2.05222656
  atomic energy  EATOM  =       206.13319108
  Solvation  Ediel_sol  =         0.00000000
  ---------------------------------------------------
  free energy    TOTEN  =       -11.02380024 eV

  energy without entropy =      -11.02380024  energy(sigma->0) =      -11.02380024


--------------------------------------------------------------------------------------------------------




--------------------------------------- Iteration      1(   6)  ---------------------------------------


    POTLOK:  cpu time    0.0700: real time    0.1080
    SETDIJ:  cpu time    0.1980: real time    0.1977
     EDDAV:  cpu time    1.7057: real time    1.7074
       DOS:  cpu time    0.0010: real time    0.0017
    CHARGE:  cpu time    0.1370: real time    0.1378
    MIXING:  cpu time    0.0040: real time    0.0032
    --------------------------------------------
      LOOP:  cpu time    2.1147: real time    2.1558

 eigenvalue-minimisations  :  2400
 total energy-change (2. order) : 0.1215654E+00  (-0.8030691E-02)
 number of electron       8.0000000 magnetization 
 augmentation part       -0.4645948 magnetization 

 Broyden mixing:
  rms(total) = 0.29535E+00    rms(broyden)= 0.29535E+00
  rms(prec ) = 0.56207E+00
  weight for this iteration     100.00

 eigenvalues of (default mixing * dielectric matrix)
  average eigenvalue GAMMA=   2.5637
  2.5637

 Free energy of the ion-electron system (eV)
  ---------------------------------------------------
  alpha Z        PSCENC =         3.33880741
  Ewald energy   TEWEN  =      -227.98820643
  -Hartree energ DENC   =       -12.60053599
  -exchange      EXHF   =         0.00000000
  -V(xc)+E(xc)   XCENC  =       -18.39792613
  PAW double counting   =       376.42232887     -341.34349844
  entropy T*S    EENTRO =        -0.00000000
  eigenvalues    EBANDS =         3.53360477
  atomic energy  EATOM  =       206.13319108
  Solvation  Ediel_sol  =         0.00000000
  ---------------------------------------------------
  free energy    TOTEN  =       -10.90223486 eV

  energy without entropy =      -10.90223486  energy(sigma->0) =      -10.90223486


--------------------------------------------------------------------------------------------------------




--------------------------------------- Iteration      1(   7)  ---------------------------------------


    POTLOK:  cpu time    0.0690: real time    0.0854
    SETDIJ:  cpu time    0.1960: real time    0.1956
     EDDAV:  cpu time    1.7527: real time    1.7552
       DOS:  cpu time    0.0010: real time    0.0017
    CHARGE:  cpu time    0.1390: real time    0.1386
    MIXING:  cpu time    0.0020: real time    0.0028
    --------------------------------------------
      LOOP:  cpu time    2.1607: real time    2.1792

 eigenvalue-minimisations  :  2488
 total energy-change (2. order) : 0.5559732E-01  (-0.1523640E-01)
 number of electron       8.0000000 magnetization 
 augmentation part       -0.4576019 magnetization 

 Broyden mixing:
  rms(total) = 0.18411E-01    rms(broyden)= 0.18411E-01
  rms(prec ) = 0.41205E-01
  weight for this iteration     100.00

 eigenvalues of (default mixing * dielectric matrix)
  average eigenvalue GAMMA=   2.0656
  1.7529  2.3784

 Free energy of the ion-electron system (eV)
  ---------------------------------------------------
  alpha Z        PSCENC =         3.33880741
  Ewald energy   TEWEN  =      -227.98820643
  -Hartree energ DENC   =       -15.02677457
  -exchange      EXHF   =         0.00000000
  -V(xc)+E(xc)   XCENC  =       -18.00750727
  PAW double counting   =       852.98439913     -818.04466752
  entropy T*S    EENTRO =        -0.00000000
  eigenvalues    EBANDS =         5.76412062
  atomic energy  EATOM  =       206.13319108
  Solvation  Ediel_sol  =         0.00000000
  ---------------------------------------------------
  free energy    TOTEN  =       -10.84663754 eV

  energy without entropy =      -10.84663754  energy(sigma->0) =      -10.84663754


--------------------------------------------------------------------------------------------------------




--------------------------------------- Iteration      1(   8)  ---------------------------------------


    POTLOK:  cpu time    0.0700: real time    0.0863
    SETDIJ:  cpu time    0.1970: real time    0.1968
     EDDAV:  cpu time    1.6038: real time    1.6055
       DOS:  cpu time    0.0010: real time    0.0016
    CHARGE:  cpu time    0.1380: real time    0.1380
    MIXING:  cpu time    0.0020: real time    0.0033
    --------------------------------------------
      LOOP:  cpu time    2.0117: real time    2.0316

 eigenvalue-minimisations  :  2216
 total energy-change (2. order) :-0.1071029E-02  (-0.3887513E-03)
 number of electron       8.0000000 magnetization 
 augmentation part       -0.4585619 magnetization 

 Broyden mixing:
  rms(total) = 0.73770E-02    rms(broyden)= 0.73770E-02
  rms(prec ) = 0.13191E-01
  weight for this iteration     100.00

 eigenvalues of (default mixing * dielectric matrix)
  average eigenvalue GAMMA=   2.2595
  2.8583  1.9600  1.9600

 Free energy of the ion-electron system (eV)
  ---------------------------------------------------
  alpha Z        PSCENC =         3.33880741
  Ewald energy   TEWEN  =      -227.98820643
  -Hartree energ DENC   =       -14.95522952
  -exchange      EXHF   =         0.00000000
  -V(xc)+E(xc)   XCENC  =       -18.00751733
  PAW double counting   =       862.06213406     -827.09566000
  entropy T*S    EENTRO =        -0.00000000
  eigenvalues    EBANDS =         5.66477215
  atomic energy  EATOM  =       206.13319108
  Solvation  Ediel_sol  =         0.00000000
  ---------------------------------------------------
  free energy    TOTEN  =       -10.84770857 eV

  energy without entropy =      -10.84770857  energy(sigma->0) =      -10.84770857


--------------------------------------------------------------------------------------------------------




--------------------------------------- Iteration      1(   9)  ---------------------------------------


    POTLOK:  cpu time    0.0700: real time    0.0859
    SETDIJ:  cpu time    0.1970: real time    0.1967
     EDDAV:  cpu time    1.9827: real time    1.9847
       DOS:  cpu time    0.0010: real time    0.0016
    CHARGE:  cpu time    0.1380: real time    0.1381
    MIXING:  cpu time    0.0040: real time    0.0033
    --------------------------------------------
      LOOP:  cpu time    2.3916: real time    2.4103

 eigenvalue-minimisations  :  2872
 total energy-change (2. order) :-0.1947647E-03  (-0.1930031E-04)
 number of electron       8.0000000 magnetization 
 augmentation part       -0.4586784 magnetization 

 Broyden mixing:
  rms(total) = 0.56950E-02    rms(broyden)= 0.56950E-02
  rms(prec ) = 0.65624E-02
  weight for this iteration     100.00

 eigenvalues of (default mixing * dielectric matrix)
  average eigenvalue GAMMA=   2.1080
  0.9361  2.5365  2.5365  2.4228

 Free energy of the ion-electron system (eV)
  ---------------------------------------------------
  alpha Z        PSCENC =         3.33880741
  Ewald energy   TEWEN  =      -227.98820643
  -Hartree energ DENC   =       -14.99870285
  -exchange      EXHF   =         0.00000000
  -V(xc)+E(xc)   XCENC  =       -17.99902402
  PAW double counting   =       864.28563159     -829.31677653
  entropy T*S    EENTRO =        -0.00000000
  eigenvalues    EBANDS =         5.69717640
  atomic energy  EATOM  =       206.13319108
  Solvation  Ediel_sol  =         0.00000000
  ---------------------------------------------------
  free energy    TOTEN  =       -10.84790333 eV

  energy without entropy =      -10.84790333  energy(sigma->0) =      -10.84790333


--------------------------------------------------------------------------------------------------------




--------------------------------------- Iteration      1(  10)  ---------------------------------------


    POTLOK:  cpu time    0.0700: real time    0.0856
    SETDIJ:  cpu time    0.1970: real time    0.1968
     EDDAV:  cpu time    1.6567: real time    1.6580
       DOS:  cpu time    0.0010: real time    0.0016
    CHARGE:  cpu time    0.1380: real time    0.1380
    MIXING:  cpu time    0.0030: real time    0.0033
    --------------------------------------------
      LOOP:  cpu time    2.0657: real time    2.0833

 eigenvalue-minimisations  :  2296
 total energy-change (2. order) :-0.2528739E-04  (-0.2988031E-05)
 number of electron       8.0000000 magnetization 
 augmentation part       -0.4586552 magnetization 

 Broyden mixing:
  rms(total) = 0.95625E-03    rms(broyden)= 0.95625E-03
  rms(prec ) = 0.10507E-02
  weight for this iteration     100.00

 eigenvalues of (default mixing * dielectric matrix)
  average eigenvalue GAMMA=   1.9096
  2.9025  2.4351  2.0722  1.0692  1.0692

 Free energy of the ion-electron system (eV)
  ---------------------------------------------------
  alpha Z        PSCENC =         3.33880741
  Ewald energy   TEWEN  =      -227.98820643
  -Hartree energ DENC   =       -15.00639289
  -exchange      EXHF   =         0.00000000
  -V(xc)+E(xc)   XCENC  =       -17.99873421
  PAW double counting   =       852.78114576     -817.81219336
  entropy T*S    EENTRO =        -0.00000000
  eigenvalues    EBANDS =         5.70445402
  atomic energy  EATOM  =       206.13319108
  Solvation  Ediel_sol  =         0.00000000
  ---------------------------------------------------
  free energy    TOTEN  =       -10.84792862 eV

  energy without entropy =      -10.84792862  energy(sigma->0) =      -10.84792862


--------------------------------------------------------------------------------------------------------




--------------------------------------- Iteration      1(  11)  ---------------------------------------


    POTLOK:  cpu time    0.0700: real time    0.0858
    SETDIJ:  cpu time    0.1960: real time    0.1968
     EDDAV:  cpu time    1.8457: real time    1.8471
       DOS:  cpu time    0.0000: real time    0.0017
    --------------------------------------------
      LOOP:  cpu time    2.1127: real time    2.1313

 eigenvalue-minimisations  :  2648
 total energy-change (2. order) : 0.3272127E-06  (-0.5766837E-07)
 number of electron       8.0000000 magnetization 
 augmentation part       -0.4586552 magnetization 

 Free energy of the ion-electron system (eV)
  ---------------------------------------------------
  alpha Z        PSCENC =         3.33880741
  Ewald energy   TEWEN  =      -227.98820643
  -Hartree energ DENC   =       -15.00498263
  -exchange      EXHF   =         0.00000000
  -V(xc)+E(xc)   XCENC  =       -17.99878732
  PAW double counting   =       854.16876584     -819.19934784
  entropy T*S    EENTRO =        -0.00000000
  eigenvalues    EBANDS =         5.70263159
  atomic energy  EATOM  =       206.13319108
  Solvation  Ediel_sol  =         0.00000000
  ---------------------------------------------------
  free energy    TOTEN  =       -10.84792829 eV

  energy without entropy =      -10.84792829  energy(sigma->0) =      -10.84792829


--------------------------------------------------------------------------------------------------------




 average (electrostatic) potential at core
  the test charge radii are     0.9892
  (the norm of the test charge is              1.0000)
       1 -83.3314       2 -83.3314
 
 
 
 E-fermi :   5.9941     XC(G=0):  -9.3814     alpha+bet :-11.8943

 Fermi energy:         5.9941221446

 k-point     1 :       0.0000    0.0000    0.0000
  band No.  band energies     occupation 
      1      -6.1550      2.00000
      2       5.7530      2.00000
      3       5.7530      2.00000
      4       5.7530      2.00000
      5       8.3161      0.00000
      6       8.3161      0.00000
      7       8.3161      0.00000
      8       9.0442      0.00000

 k-point     2 :       0.0667   -0.0000    0.0000
  band No.  band energies     occupation 
      1      -6.0971      2.00000
      2       5.1611      2.00000
      3       5.6585      2.00000
      4       5.6586      2.00000
      5       8.3699      0.00000
      6       8.4549      0.00000
      7       8.4549      0.00000
      8       9.4839      0.00000

 k-point     3 :       0.1333   -0.0000    0.0000
  band No.  band energies     occupation 
      1      -5.9244      2.00000
      2       4.0045      2.00000
      3       5.4353      2.00000
      4       5.4353      2.00000
      5       8.2091      0.00000
      6       8.7822      0.00000
      7       8.7822      0.00000
      8      10.5524      0.00000

 k-point     4 :       0.2000    0.0000    0.0000
  band No.  band energies     occupation 
      1      -5.6408      2.00000
      2       2.7557      2.00000
      3       5.1784      2.00000
      4       5.1784      2.00000
      5       7.9526      0.00000
      6       9.1115      0.00000
      7       9.1115      0.00000
      8      11.7483      0.00000

 k-point     5 :       0.2667   -0.0000    0.0000
  band No.  band energies     occupation 
      1      -5.2552      2.00000
      2       1.5480      2.00000
      3       4.9448      2.00000
      4       4.9448      2.00000
      5       7.7006      0.00000
      6       9.2764      0.00000
      7       9.2764      0.00000
      8      12.8866      0.00000

 k-point     6 :       0.3333   -0.0000    0.0000
  band No.  band energies     occupation 
      1      -4.7874      2.00000
      2       0.4437      2.00000
      3       4.7599      2.00000
      4       4.7599      2.00000
      5       7.4940      0.00000
      6       9.2599      0.00000
      7       9.2599      0.00000
      8      13.5952      0.00000

 k-point     7 :       0.4000   -0.0000    0.0000
  band No.  band energies     occupation 
      1      -4.2885      2.00000
      2      -0.4870      2.00000
      3       4.6340      2.00000
      4       4.6340      2.00000
      5       7.3505      0.00000
      6       9.1715      0.00000
      7       9.1716      0.00000
      8      13.5829      0.00000

 k-point     8 :       0.4667   -0.0000    0.0000
  band No.  band energies     occupation 
      1      -3.9032      2.00000
      2      -1.0902      2.00000
      3       4.5706      2.00000
      4       4.5706      2.00000
      5       7.2774      0.00000
      6       9.1063      0.00000
      7       9.1063      0.00000
      8      13.4871      0.00000

 k-point     9 :       0.0667    0.0667    0.0000
  band No.  band energies     occupation 
      1      -6.0777      2.00000
      2       5.2781      2.00000
      3       5.4619      2.00000
      4       5.4619      2.00000
      5       8.1352      0.00000
      6       8.7022      0.00000
      7       8.7022      0.00000
      8       9.4955      0.00000

 k-point    10 :       0.1333    0.0667    0.0000
  band No.  band energies     occupation 
      1      -5.9430      2.00000
      2       4.3470      2.00000
      3       5.1852      2.00000
      4       5.3575      2.00000
      5       8.1342      0.00000
      6       8.7927      0.00000
      7       9.1016      0.00000
      8      10.2571      0.00000

 k-point    11 :       0.2000    0.0667    0.0000
  band No.  band energies     occupation 
      1      -5.6960      2.00000
      2       3.1501      2.00000
      3       4.9117      2.00000
      4       5.1405      2.00000
      5       8.2284      0.00000
      6       8.7843      0.00000
      7       9.4882      0.00000
      8      11.0966      0.00000

 k-point    12 :       0.2667    0.0667    0.0000
  band No.  band energies     occupation 
      1      -5.3432      2.00000
      2       1.9438      2.00000
      3       4.6851      2.00000
      4       4.8677      2.00000
      5       8.1012      0.00000
      6       8.9569      0.00000
      7       9.6981      0.00000
      8      11.5380      0.00000

 k-point    13 :       0.3333    0.0667    0.0000
  band No.  band energies     occupation 
      1      -4.8996      2.00000
      2       0.8117      2.00000
      3       4.5248      2.00000
      4       4.6059      2.00000
      5       7.9125      0.00000
      6       9.0409      0.00000
      7       9.6816      0.00000
      8      12.0999      0.00000

 k-point    14 :       0.4000    0.0667    0.0000
  band No.  band energies     occupation 
      1      -4.4016      2.00000
      2      -0.1805      2.00000
      3       4.3856      2.00000
      4       4.4382      2.00000
      5       7.7587      0.00000
      6       9.0219      0.00000
      7       9.5398      0.00000
      8      12.9089      0.00000

 k-point    15 :       0.4667    0.0667    0.0000
  band No.  band energies     occupation 
      1      -3.9517      2.00000
      2      -0.9165      2.00000
      3       4.2214      2.00000
      4       4.4261      2.00000
      5       7.6655      0.00000
      6       9.0072      0.00000
      7       9.3860      0.00000
      8      13.5505      0.00000

 k-point    16 :      -0.4667    0.0667    0.0000
  band No.  band energies     occupation 
      1      -3.7974      2.00000
      2      -1.1425      2.00000
      3       4.1221      2.00000
      4       4.4854      2.00000
      5       7.6414      0.00000
      6       9.0552      0.00000
      7       9.2807      0.00000
      8      13.6841      0.00000

 k-point    17 :      -0.4000    0.0667    0.0000
  band No.  band energies     occupation 
      1      -4.0850      2.00000
      2      -0.7108      2.00000
      3       4.0938      2.00000
      4       4.6108      2.00000
      5       7.6881      0.00000
      6       9.1760      0.00000
      7       9.2405      0.00000
      8      13.6618      0.00000

 k-point    18 :      -0.3333    0.0667    0.0000
  band No.  band energies     occupation 
      1      -4.5703      2.00000
      2       0.1313      2.00000
      3       4.1414      2.00000
      4       4.7945      2.00000
      5       7.8039      0.00000
      6       9.2410      0.00000
      7       9.3396      0.00000
      8      13.2719      0.00000

 k-point    19 :      -0.2667    0.0667    0.0000
  band No.  band energies     occupation 
      1      -5.0566      2.00000
      2       1.1782      2.00000
      3       4.2681      2.00000
      4       5.0249      2.00000
      5       7.9822      0.00000
      6       9.2063      0.00000
      7       9.4605      0.00000
      8      12.5253      0.00000

 k-point    20 :      -0.2000    0.0667    0.0000
  band No.  band energies     occupation 
      1      -5.4723      2.00000
      2       2.3385      2.00000
      3       4.4747      2.00000
      4       5.2820      2.00000
      5       8.2078      0.00000
      6       9.0322      0.00000
      7       9.3881      0.00000
      8      11.8066      0.00000

 k-point    21 :      -0.1333    0.0667    0.0000
  band No.  band energies     occupation 
      1      -5.7908      2.00000
      2       3.5372      2.00000
      3       4.7628      2.00000
      4       5.5256      2.00000
      5       8.4450      0.00000
      6       8.7288      0.00000
      7       9.0459      0.00000
      8      11.0162      0.00000

 k-point    22 :      -0.0667    0.0667    0.0000
  band No.  band energies     occupation 
      1      -6.0008      2.00000
      2       4.6001      2.00000
      3       5.1694      2.00000
      4       5.6804      2.00000
      5       8.4750      0.00000
      6       8.5874      0.00000
      7       8.6098      0.00000
      8      10.0941      0.00000

 k-point    23 :       0.1333    0.1333    0.0000
  band No.  band energies     occupation 
      1      -5.8465      2.00000
      2       4.2773      2.00000
      3       4.8770      2.00000
      4       4.8770      2.00000
      5       7.7078      0.00000
      6       9.5693      0.00000
      7       9.5693      0.00000
      8      10.1303      0.00000

 k-point    24 :       0.2000    0.1333    0.0000
  band No.  band energies     occupation 
      1      -5.6366      2.00000
      2       3.3921      2.00000
      3       4.5861      2.00000
      4       4.6613      2.00000
      5       7.6744      0.00000
      6       9.6172      0.00000
      7      10.0397      0.00000
      8      10.3864      0.00000

 k-point    25 :       0.2667    0.1333    0.0000
  band No.  band energies     occupation 
      1      -5.3185      2.00000
      2       2.2873      2.00000
      3       4.3520      2.00000
      4       4.3752      2.00000
      5       7.8691      0.00000
      6       9.5340      0.00000
      7      10.3464      0.00000
      8      10.4053      0.00000

 k-point    26 :       0.3333    0.1333    0.0000
  band No.  band energies     occupation 
      1      -4.9032      2.00000
      2       1.1838      2.00000
      3       4.0461      2.00000
      4       4.1932      2.00000
      5       7.9707      0.00000
      6       9.5388      0.00000
      7      10.3902      0.00000
      8      10.6209      0.00000

 k-point    27 :       0.4000    0.1333    0.0000
  band No.  band energies     occupation 
      1      -4.4170      2.00000
      2       0.1708      2.00000
      3       3.7395      2.00000
      4       4.1176      2.00000
      5       7.9471      0.00000
      6       9.4641      0.00000
      7      10.2456      0.00000
      8      11.3387      0.00000

 k-point    28 :       0.4667    0.1333    0.0000
  band No.  band energies     occupation 
      1      -3.9309      2.00000
      2      -0.6528      2.00000
      3       3.4867      2.00000
      4       4.1265      2.00000
      5       7.9204      0.00000
      6       9.3793      0.00000
      7      10.0430      0.00000
      8      12.3613      0.00000

 k-point    29 :      -0.4667    0.1333    0.0000
  band No.  band energies     occupation 
      1      -3.6432      2.00000
      2      -1.0756      2.00000
      3       3.3047      2.00000
      4       4.2170      2.00000
      5       7.9523      0.00000
      6       9.3513      0.00000
      7       9.8627      0.00000
      8      13.4776      0.00000

 k-point    30 :      -0.4000    0.1333    0.0000
  band No.  band energies     occupation 
      1      -3.8022      2.00000
      2      -0.8453      2.00000
      3       3.2047      2.00000
      4       4.3826      2.00000
      5       8.0561      0.00000
      6       9.4000      0.00000
[...]
      8      11.7688      0.00000

 k-point    86 :      -0.3333    0.2667    0.0667
  band No.  band energies     occupation 
      1      -3.4515      2.00000
      2      -0.8579      2.00000
      3       1.8497      2.00000
      4       3.6749      2.00000
      5       7.9444      0.00000
      6       9.9022      0.00000
      7      11.5747      0.00000
      8      12.3227      0.00000

 k-point    87 :      -0.2667    0.2667    0.0667
  band No.  band energies     occupation 
      1      -3.9060      2.00000
      2      -0.2258      2.00000
      3       1.8986      2.00000
      4       3.9401      2.00000
      5       8.2364      0.00000
      6       9.7514      0.00000
      7      11.1894      0.00000
      8      11.5353      0.00000

 k-point    88 :      -0.2000    0.2667    0.0667
  band No.  band energies     occupation 
      1      -4.3925      2.00000
      2       0.4685      2.00000
      3       2.1991      2.00000
      4       4.2501      2.00000
      5       8.5563      0.00000
      6       9.3893      0.00000
      7      10.6491      0.00000
      8      11.1070      0.00000

 k-point    89 :       0.4000    0.3333    0.0667
  band No.  band energies     occupation 
      1      -4.2669      2.00000
      2       0.5153      2.00000
      3       2.9687      2.00000
      4       3.2514      2.00000
      5       6.8096      0.00000
      6       7.9473      0.00000
      7      11.9478      0.00000
      8      12.7574      0.00000

 k-point    90 :       0.4667    0.3333    0.0667
  band No.  band energies     occupation 
      1      -3.8078      2.00000
      2      -0.1417      2.00000
      3       2.4954      2.00000
      4       3.0891      2.00000
      5       7.0882      0.00000
      6       8.1846      0.00000
      7      11.7579      0.00000
      8      13.0950      0.00000

 k-point    91 :      -0.4667    0.3333    0.0667
  band No.  band energies     occupation 
      1      -3.3127      2.00000
      2      -0.7693      2.00000
      3       2.0022      2.00000
      4       3.0611      2.00000
      5       7.2156      0.00000
      6       9.0270      0.00000
      7      11.5163      0.00000
      8      13.0853      0.00000

 k-point    92 :      -0.4000    0.3333    0.0667
  band No.  band energies     occupation 
      1      -2.9340      2.00000
      2      -1.2018      2.00000
      3       1.6189      2.00000
      4       3.1502      2.00000
      5       7.3521      0.00000
      6      10.1656      0.00000
      7      11.3056      0.00000
      8      12.9446      0.00000

 k-point    93 :      -0.3333    0.3333    0.0667
  band No.  band energies     occupation 
      1      -2.9987      2.00000
      2      -1.1208      2.00000
      3       1.4181      2.00000
      4       3.3407      2.00000
      5       7.5737      0.00000
      6      10.9405      0.00000
      7      11.6244      0.00000
      8      12.3471      0.00000

 k-point    94 :      -0.2667    0.3333    0.0667
  band No.  band energies     occupation 
      1      -3.4223      2.00000
      2      -0.6657      2.00000
      3       1.4798      2.00000
      4       3.6142      2.00000
      5       7.8809      0.00000
      6      10.5988      0.00000
      7      11.4509      0.00000
      8      12.3300      0.00000

 k-point    95 :       0.4667    0.4000    0.0667
  band No.  band energies     occupation 
      1      -3.4838      2.00000
      2      -0.5573      2.00000
      3       2.7177      2.00000
      4       2.8762      2.00000
      5       6.6605      0.00000
      6       7.3144      0.00000
      7      13.0643      0.00000
      8      14.0111      0.00000

 k-point    96 :      -0.4667    0.4000    0.0667
  band No.  band energies     occupation 
      1      -2.9900      2.00000
      2      -1.1104      2.00000
      3       2.2273      2.00000
      4       2.8043      2.00000
      5       6.9215      0.00000
      6       7.7837      0.00000
      7      12.8498      0.00000
      8      14.3116      0.00000

 k-point    97 :      -0.4000    0.4000    0.0667
  band No.  band energies     occupation 
      1      -2.5496      2.00000
      2      -1.5430      2.00000
      3       1.7158      2.00000
      4       2.8848      2.00000
      5       7.0574      0.00000
      6       8.8222      0.00000
      7      12.5981      0.00000
      8      13.7786      0.00000

 k-point    98 :      -0.3333    0.4000    0.0667
  band No.  band energies     occupation 
      1      -2.5816      2.00000
      2      -1.4861      2.00000
      3       1.3981      2.00000
      4       3.0689      2.00000
      5       7.2685      0.00000
      6      10.0858      0.00000
      7      12.1943      0.00000
      8      12.6675      0.00000

 k-point    99 :      -0.4667    0.4667    0.0667
  band No.  band energies     occupation 
      1      -2.5891      2.00000
      2      -1.6041      2.00000
      3       2.6142      2.00000
      4       2.6652      2.00000
      5       6.6830      0.00000
      6       6.8958      0.00000
      7      14.2283      0.00000
      8      15.0785      0.00000

 k-point   100 :      -0.4000    0.4667    0.0667
  band No.  band energies     occupation 
      1      -2.1721      2.00000
      2      -1.9820      2.00000
      3       2.1350      2.00000
      4       2.7122      2.00000
      5       6.8678      0.00000
      6       7.6469      0.00000
      7      13.9182      0.00000
      8      14.1011      0.00000

 k-point   101 :       0.4000    0.2667    0.1333
  band No.  band energies     occupation 
      1      -4.7214      2.00000
      2       1.0624      2.00000
      3       2.7737      2.00000
      4       4.0550      2.00000
      5       8.1159      0.00000
      6       9.4571      0.00000
      7       9.7480      0.00000
      8      11.3492      0.00000

 k-point   102 :       0.4667    0.2667    0.1333
  band No.  band energies     occupation 
      1      -4.2645      2.00000
      2       0.2988      2.00000
      3       2.3794      2.00000
      4       3.7798      2.00000
      5       8.4359      0.00000
      6       9.4058      0.00000
      7       9.8889      0.00000
      8      11.7079      0.00000

 k-point   103 :      -0.4667    0.2667    0.1333
  band No.  band energies     occupation 
      1      -3.7720      2.00000
      2      -0.4647      2.00000
      3       2.1810      2.00000
      4       3.5435      2.00000
      5       8.5640      0.00000
      6       9.1125      0.00000
      7      10.7839      0.00000
      8      11.7903      0.00000

 k-point   104 :      -0.4000    0.2667    0.1333
  band No.  band energies     occupation 
      1      -3.3821      2.00000
      2      -1.0068      2.00000
      3       2.1008      2.00000
      4       3.4099      2.00000
      5       8.6783      0.00000
      6       8.8660      0.00000
      7      11.7621      0.00000
      8      11.9707      0.00000

 k-point   105 :       0.4667    0.3333    0.1333
  band No.  band energies     occupation 
      1      -4.0852      2.00000
      2       0.2106      2.00000
      3       2.4083      2.00000
      4       3.3081      2.00000
      5       7.8327      0.00000
      6       8.7834      0.00000
      7      10.5105      0.00000
      8      12.6651      0.00000

 k-point   106 :      -0.4667    0.3333    0.1333
  band No.  band energies     occupation 
      1      -3.5965      2.00000
      2      -0.4280      2.00000
      3       2.0392      2.00000
      4       3.0578      2.00000
      5       8.1544      0.00000
      6       9.3258      0.00000
      7      10.2360      0.00000
      8      13.0329      0.00000

 k-point   107 :      -0.4000    0.3333    0.1333
  band No.  band energies     occupation 
      1      -3.1423      2.00000
      2      -0.9862      2.00000
      3       1.7855      2.00000
      4       2.9424      2.00000
      5       8.2977      0.00000
      6       9.8615      0.00000
      7      10.4935      0.00000
      8      13.0775      0.00000

 k-point   108 :      -0.3333    0.3333    0.1333
  band No.  band energies     occupation 
      1      -2.9935      2.00000
      2      -1.1574      2.00000
      3       1.6436      2.00000
      4       2.9870      2.00000
      5       8.4816      0.00000
      6       9.6812      0.00000
      7      11.6552      0.00000
      8      12.0973      0.00000

 k-point   109 :      -0.2667    0.3333    0.1333
  band No.  band energies     occupation 
      1      -3.3114      2.00000
      2      -0.7818      2.00000
      3       1.6481      2.00000
      4       3.1716      2.00000
      5       8.7432      0.00000
      6       9.5007      0.00000
      7      10.7817      0.00000
      8      12.9129      0.00000

 k-point   110 :      -0.2000    0.3333    0.1333
  band No.  band energies     occupation 
      1      -3.7959      2.00000
      2      -0.2114      2.00000
      3       1.8700      2.00000
      4       3.4570      2.00000
      5       9.0688      0.00000
      6       9.1409      0.00000
      7      10.0045      0.00000
      8      12.5243      0.00000

 k-point   111 :      -0.4667    0.4000    0.1333
  band No.  band energies     occupation 
      1      -3.3349      2.00000
      2      -0.6791      2.00000
      3       2.2014      2.00000
      4       2.7172      2.00000
      5       7.6800      0.00000
      6       8.2205      0.00000
      7      11.4857      0.00000
      8      13.9900      0.00000

 k-point   112 :      -0.4000    0.4000    0.1333
  band No.  band energies     occupation 
      1      -2.8470      2.00000
      2      -1.1898      2.00000
      3       1.8386      2.00000
      4       2.5596      2.00000
      5       7.9728      0.00000
      6       8.9991      0.00000
      7      11.2084      0.00000
      8      13.5298      0.00000

 k-point   113 :      -0.3333    0.4000    0.1333
  band No.  band energies     occupation 
      1      -2.5763      2.00000
      2      -1.4529      2.00000
      3       1.5303      2.00000
      4       2.6301      2.00000
      5       8.1525      0.00000
      6      10.1508      0.00000
      7      11.0108      0.00000
      8      12.1456      0.00000

 k-point   114 :      -0.2667    0.4000    0.1333
  band No.  band energies     occupation 
      1      -2.8424      2.00000
      2      -1.1855      2.00000
      3       1.4343      2.00000
      4       2.8487      2.00000
      5       8.4100      0.00000
      6      10.4475      0.00000
      7      11.0279      0.00000
      8      11.7362      0.00000

 k-point   115 :      -0.4000    0.4667    0.1333
  band No.  band energies     occupation 
      1      -2.4933      2.00000
      2      -1.5937      2.00000
      3       2.1715      2.00000
      4       2.3377      2.00000
      5       7.6820      0.00000
      6       7.8569      0.00000
      7      12.5737      0.00000
      8      13.7530      0.00000

 k-point   116 :      -0.3333    0.4667    0.1333
  band No.  band energies     occupation 
      1      -2.1961      2.00000
      2      -1.8420      2.00000
      3       1.7743      2.00000
      4       2.3826      2.00000
      5       7.9106      0.00000
      6       8.8904      0.00000
      7      12.2428      0.00000
      8      12.3953      0.00000

 k-point   117 :      -0.4000    0.4000    0.2000
  band No.  band energies     occupation 
      1      -3.1091      2.00000
      2      -0.8981      2.00000
      3       1.7272      2.00000
      4       2.6943      2.00000
      5       8.9989      0.00000
      6       9.3961      0.00000
      7       9.9880      0.00000
      8      13.3197      0.00000

 k-point   118 :      -0.3333    0.4000    0.2000
  band No.  band energies     occupation 
      1      -2.6878      2.00000
      2      -1.3195      2.00000
      3       1.5897      2.00000
      4       2.4782      2.00000
      5       9.2679      0.00000
      6       9.5911      0.00000
      7      10.5281      0.00000
      8      11.8906      0.00000

 k-point   119 :      -0.3333    0.4667    0.2000
  band No.  band energies     occupation 
      1      -2.3681      2.00000
      2      -1.6185      2.00000
      3       1.8017      2.00000
      4       2.1225      2.00000
      5       8.9908      0.00000
      6       9.1309      0.00000
      7      10.9293      0.00000
      8      12.0636      0.00000

 k-point   120 :      -0.2667    0.4667    0.2000
  band No.  band energies     occupation 
      1      -2.2584      2.00000
      2      -1.7061      2.00000
      3       1.6511      2.00000
      4       2.1414      2.00000
      5       9.2410      0.00000
      6      10.1288      0.00000
      7      10.7747      0.00000
      8      10.8254      0.00000


--------------------------------------------------------------------------------------------------------


 soft charge-density along one line, spin component           1
         0         1         2         3         4         5         6         7         8         9
 total charge-density along one line
 
 pseudopotential strength for first ion, spin component:           1
 18.437  25.723   0.000   0.000   0.000   0.000   0.000   0.000
 25.723  35.893   0.000   0.000   0.000   0.000   0.000   0.000
  0.000   0.000   4.181  -0.000   0.000   7.791  -0.000   0.000
  0.000   0.000  -0.000   4.181  -0.000  -0.000   7.791  -0.000
  0.000   0.000   0.000  -0.000   4.181   0.000  -0.000   7.791
  0.000   0.000   7.791  -0.000   0.000  14.528  -0.000   0.000
  0.000   0.000  -0.000   7.791  -0.000  -0.000  14.528  -0.000
  0.000   0.000   0.000  -0.000   7.791   0.000  -0.000  14.528
 total augmentation occupancy for first ion, spin component:           1
  5.522  -2.061  -0.000  -0.000   0.000  -0.000   0.000   0.000
 -2.061   0.886  -0.000   0.000  -0.000  -0.000  -0.000  -0.000
 -0.000   0.000   2.901   0.000   0.000  -0.648  -0.000  -0.000
 -0.000   0.000   0.000   2.901   0.000  -0.000  -0.648   0.000
  0.000   0.000   0.000  -0.000   2.901  -0.000   0.000  -0.648
  0.000  -0.000  -0.648  -0.000  -0.000   0.153   0.000   0.000
  0.000  -0.000  -0.000  -0.648  -0.000   0.000   0.153   0.000
  0.000  -0.000  -0.000   0.000  -0.648   0.000   0.000   0.153


------------------------ aborting loop because EDIFF is reached ----------------------------------------


    CHARGE:  cpu time    0.1360: real time    0.1367
    FORLOC:  cpu time    0.0030: real time    0.0039
    FORNL :  cpu time    0.3200: real time    0.3204
    STRESS:  cpu time    2.4736: real time    2.4785
    FORCOR:  cpu time    0.0690: real time    0.0693
    FORHAR:  cpu time    0.0130: real time    0.0128
    MIXING:  cpu time    0.0020: real time    0.0027
    OFIELD:  cpu time    0.0010: real time    0.0002

  FORCE on cell =-STRESS in cart. coord.  units (eV):
  Direction    XX          YY          ZZ          XY          YZ          ZX
  --------------------------------------------------------------------------------------
  Alpha Z     3.29329     3.29329     3.29329
  Ewald     -75.64918   -75.64926   -75.64917     0.00001    -0.00000    -0.00000
  Hartree     5.05678     5.05678     5.05678     0.00000     0.00000     0.00000
  E(xc)     -25.24622   -25.24622   -25.24622     0.00000     0.00000     0.00000
  Local     -29.49963   -29.49961   -29.49962    -0.00000     0.00000     0.00000
  n-local    73.83881    77.18644    81.31870    -0.89770    -0.95008    -0.02191
  augment   -11.64965   -11.64965   -11.64965    -0.00000    -0.00000    -0.00000
  Kinetic    53.03344    55.00567    60.70619     0.86428     1.26614    -0.56548
  Fock        0.00000     0.00000     0.00000     0.00000     0.00000     0.00000
  -------------------------------------------------------------------------------------
  Total       0.00179     0.00179     0.00179     0.00000    -0.00000    -0.00000
  in kB       0.07020     0.07020     0.07020     0.00000    -0.00000    -0.00000
  external pressure =        0.07 kB  Pullay stress =        0.00 kB


 VOLUME and BASIS-vectors are now :
 -----------------------------------------------------------------------------
  energy-cutoff  :      650.00
  volume of cell :       40.89
      direct lattice vectors                 reciprocal lattice vectors
     3.348859588 -0.000000000  1.933464712     0.298609116 -0.105574223 -0.000000000
     1.116286529  3.157336350  1.933464712    -0.000000000  0.316722670  0.000000000
     0.000000000 -0.000000000  3.866929424    -0.149304558 -0.105574223  0.258603116

  length of vectors
     3.866929833  3.866930855  3.866929424     0.316722782  0.316722670  0.316722812


 FORCES acting on ions
    electron-ion (+dipol)            ewald-force                    non-local-force                 convergence-correction
 -----------------------------------------------------------------------------------------------
   0.524E-05 0.245E-04 0.367E-07   -.892E-05 -.418E-04 -.760E-15   -.144E-18 -.222E-15 -.625E-16   0.108E-09 0.333E-09 0.746E-10
   -.524E-05 -.245E-04 -.367E-07   0.892E-05 0.418E-04 0.768E-15   -.276E-16 0.111E-15 0.555E-16   -.108E-09 -.333E-09 -.746E-10
 -----------------------------------------------------------------------------------------------
   -.403E-13 0.326E-13 0.258E-12   -.460E-15 0.249E-17 0.748E-17   -.278E-16 -.111E-15 -.694E-17   0.133E-14 -.393E-15 0.136E-14
 
 
 POSITION                                       TOTAL-FORCE (eV/Angst)
 -----------------------------------------------------------------------------------
      3.90700      2.76267      6.76713        -0.000000     -0.000000     -0.000000
      0.55814      0.39467      0.96673         0.000000      0.000000      0.000000
 -----------------------------------------------------------------------------------
    total drift:                               -0.000000      0.000000      0.000000


--------------------------------------------------------------------------------------------------------



  FREE ENERGIE OF THE ION-ELECTRON SYSTEM (eV)
  ---------------------------------------------------
  free  energy   TOTEN  =       -10.85009951 eV

  energy  without entropy=      -10.85009951  energy(sigma->0) =      -10.85009951
 
 d Force = 0.0000000E+00[ 0.000E+00, 0.000E+00]  d Energy = 0.9706969E-03-0.971E-03
 d Force = 0.0000000E+00[ 0.000E+00, 0.000E+00]  d Ewald  = 0.7036576E+00-0.704E+00


--------------------------------------------------------------------------------------------------------


    POTLOK:  cpu time    0.2640: real time    0.2707


--------------------------------------------------------------------------------------------------------




--------------------------------------------------------------------------------------------------------


  
 reached required accuracy - stopping structural energy minimisation
     LOOP+:  cpu time   15.2567: real time   15.4907
    4ORBIT:  cpu time    0.0000: real time    0.0000

 total amount of memory used by VASP MPI-rank0    62236. kBytes
=======================================================================

   base      :      30000. kBytes
   nonl-proj :      11876. kBytes
   fftplans  :       9841. kBytes
   grid      :       4538. kBytes
   one-center:          6. kBytes
   wavefun   :       5975. kBytes
 
  
  
 General timing and accounting informations for this job:
 ========================================================
  
                  Total CPU time used (sec):       58.852
                            User time (sec):       57.195
                          System time (sec):        1.657
                         Elapsed time (sec):       60.783
  
                   Maximum memory used (kb):      109420.
                   Average memory used (kb):          N/A
  
                          Minor page faults:        21374
                          Major page faults:            1
                 Voluntary context switches:        22600
