<?xml version="1.0" encoding="ISO-8859-1"?>
<modeling>
 <generator>
  <i name="program" type="string">vasp </i>
  <i name="version" type="string">6.2.0  </i>
  <i name="subversion" type="string">18Jan21 (build Aug 12 2022 13:00:08) complex                          parallel </i>
  <i name="platform" type="string">LinuxIFC </i>
  <i name="date" type="string">2024 11 03 </i>
  <i name="time" type="string">22:28:21 </i>
 </generator>
 <incar>
  <i type="int" name="ISTART">     0</i>
  <i type="string" name="PREC">Accurate      (Accurate strictly avoids</i>
  <i type="logical" name="ADDGRID"> T  </i>
  <i type="int" name="ISPIN">     1</i>
  <i type="int" name="NELM">    90</i>
  <i type="int" name="NELMIN">     6</i>
  <i type="int" name="IBRION">     2</i>
  <i name="EDIFF">      0.00000100</i>
  <i name="EDIFFG">     -0.00200000</i>
  <i type="int" name="NSW">   100</i>
  <i type="int" name="ISIF">     3</i>
  <i type="int" name="ISYM">     2</i>
  <i name="ENCUT">    650.00000000</i>
  <i type="logical" name="LREAL"> F  </i>
  <i type="int" name="ISMEAR">     0</i>
  <i name="SIGMA">      0.05000000</i>
  <i type="logical" name="LWAVE"> F  </i>
  <i type="logical" name="LCHARG"> F  </i>
  <i type="logical" name="LASPH"> T  </i>
 </incar>
 <primitive_cell>
  <structure name="primitive_cell" >
   <crystal>
    <varray name="basis" >
     <v>       3.33357300       0.00000000       1.92463900 </v>
     <v>       1.11119100       3.14292400       1.92463900 </v>
     <v>       0.00000000       0.00000000       3.84927800 </v>
    </varray>
    <i name="volume">     40.32952685 </i>
    <varray name="rec_basis" >
     <v>       0.29997843      -0.10605835       0.00000000 </v>
     <v>       0.00000000       0.31817505       0.00000000 </v>
     <v>      -0.14998922      -0.10605835       0.25978898 </v>
    </varray>
   </crystal>
   <varray name="positions" >
    <v>       0.87500000       0.87500000       0.87500000 </v>
    <v>       0.12500000       0.12500000       0.12500000 </v>
   </varray>
  </structure>
  <varray name="primitive_index" >
   <v type="int" >        1 </v>
   <v type="int" >        2 </v>
  </varray>
 </primitive_cell>
 <kpoints>
  <generation param="Monkhorst-Pack">
   <v type="int" name="divisions">      15       15       15 </v>
   <v name="usershift">      0.00000000       0.00000000       0.00000000 </v>
   <v name="genvec1">      0.06666667       0.00000000       0.00000000 </v>
   <v name="genvec2">      0.00000000       0.06666667       0.00000000 </v>
   <v name="genvec3">      0.00000000       0.00000000       0.06666667 </v>
   <v name="shift">      0.00000000       0.00000000       0.00000000 </v>
  </generation>
  <varray name="kpointlist" >
   <v>       0.00000000       0.00000000       0.00000000 </v>
   <v>       0.06666667      -0.00000000       0.00000000 </v>
   <v>       0.13333333      -0.00000000       0.00000000 </v>
   <v>       0.20000000       0.00000000       0.00000000 </v>
   <v>       0.26666667      -0.00000000       0.00000000 </v>
   <v>       0.33333333      -0.00000000       0.00000000 </v>
   <v>       0.40000000      -0.00000000       0.00000000 </v>
   <v>       0.46666667      -0.00000000       0.00000000 </v>
   <v>       0.06666667       0.06666667       0.00000000 </v>
   <v>       0.13333333       0.06666667       0.00000000 </v>
   <v>       0.20000000       0.06666667       0.00000000 </v>
   <v>       0.26666667       0.06666667       0.00000000 </v>
   <v>       0.33333333       0.06666667       0.00000000 </v>
   <v>       0.40000000       0.06666667       0.00000000 </v>
   <v>       0.46666667       0.06666667       0.00000000 </v>
   <v>      -0.46666667       0.06666667       0.00000000 </v>
   <v>      -0.40000000       0.06666667       0.00000000 </v>
   <v>      -0.33333333       0.06666667       0.00000000 </v>
   <v>      -0.26666667       0.06666667       0.00000000 </v>
   <v>      -0.20000000       0.06666667       0.00000000 </v>
   <v>      -0.13333333       0.06666667       0.00000000 </v>
   <v>      -0.06666667       0.06666667       0.00000000 </v>
   <v>       0.13333333       0.13333333       0.00000000 </v>
   <v>       0.20000000       0.13333333       0.00000000 </v>
   <v>       0.26666667       0.13333333       0.00000000 </v>
   <v>       0.33333333       0.13333333       0.00000000 </v>
   <v>       0.40000000       0.13333333       0.00000000 </v>
   <v>       0.46666667       0.13333333       0.00000000 </v>
   <v>      -0.46666667       0.13333333       0.00000000 </v>
   <v>      -0.40000000       0.13333333       0.00000000 </v>
   <v>      -0.33333333       0.13333333       0.00000000 </v>
   <v>      -0.26666667       0.13333333       0.00000000 </v>
   <v>      -0.20000000       0.13333333       0.00000000 </v>
   <v>      -0.13333333       0.13333333       0.00000000 </v>
   <v>       0.20000000       0.20000000       0.00000000 </v>
   <v>       0.26666667       0.20000000       0.00000000 </v>
   <v>       0.33333333       0.20000000       0.00000000 </v>
   <v>       0.40000000       0.20000000       0.00000000 </v>
   <v>       0.46666667       0.20000000       0.00000000 </v>
   <v>      -0.46666667       0.20000000       0.00000000 </v>
   <v>      -0.40000000       0.20000000       0.00000000 </v>
   <v>      -0.33333333       0.20000000       0.00000000 </v>
   <v>      -0.26666667       0.20000000       0.00000000 </v>
   <v>      -0.20000000       0.20000000       0.00000000 </v>
   <v>       0.26666667       0.26666667       0.00000000 </v>
   <v>       0.33333333       0.26666667       0.00000000 </v>
   <v>       0.40000000       0.26666667       0.00000000 </v>
   <v>       0.46666667       0.26666667       0.00000000 </v>
   <v>      -0.46666667       0.26666667       0.00000000 </v>
   <v>      -0.40000000       0.26666667       0.00000000 </v>
   <v>      -0.33333333       0.26666667       0.00000000 </v>
   <v>      -0.26666667       0.26666667       0.00000000 </v>
   <v>       0.33333333       0.33333333       0.00000000 </v>
   <v>       0.40000000       0.33333333       0.00000000 </v>
   <v>       0.46666667       0.33333333       0.00000000 </v>
   <v>      -0.46666667       0.33333333       0.00000000 </v>
   <v>      -0.40000000       0.33333333       0.00000000 </v>
   <v>      -0.33333333       0.33333333       0.00000000 </v>
   <v>       0.40000000       0.40000000       0.00000000 </v>
   <v>       0.46666667       0.40000000       0.00000000 </v>
   <v>      -0.46666667       0.40000000       0.00000000 </v>
   <v>      -0.40000000       0.40000000       0.00000000 </v>
   <v>       0.46666667       0.46666667       0.00000000 </v>
   <v>      -0.46666667       0.46666667       0.00000000 </v>
   <v>       0.20000000       0.13333333       0.06666667 </v>
   <v>       0.26666667       0.13333333       0.06666667 </v>
   <v>       0.33333333       0.13333333       0.06666667 </v>
   <v>       0.40000000       0.13333333       0.06666667 </v>
   <v>       0.46666667       0.13333333       0.06666667 </v>
   <v>      -0.46666667       0.13333333       0.06666667 </v>
   <v>       0.26666667       0.20000000       0.06666667 </v>
   <v>       0.33333333       0.20000000       0.06666667 </v>
   <v>       0.40000000       0.20000000       0.06666667 </v>
   <v>       0.46666667       0.20000000       0.06666667 </v>
   <v>      -0.46666667       0.20000000       0.06666667 </v>
   <v>      -0.40000000       0.20000000       0.06666667 </v>
   <v>      -0.33333333       0.20000000       0.06666667 </v>
   <v>      -0.26666667       0.20000000       0.06666667 </v>
   <v>      -0.20000000       0.20000000       0.06666667 </v>
   <v>      -0.13333333       0.20000000       0.06666667 </v>
   <v>       0.33333333       0.26666667       0.06666667 </v>
   <v>       0.40000000       0.26666667       0.06666667 </v>
   <v>       0.46666667       0.26666667       0.06666667 </v>
   <v>      -0.46666667       0.26666667       0.06666667 </v>
   <v>      -0.40000000       0.26666667       0.06666667 </v>
   <v>      -0.33333333       0.26666667       0.06666667 </v>
   <v>      -0.26666667       0.26666667       0.06666667 </v>
   <v>      -0.20000000       0.26666667       0.06666667 </v>
   <v>       0.40000000       0.33333333       0.06666667 </v>
   <v>       0.46666667       0.33333333       0.06666667 </v>
   <v>      -0.46666667       0.33333333       0.06666667 </v>
   <v>      -0.40000000       0.33333333       0.06666667 </v>
   <v>      -0.33333333       0.33333333       0.06666667 </v>
   <v>      -0.26666667       0.33333333       0.06666667 </v>
   <v>       0.46666667       0.40000000       0.06666667 </v>
   <v>      -0.46666667       0.40000000       0.06666667 </v>
   <v>      -0.40000000       0.40000000       0.06666667 </v>
   <v>      -0.33333333       0.40000000       0.06666667 </v>
   <v>      -0.46666667       0.46666667       0.06666667 </v>
   <v>      -0.40000000       0.46666667       0.06666667 </v>
   <v>       0.40000000       0.26666667       0.13333333 </v>
   <v>       0.46666667       0.26666667       0.13333333 </v>
   <v>      -0.46666667       0.26666667       0.13333333 </v>
   <v>      -0.40000000       0.26666667       0.13333333 </v>
   <v>       0.46666667       0.33333333       0.13333333 </v>
   <v>      -0.46666667       0.33333333       0.13333333 </v>
   <v>      -0.40000000       0.33333333       0.13333333 </v>
   <v>      -0.33333333       0.33333333       0.13333333 </v>
   <v>      -0.26666667       0.33333333       0.13333333 </v>
   <v>      -0.20000000       0.33333333       0.13333333 </v>
   <v>      -0.46666667       0.40000000       0.13333333 </v>
   <v>      -0.40000000       0.40000000       0.13333333 </v>
   <v>      -0.33333333       0.40000000       0.13333333 </v>
   <v>      -0.26666667       0.40000000       0.13333333 </v>
   <v>      -0.40000000       0.46666667       0.13333333 </v>
   <v>      -0.33333333       0.46666667       0.13333333 </v>
   <v>      -0.40000000       0.40000000       0.20000000 </v>
   <v>      -0.33333333       0.40000000       0.20000000 </v>
   <v>      -0.33333333       0.46666667       0.20000000 </v>
   <v>      -0.26666667       0.46666667       0.20000000 </v>
  </varray>
  <varray name="weights" >
   <v>       0.00029630 </v>
   <v>       0.00237037 </v>
   <v>       0.00237037 </v>
   <v>       0.00237037 </v>
   <v>       0.00237037 </v>
   <v>       0.00237037 </v>
   <v>       0.00237037 </v>
   <v>       0.00237037 </v>
   <v>       0.00177778 </v>
   <v>       0.00711111 </v>
   <v>       0.00711111 </v>
   <v>       0.00711111 </v>
   <v>       0.00711111 </v>
   <v>       0.00711111 </v>
   <v>       0.00711111 </v>
   <v>       0.00711111 </v>
   <v>       0.00711111 </v>
   <v>       0.00711111 </v>
   <v>       0.00711111 </v>
   <v>       0.00711111 </v>
   <v>       0.00711111 </v>
   <v>       0.00355556 </v>
   <v>       0.00177778 </v>
   <v>       0.00711111 </v>
   <v>       0.00711111 </v>
   <v>       0.00711111 </v>
   <v>       0.00711111 </v>
   <v>       0.00711111 </v>
   <v>       0.00711111 </v>
   <v>       0.00711111 </v>
   <v>       0.00711111 </v>
   <v>       0.00711111 </v>
   <v>       0.00711111 </v>
   <v>       0.00355556 </v>
   <v>       0.00177778 </v>
   <v>       0.00711111 </v>
   <v>       0.00711111 </v>
   <v>       0.00711111 </v>
   <v>       0.00711111 </v>
   <v>       0.00711111 </v>
   <v>       0.00711111 </v>
   <v>       0.00711111 </v>
   <v>       0.00711111 </v>
   <v>       0.00355556 </v>
   <v>       0.00177778 </v>
   <v>       0.00711111 </v>
   <v>       0.00711111 </v>
   <v>       0.00711111 </v>
   <v>       0.00711111 </v>
   <v>       0.00711111 </v>
   <v>       0.00711111 </v>
   <v>       0.00355556 </v>
   <v>       0.00177778 </v>
   <v>       0.00711111 </v>
   <v>       0.00711111 </v>
   <v>       0.00711111 </v>
   <v>       0.00711111 </v>
   <v>       0.00355556 </v>
   <v>       0.00177778 </v>
   <v>       0.00711111 </v>
   <v>       0.00711111 </v>
   <v>       0.00355556 </v>
   <v>       0.00177778 </v>
   <v>       0.00355556 </v>
   <v>       0.00711111 </v>
   <v>       0.01422222 </v>
   <v>       0.01422222 </v>
   <v>       0.01422222 </v>
   <v>       0.01422222 </v>
   <v>       0.01422222 </v>
   <v>       0.00711111 </v>
   <v>       0.01422222 </v>
   <v>       0.01422222 </v>
   <v>       0.01422222 </v>
   <v>       0.01422222 </v>
   <v>       0.01422222 </v>
   <v>       0.01422222 </v>
   <v>       0.01422222 </v>
   <v>       0.01422222 </v>
   <v>       0.00711111 </v>
   <v>       0.00711111 </v>
   <v>       0.01422222 </v>
   <v>       0.01422222 </v>
   <v>       0.01422222 </v>
   <v>       0.01422222 </v>
   <v>       0.01422222 </v>
   <v>       0.01422222 </v>
   <v>       0.00711111 </v>
   <v>       0.00711111 </v>
   <v>       0.01422222 </v>
   <v>       0.01422222 </v>
   <v>       0.01422222 </v>
   <v>       0.01422222 </v>
   <v>       0.00711111 </v>
   <v>       0.00711111 </v>
   <v>       0.01422222 </v>
   <v>       0.01422222 </v>
   <v>       0.00711111 </v>
   <v>       0.00711111 </v>
   <v>       0.00711111 </v>
   <v>       0.00711111 </v>
   <v>       0.01422222 </v>
   <v>       0.01422222 </v>
   <v>       0.01422222 </v>
   <v>       0.00711111 </v>
   <v>       0.01422222 </v>
   <v>       0.01422222 </v>
   <v>       0.01422222 </v>
   <v>       0.01422222 </v>
   <v>       0.00711111 </v>
   <v>       0.00711111 </v>
   <v>       0.01422222 </v>
   <v>       0.01422222 </v>
   <v>       0.00711111 </v>
   <v>       0.00711111 </v>
   <v>       0.00711111 </v>
   <v>       0.00711111 </v>
   <v>       0.01422222 </v>
   <v>       0.00711111 </v>
   <v>       0.00711111 </v>
  </varray>
 </kpoints>
 <parameters>
  <separator name="general" >
   <i type="string" name="SYSTEM">unknown system</i>
   <i type="logical" name="LCOMPAT"> F  </i>
  </separator>
  <separator name="electronic" >
   <i type="string" name="PREC">accura</i>
   <i name="ENMAX">    650.00000000</i>
   <i name="ENAUG">    322.06900000</i>
   <i name="EDIFF">      0.00000100</i>
   <i type="int" name="IALGO">    38</i>
   <i type="int" name="IWAVPR">    11</i>
   <i type="int" name="NBANDS">     8</i>
   <i type="int" name="NBANDSLOW">    -1</i>
   <i type="int" name="NBANDSHIGH">    -1</i>
   <i name="NELECT">      8.00000000</i>
   <i type="int" name="TURBO">     0</i>
   <i type="int" name="IRESTART">     0</i>
   <i type="int" name="NREBOOT">     0</i>
   <i type="int" name="NMIN">     0</i>
   <i name="EREF">      0.00000000</i>
   <separator name="electronic smearing" >
    <i type="int" name="ISMEAR">     0</i>
    <i name="SIGMA">      0.05000000</i>
    <i name="KSPACING">      0.50000000</i>
    <i type="logical" name="KGAMMA"> T  </i>
    <i type="logical" name="KBLOWUP"> T  </i>
   </separator>
   <separator name="electronic projectors" >
    <i type="logical" name="LREAL"> F  </i>
    <v name="ROPT">      0.00000000</v>
    <i type="int" name="LMAXPAW">  -100</i>
    <i type="int" name="LMAXMIX">     2</i>
    <i type="logical" name="NLSPLINE"> F  </i>
   </separator>
   <separator name="electronic startup" >
    <i type="int" name="ISTART">     0</i>
    <i type="int" name="ICHARG">     2</i>
    <i type="int" name="INIWAV">     1</i>
   </separator>
   <separator name="electronic spin" >
    <i type="int" name="ISPIN">     1</i>
    <i type="logical" name="LNONCOLLINEAR"> F  </i>
    <v name="MAGMOM">      1.00000000      1.00000000</v>
    <i name="NUPDOWN">     -1.00000000</i>
    <i type="logical" name="LSORBIT"> F  </i>
    <v name="SAXIS">      0.00000000      0.00000000      1.00000000</v>
    <i type="logical" name="LSPIRAL"> F  </i>
    <v name="QSPIRAL">      0.00000000      0.00000000      0.00000000</v>
    <i type="logical" name="LZEROZ"> F  </i>
   </separator>
   <separator name="electronic exchange-correlation" >
    <i type="logical" name="LASPH"> T  </i>
    <i type="logical" name="LMETAGGA"> F  </i>
   </separator>
   <separator name="electronic convergence" >
    <i type="int" name="NELM">    90</i>
    <i type="int" name="NELMDL">    -5</i>
    <i type="int" name="NELMIN">     6</i>
    <i name="ENINI">    650.00000000</i>
    <separator name="electronic convergence detail" >
     <i type="logical" name="LDIAG"> T  </i>
     <i type="logical" name="LSUBROT"> F  </i>
     <i name="WEIMIN">      0.00100000</i>
     <i name="EBREAK">      0.00000003</i>
     <i name="DEPER">      0.30000000</i>
     <i type="int" name="NRMM">     4</i>
     <i name="TIME">      0.40000000</i>
    </separator>
   </separator>
   <separator name="electronic mixer" >
    <i name="AMIX">      0.40000000</i>
    <i name="BMIX">      1.00000000</i>
    <i name="AMIN">      0.10000000</i>
    <i name="AMIX_MAG">      1.60000000</i>
    <i name="BMIX_MAG">      1.00000000</i>
    <separator name="electronic mixer details" >
     <i type="int" name="IMIX">     4</i>
     <i type="logical" name="MIXFIRST"> F  </i>
     <i type="int" name="MAXMIX">   -45</i>
     <i name="WC">    100.00000000</i>
     <i type="int" name="INIMIX">     1</i>
     <i type="int" name="MIXPRE">     1</i>
     <i type="int" name="MREMOVE">     5</i>
    </separator>
   </separator>
   <separator name="electronic dipolcorrection" >
    <i type="logical" name="LDIPOL"> F  </i>
    <i type="logical" name="LMONO"> F  </i>
    <i type="int" name="IDIPOL">     0</i>
    <i name="EPSILON">      1.00000000</i>
    <v name="DIPOL">   -100.00000000   -100.00000000   -100.00000000</v>
    <i name="EFIELD">      0.00000000</i>
   </separator>
  </separator>
  <separator name="grids" >
   <i type="int" name="NGX">    32</i>
   <i type="int" name="NGY">    32</i>
   <i type="int" name="NGZ">    32</i>
   <i type="int" name="NGXF">    64</i>
   <i type="int" name="NGYF">    64</i>
   <i type="int" name="NGZF">    64</i>
   <i type="logical" name="ADDGRID"> T  </i>
  </separator>
  <separator name="ionic" >
   <i type="int" name="NSW">   100</i>
   <i type="int" name="IBRION">     2</i>
   <i type="int" name="MDALGO">     0</i>
   <i type="int" name="ISIF">     3</i>
   <i name="PSTRESS">      0.00000000</i>
   <i name="EDIFFG">     -0.00200000</i>
   <i type="int" name="NFREE">     1</i>
   <i name="POTIM">      0.50000000</i>
   <i name="SMASS">     -3.00000000</i>
   <i name="SCALEE">      1.00000000</i>
  </separator>
  <separator name="ionic md" >
   <i name="TEBEG">      0.00010000</i>
   <i name="TEEND">      0.00010000</i>
   <i type="int" name="NBLOCK">     1</i>
   <i type="int" name="KBLOCK">   100</i>
   <i type="int" name="NPACO">   256</i>
   <i name="APACO">     16.00000000</i>
  </separator>
  <separator name="symmetry" >
   <i type="int" name="ISYM">     2</i>
   <i name="SYMPREC">      0.00001000</i>
  </separator>
  <separator name="dos" >
   <i type="int" name="LORBIT">     0</i>
   <v name="RWIGS">     -1.00000000</v>
   <i type="int" name="NEDOS">   301</i>
   <i name="EMIN">     10.00000000</i>
   <i name="EMAX">    -10.00000000</i>
   <i name="EFERMI">      0.00000000</i>
  </separator>
  <separator name="writing" >
   <i type="int" name="NWRITE">     2</i>
   <i type="logical" name="LWAVE"> F  </i>
   <i type="logical" name="LDOWNSAMPLE"> F  </i>
   <i type="logical" name="LCHARG"> F  </i>
   <i type="logical" name="LPARD"> F  </i>
   <i type="logical" name="LVTOT"> F  </i>
   <i type="logical" name="LVHAR"> F  </i>
   <i type="logical" name="LELF"> F  </i>
   <i type="logical" name="LOPTICS"> F  </i>
   <v name="STM">      0.00000000      0.00000000      0.00000000      0.00000000      0.00000000      0.00000000      0.00000000</v>
  </separator>
  <separator name="performance" >
   <i type="int" name="NPAR">     4</i>
   <i type="int" name="NSIM">     4</i>
   <i type="int" name="NBLK">    -1</i>
   <i type="logical" name="LPLANE"> T  </i>
   <i type="logical" name="LSCALAPACK"> T  </i>
   <i type="logical" name="LSCAAWARE"> F  </i>
   <i type="logical" name="LSCALU"> F  </i>
   <i type="logical" name="LASYNC"> F  </i>
   <i type="logical" name="LORBITALREAL"> F  </i>
  </separator>
  <separator name="miscellaneous" >
   <i type="int" name="IDIOT">     3</i>
   <i type="int" name="PHON_NSTRUCT">    -1</i>
   <i type="logical" name="LMUSIC"> F  </i>
   <v name="POMASS">     28.08500000</v>
   <v name="DARWINR">      0.00000000</v>
   <v name="DARWINV">      1.00000000</v>
   <i type="logical" name="LCORR"> T  </i>
  </separator>
  <i type="logical" name="GGA_COMPAT"> T  </i>
  <i type="logical" name="LBERRY"> F  </i>
  <i type="int" name="ICORELEVEL">     0</i>
  <i type="logical" name="LDAU"> F  </i>
  <i type="int" name="I_CONSTRAINED_M">     0</i>
  <separator name="electronic exchange-correlation" >
   <i type="string" name="GGA">--</i>
   <i type="int" name="VOSKOWN">     0</i>
   <i type="logical" name="LHFCALC"> F  </i>
   <i type="string" name="PRECFOCK"></i>
   <i type="logical" name="LSYMGRAD"> F  </i>
   <i type="logical" name="LHFONE"> F  </i>
   <i type="logical" name="LRHFCALC"> F  </i>
   <i type="logical" name="LTHOMAS"> F  </i>
   <i type="logical" name="LMODELHF"> F  </i>
   <i type="logical" name="LFOCKACE"> F  </i>
   <i name="ENCUT4O">     -1.00000000</i>
   <i type="int" name="EXXOEP">     0</i>
   <i type="int" name="FOURORBIT">     0</i>
   <i name="AEXX">      0.00000000</i>
   <i name="HFALPHA">      0.00000000</i>
   <i name="MCALPHA">      0.00000000</i>
   <i name="ALDAX">      1.00000000</i>
   <i name="AGGAX">      1.00000000</i>
   <i name="ALDAC">      1.00000000</i>
   <i name="AGGAC">      1.00000000</i>
   <i type="int" name="NKREDX">     1</i>
   <i type="int" name="NKREDY">     1</i>
   <i type="int" name="NKREDZ">     1</i>
   <i type="logical" name="SHIFTRED"> F  </i>
   <i type="logical" name="ODDONLY"> F  </i>
   <i type="logical" name="EVENONLY"> F  </i>
   <i type="int" name="LMAXFOCK">     0</i>
   <i type="int" name="NMAXFOCKAE">     0</i>
   <i type="logical" name="LFOCKAEDFT"> F  </i>
   <i name="HFSCREEN">      0.00000000</i>
   <i name="HFSCREENC">      0.00000000</i>
   <i type="int" name="NBANDSGWLOW">     0</i>
  </separator>
  <separator name="vdW DFT" >
   <i type="logical" name="LUSE_VDW"> F  </i>
   <i name="Zab_VDW">     -0.84910000</i>
   <i name="PARAM1">      0.12340000</i>
   <i name="PARAM2">      1.00000000</i>
   <i name="PARAM3">      0.00000000</i>
  </separator>
  <separator name="model GW" >
   <i type="int" name="MODEL_GW">     0</i>
   <i name="MODEL_EPS0">     12.09885805</i>
   <i name="MODEL_ALPHA">      1.00000000</i>
  </separator>
  <separator name="linear response parameters" >
   <i type="logical" name="LEPSILON"> F  </i>
   <i type="logical" name="LRPA"> F  </i>
   <i type="logical" name="LNABLA"> F  </i>
   <i type="logical" name="LVEL"> F  </i>
   <i type="int" name="KINTER">     0</i>
   <i name="CSHIFT">      0.10000000</i>
   <i name="OMEGAMAX">     -1.00000000</i>
   <i name="DEG_THRESHOLD">      0.00200000</i>
   <i name="RTIME">     -0.10000000</i>
   <i name="WPLASMAI">      0.00000000</i>
   <v name="DFIELD">      0.00000000      0.00000000      0.00000000</v>
   <v name="WPLASMA">      0.00000000      0.00000000      0.00000000      0.00000000      0.00000000      0.00000000      0.00000000      0.00000000      0.00000000</v>
  </separator>
  <separator name="orbital magnetization" >
   <i type="logical" name="NUCIND"> F  </i>
   <v name="MAGPOS">      0.00000000      0.00000000      0.00000000</v>
   <i type="logical" name="LNICSALL"> T  </i>
   <i type="logical" name="ORBITALMAG"> F  </i>
   <i type="logical" name="LMAGBLOCH"> F  </i>
   <i type="logical" name="LCHIMAG"> F  </i>
   <i type="logical" name="LGAUGE"> T  </i>
   <i type="int" name="MAGATOM">     0</i>
   <v name="MAGDIPOL">      0.00000000      0.00000000      0.00000000</v>
   <v name="AVECCONST">      0.00000000      0.00000000      0.00000000</v>
  </separator>
  <separator name="response functions" >
   <i type="logical" name="LFINITE_TEMPERATURE"> F  </i>
   <i type="logical" name="LADDER"> F  </i>
   <i type="logical" name="LRPAFORCE"> F  </i>
   <i type="logical" name="LFXC"> F  </i>
   <i type="logical" name="LHARTREE"> T  </i>
   <i type="int" name="IBSE">     0</i>
   <v type="int" name="KPOINT">    -1     0     0     0</v>
   <i type="logical" name="LTCTC"> F  </i>
   <i type="logical" name="LTCTE"> F  </i>
   <i type="logical" name="LTETE"> F  </i>
   <i type="logical" name="LTRIPLET"> F  </i>
   <i type="logical" name="LFXCEPS"> F  </i>
   <i type="logical" name="LFXHEG"> F  </i>
   <i type="int" name="NATURALO">     2</i>
   <i type="logical" name="LHOLEGF"> F  </i>
   <i type="logical" name="L2ORDER"> F  </i>
   <i type="logical" name="LDMP1"> F  </i>
   <i type="logical" name="LMP2LT"> F  </i>
   <i type="logical" name="LSMP2LT"> F  </i>
   <i type="logical" name="LGWLF"> F  </i>
   <i name="ENCUTGW">     -2.00000000</i>
   <i name="ENCUTGWSOFT">     -2.00000000</i>
   <i name="ENCUTLF">     -1.00000000</i>
   <i type="logical" name="LESF_SPLINES"> F  </i>
   <i type="int" name="LMAXMP2">    -1</i>
   <i name="SCISSOR">      0.00000000</i>
   <i type="int" name="NOMEGA">     0</i>
   <i type="int" name="NOMEGAR">     0</i>
   <i type="int" name="NBANDSGW">    -1</i>
   <i type="int" name="NBANDSO">    -1</i>
   <i type="int" name="NBANDSV">    -1</i>
   <i type="int" name="NELM">    90</i>
   <i type="int" name="NELMHF">     1</i>
   <i type="int" name="DIM">     3</i>
   <i type="int" name="IESPILON">     4</i>
   <i type="int" name="ANTIRES">     0</i>
   <i name="OMEGAMAX">    -30.00000000</i>
   <i name="OMEGAMIN">    -30.00000000</i>
   <i name="OMEGATL">   -200.00000000</i>
   <i type="int" name="OMEGAGRID">     0</i>
   <i name="CSHIFT">     -0.10000000</i>
   <i type="logical" name="LSELFENERGY"> F  </i>
   <i type="logical" name="LSPECTRAL"> F  </i>
   <i type="logical" name="LSPECTRALGW"> F  </i>
   <i type="logical" name="LSINGLES"> F  </i>
   <i type="logical" name="LFERMIGW"> F  </i>
   <i type="logical" name="ODDONLYGW"> F  </i>
   <i type="logical" name="EVENONLYGW"> F  </i>
   <i type="int" name="NKREDLFX">     1</i>
   <i type="int" name="NKREDLFY">     1</i>
   <i type="int" name="NKREDLFZ">     1</i>
   <i type="int" name="MAXMEM">  2800</i>
   <i type="int" name="TELESCOPE">     0</i>
   <i type="int" name="NTAUPAR">    -1</i>
   <i type="int" name="NOMEGAPAR">    -1</i>
   <i name="DAMP_NEWTON">      0.80000001</i>
   <i name="LAMBDA">      1.00000000</i>
  </separator>
  <separator name="External order field" >
   <i name="OFIELD_KAPPA">      0.00000000</i>
   <v name="OFIELD_K">      0.00000000      0.00000000      0.00000000</v>
   <i name="OFIELD_Q6_NEAR">      0.00000000</i>
   <i name="OFIELD_Q6_FAR">      0.00000000</i>
   <i name="OFIELD_A">      0.00000000</i>
  </separator>
 </parameters>
 <atominfo>
  <atoms>       2 </atoms>
  <types>       1 </types>
  <array name="atoms" >
   <dimension dim="1">ion</dimension>
   <field type="string">element</field>
   <field type="int">atomtype</field>
   <set>
    <rc><c>Si</c><c>   1</c></rc>
    <rc><c>Si</c><c>   1</c></rc>
   </set>
  </array>
  <array name="atomtypes" >
   <dimension dim="1">type</dimension>
   <field type="int">atomspertype</field>
   <field type="string">element</field>
   <field>mass</field>
   <field>valence</field>
   <field type="string">pseudopotential</field>
   <set>
    <rc><c>   2</c><c>Si</c><c>     28.08500000</c><c>      4.00000000</c><c>  PAW_PBE Si 05Jan2001                  </c></rc>
   </set>
  </array>
 </atominfo>
 <structure name="initialpos" >
  <crystal>
   <varray name="basis" >
    <v>       3.33357300       0.00000000       1.92463900 </v>
    <v>       1.11119100       3.14292400       1.92463900 </v>
    <v>       0.00000000       0.00000000       3.84927800 </v>
   </varray>
   <i name="volume">     40.32952685 </i>
   <varray name="rec_basis" >
    <v>       0.29997843      -0.10605835       0.00000000 </v>
    <v>       0.00000000       0.31817505       0.00000000 </v>
    <v>      -0.14998922      -0.10605835       0.25978898 </v>
   </varray>
  </crystal>
  <varray name="positions" >
   <v>       0.87500000       0.87500000       0.87500000 </v>
   <v>       0.12500000       0.12500000       0.12500000 </v>
  </varray>
 </structure>
 <calculation>
  <scstep>
   <time name="dav">    1.42    1.42</time>
   <time name="total">    1.70    1.71</time>
   <energy>
    <i name="alphaZ">      3.33880741 </i>
    <i name="ewald">   -227.98820643 </i>
    <i name="hartreedc">    -11.11484531 </i>
    <i name="XCdc">    -18.63153721 </i>
    <i name="pawpsdc">    176.24759923 </i>
    <i name="pawaedc">   -141.06103558 </i>
    <i name="eentropy">     -0.00014715 </i>
    <i name="bandstr">     20.59876640 </i>
    <i name="atom">    206.13319108 </i>
    <i name="e_fr_energy">      7.52259244 </i>
    <i name="e_wo_entrp">      7.52273959 </i>
    <i name="e_0_energy">      7.52266602 </i>
   </energy>
  </scstep>
  <scstep>
   <time name="dav">    1.94    1.96</time>
   <time name="total">    1.94    1.96</time>
   <energy>
    <i name="e_fr_energy">    -10.75152535 </i>
    <i name="e_wo_entrp">    -10.75152535 </i>
    <i name="e_0_energy">    -10.75152535 </i>
   </energy>
  </scstep>
  <scstep>
   <time name="dav">    1.87    1.89</time>
   <time name="total">    1.87    1.89</time>
   <energy>
    <i name="e_fr_energy">    -11.02271979 </i>
    <i name="e_wo_entrp">    -11.02271979 </i>
    <i name="e_0_energy">    -11.02271979 </i>
   </energy>
  </scstep>
  <scstep>
   <time name="dav">    1.98    2.03</time>
   <time name="total">    1.98    2.03</time>
   <energy>
    <i name="e_fr_energy">    -11.02379762 </i>
    <i name="e_wo_entrp">    -11.02379762 </i>
    <i name="e_0_energy">    -11.02379762 </i>
   </energy>
  </scstep>
  <scstep>
   <time name="dav">    1.88    1.90</time>
   <time name="total">    2.04    2.06</time>
   <energy>
    <i name="e_fr_energy">    -11.02380024 </i>
    <i name="e_wo_entrp">    -11.02380024 </i>
    <i name="e_0_energy">    -11.02380024 </i>
   </energy>
  </scstep>
  <scstep>
   <time name="dav">    1.71    1.71</time>
   <time name="total">    2.11    2.16</time>
   <energy>
    <i name="e_fr_energy">    -10.90223486 </i>
    <i name="e_wo_entrp">    -10.90223486 </i>
    <i name="e_0_energy">    -10.90223486 </i>
   </energy>
  </scstep>
  <scstep>
   <time name="dav">    1.75    1.76</time>
   <time name="total">    2.16    2.18</time>
   <energy>
    <i name="e_fr_energy">    -10.84663754 </i>
    <i name="e_wo_entrp">    -10.84663754 </i>
    <i name="e_0_energy">    -10.84663754 </i>
   </energy>
  </scstep>
  <scstep>
   <time name="dav">    1.60    1.61</time>
   <time name="total">    2.01    2.03</time>
   <energy>
    <i name="e_fr_energy">    -10.84770857 </i>
    <i name="e_wo_entrp">    -10.84770857 </i>
    <i name="e_0_energy">    -10.84770857 </i>
   </energy>
  </scstep>
  <scstep>
   <time name="dav">    1.98    1.98</time>
   <time name="total">    2.39    2.41</time>
   <energy>
    <i name="e_fr_energy">    -10.84790333 </i>
    <i name="e_wo_entrp">    -10.84790333 </i>
    <i name="e_0_energy">    -10.84790333 </i>
   </energy>
  </scstep>
  <scstep>
   <time name="dav">    1.66    1.66</time>
   <time name="total">    2.07    2.08</time>
   <energy>
    <i name="e_fr_energy">    -10.84792862 </i>
    <i name="e_wo_entrp">    -10.84792862 </i>
    <i name="e_0_energy">    -10.84792862 </i>
   </energy>
  </scstep>
  <scstep>
   <time name="dav">    1.85    1.85</time>
   <time name="total">    2.11    2.13</time>
   <energy>
    <i name="alphaZ">      3.33880741 </i>
    <i name="ewald">   -227.98820643 </i>
    <i name="hartreedc">    -15.00498263 </i>
    <i name="XCdc">    -17.99878732 </i>
    <i name="pawpsdc">    854.16876584 </i>
    <i name="pawaedc">   -819.19934784 </i>
    <i name="eentropy">     -0.00000000 </i>
    <i name="bandstr">      5.70263159 </i>
    <i name="atom">    206.13319108 </i>
    <i name="e_fr_energy">    -10.84792829 </i>
    <i name="e_wo_entrp">    -10.84792829 </i>
    <i name="e_0_energy">    -10.84792829 </i>
   </energy>
  </scstep>
  <structure>
   <crystal>
    <varray name="basis" >
     <v>       3.33357300       0.00000000       1.92463900 </v>
     <v>       1.11119100       3.14292400       1.92463900 </v>
     <v>       0.00000000       0.00000000       3.84927800 </v>
    </varray>
    <i name="volume">     40.32952685 </i>
    <varray name="rec_basis" >
     <v>       0.29997843      -0.10605835       0.00000000 </v>
     <v>       0.00000000       0.31817505       0.00000000 </v>
     <v>      -0.14998922      -0.10605835       0.25978898 </v>
    </varray>
   </crystal>
   <varray name="positions" >
    <v>       0.87500000       0.87500000       0.87500000 </v>
    <v>       0.12500000       0.12500000       0.12500000 </v>
   </varray>
  </structure>
  <varray name="forces" >
   <v>       0.00000000      -0.00000000      -0.00000000 </v>
   <v>      -0.00000000       0.00000000       0.00000000 </v>
  </varray>
  <varray name="stress" >
   <v>      12.69828973       0.00000000      -0.00000000 </v>
   <v>       0.00000000      12.69829970       0.00000000 </v>
   <v>       0.00000000      -0.00000000      12.69828618 </v>
  </varray>
  <energy>
   <i name="e_fr_energy">    -10.84792829 </i>
   <i name="e_wo_entrp">    -10.84792829 </i>
   <i name="e_0_energy">    -10.84792829 </i>
  </energy>
  <time name="totalsc">   26.25   26.98</time>
 </calculation>
 <calculation>
  <scstep>
   <time name="dav">    1.67    1.67</time>
   <time name="total">    2.07    2.08</time>
   <energy>
    <i name="alphaZ">      3.26275570 </i>
    <i name="ewald">   -226.24384762 </i>
    <i name="hartreedc">    -14.89175483 </i>
    <i name="XCdc">    -18.11145798 </i>
    <i name="pawpsdc">    854.12420803 </i>
    <i name="pawaedc">   -819.15479812 </i>
    <i name="eentropy">     -0.00000000 </i>
    <i name="bandstr">      4.02961362 </i>
    <i name="atom">    206.13319108 </i>
    <i name="e_fr_energy">    -10.85209010 </i>
    <i name="e_wo_entrp">    -10.85209010 </i>
    <i name="e_0_energy">    -10.85209010 </i>
   </energy>
  </scstep>
  <scstep>
   <time name="dav">    1.84    1.84</time>
   <time name="total">    2.24    2.26</time>
   <energy>
    <i name="e_fr_energy">    -10.85015568 </i>
    <i name="e_wo_entrp">    -10.85015568 </i>
    <i name="e_0_energy">    -10.85015568 </i>
   </energy>
  </scstep>
  <scstep>
   <time name="dav">    1.62    1.62</time>
   <time name="total">    2.02    2.04</time>
   <energy>
    <i name="e_fr_energy">    -10.84913520 </i>
    <i name="e_wo_entrp">    -10.84913520 </i>
    <i name="e_0_energy">    -10.84913520 </i>
   </energy>
  </scstep>
  <scstep>
   <time name="dav">    1.88    1.88</time>
   <time name="total">    2.28    2.30</time>
   <energy>
    <i name="e_fr_energy">    -10.84913524 </i>
    <i name="e_wo_entrp">    -10.84913524 </i>
    <i name="e_0_energy">    -10.84913524 </i>
   </energy>
  </scstep>
  <scstep>
   <time name="dav">    1.58    1.59</time>
   <time name="total">    1.99    2.01</time>
   <energy>
    <i name="e_fr_energy">    -10.84912861 </i>
    <i name="e_wo_entrp">    -10.84912861 </i>
    <i name="e_0_energy">    -10.84912861 </i>
   </energy>
  </scstep>
  <scstep>
   <time name="dav">    1.11    1.11</time>
   <time name="total">    1.38    1.40</time>
   <energy>
    <i name="alphaZ">      3.26275570 </i>
    <i name="ewald">   -226.24384762 </i>
    <i name="hartreedc">    -15.28152418 </i>
    <i name="XCdc">    -18.10386356 </i>
    <i name="pawpsdc">    812.58011530 </i>
    <i name="pawaedc">   -777.59076503 </i>
    <i name="eentropy">     -0.00000000 </i>
    <i name="bandstr">      4.39480948 </i>
    <i name="atom">    206.13319108 </i>
    <i name="e_fr_energy">    -10.84912881 </i>
    <i name="e_wo_entrp">    -10.84912881 </i>
    <i name="e_0_energy">    -10.84912881 </i>
   </energy>
  </scstep>
  <structure>
   <crystal>
    <varray name="basis" >
     <v>       3.35927512      -0.00000000       1.93947812 </v>
     <v>       1.11975837       3.16715622       1.93947812 </v>
     <v>       0.00000000      -0.00000000       3.87895624 </v>
    </varray>
    <i name="volume">     41.26956953 </i>
    <varray name="rec_basis" >
     <v>       0.29768327      -0.10524689      -0.00000000 </v>
     <v>      -0.00000000       0.31574066       0.00000000 </v>
     <v>      -0.14884163      -0.10524689       0.25780131 </v>
    </varray>
   </crystal>
   <varray name="positions" >
    <v>       0.87500000       0.87500000       0.87500000 </v>
    <v>       0.12500000       0.12500000       0.12500000 </v>
   </varray>
  </structure>
  <varray name="forces" >
   <v>       0.00000000      -0.00000000      -0.00000000 </v>
   <v>      -0.00000000       0.00000000       0.00000000 </v>
  </varray>
  <varray name="stress" >
   <v>      -8.02765785       0.00000000       0.00000000 </v>
   <v>       0.00000000      -8.02766426       0.00000000 </v>
   <v>      -0.00000000       0.00000000      -8.02765558 </v>
  </varray>
  <energy>
   <i name="e_fr_energy">    -10.84912881 </i>
   <i name="e_wo_entrp">    -10.84912881 </i>
   <i name="e_0_energy">    -10.84912881 </i>
  </energy>
  <time name="totalsc">   15.81   16.04</time>
 </calculation>
 <calculation>
  <scstep>
   <time name="dav">    1.67    1.67</time>
   <time name="total">    2.08    2.08</time>
   <energy>
    <i name="alphaZ">      3.29329369 </i>
    <i name="ewald">   -226.94750517 </i>
    <i name="hartreedc">    -15.32983108 </i>
    <i name="XCdc">    -18.05856826 </i>
    <i name="pawpsdc">    810.88425436 </i>
    <i name="pawaedc">   -775.89502687 </i>
    <i name="eentropy">     -0.00000000 </i>
    <i name="bandstr">      5.06961891 </i>
    <i name="atom">    206.13319108 </i>
    <i name="e_fr_energy">    -10.85057335 </i>
    <i name="e_wo_entrp">    -10.85057335 </i>
    <i name="e_0_energy">    -10.85057335 </i>
   </energy>
  </scstep>
  <scstep>
   <time name="dav">    1.82    1.82</time>
   <time name="total">    2.22    2.24</time>
   <energy>
    <i name="e_fr_energy">    -10.85025713 </i>
    <i name="e_wo_entrp">    -10.85025713 </i>
    <i name="e_0_energy">    -10.85025713 </i>
   </energy>
  </scstep>
  <scstep>
   <time name="dav">    1.61    1.61</time>
   <time name="total">    2.02    2.04</time>
   <energy>
    <i name="e_fr_energy">    -10.85009711 </i>
    <i name="e_wo_entrp">    -10.85009711 </i>
    <i name="e_0_energy">    -10.85009711 </i>
   </energy>
  </scstep>
  <scstep>
   <time name="dav">    1.85    1.85</time>
   <time name="total">    2.26    2.27</time>
   <energy>
    <i name="e_fr_energy">    -10.85009775 </i>
    <i name="e_wo_entrp">    -10.85009775 </i>
    <i name="e_0_energy">    -10.85009775 </i>
   </energy>
  </scstep>
  <scstep>
   <time name="dav">    1.50    1.51</time>
   <time name="total">    1.91    1.93</time>
   <energy>
    <i name="e_fr_energy">    -10.85009959 </i>
    <i name="e_wo_entrp">    -10.85009959 </i>
    <i name="e_0_energy">    -10.85009959 </i>
   </energy>
  </scstep>
  <scstep>
   <time name="dav">    0.99    0.99</time>
   <time name="total">    1.25    1.27</time>
   <energy>
    <i name="alphaZ">      3.29329369 </i>
    <i name="ewald">   -226.94750517 </i>
    <i name="hartreedc">    -15.17059671 </i>
    <i name="XCdc">    -18.06145656 </i>
    <i name="pawpsdc">    827.90939728 </i>
    <i name="pawaedc">   -792.92810034 </i>
    <i name="eentropy">     -0.00000000 </i>
    <i name="bandstr">      4.92167722 </i>
    <i name="atom">    206.13319108 </i>
    <i name="e_fr_energy">    -10.85009951 </i>
    <i name="e_wo_entrp">    -10.85009951 </i>
    <i name="e_0_energy">    -10.85009951 </i>
   </energy>
  </scstep>
  <structure>
   <crystal>
    <varray name="basis" >
     <v>       3.34885959      -0.00000000       1.93346471 </v>
     <v>       1.11628653       3.15733635       1.93346471 </v>
     <v>       0.00000000      -0.00000000       3.86692942 </v>
    </varray>
    <i name="volume">     40.88688589 </i>
    <varray name="rec_basis" >
     <v>       0.29860912      -0.10557422      -0.00000000 </v>
     <v>      -0.00000000       0.31672267       0.00000000 </v>
     <v>      -0.14930456      -0.10557422       0.25860312 </v>
    </varray>
   </crystal>
   <varray name="positions" >
    <v>       0.87500000       0.87500000       0.87500000 </v>
    <v>       0.12500000       0.12500000       0.12500000 </v>
   </varray>
  </structure>
  <varray name="forces" >
   <v>      -0.00000000      -0.00000000      -0.00000000 </v>
   <v>       0.00000000       0.00000000       0.00000000 </v>
  </varray>
  <varray name="stress" >
   <v>       0.07019768       0.00000000      -0.00000000 </v>
   <v>       0.00000000       0.07019773      -0.00000000 </v>
   <v>       0.00000000      -0.00000000       0.07019766 </v>
  </varray>
  <energy>
   <i name="e_fr_energy">    -10.85009951 </i>
   <i name="e_wo_entrp">    -10.85009951 </i>
   <i name="e_0_energy">    -10.85009951 </i>
  </energy>
  <time name="totalsc">   15.26   15.49</time>
  <eigenvalues>
   <array>
    <dimension dim="1">band</dimension>
    <dimension dim="2">kpoint</dimension>
    <dimension dim="3">spin</dimension>
    <field>eigene</field>
    <field>occ</field>
    <set>
     <set comment="spin 1">
      <set comment="kpoint 1">
       <r>   -6.1986    1.0000 </r>
       <r>    5.6161    1.0000 </r>
       <r>    5.6161    1.0000 </r>
       <r>    5.6161    1.0000 </r>
       <r>    8.1732    0.0000 </r>
       <r>    8.1732    0.0000 </r>
       <r>    8.1732    0.0000 </r>
       <r>    8.7505    0.0000 </r>
      </set>
      <set comment="kpoint 2">
       <r>   -6.1414    1.0000 </r>
       <r>    5.0232    1.0000 </r>
       <r>    5.5231    1.0000 </r>
       <r>    5.5231    1.0000 </r>
       <r>    8.2086    0.0000 </r>
       <r>    8.3100    0.0000 </r>
       <r>    8.3100    0.0000 </r>
       <r>    9.2113    0.0000 </r>
      </set>
      <set comment="kpoint 3">
       <r>   -5.9707    1.0000 </r>
       <r>    3.8724    1.0000 </r>
       <r>    5.3027    1.0000 </r>
       <r>    5.3027    1.0000 </r>
       <r>    8.0299    0.0000 </r>
       <r>    8.6333    0.0000 </r>
       <r>    8.6333    0.0000 </r>
       <r>   10.2966    0.0000 </r>
      </set>
      <set comment="kpoint 4">
       <r>   -5.6906    1.0000 </r>
       <r>    2.6343    1.0000 </r>
       <r>    5.0486    1.0000 </r>
       <r>    5.0486    1.0000 </r>
       <r>    7.7690    0.0000 </r>
       <r>    8.9608    0.0000 </r>
       <r>    8.9608    0.0000 </r>
       <r>   11.4951    0.0000 </r>
      </set>
      <set comment="kpoint 5">
       <r>   -5.3099    1.0000 </r>
       <r>    1.4387    1.0000 </r>
       <r>    4.8171    1.0000 </r>
       <r>    4.8171    1.0000 </r>
       <r>    7.5160    0.0000 </r>
       <r>    9.1295    0.0000 </r>
       <r>    9.1295    0.0000 </r>
       <r>   12.6407    0.0000 </r>
      </set>
      <set comment="kpoint 6">
       <r>   -4.8485    1.0000 </r>
       <r>    0.3468    1.0000 </r>
       <r>    4.6337    1.0000 </r>
       <r>    4.6337    1.0000 </r>
       <r>    7.3091    0.0000 </r>
       <r>    9.1198    0.0000 </r>
       <r>    9.1198    0.0000 </r>
       <r>   13.4003    0.0000 </r>
      </set>
      <set comment="kpoint 7">
       <r>   -4.3575    1.0000 </r>
       <r>   -0.5720    1.0000 </r>
       <r>    4.5087    1.0000 </r>
       <r>    4.5087    1.0000 </r>
       <r>    7.1655    0.0000 </r>
       <r>    9.0370    0.0000 </r>
       <r>    9.0370    0.0000 </r>
       <r>   13.4218    0.0000 </r>
      </set>
      <set comment="kpoint 8">
       <r>   -3.9797    1.0000 </r>
       <r>   -1.1655    1.0000 </r>
       <r>    4.4456    1.0000 </r>
       <r>    4.4457    1.0000 </r>
       <r>    7.0923    0.0000 </r>
       <r>    8.9745    0.0000 </r>
       <r>    8.9745    0.0000 </r>
       <r>   13.3322    0.0000 </r>
      </set>
      <set comment="kpoint 9">
       <r>   -6.1222    1.0000 </r>
       <r>    5.1323    1.0000 </r>
       <r>    5.3301    1.0000 </r>
       <r>    5.3301    1.0000 </r>
       <r>    7.9946    0.0000 </r>
       <r>    8.5533    0.0000 </r>
       <r>    8.5533    0.0000 </r>
       <r>    9.2116    0.0000 </r>
      </set>
      <set comment="kpoint 10">
       <r>   -5.9891    1.0000 </r>
       <r>    4.2088    1.0000 </r>
       <r>    5.0573    1.0000 </r>
       <r>    5.2228    1.0000 </r>
       <r>    7.9920    0.0000 </r>
       <r>    8.6172    0.0000 </r>
       <r>    8.9475    0.0000 </r>
       <r>   10.0047    0.0000 </r>
      </set>
      <set comment="kpoint 11">
       <r>   -5.7450    1.0000 </r>
       <r>    3.0227    1.0000 </r>
       <r>    4.7869    1.0000 </r>
       <r>    5.0075    1.0000 </r>
       <r>    8.0684    0.0000 </r>
       <r>    8.6149    0.0000 </r>
       <r>    9.3310    0.0000 </r>
       <r>   10.8842    0.0000 </r>
      </set>
      <set comment="kpoint 12">
       <r>   -5.3967    1.0000 </r>
       <r>    1.8287    1.0000 </r>
       <r>    4.5623    1.0000 </r>
       <r>    4.7372    1.0000 </r>
       <r>    7.9250    0.0000 </r>
       <r>    8.8034    0.0000 </r>
       <r>    9.5434    0.0000 </r>
       <r>   11.3704    0.0000 </r>
      </set>
      <set comment="kpoint 13">
       <r>   -4.9590    1.0000 </r>
       <r>    0.7092    1.0000 </r>
       <r>    4.4032    1.0000 </r>
       <r>    4.4778    1.0000 </r>
       <r>    7.7320    0.0000 </r>
       <r>    8.8978    0.0000 </r>
       <r>    9.5338    0.0000 </r>
       <r>   11.9360    0.0000 </r>
      </set>
      <set comment="kpoint 14">
       <r>   -4.4684    1.0000 </r>
       <r>   -0.2706    1.0000 </r>
       <r>    4.2598    1.0000 </r>
       <r>    4.3167    1.0000 </r>
       <r>    7.5768    0.0000 </r>
       <r>    8.8863    0.0000 </r>
       <r>    9.3990    0.0000 </r>
       <r>   12.7369    0.0000 </r>
      </set>
      <set comment="kpoint 15">
       <r>   -4.0266    1.0000 </r>
       <r>   -0.9957    1.0000 </r>
       <r>    4.0976    1.0000 </r>
       <r>    4.3039    1.0000 </r>
       <r>    7.4828    0.0000 </r>
       <r>    8.8753    0.0000 </r>
       <r>    9.2498    0.0000 </r>
       <r>   13.3809    0.0000 </r>
      </set>
      <set comment="kpoint 16">
       <r>   -3.8758    1.0000 </r>
       <r>   -1.2175    1.0000 </r>
       <r>    3.9999    1.0000 </r>
       <r>    4.3620    1.0000 </r>
       <r>    7.4579    0.0000 </r>
       <r>    8.9238    0.0000 </r>
       <r>    9.1467    0.0000 </r>
       <r>   13.5203    0.0000 </r>
      </set>
      <set comment="kpoint 17">
       <r>   -4.1574    1.0000 </r>
       <r>   -0.7932    1.0000 </r>
       <r>    3.9729    1.0000 </r>
       <r>    4.4856    1.0000 </r>
       <r>    7.5041    0.0000 </r>
       <r>    9.0422    0.0000 </r>
       <r>    9.1057    0.0000 </r>
       <r>   13.4910    0.0000 </r>
      </set>
      <set comment="kpoint 18">
       <r>   -4.6344    1.0000 </r>
       <r>    0.0371    1.0000 </r>
       <r>    4.0211    1.0000 </r>
       <r>    4.6671    1.0000 </r>
       <r>    7.6194    0.0000 </r>
       <r>    9.1026    0.0000 </r>
       <r>    9.2006    0.0000 </r>
       <r>   13.0816    0.0000 </r>
      </set>
      <set comment="kpoint 19">
       <r>   -5.1138    1.0000 </r>
       <r>    1.0715    1.0000 </r>
       <r>    4.1477    1.0000 </r>
       <r>    4.8949    1.0000 </r>
       <r>    7.7975    0.0000 </r>
       <r>    9.0622    0.0000 </r>
       <r>    9.3136    0.0000 </r>
       <r>   12.3258    0.0000 </r>
      </set>
      <set comment="kpoint 20">
       <r>   -5.5242    1.0000 </r>
       <r>    2.2191    1.0000 </r>
       <r>    4.3534    1.0000 </r>
       <r>    5.1492    1.0000 </r>
       <r>    8.0239    0.0000 </r>
       <r>    8.8841    0.0000 </r>
       <r>    9.2334    0.0000 </r>
       <r>   11.5890    0.0000 </r>
      </set>
      <set comment="kpoint 21">
       <r>   -5.8388    1.0000 </r>
       <r>    3.4058    1.0000 </r>
       <r>    4.6398    1.0000 </r>
       <r>    5.3902    1.0000 </r>
       <r>    8.2646    0.0000 </r>
       <r>    8.5818    0.0000 </r>
       <r>    8.8875    0.0000 </r>
       <r>   10.7745    0.0000 </r>
      </set>
      <set comment="kpoint 22">
       <r>   -6.0462    1.0000 </r>
       <r>    4.4606    1.0000 </r>
       <r>    5.0425    1.0000 </r>
       <r>    5.5436    1.0000 </r>
       <r>    8.3306    0.0000 </r>
       <r>    8.4310    0.0000 </r>
       <r>    8.4386    0.0000 </r>
       <r>    9.8389    0.0000 </r>
      </set>
      <set comment="kpoint 23">
       <r>   -5.8937    1.0000 </r>
       <r>    4.1269    1.0000 </r>
       <r>    4.7536    1.0000 </r>
       <r>    4.7536    1.0000 </r>
       <r>    7.5728    0.0000 </r>
       <r>    9.4090    0.0000 </r>
       <r>    9.4090    0.0000 </r>
       <r>    9.8822    0.0000 </r>
      </set>
      <set comment="kpoint 24">
       <r>   -5.6863    1.0000 </r>
       <r>    3.2532    1.0000 </r>
       <r>    4.4661    1.0000 </r>
       <r>    4.5354    1.0000 </r>
       <r>    7.5393    0.0000 </r>
       <r>    9.4241    0.0000 </r>
       <r>    9.8746    0.0000 </r>
       <r>   10.2187    0.0000 </r>
      </set>
      <set comment="kpoint 25">
       <r>   -5.3721    1.0000 </r>
       <r>    2.1622    1.0000 </r>
       <r>    4.2344    1.0000 </r>
       <r>    4.2501    1.0000 </r>
       <r>    7.7298    0.0000 </r>
       <r>    9.3381    0.0000 </r>
       <r>   10.1815    0.0000 </r>
       <r>   10.2670    0.0000 </r>
      </set>
      <set comment="kpoint 26">
       <r>   -4.9622    1.0000 </r>
       <r>    1.0724    1.0000 </r>
       <r>    3.9237    1.0000 </r>
       <r>    4.0768    1.0000 </r>
       <r>    7.8264    0.0000 </r>
       <r>    9.3533    0.0000 </r>
       <r>   10.2315    0.0000 </r>
       <r>   10.4786    0.0000 </r>
      </set>
      <set comment="kpoint 27">
       <r>   -4.4829    1.0000 </r>
       <r>    0.0723    1.0000 </r>
       <r>    3.6201    1.0000 </r>
       <r>    4.0014    1.0000 </r>
       <r>    7.7992    0.0000 </r>
       <r>    9.2936    0.0000 </r>
       <r>   10.0945    0.0000 </r>
       <r>   11.1797    0.0000 </r>
      </set>
      <set comment="kpoint 28">
       <r>   -4.0049    1.0000 </r>
       <r>   -0.7392    1.0000 </r>
       <r>    3.3704    1.0000 </r>
       <r>    4.0094    1.0000 </r>
       <r>    7.7688    0.0000 </r>
       <r>    9.2171    0.0000 </r>
       <r>    9.8977    0.0000 </r>
       <r>   12.1882    0.0000 </r>
      </set>
      <set comment="kpoint 29">
       <r>   -3.7232    1.0000 </r>
       <r>   -1.1544    1.0000 </r>
       <r>    3.1912    1.0000 </r>
       <r>    4.0983    1.0000 </r>
       <r>    7.7957    0.0000 </r>
       <r>    9.1947    0.0000 </r>
       <r>    9.7208    0.0000 </r>
       <r>   13.2924    0.0000 </r>
      </set>
      <set comment="kpoint 30">
       <r>   -3.8788    1.0000 </r>
       <r>   -0.9284    1.0000 </r>
       <r>    3.0936    1.0000 </r>
       <r>    4.2612    1.0000 </r>
       <r>    7.8929    0.0000 </r>
       <r>    9.2476    0.0000 </r>
       <r>    9.5934    0.0000 </r>
       <r>   13.7256    0.0000 </r>
      </set>
      <set comment="kpoint 31">
       <r>   -4.3234    1.0000 </r>
       <r>   -0.2127    1.0000 </r>
       <r>    3.0877    1.0000 </r>
       <r>    4.4871    1.0000 </r>
       <r>    8.0522    0.0000 </r>
       <r>    9.3662    0.0000 </r>
       <r>    9.5022    0.0000 </r>
       <r>   12.8802    0.0000 </r>
      </set>
      <set comment="kpoint 32">
       <r>   -4.8135    1.0000 </r>
       <r>    0.7340    1.0000 </r>
       <r>    3.1862    1.0000 </r>
       <r>    4.7574    1.0000 </r>
       <r>    8.2550    0.0000 </r>
       <r>    9.3809    0.0000 </r>
       <r>    9.4840    0.0000 </r>
       <r>   11.9814    0.0000 </r>
      </set>
      <set comment="kpoint 33">
       <r>   -5.2495    1.0000 </r>
       <r>    1.7697    1.0000 </r>
       <r>    3.4177    1.0000 </r>
       <r>    5.0407    1.0000 </r>
       <r>    8.4712    0.0000 </r>
       <r>    9.1349    0.0000 </r>
       <r>    9.4089    0.0000 </r>
       <r>   11.3651    0.0000 </r>
      </set>
      <set comment="kpoint 34">
       <r>   -5.5962    1.0000 </r>
       <r>    2.7307    1.0000 </r>
       <r>    3.8721    1.0000 </r>
       <r>    5.2806    1.0000 </r>
       <r>    8.5983    0.0000 </r>
       <r>    8.8015    0.0000 </r>
       <r>    9.0353    0.0000 </r>
       <r>   11.1120    0.0000 </r>
      </set>
      <set comment="kpoint 35">
       <r>   -5.5155    1.0000 </r>
       <r>    2.9816    1.0000 </r>
       <r>    4.1619    1.0000 </r>
       <r>    4.1619    1.0000 </r>
       <r>    7.0927    0.0000 </r>
       <r>    9.4696    0.0000 </r>
       <r>   10.4574    0.0000 </r>
       <r>   10.4574    0.0000 </r>
      </set>
      <set comment="kpoint 36">
       <r>   -5.2363    1.0000 </r>
       <r>    2.2158    1.0000 </r>
       <r>    3.8536    1.0000 </r>
       <r>    3.9148    1.0000 </r>
       <r>    7.0837    0.0000 </r>
       <r>    9.1155    0.0000 </r>
       <r>   10.7281    0.0000 </r>
       <r>   10.9164    0.0000 </r>
      </set>
      <set comment="kpoint 37">
       <r>   -4.8570    1.0000 </r>
       <r>    1.2868    1.0000 </r>
       <r>    3.4506    1.0000 </r>
       <r>    3.7451    1.0000 </r>
       <r>    7.2956    0.0000 </r>
       <r>    9.1323    0.0000 </r>
       <r>   10.6438    0.0000 </r>
       <r>   11.0964    0.0000 </r>
      </set>
      <set comment="kpoint 38">
       <r>   -4.3966    1.0000 </r>
       <r>    0.3528    1.0000 </r>
       <r>    3.0394    1.0000 </r>
       <r>    3.6617    1.0000 </r>
       <r>    7.4033    0.0000 </r>
       <r>    9.6861    0.0000 </r>
       <r>   10.4769    0.0000 </r>
       <r>   11.0123    0.0000 </r>
      </set>
      <set comment="kpoint 39">
       <r>   -3.9039    1.0000 </r>
       <r>   -0.4765    1.0000 </r>
       <r>    2.6847    1.0000 </r>
       <r>    3.6676    1.0000 </r>
       <r>    7.4377    0.0000 </r>
       <r>   10.3166    0.0000 </r>
       <r>   10.6466    0.0000 </r>
       <r>   10.8071    0.0000 </r>
      </set>
      <set comment="kpoint 40">
       <r>   -3.5233    1.0000 </r>
       <r>   -1.0266    1.0000 </r>
       <r>    2.4149    1.0000 </r>
       <r>    3.7611    1.0000 </r>
       <r>    7.5149    0.0000 </r>
       <r>   10.2114    0.0000 </r>
       <r>   10.5874    0.0000 </r>
       <r>   11.8197    0.0000 </r>
      </set>
      <set comment="kpoint 41">
       <r>   -3.5357    1.0000 </r>
       <r>   -1.0055    1.0000 </r>
       <r>    2.2468    1.0000 </r>
       <r>    3.9364    1.0000 </r>
       <r>    7.6748    0.0000 </r>
       <r>   10.1632    0.0000 </r>
       <r>   10.3968    0.0000 </r>
       <r>   13.1111    0.0000 </r>
      </set>
      <set comment="kpoint 42">
       <r>   -3.9272    1.0000 </r>
       <r>   -0.4337    1.0000 </r>
       <r>    2.1998    1.0000 </r>
       <r>    4.1818    1.0000 </r>
       <r>    7.9150    0.0000 </r>
       <r>   10.1691    0.0000 </r>
       <r>   10.2238    0.0000 </r>
       <r>   12.7585    0.0000 </r>
      </set>
      <set comment="kpoint 43">
       <r>   -4.4188    1.0000 </r>
       <r>    0.3726    1.0000 </r>
       <r>    2.3128    1.0000 </r>
       <r>    4.4771    1.0000 </r>
       <r>    8.2047    0.0000 </r>
       <r>    9.9849    0.0000 </r>
       <r>   10.1646    0.0000 </r>
       <r>   11.7726    0.0000 </r>
      </set>
      <set comment="kpoint 44">
       <r>   -4.8750    1.0000 </r>
       <r>    1.1697    1.0000 </r>
       <r>    2.6829    1.0000 </r>
       <r>    4.7851    1.0000 </r>
       <r>    8.4673    0.0000 </r>
       <r>    9.5819    0.0000 </r>
       <r>    9.8859    0.0000 </r>
       <r>   11.2734    0.0000 </r>
      </set>
      <set comment="kpoint 45">
       <r>   -4.9917    1.0000 </r>
       <r>    1.8023    1.0000 </r>
       <r>    3.6492    1.0000 </r>
       <r>    3.6492    1.0000 </r>
       <r>    6.6726    0.0000 </r>
       <r>    8.5112    0.0000 </r>
       <r>   11.5968    0.0000 </r>
       <r>   11.5968    0.0000 </r>
      </set>
      <set comment="kpoint 46">
       <r>   -4.6445    1.0000 </r>
       <r>    1.1229    1.0000 </r>
       <r>    3.3016    1.0000 </r>
       <r>    3.4602    1.0000 </r>
       <r>    6.7151    0.0000 </r>
       <r>    8.2088    0.0000 </r>
       <r>   11.8751    0.0000 </r>
       <r>   12.0129    0.0000 </r>
      </set>
      <set comment="kpoint 47">
       <r>   -4.2081    1.0000 </r>
       <r>    0.3631    1.0000 </r>
       <r>    2.7928    1.0000 </r>
       <r>    3.3591    1.0000 </r>
       <r>    6.9253    0.0000 </r>
       <r>    8.4066    0.0000 </r>
       <r>   11.8104    0.0000 </r>
       <r>   12.0648    0.0000 </r>
      </set>
      <set comment="kpoint 48">
       <r>   -3.7162    1.0000 </r>
       <r>   -0.3784    1.0000 </r>
       <r>    2.2923    1.0000 </r>
       <r>    3.3499    1.0000 </r>
       <r>    7.0201    0.0000 </r>
       <r>    9.1721    0.0000 </r>
       <r>   11.6663    0.0000 </r>
       <r>   11.8951    0.0000 </r>
      </set>
      <set comment="kpoint 49">
       <r>   -3.2703    1.0000 </r>
       <r>   -0.9666    1.0000 </r>
       <r>    1.8919    1.0000 </r>
       <r>    3.4324    1.0000 </r>
       <r>    7.1132    0.0000 </r>
       <r>   10.2565    0.0000 </r>
       <r>   11.5449    0.0000 </r>
       <r>   11.6578    0.0000 </r>
      </set>
      <set comment="kpoint 50">
       <r>   -3.1443    1.0000 </r>
       <r>   -1.1140    1.0000 </r>
       <r>    1.6331    1.0000 </r>
       <r>    3.6019    1.0000 </r>
       <r>    7.2870    0.0000 </r>
       <r>   11.2337    0.0000 </r>
       <r>   11.4153    0.0000 </r>
       <r>   11.7483    0.0000 </r>
      </set>
      <set comment="kpoint 51">
       <r>   -3.4682    1.0000 </r>
       <r>   -0.7080    1.0000 </r>
       <r>    1.5574    1.0000 </r>
       <r>    3.8483    1.0000 </r>
       <r>    7.5520    0.0000 </r>
       <r>   11.1360    0.0000 </r>
       <r>   11.2758    0.0000 </r>
       <r>   12.6646    0.0000 </r>
      </set>
      <set comment="kpoint 52">
       <r>   -3.9514    1.0000 </r>
       <r>   -0.1168    1.0000 </r>
       <r>    1.7492    1.0000 </r>
       <r>    4.1521    1.0000 </r>
       <r>    7.8840    0.0000 </r>
       <r>   10.6628    0.0000 </r>
       <r>   11.0024    0.0000 </r>
       <r>   11.8590    0.0000 </r>
      </set>
      <set comment="kpoint 53">
       <r>   -4.3287    1.0000 </r>
       <r>    0.6261    1.0000 </r>
       <r>    3.2493    1.0000 </r>
       <r>    3.2493    1.0000 </r>
       <r>    6.3748    0.0000 </r>
       <r>    7.6380    0.0000 </r>
       <r>   12.7893    0.0000 </r>
       <r>   12.7893    0.0000 </r>
      </set>
      <set comment="kpoint 54">
       <r>   -3.9191    1.0000 </r>
       <r>    0.0110    1.0000 </r>
       <r>    2.9055    1.0000 </r>
       <r>    3.1254    1.0000 </r>
       <r>    6.4779    0.0000 </r>
       <r>    7.4626    0.0000 </r>
       <r>   13.0911    0.0000 </r>
       <r>   13.1475    0.0000 </r>
      </set>
      <set comment="kpoint 55">
       <r>   -3.4384    1.0000 </r>
       <r>   -0.6111    1.0000 </r>
       <r>    2.3491    1.0000 </r>
       <r>    3.0946    1.0000 </r>
       <r>    6.6618    0.0000 </r>
       <r>    7.8996    0.0000 </r>
       <r>   13.0465    0.0000 </r>
       <r>   13.0967    0.0000 </r>
      </set>
      <set comment="kpoint 56">
       <r>   -2.9557    1.0000 </r>
       <r>   -1.1551    1.0000 </r>
       <r>    1.8101    1.0000 </r>
       <r>    3.1577    1.0000 </r>
       <r>    6.7675    0.0000 </r>
       <r>    8.8658    0.0000 </r>
       <r>   12.8693    0.0000 </r>
       <r>   12.9150    0.0000 </r>
      </set>
      <set comment="kpoint 57">
       <r>   -2.7244    1.0000 </r>
       <r>   -1.3846    1.0000 </r>
       <r>    1.4276    1.0000 </r>
       <r>    3.3114    1.0000 </r>
       <r>    6.9373    0.0000 </r>
       <r>   10.0836    0.0000 </r>
       <r>   12.5592    0.0000 </r>
       <r>   12.7875    0.0000 </r>
      </set>
      <set comment="kpoint 58">
       <r>   -3.0019    1.0000 </r>
       <r>   -1.0972    1.0000 </r>
       <r>    1.3058    1.0000 </r>
       <r>    3.5473    1.0000 </r>
       <r>    7.2042    0.0000 </r>
       <r>   11.3936    0.0000 </r>
       <r>   12.0241    0.0000 </r>
       <r>   12.5872    0.0000 </r>
      </set>
      <set comment="kpoint 59">
       <r>   -3.5355    1.0000 </r>
       <r>   -0.5209    1.0000 </r>
       <r>    2.9770    1.0000 </r>
       <r>    2.9770    1.0000 </r>
       <r>    6.2342    0.0000 </r>
       <r>    6.9659    0.0000 </r>
       <r>   14.0169    0.0000 </r>
       <r>   14.0169    0.0000 </r>
      </set>
      <set comment="kpoint 60">
       <r>   -3.0718    1.0000 </r>
       <r>   -1.0808    1.0000 </r>
       <r>    2.6681    1.0000 </r>
       <r>    2.9212    1.0000 </r>
       <r>    6.3902    0.0000 </r>
       <r>    6.9459    0.0000 </r>
       <r>   14.3101    0.0000 </r>
       <r>   14.3353    0.0000 </r>
      </set>
      <set comment="kpoint 61">
       <r>   -2.5734    1.0000 </r>
       <r>   -1.5894    1.0000 </r>
       <r>    2.1305    1.0000 </r>
       <r>    2.9605    1.0000 </r>
       <r>    6.5253    0.0000 </r>
       <r>    7.6452    0.0000 </r>
       <r>   14.1456    0.0000 </r>
       <r>   14.3073    0.0000 </r>
      </set>
      <set comment="kpoint 62">
       <r>   -2.3601    1.0000 </r>
       <r>   -1.7569    1.0000 </r>
       <r>    1.6471    1.0000 </r>
       <r>    3.0928    1.0000 </r>
       <r>    6.6801    0.0000 </r>
       <r>    8.7652    0.0000 </r>
       <r>   13.6133    0.0000 </r>
       <r>   14.1884    0.0000 </r>
      </set>
      <set comment="kpoint 63">
       <r>   -2.6246    1.0000 </r>
       <r>   -1.6127    1.0000 </r>
       <r>    2.8393    1.0000 </r>
       <r>    2.8393    1.0000 </r>
       <r>    6.2743    0.0000 </r>
       <r>    6.5134    0.0000 </r>
       <r>   15.2156    0.0000 </r>
       <r>   15.2156    0.0000 </r>
      </set>
      <set comment="kpoint 64">
       <r>   -2.1478    1.0000 </r>
       <r>   -2.0885    1.0000 </r>
       <r>    2.5890    1.0000 </r>
       <r>    2.8526    1.0000 </r>
       <r>    6.4032    0.0000 </r>
       <r>    6.7299    0.0000 </r>
       <r>   15.1905    0.0000 </r>
       <r>   15.3358    0.0000 </r>
      </set>
      <set comment="kpoint 65">
       <r>   -5.8191    1.0000 </r>
       <r>    3.5574    1.0000 </r>
       <r>    4.4614    1.0000 </r>
       <r>    5.1466    1.0000 </r>
       <r>    7.9779    0.0000 </r>
       <r>    8.8777    0.0000 </r>
       <r>    9.2716    0.0000 </r>
       <r>   10.4941    0.0000 </r>
      </set>
      <set comment="kpoint 66">
       <r>   -5.5399    1.0000 </r>
       <r>    2.5465    1.0000 </r>
       <r>    4.0245    1.0000 </r>
       <r>    4.9685    1.0000 </r>
       <r>    8.1621    0.0000 </r>
       <r>    8.8698    0.0000 </r>
       <r>    9.6617    0.0000 </r>
       <r>   10.7243    0.0000 </r>
      </set>
      <set comment="kpoint 67">
       <r>   -5.1602    1.0000 </r>
       <r>    1.4396    1.0000 </r>
       <r>    3.7504    1.0000 </r>
       <r>    4.7158    1.0000 </r>
       <r>    8.1956    0.0000 </r>
       <r>    8.9216    0.0000 </r>
       <r>    9.8581    0.0000 </r>
       <r>   10.9596    0.0000 </r>
      </set>
      <set comment="kpoint 68">
       <r>   -4.6996    1.0000 </r>
       <r>    0.3896    1.0000 </r>
       <r>    3.5743    1.0000 </r>
       <r>    4.4692    1.0000 </r>
       <r>    8.0862    0.0000 </r>
       <r>    8.9278    0.0000 </r>
       <r>    9.8341    0.0000 </r>
       <r>   11.5765    0.0000 </r>
      </set>
      <set comment="kpoint 69">
       <r>   -4.2081    1.0000 </r>
       <r>   -0.5090    1.0000 </r>
       <r>    3.4735    1.0000 </r>
       <r>    4.2767    1.0000 </r>
       <r>    7.9792    0.0000 </r>
       <r>    8.8560    0.0000 </r>
       <r>    9.7367    0.0000 </r>
       <r>   12.4927    0.0000 </r>
      </set>
      <set comment="kpoint 70">
       <r>   -3.8279    1.0000 </r>
       <r>   -1.0961    1.0000 </r>
       <r>    3.4302    1.0000 </r>
       <r>    4.1703    1.0000 </r>
       <r>    7.9203    0.0000 </r>
       <r>    8.7981    0.0000 </r>
       <r>    9.6665    0.0000 </r>
       <r>   13.4506    0.0000 </r>
      </set>
      <set comment="kpoint 71">
       <r>   -5.4433    1.0000 </r>
       <r>    2.5920    1.0000 </r>
       <r>    3.8671    1.0000 </r>
       <r>    4.4556    1.0000 </r>
       <r>    7.5169    0.0000 </r>
       <r>    9.4880    0.0000 </r>
       <r>   10.1480    0.0000 </r>
       <r>   10.3535    0.0000 </r>
      </set>
      <set comment="kpoint 72">
       <r>   -5.0966    1.0000 </r>
       <r>    1.6834    1.0000 </r>
       <r>    3.4289    1.0000 </r>
       <r>    4.2556    1.0000 </r>
       <r>    7.7492    0.0000 </r>
       <r>    9.4767    0.0000 </r>
       <r>    9.9997    0.0000 </r>
       <r>   10.7232    0.0000 </r>
      </set>
      <set comment="kpoint 73">
       <r>   -4.6604    1.0000 </r>
       <r>    0.7051    1.0000 </r>
       <r>    3.1328    1.0000 </r>
       <r>    4.0233    1.0000 </r>
       <r>    7.9013    0.0000 </r>
       <r>    9.5906    0.0000 </r>
       <r>   10.0885    0.0000 </r>
       <r>   10.8241    0.0000 </r>
      </set>
      <set comment="kpoint 74">
       <r>   -4.1698    1.0000 </r>
       <r>   -0.2027    1.0000 </r>
       <r>    2.9139    1.0000 </r>
       <r>    3.8557    1.0000 </r>
       <r>    7.9353    0.0000 </r>
       <r>    9.4080    0.0000 </r>
       <r>   10.7045    0.0000 </r>
       <r>   10.9491    0.0000 </r>
      </set>
      <set comment="kpoint 75">
       <r>   -3.7248    1.0000 </r>
       <r>   -0.8953    1.0000 </r>
       <r>    2.7465    1.0000 </r>
       <r>    3.7984    1.0000 </r>
       <r>    7.9774    0.0000 </r>
       <r>    9.2190    0.0000 </r>
       <r>   10.6280    0.0000 </r>
       <r>   12.0232    0.0000 </r>
      </set>
      <set comment="kpoint 76">
       <r>   -3.5740    1.0000 </r>
       <r>   -1.1065    1.0000 </r>
       <r>    2.6337    1.0000 </r>
       <r>    3.8582    1.0000 </r>
       <r>    8.0835    0.0000 </r>
       <r>    9.0873    0.0000 </r>
       <r>   10.5561    0.0000 </r>
       <r>   13.2480    0.0000 </r>
      </set>
      <set comment="kpoint 77">
       <r>   -3.8638    1.0000 </r>
       <r>   -0.6873    1.0000 </r>
       <r>    2.5939    1.0000 </r>
       <r>    4.0204    1.0000 </r>
       <r>    8.2570    0.0000 </r>
       <r>    9.0251    0.0000 </r>
       <r>   10.5257    0.0000 </r>
       <r>   12.3657    0.0000 </r>
      </set>
      <set comment="kpoint 78">
       <r>   -4.3435    1.0000 </r>
       <r>    0.0995    1.0000 </r>
       <r>    2.6518    1.0000 </r>
       <r>    4.2605    1.0000 </r>
       <r>    8.4714    0.0000 </r>
       <r>    9.0087    0.0000 </r>
       <r>   10.4993    0.0000 </r>
       <r>   11.3643    0.0000 </r>
      </set>
      <set comment="kpoint 79">
       <r>   -4.8211    1.0000 </r>
       <r>    1.0206    1.0000 </r>
       <r>    2.8480    1.0000 </r>
       <r>    4.5434    1.0000 </r>
       <r>    8.6564    0.0000 </r>
       <r>    8.9387    0.0000 </r>
       <r>   10.3859    0.0000 </r>
       <r>   10.6986    0.0000 </r>
      </set>
      <set comment="kpoint 80">
       <r>   -5.2282    1.0000 </r>
       <r>    1.8950    1.0000 </r>
       <r>    3.2751    1.0000 </r>
       <r>    4.8111    1.0000 </r>
       <r>    8.4915    0.0000 </r>
       <r>    8.9283    0.0000 </r>
       <r>   10.0889    0.0000 </r>
       <r>   10.5135    0.0000 </r>
      </set>
      <set comment="kpoint 81">
       <r>   -4.9236    1.0000 </r>
       <r>    1.5748    1.0000 </r>
       <r>    3.3575    1.0000 </r>
       <r>    3.7876    1.0000 </r>
       <r>    7.1068    0.0000 </r>
       <r>    8.7743    0.0000 </r>
       <r>   10.8954    0.0000 </r>
       <r>   11.5300    0.0000 </r>
      </set>
      <set comment="kpoint 82">
       <r>   -4.5157    1.0000 </r>
       <r>    0.7946    1.0000 </r>
       <r>    2.9089    1.0000 </r>
       <r>    3.5824    1.0000 </r>
       <r>    7.3702    0.0000 </r>
       <r>    8.8255    0.0000 </r>
       <r>   10.7436    0.0000 </r>
       <r>   11.8779    0.0000 </r>
      </set>
      <set comment="kpoint 83">
       <r>   -4.0371    1.0000 </r>
       <r>   -0.0155    1.0000 </r>
       <r>    2.5186    1.0000 </r>
       <r>    3.4342    1.0000 </r>
       <r>    7.5135    0.0000 </r>
       <r>    9.4448    0.0000 </r>
       <r>   10.5130    0.0000 </r>
       <r>   11.9059    0.0000 </r>
      </set>
      <set comment="kpoint 84">
       <r>   -3.5560    1.0000 </r>
       <r>   -0.7239    1.0000 </r>
       <r>    2.1955    1.0000 </r>
       <r>    3.4032    1.0000 </r>
       <r>    7.5922    0.0000 </r>
       <r>   10.1983    0.0000 </r>
       <r>   10.5457    0.0000 </r>
       <r>   11.8074    0.0000 </r>
      </set>
      <set comment="kpoint 85">
       <r>   -3.2749    1.0000 </r>
       <r>   -1.0931    1.0000 </r>
       <r>    1.9633    1.0000 </r>
       <r>    3.4886    1.0000 </r>
       <r>    7.7261    0.0000 </r>
       <r>   10.0489    0.0000 </r>
       <r>   11.6505    0.0000 </r>
       <r>   11.7688    0.0000 </r>
      </set>
      <set comment="kpoint 86">
       <r>   -3.4515    1.0000 </r>
       <r>   -0.8579    1.0000 </r>
       <r>    1.8497    1.0000 </r>
       <r>    3.6749    1.0000 </r>
       <r>    7.9444    0.0000 </r>
       <r>    9.9022    0.0000 </r>
       <r>   11.5747    0.0000 </r>
       <r>   12.3227    0.0000 </r>
      </set>
      <set comment="kpoint 87">
       <r>   -3.9060    1.0000 </r>
       <r>   -0.2258    1.0000 </r>
       <r>    1.8986    1.0000 </r>
       <r>    3.9401    1.0000 </r>
       <r>    8.2364    0.0000 </r>
       <r>    9.7514    0.0000 </r>
       <r>   11.1894    0.0000 </r>
       <r>   11.5353    0.0000 </r>
      </set>
      <set comment="kpoint 88">
       <r>   -4.3925    1.0000 </r>
       <r>    0.4685    1.0000 </r>
       <r>    2.1991    1.0000 </r>
       <r>    4.2501    1.0000 </r>
       <r>    8.5563    0.0000 </r>
       <r>    9.3893    0.0000 </r>
       <r>   10.6491    0.0000 </r>
       <r>   11.1070    0.0000 </r>
      </set>
      <set comment="kpoint 89">
       <r>   -4.2669    1.0000 </r>
       <r>    0.5153    1.0000 </r>
       <r>    2.9687    1.0000 </r>
       <r>    3.2514    1.0000 </r>
       <r>    6.8096    0.0000 </r>
       <r>    7.9473    0.0000 </r>
       <r>   11.9478    0.0000 </r>
       <r>   12.7574    0.0000 </r>
      </set>
      <set comment="kpoint 90">
       <r>   -3.8078    1.0000 </r>
       <r>   -0.1417    1.0000 </r>
       <r>    2.4954    1.0000 </r>
       <r>    3.0891    1.0000 </r>
       <r>    7.0882    0.0000 </r>
       <r>    8.1846    0.0000 </r>
       <r>   11.7579    0.0000 </r>
       <r>   13.0950    0.0000 </r>
      </set>
      <set comment="kpoint 91">
       <r>   -3.3127    1.0000 </r>
       <r>   -0.7693    1.0000 </r>
       <r>    2.0022    1.0000 </r>
       <r>    3.0611    1.0000 </r>
       <r>    7.2156    0.0000 </r>
       <r>    9.0270    0.0000 </r>
       <r>   11.5163    0.0000 </r>
       <r>   13.0853    0.0000 </r>
      </set>
      <set comment="kpoint 92">
       <r>   -2.9340    1.0000 </r>
       <r>   -1.2018    1.0000 </r>
       <r>    1.6189    1.0000 </r>
       <r>    3.1502    1.0000 </r>
       <r>    7.3521    0.0000 </r>
       <r>   10.1656    0.0000 </r>
       <r>   11.3056    0.0000 </r>
       <r>   12.9446    0.0000 </r>
      </set>
      <set comment="kpoint 93">
       <r>   -2.9987    1.0000 </r>
       <r>   -1.1208    1.0000 </r>
       <r>    1.4181    1.0000 </r>
       <r>    3.3407    1.0000 </r>
       <r>    7.5737    0.0000 </r>
       <r>   10.9405    0.0000 </r>
       <r>   11.6244    0.0000 </r>
       <r>   12.3471    0.0000 </r>
      </set>
      <set comment="kpoint 94">
       <r>   -3.4223    1.0000 </r>
       <r>   -0.6657    1.0000 </r>
       <r>    1.4798    1.0000 </r>
       <r>    3.6142    1.0000 </r>
       <r>    7.8809    0.0000 </r>
       <r>   10.5988    0.0000 </r>
       <r>   11.4509    0.0000 </r>
       <r>   12.3300    0.0000 </r>
      </set>
      <set comment="kpoint 95">
       <r>   -3.4838    1.0000 </r>
       <r>   -0.5573    1.0000 </r>
       <r>    2.7177    1.0000 </r>
       <r>    2.8762    1.0000 </r>
       <r>    6.6605    0.0000 </r>
       <r>    7.3144    0.0000 </r>
       <r>   13.0643    0.0000 </r>
       <r>   14.0111    0.0000 </r>
      </set>
      <set comment="kpoint 96">
       <r>   -2.9900    1.0000 </r>
       <r>   -1.1104    1.0000 </r>
       <r>    2.2273    1.0000 </r>
       <r>    2.8043    1.0000 </r>
       <r>    6.9215    0.0000 </r>
       <r>    7.7837    0.0000 </r>
       <r>   12.8498    0.0000 </r>
       <r>   14.3116    0.0000 </r>
      </set>
      <set comment="kpoint 97">
       <r>   -2.5496    1.0000 </r>
       <r>   -1.5430    1.0000 </r>
       <r>    1.7158    1.0000 </r>
       <r>    2.8848    1.0000 </r>
       <r>    7.0574    0.0000 </r>
       <r>    8.8222    0.0000 </r>
       <r>   12.5981    0.0000 </r>
       <r>   13.7786    0.0000 </r>
      </set>
      <set comment="kpoint 98">
       <r>   -2.5816    1.0000 </r>
       <r>   -1.4861    1.0000 </r>
       <r>    1.3981    1.0000 </r>
       <r>    3.0689    1.0000 </r>
       <r>    7.2685    0.0000 </r>
       <r>   10.0858    0.0000 </r>
       <r>   12.1943    0.0000 </r>
       <r>   12.6675    0.0000 </r>
      </set>
      <set comment="kpoint 99">
       <r>   -2.5891    1.0000 </r>
       <r>   -1.6041    1.0000 </r>
       <r>    2.6142    1.0000 </r>
       <r>    2.6652    1.0000 </r>
       <r>    6.6830    0.0000 </r>
       <r>    6.8958    0.0000 </r>
       <r>   14.2283    0.0000 </r>
       <r>   15.0785    0.0000 </r>
      </set>
      <set comment="kpoint 100">
       <r>   -2.1721    1.0000 </r>
       <r>   -1.9820    1.0000 </r>
       <r>    2.1350    1.0000 </r>
       <r>    2.7122    1.0000 </r>
       <r>    6.8678    0.0000 </r>
       <r>    7.6469    0.0000 </r>
       <r>   13.9182    0.0000 </r>
       <r>   14.1011    0.0000 </r>
      </set>
      <set comment="kpoint 101">
       <r>   -4.7214    1.0000 </r>
       <r>    1.0624    1.0000 </r>
       <r>    2.7737    1.0000 </r>
       <r>    4.0550    1.0000 </r>
       <r>    8.1159    0.0000 </r>
       <r>    9.4571    0.0000 </r>
       <r>    9.7480    0.0000 </r>
       <r>   11.3492    0.0000 </r>
      </set>
      <set comment="kpoint 102">
       <r>   -4.2645    1.0000 </r>
       <r>    0.2988    1.0000 </r>
       <r>    2.3794    1.0000 </r>
       <r>    3.7798    1.0000 </r>
       <r>    8.4359    0.0000 </r>
       <r>    9.4058    0.0000 </r>
       <r>    9.8889    0.0000 </r>
       <r>   11.7079    0.0000 </r>
      </set>
      <set comment="kpoint 103">
       <r>   -3.7720    1.0000 </r>
       <r>   -0.4647    1.0000 </r>
       <r>    2.1810    1.0000 </r>
       <r>    3.5435    1.0000 </r>
       <r>    8.5640    0.0000 </r>
       <r>    9.1125    0.0000 </r>
       <r>   10.7839    0.0000 </r>
       <r>   11.7903    0.0000 </r>
      </set>
      <set comment="kpoint 104">
       <r>   -3.3821    1.0000 </r>
       <r>   -1.0068    1.0000 </r>
       <r>    2.1008    1.0000 </r>
       <r>    3.4099    1.0000 </r>
       <r>    8.6783    0.0000 </r>
       <r>    8.8660    0.0000 </r>
       <r>   11.7621    0.0000 </r>
       <r>   11.9707    0.0000 </r>
      </set>
      <set comment="kpoint 105">
       <r>   -4.0852    1.0000 </r>
       <r>    0.2106    1.0000 </r>
       <r>    2.4083    1.0000 </r>
       <r>    3.3081    1.0000 </r>
       <r>    7.8327    0.0000 </r>
       <r>    8.7834    0.0000 </r>
       <r>   10.5105    0.0000 </r>
       <r>   12.6651    0.0000 </r>
      </set>
      <set comment="kpoint 106">
       <r>   -3.5965    1.0000 </r>
       <r>   -0.4280    1.0000 </r>
       <r>    2.0392    1.0000 </r>
       <r>    3.0578    1.0000 </r>
       <r>    8.1544    0.0000 </r>
       <r>    9.3258    0.0000 </r>
       <r>   10.2360    0.0000 </r>
       <r>   13.0329    0.0000 </r>
      </set>
      <set comment="kpoint 107">
       <r>   -3.1423    1.0000 </r>
       <r>   -0.9862    1.0000 </r>
       <r>    1.7855    1.0000 </r>
       <r>    2.9424    1.0000 </r>
       <r>    8.2977    0.0000 </r>
       <r>    9.8615    0.0000 </r>
       <r>   10.4935    0.0000 </r>
       <r>   13.0775    0.0000 </r>
      </set>
      <set comment="kpoint 108">
       <r>   -2.9935    1.0000 </r>
       <r>   -1.1574    1.0000 </r>
       <r>    1.6436    1.0000 </r>
       <r>    2.9870    1.0000 </r>
       <r>    8.4816    0.0000 </r>
       <r>    9.6812    0.0000 </r>
       <r>   11.6552    0.0000 </r>
       <r>   12.0973    0.0000 </r>
      </set>
      <set comment="kpoint 109">
       <r>   -3.3114    1.0000 </r>
       <r>   -0.7818    1.0000 </r>
       <r>    1.6481    1.0000 </r>
       <r>    3.1716    1.0000 </r>
       <r>    8.7432    0.0000 </r>
       <r>    9.5007    0.0000 </r>
       <r>   10.7817    0.0000 </r>
       <r>   12.9129    0.0000 </r>
      </set>
      <set comment="kpoint 110">
       <r>   -3.7959    1.0000 </r>
       <r>   -0.2114    1.0000 </r>
       <r>    1.8700    1.0000 </r>
       <r>    3.4570    1.0000 </r>
       <r>    9.0688    0.0000 </r>
       <r>    9.1409    0.0000 </r>
       <r>   10.0045    0.0000 </r>
       <r>   12.5243    0.0000 </r>
      </set>
      <set comment="kpoint 111">
       <r>   -3.3349    1.0000 </r>
       <r>   -0.6791    1.0000 </r>
       <r>    2.2014    1.0000 </r>
       <r>    2.7172    1.0000 </r>
       <r>    7.6800    0.0000 </r>
       <r>    8.2205    0.0000 </r>
       <r>   11.4857    0.0000 </r>
       <r>   13.9900    0.0000 </r>
      </set>
      <set comment="kpoint 112">
       <r>   -2.8470    1.0000 </r>
       <r>   -1.1898    1.0000 </r>
       <r>    1.8386    1.0000 </r>
       <r>    2.5596    1.0000 </r>
       <r>    7.9728    0.0000 </r>
       <r>    8.9991    0.0000 </r>
       <r>   11.2084    0.0000 </r>
       <r>   13.5298    0.0000 </r>
      </set>
      <set comment="kpoint 113">
       <r>   -2.5763    1.0000 </r>
       <r>   -1.4529    1.0000 </r>
       <r>    1.5303    1.0000 </r>
       <r>    2.6301    1.0000 </r>
       <r>    8.1525    0.0000 </r>
       <r>   10.1508    0.0000 </r>
       <r>   11.0108    0.0000 </r>
       <r>   12.1456    0.0000 </r>
      </set>
      <set comment="kpoint 114">
       <r>   -2.8424    1.0000 </r>
       <r>   -1.1855    1.0000 </r>
       <r>    1.4343    1.0000 </r>
       <r>    2.8487    1.0000 </r>
       <r>    8.4100    0.0000 </r>
       <r>   10.4475    0.0000 </r>
       <r>   11.0279    0.0000 </r>
       <r>   11.7362    0.0000 </r>
      </set>
      <set comment="kpoint 115">
       <r>   -2.4933    1.0000 </r>
       <r>   -1.5937    1.0000 </r>
       <r>    2.1715    1.0000 </r>
       <r>    2.3377    1.0000 </r>
       <r>    7.6820    0.0000 </r>
       <r>    7.8569    0.0000 </r>
       <r>   12.5737    0.0000 </r>
       <r>   13.7530    0.0000 </r>
      </set>
      <set comment="kpoint 116">
       <r>   -2.1961    1.0000 </r>
       <r>   -1.8420    1.0000 </r>
       <r>    1.7743    1.0000 </r>
       <r>    2.3826    1.0000 </r>
       <r>    7.9106    0.0000 </r>
       <r>    8.8904    0.0000 </r>
       <r>   12.2428    0.0000 </r>
       <r>   12.3953    0.0000 </r>
      </set>
      <set comment="kpoint 117">
       <r>   -3.1091    1.0000 </r>
       <r>   -0.8981    1.0000 </r>
       <r>    1.7272    1.0000 </r>
       <r>    2.6943    1.0000 </r>
       <r>    8.9989    0.0000 </r>
       <r>    9.3961    0.0000 </r>
       <r>    9.9880    0.0000 </r>
       <r>   13.3197    0.0000 </r>
      </set>
      <set comment="kpoint 118">
       <r>   -2.6878    1.0000 </r>
       <r>   -1.3195    1.0000 </r>
       <r>    1.5897    1.0000 </r>
       <r>    2.4782    1.0000 </r>
       <r>    9.2679    0.0000 </r>
       <r>    9.5911    0.0000 </r>
       <r>   10.5281    0.0000 </r>
       <r>   11.8906    0.0000 </r>
      </set>
      <set comment="kpoint 119">
       <r>   -2.3681    1.0000 </r>
       <r>   -1.6185    1.0000 </r>
       <r>    1.8017    1.0000 </r>
       <r>    2.1225    1.0000 </r>
       <r>    8.9908    0.0000 </r>
       <r>    9.1309    0.0000 </r>
       <r>   10.9293    0.0000 </r>
       <r>   12.0636    0.0000 </r>
      </set>
      <set comment="kpoint 120">
       <r>   -2.2584    1.0000 </r>
       <r>   -1.7061    1.0000 </r>
       <r>    1.6511    1.0000 </r>
       <r>    2.1414    1.0000 </r>
       <r>    9.2410    0.0000 </r>
       <r>   10.1288    0.0000 </r>
       <r>   10.7747    0.0000 </r>
       <r>   10.8254    0.0000 </r>
      </set>
     </set>
    </set>
   </array>
  </eigenvalues>
  <separator name="orbital magnetization" >
   <v name="MAGDIPOLOUT">      0.00000000      0.00000000      0.00000000</v>
  </separator>
  <dos>
   <i name="efermi">      5.83441479 </i>
   <total>
    <array>
     <dimension dim="1">gridpoints</dimension>
     <dimension dim="2">spin</dimension>
     <field>energy</field>
     <field>total</field>
     <field>integrated</field>
     <set>
      <set comment="spin 1">
       <r>    -7.2753     0.0000     0.0000 </r>
       <r>    -7.1964     0.0000     0.0000 </r>
       <r>    -7.1174     0.0000     0.0000 </r>
       <r>    -7.0384     0.0000     0.0000 </r>
       <r>    -6.9595     0.0000     0.0000 </r>
       <r>    -6.8805     0.0000     0.0000 </r>
       <r>    -6.8016     0.0000     0.0000 </r>
       <r>    -6.7226     0.0000     0.0000 </r>
       <r>    -6.6436     0.0000     0.0000 </r>
       <r>    -6.5647     0.0000     0.0000 </r>
       <r>    -6.4857     0.0000     0.0000 </r>
       <r>    -6.4068     0.0000     0.0000 </r>
       <r>    -6.3278     0.0000     0.0000 </r>
       <r>    -6.2488     0.0007     0.0001 </r>
       <r>    -6.1699     0.0219     0.0018 </r>
       <r>    -6.0909     0.0866     0.0086 </r>
       <r>    -6.0120     0.1325     0.0191 </r>
       <r>    -5.9330     0.1892     0.0340 </r>
       <r>    -5.8540     0.1402     0.0451 </r>
       <r>    -5.7751     0.2885     0.0679 </r>
       <r>    -5.6961     0.2505     0.0876 </r>
       <r>    -5.6172     0.1835     0.1021 </r>
       <r>    -5.5382     0.3218     0.1275 </r>
       <r>    -5.4593     0.3828     0.1578 </r>
       <r>    -5.3803     0.3162     0.1827 </r>
       <r>    -5.3013     0.2231     0.2004 </r>
       <r>    -5.2224     0.3806     0.2304 </r>
       <r>    -5.1434     0.4794     0.2683 </r>
       <r>    -5.0645     0.5077     0.3084 </r>
       <r>    -4.9855     0.1993     0.3241 </r>
       <r>    -4.9065     0.4240     0.3576 </r>
       <r>    -4.8276     0.5266     0.3992 </r>
       <r>    -4.7486     0.4445     0.4343 </r>
       <r>    -4.6697     0.6119     0.4826 </r>
       <r>    -4.5907     0.5566     0.5265 </r>
       <r>    -4.5117     0.2879     0.5492 </r>
       <r>    -4.4328     0.5368     0.5916 </r>
       <r>    -4.3538     0.6393     0.6421 </r>
       <r>    -4.2749     0.6769     0.6956 </r>
       <r>    -4.1959     0.7771     0.7569 </r>
       <r>    -4.1169     0.6322     0.8068 </r>
       <r>    -4.0380     0.4539     0.8427 </r>
       <r>    -3.9590     0.6073     0.8906 </r>
       <r>    -3.8801     1.0496     0.9735 </r>
       <r>    -3.8011     1.2013     1.0684 </r>
       <r>    -3.7221     0.9575     1.1440 </r>
       <r>    -3.6432     0.4306     1.1780 </r>
       <r>    -3.5642     0.6981     1.2331 </r>
       <r>    -3.4853     0.9273     1.3063 </r>
       <r>    -3.4063     0.8634     1.3745 </r>
       <r>    -3.3273     0.7588     1.4344 </r>
       <r>    -3.2484     0.9280     1.5077 </r>
       <r>    -3.1694     0.2866     1.5303 </r>
       <r>    -3.0905     0.5571     1.5743 </r>
       <r>    -3.0115     0.5925     1.6211 </r>
       <r>    -2.9326     1.0678     1.7054 </r>
       <r>    -2.8536     0.4806     1.7433 </r>
       <r>    -2.7746     0.3281     1.7692 </r>
       <r>    -2.6957     0.2885     1.7920 </r>
       <r>    -2.6167     0.4099     1.8244 </r>
       <r>    -2.5378     0.9189     1.8969 </r>
       <r>    -2.4588     0.3741     1.9265 </r>
       <r>    -2.3798     0.1232     1.9362 </r>
       <r>    -2.3009     0.1892     1.9511 </r>
       <r>    -2.2219     0.1991     1.9669 </r>
       <r>    -2.1430     0.3363     1.9934 </r>
       <r>    -2.0640     0.1524     2.0054 </r>
       <r>    -1.9850     0.1048     2.0137 </r>
       <r>    -1.9061     0.0999     2.0216 </r>
       <r>    -1.8271     0.1181     2.0309 </r>
       <r>    -1.7482     0.1329     2.0414 </r>
       <r>    -1.6692     0.1959     2.0569 </r>
       <r>    -1.5902     0.5111     2.0972 </r>
       <r>    -1.5113     0.6036     2.1449 </r>
       <r>    -1.4323     0.4550     2.1808 </r>
       <r>    -1.3534     0.3028     2.2047 </r>
       <r>    -1.2744     0.3188     2.2299 </r>
       <r>    -1.1954     0.7030     2.2854 </r>
       <r>    -1.1165     1.8862     2.4343 </r>
       <r>    -1.0375     1.6760     2.5667 </r>
       <r>    -0.9586     1.1299     2.6559 </r>
       <r>    -0.8796     0.8048     2.7194 </r>
       <r>    -0.8006     0.6928     2.7742 </r>
       <r>    -0.7217     1.0724     2.8588 </r>
       <r>    -0.6427     0.9408     2.9331 </r>
       <r>    -0.5638     0.3901     2.9639 </r>
       <r>    -0.4848     0.6296     3.0136 </r>
       <r>    -0.4058     0.8549     3.0811 </r>
       <r>    -0.3269     0.2941     3.1044 </r>
       <r>    -0.2479     0.3245     3.1300 </r>
       <r>    -0.1690     0.9039     3.2013 </r>
       <r>    -0.0900     0.4461     3.2366 </r>
       <r>    -0.0111     0.3034     3.2605 </r>
       <r>     0.0679     0.5573     3.3045 </r>
       <r>     0.1469     0.4104     3.3369 </r>
       <r>     0.2258     0.1565     3.3493 </r>
       <r>     0.3048     0.2963     3.3727 </r>
       <r>     0.3837     0.7110     3.4288 </r>
       <r>     0.4627     0.4485     3.4643 </r>
       <r>     0.5417     0.2340     3.4827 </r>
       <r>     0.6206     0.0680     3.4881 </r>
       <r>     0.6996     0.2800     3.5102 </r>
       <r>     0.7785     0.5487     3.5535 </r>
       <r>     0.8575     0.2597     3.5740 </r>
       <r>     0.9365     0.0168     3.5754 </r>
       <r>     1.0154     0.1927     3.5906 </r>
       <r>     1.0944     0.6097     3.6387 </r>
       <r>     1.1733     0.3092     3.6631 </r>
       <r>     1.2523     0.0905     3.6703 </r>
       <r>     1.3313     0.2048     3.6865 </r>
       <r>     1.4102     0.4843     3.7247 </r>
       <r>     1.4892     0.9668     3.8010 </r>
       <r>     1.5681     0.7207     3.8579 </r>
       <r>     1.6471     1.3825     3.9671 </r>
       <r>     1.7261     1.2840     4.0685 </r>
       <r>     1.8050     1.1925     4.1627 </r>
       <r>     1.8840     1.4032     4.2734 </r>
       <r>     1.9629     0.8369     4.3395 </r>
       <r>     2.0419     0.6716     4.3926 </r>
       <r>     2.1209     0.7892     4.4549 </r>
       <r>     2.1998     1.6907     4.5884 </r>
       <r>     2.2788     1.3434     4.6944 </r>
       <r>     2.3577     0.7145     4.7509 </r>
       <r>     2.4367     0.8315     4.8165 </r>
       <r>     2.5157     0.9049     4.8880 </r>
       <r>     2.5946     1.3769     4.9967 </r>
       <r>     2.6736     1.7550     5.1353 </r>
       <r>     2.7525     1.3907     5.2451 </r>
       <r>     2.8315     1.0728     5.3298 </r>
       <r>     2.9104     1.5649     5.4533 </r>
       <r>     2.9894     1.5272     5.5739 </r>
       <r>     3.0684     1.4002     5.6845 </r>
       <r>     3.1473     1.8214     5.8283 </r>
       <r>     3.2263     1.1657     5.9203 </r>
       <r>     3.3052     0.8904     5.9907 </r>
       <r>     3.3842     1.4960     6.1088 </r>
       <r>     3.4632     2.4071     6.2988 </r>
       <r>     3.5421     1.3801     6.4078 </r>
       <r>     3.6211     1.2984     6.5103 </r>
       <r>     3.7000     0.9478     6.5852 </r>
       <r>     3.7790     1.0269     6.6663 </r>
       <r>     3.8580     1.3829     6.7754 </r>
       <r>     3.9369     1.2568     6.8747 </r>
       <r>     4.0159     1.4265     6.9873 </r>
       <r>     4.0948     1.3705     7.0955 </r>
       <r>     4.1738     0.8808     7.1651 </r>
       <r>     4.2528     1.3751     7.2737 </r>
       <r>     4.3317     1.4174     7.3856 </r>
       <r>     4.4107     0.6021     7.4331 </r>
       <r>     4.4896     1.3615     7.5406 </r>
       <r>     4.5686     1.1086     7.6282 </r>
       <r>     4.6476     0.4440     7.6632 </r>
       <r>     4.7265     0.5854     7.7094 </r>
       <r>     4.8055     0.7464     7.7684 </r>
       <r>     4.8844     0.3488     7.7959 </r>
       <r>     4.9634     0.2976     7.8194 </r>
       <r>     5.0424     0.6161     7.8681 </r>
       <r>     5.1213     0.4592     7.9043 </r>
       <r>     5.2003     0.3409     7.9312 </r>
       <r>     5.2792     0.2288     7.9493 </r>
       <r>     5.3582     0.2346     7.9678 </r>
       <r>     5.4372     0.1591     7.9804 </r>
       <r>     5.5161     0.0860     7.9872 </r>
       <r>     5.5951     0.1370     7.9980 </r>
       <r>     5.6740     0.0242     7.9999 </r>
       <r>     5.7530     0.0012     8.0000 </r>
       <r>     5.8319     0.0000     8.0000 </r>
       <r>     5.9109     0.0000     8.0000 </r>
       <r>     5.9899     0.0000     8.0000 </r>
       <r>     6.0688     0.0000     8.0000 </r>
       <r>     6.1478     0.0003     8.0000 </r>
       <r>     6.2267     0.0224     8.0018 </r>
       <r>     6.3057     0.0608     8.0066 </r>
       <r>     6.3847     0.1406     8.0177 </r>
       <r>     6.4636     0.2462     8.0371 </r>
       <r>     6.5426     0.2687     8.0584 </r>
       <r>     6.6215     0.1341     8.0690 </r>
       <r>     6.7005     0.5589     8.1131 </r>
       <r>     6.7795     0.4602     8.1494 </r>
       <r>     6.8584     0.3277     8.1753 </r>
       <r>     6.9374     0.7618     8.2354 </r>
       <r>     7.0163     0.5707     8.2805 </r>
       <r>     7.0953     0.8575     8.3482 </r>
       <r>     7.1743     0.6390     8.3987 </r>
       <r>     7.2532     0.4934     8.4376 </r>
       <r>     7.3322     0.7525     8.4970 </r>
       <r>     7.4111     0.8046     8.5606 </r>
       <r>     7.4901     0.8987     8.6315 </r>
       <r>     7.5691     1.4231     8.7439 </r>
       <r>     7.6480     1.1638     8.8358 </r>
       <r>     7.7270     1.1399     8.9258 </r>
       <r>     7.8059     1.5021     9.0444 </r>
       <r>     7.8849     1.3528     9.1512 </r>
       <r>     7.9639     2.4012     9.3408 </r>
       <r>     8.0428     1.6399     9.4703 </r>
       <r>     8.1218     1.1951     9.5647 </r>
       <r>     8.2007     1.7508     9.7029 </r>
       <r>     8.2797     1.6323     9.8318 </r>
       <r>     8.3586     0.6804     9.8855 </r>
       <r>     8.4376     0.7390     9.9439 </r>
       <r>     8.5166     1.2743    10.0445 </r>
       <r>     8.5955     0.9362    10.1184 </r>
       <r>     8.6745     0.9475    10.1932 </r>
       <r>     8.7534     0.7444    10.2520 </r>
       <r>     8.8324     1.6496    10.3822 </r>
       <r>     8.9114     2.7091    10.5962 </r>
       <r>     8.9903     2.1991    10.7698 </r>
       <r>     9.0693     2.0449    10.9313 </r>
       <r>     9.1482     2.0350    11.0919 </r>
       <r>     9.2272     1.6078    11.2189 </r>
       <r>     9.3062     1.5833    11.3439 </r>
       <r>     9.3851     1.6334    11.4729 </r>
       <r>     9.4641     2.0050    11.6312 </r>
       <r>     9.5430     1.4389    11.7448 </r>
       <r>     9.6220     1.0798    11.8301 </r>
       <r>     9.7010     1.2209    11.9265 </r>
       <r>     9.7799     1.0794    12.0117 </r>
       <r>     9.8589     1.0378    12.0936 </r>
       <r>     9.9378     1.3909    12.2035 </r>
       <r>    10.0168     0.9348    12.2773 </r>
       <r>    10.0958     1.2693    12.3775 </r>
       <r>    10.1747     1.7592    12.5164 </r>
       <r>    10.2537     1.7659    12.6558 </r>
       <r>    10.3326     0.7169    12.7125 </r>
       <r>    10.4116     0.6214    12.7615 </r>
       <r>    10.4906     1.2932    12.8636 </r>
       <r>    10.5695     2.2577    13.0419 </r>
       <r>    10.6485     1.2103    13.1375 </r>
       <r>    10.7274     1.5961    13.2635 </r>
       <r>    10.8064     1.8294    13.4079 </r>
       <r>    10.8854     0.9657    13.4842 </r>
       <r>    10.9643     1.2176    13.5803 </r>
       <r>    11.0433     1.0109    13.6602 </r>
       <r>    11.1222     0.5517    13.7037 </r>
       <r>    11.2012     0.7726    13.7647 </r>
       <r>    11.2801     0.7596    13.8247 </r>
       <r>    11.3591     0.8259    13.8899 </r>
       <r>    11.4381     0.7746    13.9511 </r>
       <r>    11.5170     0.7817    14.0128 </r>
       <r>    11.5960     1.4543    14.1276 </r>
       <r>    11.6749     1.4076    14.2388 </r>
       <r>    11.7539     1.3994    14.3493 </r>
       <r>    11.8329     1.7703    14.4890 </r>
       <r>    11.9118     1.3810    14.5981 </r>
       <r>    11.9908     1.1398    14.6881 </r>
       <r>    12.0697     0.9369    14.7621 </r>
       <r>    12.1487     0.6938    14.8168 </r>
       <r>    12.2277     0.5186    14.8578 </r>
       <r>    12.3066     0.4488    14.8932 </r>
       <r>    12.3856     1.0538    14.9764 </r>
       <r>    12.4645     0.3748    15.0060 </r>
       <r>    12.5435     0.5068    15.0460 </r>
       <r>    12.6225     0.7171    15.1027 </r>
       <r>    12.7014     0.6096    15.1508 </r>
       <r>    12.7804     0.5855    15.1970 </r>
       <r>    12.8593     0.6311    15.2469 </r>
       <r>    12.9383     0.9020    15.3181 </r>
       <r>    13.0173     0.5575    15.3621 </r>
       <r>    13.0962     1.4968    15.4803 </r>
       <r>    13.1752     0.9478    15.5551 </r>
       <r>    13.2541     0.2868    15.5778 </r>
       <r>    13.3331     0.4440    15.6128 </r>
       <r>    13.4121     0.3581    15.6411 </r>
       <r>    13.4910     0.5306    15.6830 </r>
       <r>    13.5700     0.5392    15.7256 </r>
       <r>    13.6489     0.1318    15.7360 </r>
       <r>    13.7279     0.1762    15.7499 </r>
       <r>    13.8069     0.4659    15.7867 </r>
       <r>    13.8858     0.1219    15.7963 </r>
       <r>    13.9648     0.1972    15.8119 </r>
       <r>    14.0437     0.3468    15.8393 </r>
       <r>    14.1227     0.2349    15.8578 </r>
       <r>    14.2016     0.2684    15.8790 </r>
       <r>    14.2806     0.3250    15.9047 </r>
       <r>    14.3596     0.6540    15.9563 </r>
       <r>    14.4385     0.1024    15.9644 </r>
       <r>    14.5175     0.0004    15.9644 </r>
       <r>    14.5964     0.0000    15.9644 </r>
       <r>    14.6754     0.0000    15.9644 </r>
       <r>    14.7544     0.0000    15.9644 </r>
       <r>    14.8333     0.0000    15.9644 </r>
       <r>    14.9123     0.0000    15.9644 </r>
       <r>    14.9912     0.0012    15.9645 </r>
       <r>    15.0702     0.0721    15.9702 </r>
       <r>    15.1492     0.1163    15.9794 </r>
       <r>    15.2281     0.1252    15.9893 </r>
       <r>    15.3071     0.0637    15.9943 </r>
       <r>    15.3860     0.0648    15.9994 </r>
       <r>    15.4650     0.0070    16.0000 </r>
       <r>    15.5440     0.0000    16.0000 </r>
       <r>    15.6229     0.0000    16.0000 </r>
       <r>    15.7019     0.0000    16.0000 </r>
       <r>    15.7808     0.0000    16.0000 </r>
       <r>    15.8598     0.0000    16.0000 </r>
       <r>    15.9388     0.0000    16.0000 </r>
       <r>    16.0177     0.0000    16.0000 </r>
       <r>    16.0967     0.0000    16.0000 </r>
       <r>    16.1756     0.0000    16.0000 </r>
       <r>    16.2546     0.0000    16.0000 </r>
       <r>    16.3336     0.0000    16.0000 </r>
       <r>    16.4125     0.0000    16.0000 </r>
      </set>
     </set>
    </array>
   </total>
  </dos>
 </calculation>
 <structure name="finalpos" >
  <crystal>
   <varray name="basis" >
    <v>       3.34885959      -0.00000000       1.93346471 </v>
    <v>       1.11628653       3.15733635       1.93346471 </v>
    <v>       0.00000000      -0.00000000       3.86692942 </v>
   </varray>
   <i name="volume">     40.88688589 </i>
   <varray name="rec_basis" >
    <v>       0.29860912      -0.10557422      -0.00000000 </v>
    <v>      -0.00000000       0.31672267       0.00000000 </v>
    <v>      -0.14930456      -0.10557422       0.25860312 </v>
   </varray>
  </crystal>
  <varray name="positions" >
   <v>       0.87500000       0.87500000       0.87500000 </v>
   <v>       0.12500000       0.12500000       0.12500000 </v>
  </varray>
 </structure>
</modeling>
