PROCAR lm decomposed
# of k-points:   20         # of bands:   20         # of ions:    2

 k-point     1 :    0.00000000 0.00000000 0.00000000     weight = 0.00291545

band     1 # energy   -2.61171477 # occ.  1.00000000
 
ion      s     py     pz     px    dxy    dyz    dz2    dxz  x2-y2    tot
    1  0.368  0.000  0.000  0.000  0.000  0.000  0.000  0.000  0.000  0.368
    2  0.368  0.000  0.000  0.000  0.000  0.000  0.000  0.000  0.000  0.368
tot    0.735  0.000  0.000  0.000  0.000  0.000  0.000  0.000  0.000  0.735
 
band     2 # energy    0.98186037 # occ.  1.00000000
 
ion      s     py     pz     px    dxy    dyz    dz2    dxz  x2-y2    tot
    1  0.000  0.000  0.000  0.000  0.000  0.000  0.426  0.000  0.013  0.438
    2  0.000  0.000  0.000  0.000  0.000  0.000  0.426  0.000  0.013  0.438
tot    0.000  0.000  0.000  0.000  0.000  0.000  0.851  0.000  0.025  0.876
 
band     3 # energy    0.98186086 # occ.  1.00000000
 
ion      s     py     pz     px    dxy    dyz    dz2    dxz  x2-y2    tot
    1  0.000  0.000  0.000  0.000  0.000  0.000  0.013  0.000  0.426  0.438
    2  0.000  0.000  0.000  0.000  0.000  0.000  0.013  0.000  0.426  0.438
tot    0.000  0.000  0.000  0.000  0.000  0.000  0.025  0.000  0.851  0.876
 
band     4 # energy    3.55902359 # occ.  1.00000000
 
ion      s     py     pz     px    dxy    dyz    dz2    dxz  x2-y2    tot
    1  0.000  0.000  0.000  0.000  0.489  0.000  0.000  0.000  0.000  0.489
    2  0.000  0.000  0.000  0.000  0.489  0.000  0.000  0.000  0.000  0.489
tot    0.000  0.000  0.000  0.000  0.979  0.000  0.000  0.000  0.000  0.979
 
band     5 # energy    3.55902533 # occ.  1.00000000
 
ion      s     py     pz     px    dxy    dyz    dz2    dxz  x2-y2    tot
    1  0.000  0.000  0.000  0.000  0.000  0.002  0.000  0.487  0.000  0.489
    2  0.000  0.000  0.000  0.000  0.000  0.002  0.000  0.487  0.000  0.489
tot    0.000  0.000  0.000  0.000  0.000  0.004  0.000  0.974  0.000  0.979
 
band     6 # energy    3.55902536 # occ.  1.00000000
 
ion      s     py     pz     px    dxy    dyz    dz2    dxz  x2-y2    tot
    1  0.000  0.000  0.000  0.000  0.000  0.487  0.000  0.002  0.000  0.489
    2  0.000  0.000  0.000  0.000  0.000  0.487  0.000  0.002  0.000  0.489
tot    0.000  0.000  0.000  0.000  0.000  0.974  0.000  0.004  0.000  0.979
 
band     7 # energy    4.76503205 # occ.  1.00000000
 
ion      s     py     pz     px    dxy    dyz    dz2    dxz  x2-y2    tot
    1  0.000  0.000  0.000  0.000  0.000  0.000  0.484  0.000  0.001  0.485
    2  0.000  0.000  0.000  0.000  0.000  0.000  0.484  0.000  0.001  0.485
tot    0.000  0.000  0.000  0.000  0.000  0.000  0.968  0.000  0.002  0.970
 
band     8 # energy    4.76503402 # occ.  1.00000000
 
ion      s     py     pz     px    dxy    dyz    dz2    dxz  x2-y2    tot
    1  0.000  0.000  0.000  0.000  0.000  0.000  0.001  0.000  0.484  0.485
    2  0.000  0.000  0.000  0.000  0.000  0.000  0.001  0.000  0.484  0.485
tot    0.000  0.000  0.000  0.000  0.000  0.000  0.002  0.000  0.968  0.970
 
band     9 # energy    5.99546604 # occ. -0.01918299
 
ion      s     py     pz     px    dxy    dyz    dz2    dxz  x2-y2    tot
    1  0.000  0.000  0.000  0.000  0.494  0.000  0.000  0.000  0.000  0.494
    2  0.000  0.000  0.000  0.000  0.494  0.000  0.000  0.000  0.000  0.494
tot    0.000  0.000  0.000  0.000  0.988  0.000  0.000  0.000  0.000  0.988
 
band    10 # energy    5.99546882 # occ. -0.01918488
 
ion      s     py     pz     px    dxy    dyz    dz2    dxz  x2-y2    tot
    1  0.000  0.000  0.000  0.000  0.000  0.071  0.000  0.422  0.000  0.494
    2  0.000  0.000  0.000  0.000  0.000  0.071  0.000  0.422  0.000  0.494
tot    0.000  0.000  0.000  0.000  0.000  0.143  0.000  0.845  0.000  0.988
 
band    11 # energy    5.99546887 # occ. -0.01918492
 
ion      s     py     pz     px    dxy    dyz    dz2    dxz  x2-y2    tot
    1  0.000  0.000  0.000  0.000  0.000  0.422  0.000  0.071  0.000  0.494
    2  0.000  0.000  0.000  0.000  0.000  0.422  0.000  0.071  0.000  0.494
tot    0.000  0.000  0.000  0.000  0.000  0.845  0.000  0.143  0.000  0.988
 
band    12 # energy   15.81654663 # occ.  0.00000000
 
ion      s     py     pz     px    dxy    dyz    dz2    dxz  x2-y2    tot
    1  0.000  0.101  0.003  0.273  0.000  0.000  0.000  0.000  0.000  0.377
    2  0.000  0.101  0.003  0.273  0.000  0.000  0.000  0.000  0.000  0.377
tot    0.000  0.203  0.006  0.545  0.000  0.000  0.000  0.000  0.000  0.753
 
band    13 # energy   15.81654683 # occ.  0.00000000
 
ion      s     py     pz     px    dxy    dyz    dz2    dxz  x2-y2    tot
    1  0.000  0.251  0.023  0.103  0.000  0.000  0.000  0.000  0.000  0.377
    2  0.000  0.251  0.023  0.103  0.000  0.000  0.000  0.000  0.000  0.377
tot    0.000  0.502  0.046  0.206  0.000  0.000  0.000  0.000  0.000  0.753
 
band    14 # energy   15.81654692 # occ.  0.00000000
 
ion      s     py     pz     px    dxy    dyz    dz2    dxz  x2-y2    tot
    1  0.000  0.024  0.351  0.001  0.000  0.000  0.000  0.000  0.000  0.377
    2  0.000  0.024  0.351  0.001  0.000  0.000  0.000  0.000  0.000  0.377
tot    0.000  0.049  0.702  0.003  0.000  0.000  0.000  0.000  0.000  0.753
 
band    15 # energy   21.53933439 # occ.  0.00000000
 
ion      s     py     pz     px    dxy    dyz    dz2    dxz  x2-y2    tot
    1  0.000  0.000  0.000  0.000  0.000  0.000  0.476  0.000  0.000  0.476
    2  0.000  0.000  0.000  0.000  0.000  0.000  0.476  0.000  0.000  0.476
tot    0.000  0.000  0.000  0.000  0.000  0.000  0.953  0.000  0.000  0.953
 
band    16 # energy   21.53933699 # occ.  0.00000000
 
ion      s     py     pz     px    dxy    dyz    dz2    dxz  x2-y2    tot
    1  0.000  0.000  0.000  0.000  0.000  0.000  0.000  0.000  0.476  0.476
    2  0.000  0.000  0.000  0.000  0.000  0.000  0.000  0.000  0.476  0.476
tot    0.000  0.000  0.000  0.000  0.000  0.000  0.000  0.000  0.953  0.953
 
band    17 # energy   26.71800766 # occ.  0.00000000
 
ion      s     py     pz     px    dxy    dyz    dz2    dxz  x2-y2    tot
    1  0.391  0.000  0.000  0.000  0.000  0.000  0.000  0.000  0.000  0.391
    2  0.391  0.000  0.000  0.000  0.000  0.000  0.000  0.000  0.000  0.391
tot    0.781  0.000  0.000  0.000  0.000  0.000  0.000  0.000  0.000  0.781
 
band    18 # energy   30.90893772 # occ.  0.00000000
 
ion      s     py     pz     px    dxy    dyz    dz2    dxz  x2-y2    tot
    1  0.000  0.000  0.000  0.000  0.000  0.000  0.000  0.000  0.000  0.000
    2  0.000  0.000  0.000  0.000  0.000  0.000  0.000  0.000  0.000  0.000
tot    0.000  0.000  0.000  0.000  0.000  0.000  0.000  0.000  0.000  0.000
 
band    19 # energy   30.90893779 # occ.  0.00000000
 
ion      s     py     pz     px    dxy    dyz    dz2    dxz  x2-y2    tot
    1  0.000  0.000  0.000  0.000  0.000  0.000  0.000  0.000  0.000  0.000
    2  0.000  0.000  0.000  0.000  0.000  0.000  0.000  0.000  0.000  0.000
tot    0.000  0.000  0.000  0.000  0.000  0.000  0.000  0.000  0.000  0.000
 
band    20 # energy   30.90893783 # occ.  0.00000000
 
ion      s     py     pz     px    dxy    dyz    dz2    dxz  x2-y2    tot
    1  0.000  0.000  0.000  0.000  0.000  0.000  0.000  0.000  0.000  0.000
    2  0.000  0.000  0.000  0.000  0.000  0.000  0.000  0.000  0.000  0.000
tot    0.000  0.000  0.000  0.000  0.000  0.000  0.000  0.000  0.000  0.000
 

 k-point     2 :    0.14285714 0.00000000 0.00000000     weight = 0.01749271

band     1 # energy   -2.19102504 # occ.  1.00000000
 
ion      s     py     pz     px    dxy    dyz    dz2    dxz  x2-y2    tot
    1  0.352  0.000  0.000  0.015  0.000  0.000  0.000  0.000  0.000  0.368
    2  0.352  0.000  0.000  0.015  0.000  0.000  0.000  0.000  0.000  0.368
tot    0.705  0.000  0.000  0.030  0.000  0.000  0.000  0.000  0.001  0.736
 
band     2 # energy    1.16142183 # occ.  1.00000000
 
ion      s     py     pz     px    dxy    dyz    dz2    dxz  x2-y2    tot
    1  0.001  0.000  0.000  0.011  0.000  0.000  0.106  0.000  0.319  0.437
    2  0.001  0.000  0.000  0.011  0.000  0.000  0.106  0.000  0.319  0.437
tot    0.001  0.000  0.000  0.022  0.000  0.000  0.213  0.000  0.638  0.875
 
band     3 # energy    1.16216431 # occ.  1.00000000
 
ion      s     py     pz     px    dxy    dyz    dz2    dxz  x2-y2    tot
    1  0.000  0.000  0.000  0.000  0.000  0.000  0.329  0.000  0.110  0.439
    2  0.000  0.000  0.000  0.000  0.000  0.000  0.329  0.000  0.110  0.439
tot    0.000  0.000  0.000  0.000  0.000  0.000  0.658  0.000  0.220  0.878
 
band     4 # energy    3.55879586 # occ.  1.00000000
 
ion      s     py     pz     px    dxy    dyz    dz2    dxz  x2-y2    tot
    1  0.000  0.001  0.000  0.000  0.486  0.000  0.000  0.000  0.000  0.488
    2  0.000  0.001  0.000  0.000  0.486  0.000  0.000  0.000  0.000  0.488
tot    0.000  0.003  0.000  0.000  0.972  0.000  0.000  0.000  0.000  0.975
 
band     5 # energy    3.55879758 # occ.  1.00000000
 
ion      s     py     pz     px    dxy    dyz    dz2    dxz  x2-y2    tot
    1  0.000  0.000  0.001  0.000  0.000  0.000  0.000  0.486  0.000  0.488
    2  0.000  0.000  0.001  0.000  0.000  0.000  0.000  0.486  0.000  0.488
tot    0.000  0.000  0.003  0.000  0.000  0.000  0.000  0.972  0.000  0.975
 
band     6 # energy    3.67464806 # occ.  1.00000000
 
ion      s     py     pz     px    dxy    dyz    dz2    dxz  x2-y2    tot
    1  0.000  0.000  0.000  0.000  0.000  0.489  0.000  0.000  0.000  0.489
    2  0.000  0.000  0.000  0.000  0.000  0.489  0.000  0.000  0.000  0.489
tot    0.000  0.000  0.000  0.000  0.000  0.977  0.000  0.000  0.000  0.977
 
band     7 # energy    4.57646916 # occ.  1.00000000
 
ion      s     py     pz     px    dxy    dyz    dz2    dxz  x2-y2    tot
    1  0.000  0.000  0.000  0.000  0.000  0.000  0.361  0.000  0.120  0.481
    2  0.000  0.000  0.000  0.000  0.000  0.000  0.361  0.000  0.120  0.481
tot    0.000  0.000  0.000  0.000  0.000  0.000  0.722  0.000  0.241  0.962
 
band     8 # energy    4.83907753 # occ.  1.00000000
 
ion      s     py     pz     px    dxy    dyz    dz2    dxz  x2-y2    tot
    1  0.000  0.000  0.000  0.000  0.000  0.000  0.122  0.000  0.365  0.487
    2  0.000  0.000  0.000  0.000  0.000  0.000  0.122  0.000  0.365  0.487
tot    0.001  0.000  0.000  0.000  0.000  0.000  0.243  0.000  0.729  0.973
 
band     9 # energy    5.66018937 # occ.  0.96862184
 
ion      s     py     pz     px    dxy    dyz    dz2    dxz  x2-y2    tot
    1  0.000  0.008  0.000  0.000  0.481  0.000  0.000  0.000  0.000  0.489
    2  0.000  0.008  0.000  0.000  0.481  0.000  0.000  0.000  0.000  0.489
tot    0.000  0.016  0.000  0.000  0.962  0.000  0.000  0.000  0.000  0.978
 
band    10 # energy    5.66019195 # occ.  0.96861766
 
ion      s     py     pz     px    dxy    dyz    dz2    dxz  x2-y2    tot
    1  0.000  0.000  0.008  0.000  0.000  0.000  0.000  0.481  0.000  0.489
    2  0.000  0.000  0.008  0.000  0.000  0.000  0.000  0.481  0.000  0.489
tot    0.000  0.000  0.016  0.000  0.000  0.000  0.000  0.962  0.000  0.978
 
band    11 # energy    5.87025484 # occ.  0.24087674
 
ion      s     py     pz     px    dxy    dyz    dz2    dxz  x2-y2    tot
    1  0.000  0.000  0.000  0.000  0.000  0.493  0.000  0.000  0.000  0.493
    2  0.000  0.000  0.000  0.000  0.000  0.493  0.000  0.000  0.000  0.493
tot    0.000  0.000  0.000  0.000  0.000  0.985  0.000  0.000  0.000  0.985
 
band    12 # energy   13.43497657 # occ.  0.00000000
 
ion      s     py     pz     px    dxy    dyz    dz2    dxz  x2-y2    tot
    1  0.050  0.000  0.000  0.280  0.000  0.000  0.018  0.000  0.053  0.401
    2  0.050  0.000  0.000  0.280  0.000  0.000  0.018  0.000  0.053  0.401
tot    0.100  0.000  0.000  0.560  0.000  0.000  0.036  0.000  0.107  0.802
 
band    13 # energy   16.59770654 # occ.  0.00000000
 
ion      s     py     pz     px    dxy    dyz    dz2    dxz  x2-y2    tot
    1  0.000  0.357  0.003  0.000  0.029  0.000  0.000  0.000  0.000  0.389
    2  0.000  0.357  0.003  0.000  0.029  0.000  0.000  0.000  0.000  0.389
tot    0.000  0.714  0.005  0.000  0.058  0.000  0.000  0.000  0.000  0.778
 
band    14 # energy   16.59770690 # occ.  0.00000000
 
ion      s     py     pz     px    dxy    dyz    dz2    dxz  x2-y2    tot
    1  0.000  0.003  0.357  0.000  0.000  0.000  0.000  0.029  0.000  0.389
    2  0.000  0.003  0.357  0.000  0.000  0.000  0.000  0.029  0.000  0.389
tot    0.000  0.005  0.714  0.000  0.000  0.000  0.000  0.058  0.000  0.778
 
band    15 # energy   21.66372480 # occ.  0.00000000
 
ion      s     py     pz     px    dxy    dyz    dz2    dxz  x2-y2    tot
    1  0.000  0.000  0.000  0.000  0.000  0.000  0.350  0.000  0.117  0.467
    2  0.000  0.000  0.000  0.000  0.000  0.000  0.350  0.000  0.117  0.467
tot    0.000  0.000  0.000  0.000  0.000  0.000  0.701  0.000  0.234  0.934
 
band    16 # energy   23.04139897 # occ.  0.00000000
 
ion      s     py     pz     px    dxy    dyz    dz2    dxz  x2-y2    tot
    1  0.054  0.000  0.000  0.009  0.000  0.000  0.091  0.000  0.272  0.425
    2  0.054  0.000  0.000  0.009  0.000  0.000  0.091  0.000  0.272  0.425
tot    0.107  0.000  0.000  0.018  0.000  0.000  0.181  0.000  0.543  0.850
 
band    17 # energy   28.23439159 # occ.  0.00000000
 
ion      s     py     pz     px    dxy    dyz    dz2    dxz  x2-y2    tot
    1  0.283  0.000  0.000  0.080  0.000  0.000  0.009  0.000  0.027  0.399
    2  0.283  0.000  0.000  0.080  0.000  0.000  0.009  0.000  0.027  0.399
tot    0.566  0.000  0.000  0.160  0.000  0.000  0.018  0.000  0.055  0.799
 
band    18 # energy   28.81830354 # occ.  0.00000000
 
ion      s     py     pz     px    dxy    dyz    dz2    dxz  x2-y2    tot
    1  0.000  0.000  0.000  0.000  0.000  0.000  0.112  0.000  0.037  0.150
    2  0.000  0.000  0.000  0.000  0.000  0.000  0.112  0.000  0.037  0.150
tot    0.000  0.000  0.000  0.000  0.000  0.000  0.224  0.000  0.075  0.299
 
band    19 # energy   30.38813084 # occ.  0.00000000
 
ion      s     py     pz     px    dxy    dyz    dz2    dxz  x2-y2    tot
    1  0.000  0.020  0.000  0.000  0.160  0.000  0.000  0.000  0.000  0.180
    2  0.000  0.020  0.000  0.000  0.160  0.000  0.000  0.000  0.000  0.180
tot    0.000  0.040  0.000  0.000  0.319  0.000  0.000  0.000  0.000  0.359
 
band    20 # energy   30.38813140 # occ.  0.00000000
 
ion      s     py     pz     px    dxy    dyz    dz2    dxz  x2-y2    tot
    1  0.000  0.000  0.020  0.000  0.000  0.000  0.000  0.160  0.000  0.180
    2  0.000  0.000  0.020  0.000  0.000  0.000  0.000  0.160  0.000  0.180
tot    0.000  0.000  0.040  0.000  0.000  0.000  0.000  0.319  0.000  0.359
 

 k-point     3 :    0.28571429 0.00000000 0.00000000     weight = 0.01749271

band     1 # energy   -1.01682766 # occ.  1.00000000
 
ion      s     py     pz     px    dxy    dyz    dz2    dxz  x2-y2    tot
    1  0.304  0.000  0.000  0.055  0.000  0.000  0.003  0.000  0.008  0.370
    2  0.304  0.000  0.000  0.055  0.000  0.000  0.003  0.000  0.008  0.370
tot    0.608  0.000  0.000  0.110  0.000  0.000  0.005  0.000  0.016  0.740
 
band     2 # energy    1.53314812 # occ.  1.00000000
 
ion      s     py     pz     px    dxy    dyz    dz2    dxz  x2-y2    tot
    1  0.013  0.000  0.000  0.043  0.000  0.000  0.094  0.000  0.282  0.432
    2  0.013  0.000  0.000  0.043  0.000  0.000  0.094  0.000  0.282  0.432
tot    0.025  0.000  0.000  0.086  0.000  0.000  0.188  0.000  0.564  0.863
 
band     3 # energy    1.67292569 # occ.  1.00000000
 
ion      s     py     pz     px    dxy    dyz    dz2    dxz  x2-y2    tot
    1  0.000  0.000  0.000  0.000  0.000  0.000  0.332  0.000  0.111  0.442
    2  0.000  0.000  0.000  0.000  0.000  0.000  0.332  0.000  0.111  0.442
tot    0.000  0.000  0.000  0.000  0.000  0.000  0.663  0.000  0.221  0.884
 
band     4 # energy    3.60784599 # occ.  1.00000000
 
ion      s     py     pz     px    dxy    dyz    dz2    dxz  x2-y2    tot
    1  0.000  0.006  0.000  0.000  0.478  0.000  0.000  0.000  0.000  0.484
    2  0.000  0.006  0.000  0.000  0.478  0.000  0.000  0.000  0.000  0.484
tot    0.000  0.012  0.000  0.000  0.957  0.000  0.000  0.000  0.000  0.968
 
band     5 # energy    3.60784770 # occ.  1.00000000
 
ion      s     py     pz     px    dxy    dyz    dz2    dxz  x2-y2    tot
    1  0.000  0.000  0.006  0.000  0.000  0.000  0.000  0.478  0.000  0.484
    2  0.000  0.000  0.006  0.000  0.000  0.000  0.000  0.478  0.000  0.484
tot    0.000  0.000  0.012  0.000  0.000  0.000  0.000  0.957  0.000  0.968
 
band     6 # energy    4.00145332 # occ.  1.00000000
 
ion      s     py     pz     px    dxy    dyz    dz2    dxz  x2-y2    tot
    1  0.000  0.000  0.000  0.000  0.000  0.488  0.000  0.000  0.000  0.488
    2  0.000  0.000  0.000  0.000  0.000  0.488  0.000  0.000  0.000  0.488
tot    0.000  0.000  0.000  0.000  0.000  0.975  0.000  0.000  0.000  0.975
 
band     7 # energy    4.04463414 # occ.  1.00000000
 
ion      s     py     pz     px    dxy    dyz    dz2    dxz  x2-y2    tot
    1  0.000  0.000  0.000  0.000  0.000  0.000  0.353  0.000  0.118  0.471
    2  0.000  0.000  0.000  0.000  0.000  0.000  0.353  0.000  0.118  0.471
tot    0.000  0.000  0.000  0.000  0.000  0.000  0.707  0.000  0.236  0.942
 
band     8 # energy    4.94305643 # occ.  1.00000001
 
ion      s     py     pz     px    dxy    dyz    dz2    dxz  x2-y2    tot
    1  0.000  0.017  0.000  0.000  0.465  0.000  0.000  0.000  0.000  0.482
    2  0.000  0.017  0.000  0.000  0.465  0.000  0.000  0.000  0.000  0.482
tot    0.000  0.035  0.000  0.000  0.929  0.000  0.000  0.000  0.000  0.964
 
band     9 # energy    4.94305863 # occ.  1.00000001
 
ion      s     py     pz     px    dxy    dyz    dz2    dxz  x2-y2    tot
    1  0.000  0.000  0.017  0.000  0.000  0.000  0.000  0.465  0.000  0.482
    2  0.000  0.000  0.017  0.000  0.000  0.000  0.000  0.465  0.000  0.482
tot    0.000  0.000  0.035  0.000  0.000  0.000  0.000  0.929  0.000  0.964
 
band    10 # energy    5.05222151 # occ.  1.00000069
 
ion      s     py     pz     px    dxy    dyz    dz2    dxz  x2-y2    tot
    1  0.007  0.000  0.000  0.001  0.000  0.000  0.120  0.000  0.361  0.489
    2  0.007  0.000  0.000  0.001  0.000  0.000  0.120  0.000  0.361  0.489
tot    0.014  0.000  0.000  0.003  0.000  0.000  0.240  0.000  0.721  0.978
 
band    11 # energy    5.52111215 # occ.  1.03096446
 
ion      s     py     pz     px    dxy    dyz    dz2    dxz  x2-y2    tot
    1  0.000  0.000  0.000  0.000  0.000  0.490  0.000  0.000  0.000  0.490
    2  0.000  0.000  0.000  0.000  0.000  0.490  0.000  0.000  0.000  0.490
tot    0.000  0.000  0.000  0.000  0.000  0.980  0.000  0.000  0.000  0.980
 
band    12 # energy    9.85244403 # occ. -0.00000000
 
ion      s     py     pz     px    dxy    dyz    dz2    dxz  x2-y2    tot
    1  0.104  0.000  0.000  0.185  0.000  0.000  0.033  0.000  0.099  0.421
    2  0.104  0.000  0.000  0.185  0.000  0.000  0.033  0.000  0.099  0.421
tot    0.208  0.000  0.000  0.371  0.000  0.000  0.066  0.000  0.198  0.842
 
band    13 # energy   18.63033682 # occ.  0.00000000
 
ion      s     py     pz     px    dxy    dyz    dz2    dxz  x2-y2    tot
    1  0.000  0.322  0.000  0.000  0.093  0.000  0.000  0.000  0.000  0.416
    2  0.000  0.322  0.000  0.000  0.093  0.000  0.000  0.000  0.000  0.416
tot    0.000  0.644  0.001  0.000  0.187  0.000  0.000  0.000  0.000  0.832
 
band    14 # energy   18.63033759 # occ.  0.00000000
 
ion      s     py     pz     px    dxy    dyz    dz2    dxz  x2-y2    tot
    1  0.000  0.000  0.322  0.000  0.000  0.000  0.000  0.093  0.000  0.416
    2  0.000  0.000  0.322  0.000  0.000  0.000  0.000  0.093  0.000  0.416
tot    0.000  0.001  0.644  0.000  0.000  0.000  0.000  0.187  0.000  0.832
 
band    15 # energy   22.06917272 # occ.  0.00000000
 
ion      s     py     pz     px    dxy    dyz    dz2    dxz  x2-y2    tot
    1  0.000  0.000  0.000  0.000  0.000  0.000  0.330  0.000  0.110  0.440
    2  0.000  0.000  0.000  0.000  0.000  0.000  0.330  0.000  0.110  0.440
tot    0.000  0.000  0.000  0.000  0.000  0.000  0.660  0.000  0.220  0.880
 
band    16 # energy   24.10302602 # occ.  0.00000000
 
ion      s     py     pz     px    dxy    dyz    dz2    dxz  x2-y2    tot
    1  0.146  0.000  0.000  0.010  0.000  0.000  0.047  0.000  0.142  0.344
    2  0.146  0.000  0.000  0.010  0.000  0.000  0.047  0.000  0.142  0.344
tot    0.291  0.000  0.000  0.020  0.000  0.000  0.094  0.000  0.283  0.689
 
band    17 # energy   26.14695243 # occ.  0.00000000
 
ion      s     py     pz     px    dxy    dyz    dz2    dxz  x2-y2    tot
    1  0.000  0.000  0.000  0.000  0.000  0.000  0.193  0.000  0.064  0.257
    2  0.000  0.000  0.000  0.000  0.000  0.000  0.193  0.000  0.064  0.257
tot    0.000  0.000  0.000  0.000  0.000  0.000  0.386  0.000  0.129  0.515
 
band    18 # energy   27.96116598 # occ.  0.00000000
 
ion      s     py     pz     px    dxy    dyz    dz2    dxz  x2-y2    tot
    1  0.000  0.130  0.000  0.000  0.305  0.000  0.000  0.000  0.000  0.435
    2  0.000  0.130  0.000  0.000  0.305  0.000  0.000  0.000  0.000  0.435
tot    0.000  0.260  0.000  0.000  0.610  0.000  0.000  0.000  0.000  0.870
 
band    19 # energy   27.96116719 # occ.  0.00000000
 
ion      s     py     pz     px    dxy    dyz    dz2    dxz  x2-y2    tot
    1  0.000  0.000  0.130  0.000  0.000  0.000  0.000  0.305  0.000  0.435
    2  0.000  0.000  0.130  0.000  0.000  0.000  0.000  0.305  0.000  0.435
tot    0.000  0.000  0.260  0.000  0.000  0.000  0.000  0.610  0.000  0.870
 
band    20 # energy   29.73304529 # occ.  0.00000000
 
ion      s     py     pz     px    dxy    dyz    dz2    dxz  x2-y2    tot
    1  0.052  0.000  0.000  0.172  0.000  0.000  0.004  0.000  0.013  0.241
    2  0.052  0.000  0.000  0.172  0.000  0.000  0.004  0.000  0.013  0.241
tot    0.104  0.000  0.000  0.344  0.000  0.000  0.008  0.000  0.025  0.482
 

 k-point     4 :    0.42857143 0.00000000 0.00000000     weight = 0.01749271

band     1 # energy    0.53962882 # occ.  1.00000000
 
ion      s     py     pz     px    dxy    dyz    dz2    dxz  x2-y2    tot
    1  0.208  0.000  0.000  0.098  0.000  0.000  0.018  0.000  0.055  0.380
    2  0.208  0.000  0.000  0.098  0.000  0.000  0.018  0.000  0.055  0.380
tot    0.416  0.000  0.000  0.197  0.000  0.000  0.036  0.000  0.109  0.759
 
band     2 # energy    1.55350200 # occ.  1.00000000
 
ion      s     py     pz     px    dxy    dyz    dz2    dxz  x2-y2    tot
    1  0.076  0.000  0.000  0.088  0.000  0.000  0.061  0.000  0.184  0.409
    2  0.076  0.000  0.000  0.088  0.000  0.000  0.061  0.000  0.184  0.409
tot    0.152  0.000  0.000  0.176  0.000  0.000  0.123  0.000  0.368  0.819
 
band     3 # energy    2.42497722 # occ.  1.00000000
 
ion      s     py     pz     px    dxy    dyz    dz2    dxz  x2-y2    tot
    1  0.000  0.000  0.000  0.000  0.000  0.000  0.336  0.000  0.112  0.449
    2  0.000  0.000  0.000  0.000  0.000  0.000  0.336  0.000  0.112  0.449
tot    0.000  0.000  0.000  0.000  0.000  0.000  0.673  0.000  0.224  0.897
 
band     4 # energy    3.27371574 # occ.  1.00000000
 
ion      s     py     pz     px    dxy    dyz    dz2    dxz  x2-y2    tot
    1  0.000  0.000  0.000  0.000  0.000  0.000  0.344  0.000  0.115  0.459
    2  0.000  0.000  0.000  0.000  0.000  0.000  0.344  0.000  0.115  0.459
tot    0.000  0.000  0.000  0.000  0.000  0.000  0.688  0.000  0.229  0.918
 
band     5 # energy    3.81408914 # occ.  1.00000000
 
ion      s     py     pz     px    dxy    dyz    dz2    dxz  x2-y2    tot
    1  0.000  0.012  0.000  0.000  0.469  0.000  0.000  0.000  0.000  0.481
    2  0.000  0.012  0.000  0.000  0.469  0.000  0.000  0.000  0.000  0.481
tot    0.000  0.024  0.000  0.000  0.937  0.000  0.000  0.000  0.000  0.961
 
band     6 # energy    3.81409090 # occ.  1.00000000
 
ion      s     py     pz     px    dxy    dyz    dz2    dxz  x2-y2    tot
    1  0.000  0.000  0.012  0.000  0.000  0.000  0.000  0.469  0.000  0.481
    2  0.000  0.000  0.012  0.000  0.000  0.000  0.000  0.469  0.000  0.481
tot    0.000  0.000  0.024  0.000  0.000  0.000  0.000  0.937  0.000  0.961
 
band     7 # energy    4.26335180 # occ.  1.00000000
 
ion      s     py     pz     px    dxy    dyz    dz2    dxz  x2-y2    tot
    1  0.000  0.017  0.000  0.000  0.462  0.000  0.000  0.000  0.000  0.479
    2  0.000  0.017  0.000  0.000  0.462  0.000  0.000  0.000  0.000  0.479
tot    0.000  0.035  0.000  0.000  0.924  0.000  0.000  0.000  0.000  0.959
 
band     8 # energy    4.26335372 # occ.  1.00000000
 
ion      s     py     pz     px    dxy    dyz    dz2    dxz  x2-y2    tot
    1  0.000  0.000  0.017  0.000  0.000  0.000  0.000  0.462  0.000  0.479
    2  0.000  0.000  0.017  0.000  0.000  0.000  0.000  0.462  0.000  0.479
tot    0.000  0.000  0.035  0.000  0.000  0.000  0.000  0.924  0.000  0.959
 
band     9 # energy    4.48111368 # occ.  1.00000000
 
ion      s     py     pz     px    dxy    dyz    dz2    dxz  x2-y2    tot
    1  0.000  0.000  0.000  0.000  0.000  0.487  0.000  0.000  0.000  0.487
    2  0.000  0.000  0.000  0.000  0.000  0.487  0.000  0.000  0.000  0.487
tot    0.000  0.000  0.000  0.000  0.000  0.974  0.000  0.000  0.000  0.974
 
band    10 # energy    5.02345830 # occ.  1.00000024
 
ion      s     py     pz     px    dxy    dyz    dz2    dxz  x2-y2    tot
    1  0.000  0.000  0.000  0.000  0.000  0.488  0.000  0.000  0.000  0.488
    2  0.000  0.000  0.000  0.000  0.000  0.488  0.000  0.000  0.000  0.488
tot    0.000  0.000  0.000  0.000  0.000  0.975  0.000  0.000  0.000  0.975
 
band    11 # energy    5.53510288 # occ.  1.03338882
 
ion      s     py     pz     px    dxy    dyz    dz2    dxz  x2-y2    tot
    1  0.042  0.000  0.000  0.016  0.000  0.000  0.106  0.000  0.319  0.483
    2  0.042  0.000  0.000  0.016  0.000  0.000  0.106  0.000  0.319  0.483
tot    0.084  0.000  0.000  0.031  0.000  0.000  0.212  0.000  0.637  0.965
 
band    12 # energy    6.98667218 # occ. -0.00000000
 
ion      s     py     pz     px    dxy    dyz    dz2    dxz  x2-y2    tot
    1  0.107  0.000  0.000  0.086  0.000  0.000  0.065  0.000  0.194  0.451
    2  0.107  0.000  0.000  0.086  0.000  0.000  0.065  0.000  0.194  0.451
tot    0.214  0.000  0.000  0.171  0.000  0.000  0.129  0.000  0.387  0.902
 
band    13 # energy   21.42758826 # occ.  0.00000000
 
ion      s     py     pz     px    dxy    dyz    dz2    dxz  x2-y2    tot
    1  0.000  0.277  0.000  0.000  0.171  0.000  0.000  0.000  0.000  0.448
    2  0.000  0.277  0.000  0.000  0.171  0.000  0.000  0.000  0.000  0.448
tot    0.000  0.553  0.000  0.000  0.342  0.000  0.000  0.000  0.000  0.896
 
band    14 # energy   21.42758937 # occ.  0.00000000
 
ion      s     py     pz     px    dxy    dyz    dz2    dxz  x2-y2    tot
    1  0.000  0.000  0.277  0.000  0.000  0.000  0.000  0.171  0.000  0.448
    2  0.000  0.000  0.277  0.000  0.000  0.000  0.000  0.171  0.000  0.448
tot    0.000  0.000  0.553  0.000  0.000  0.000  0.000  0.342  0.000  0.896
 
band    15 # energy   22.85328651 # occ.  0.00000000
 
ion      s     py     pz     px    dxy    dyz    dz2    dxz  x2-y2    tot
    1  0.000  0.000  0.000  0.000  0.000  0.000  0.297  0.000  0.099  0.396
    2  0.000  0.000  0.000  0.000  0.000  0.000  0.297  0.000  0.099  0.396
tot    0.000  0.000  0.000  0.000  0.000  0.000  0.593  0.000  0.198  0.791
 
band    16 # energy   24.16143155 # occ.  0.00000000
 
ion      s     py     pz     px    dxy    dyz    dz2    dxz  x2-y2    tot
    1  0.000  0.000  0.000  0.000  0.000  0.000  0.251  0.000  0.084  0.335
    2  0.000  0.000  0.000  0.000  0.000  0.000  0.251  0.000  0.084  0.335
tot    0.000  0.000  0.000  0.000  0.000  0.000  0.503  0.000  0.168  0.670
 
band    17 # energy   24.65246700 # occ.  0.00000000
 
ion      s     py     pz     px    dxy    dyz    dz2    dxz  x2-y2    tot
    1  0.000  0.217  0.000  0.000  0.254  0.000  0.000  0.000  0.000  0.471
    2  0.000  0.217  0.000  0.000  0.254  0.000  0.000  0.000  0.000  0.471
tot    0.000  0.434  0.000  0.000  0.507  0.000  0.000  0.000  0.000  0.942
 
band    18 # energy   24.65246829 # occ.  0.00000000
 
ion      s     py     pz     px    dxy    dyz    dz2    dxz  x2-y2    tot
    1  0.000  0.000  0.217  0.000  0.000  0.000  0.000  0.254  0.000  0.471
    2  0.000  0.000  0.217  0.000  0.000  0.000  0.000  0.254  0.000  0.471
tot    0.000  0.000  0.434  0.000  0.000  0.000  0.000  0.507  0.000  0.942
 
band    19 # energy   25.08526374 # occ.  0.00000000
 
ion      s     py     pz     px    dxy    dyz    dz2    dxz  x2-y2    tot
    1  0.143  0.000  0.000  0.064  0.000  0.000  0.017  0.000  0.052  0.276
    2  0.143  0.000  0.000  0.064  0.000  0.000  0.017  0.000  0.052  0.276
tot    0.286  0.000  0.000  0.128  0.000  0.000  0.034  0.000  0.103  0.552
 
band    20 # energy   26.89019957 # occ.  0.00000000
 
ion      s     py     pz     px    dxy    dyz    dz2    dxz  x2-y2    tot
    1  0.102  0.000  0.000  0.129  0.000  0.000  0.001  0.000  0.004  0.236
    2  0.102  0.000  0.000  0.129  0.000  0.000  0.001  0.000  0.004  0.236
tot    0.204  0.000  0.000  0.257  0.000  0.000  0.003  0.000  0.009  0.473
 

 k-point     5 :    0.14285714 0.14285714 0.00000000     weight = 0.03498542

band     1 # energy   -1.78701745 # occ.  1.00000000
 
ion      s     py     pz     px    dxy    dyz    dz2    dxz  x2-y2    tot
    1  0.337  0.014  0.000  0.014  0.002  0.000  0.001  0.000  0.000  0.369
    2  0.337  0.014  0.000  0.014  0.002  0.000  0.001  0.000  0.000  0.369
tot    0.674  0.028  0.000  0.028  0.005  0.000  0.001  0.000  0.000  0.737
 
band     2 # energy    1.30448704 # occ.  1.00000000
 
ion      s     py     pz     px    dxy    dyz    dz2    dxz  x2-y2    tot
    1  0.001  0.003  0.000  0.003  0.004  0.000  0.429  0.000  0.000  0.439
    2  0.001  0.003  0.000  0.003  0.004  0.000  0.429  0.000  0.000  0.439
tot    0.002  0.006  0.000  0.006  0.008  0.000  0.857  0.000  0.000  0.878
 
band     3 # energy    1.36204431 # occ.  1.00000000
 