   1   1   0   0
  0.1386300E+02  0.2621157E-09  0.2621157E-09  0.2621157E-09  0.5000000E-15
  1.000000000000000E-004
  CAR 
 unknown system                          
     36.17493109     -6.24483192  301      9.87373572      1.00000000
     -6.245  0.0000E+00  0.0000E+00
     -6.103  0.0000E+00  0.0000E+00
     -5.962  0.0000E+00  0.0000E+00
     -5.821  0.0000E+00  0.0000E+00
     -5.679  0.0000E+00  0.0000E+00
     -5.538  0.0000E+00  0.0000E+00
     -5.396  0.0000E+00  0.0000E+00
     -5.255  0.0000E+00  0.0000E+00
     -5.114  0.0000E+00  0.0000E+00
     -4.972  0.0000E+00  0.0000E+00
     -4.831  0.0000E+00  0.0000E+00
     -4.689  0.0000E+00  0.0000E+00
     -4.548  0.1251E-14  0.1770E-15
     -4.407  0.2290E-06  0.3237E-07
     -4.265  0.4282E-04  0.6087E-05
     -4.124  0.4777E-03  0.7363E-04
     -3.982  0.2844E-03  0.1138E-03
     -3.841  0.9827E-03  0.2528E-03
     -3.700  0.5466E-03  0.3301E-03
     -3.558  0.9819E-03  0.4689E-03
     -3.417  0.4794E-03  0.5367E-03
     -3.275  0.1877E-02  0.8022E-03
     -3.134  0.4416E-03  0.8646E-03
     -2.993  0.1480E-02  0.1074E-02
     -2.851  0.1058E-02  0.1223E-02
     -2.710  0.1064E-02  0.1374E-02
     -2.568  0.1775E-02  0.1625E-02
     -2.427  0.1960E-02  0.1902E-02
     -2.286  0.9939E-03  0.2043E-02
     -2.144  0.1305E-02  0.2227E-02
     -2.003  0.1510E-02  0.2441E-02
     -1.861  0.1615E-02  0.2669E-02
     -1.720  0.2700E-02  0.3051E-02
     -1.579  0.1516E-02  0.3265E-02
     -1.437  0.1936E-02  0.3539E-02
     -1.296  0.1176E-02  0.3705E-02
     -1.154  0.1971E-02  0.3984E-02
     -1.013  0.5137E-03  0.4057E-02
     -0.872  0.3410E-02  0.4539E-02
     -0.730  0.1267E-02  0.4718E-02
     -0.589  0.3953E-02  0.5277E-02
     -0.447  0.1987E-02  0.5558E-02
     -0.306  0.8832E-03  0.5683E-02
     -0.165  0.1007E-02  0.5825E-02
     -0.023  0.3097E-02  0.6263E-02
      0.118  0.1836E-02  0.6523E-02
      0.260  0.3374E-02  0.7000E-02
      0.401  0.2209E-02  0.7312E-02
      0.542  0.1850E-02  0.7573E-02
      0.684  0.4346E-02  0.8188E-02
      0.825  0.1999E-02  0.8471E-02
      0.967  0.1959E-02  0.8748E-02
      1.108  0.1167E-02  0.8913E-02
      1.249  0.2018E-02  0.9198E-02
      1.391  0.2224E-02  0.9512E-02
      1.532  0.4866E-02  0.1020E-01
      1.674  0.1588E-02  0.1042E-01
      1.815  0.4421E-02  0.1105E-01
      1.956  0.1066E-02  0.1120E-01
      2.098  0.3318E-02  0.1167E-01
      2.239  0.2865E-02  0.1208E-01
      2.381  0.3150E-02  0.1252E-01
      2.522  0.1884E-02  0.1279E-01
      2.663  0.3040E-02  0.1322E-01
      2.805  0.3173E-02  0.1367E-01
      2.946  0.1663E-02  0.1390E-01
      3.088  0.6154E-02  0.1477E-01
      3.229  0.1036E-02  0.1492E-01
      3.370  0.2722E-02  0.1530E-01
      3.512  0.3927E-02  0.1586E-01
      3.653  0.2559E-02  0.1622E-01
      3.795  0.3675E-02  0.1674E-01
      3.936  0.3842E-02  0.1728E-01
      4.077  0.2398E-02  0.1762E-01
      4.219  0.1155E-02  0.1778E-01
      4.360  0.3536E-02  0.1828E-01
      4.502  0.3203E-02  0.1874E-01
      4.643  0.4995E-02  0.1944E-01
      4.784  0.4843E-02  0.2013E-01
      4.926  0.1204E-02  0.2030E-01
      5.067  0.3914E-02  0.2085E-01
      5.209  0.1413E-02  0.2105E-01
      5.350  0.3467E-02  0.2154E-01
      5.491  0.6094E-02  0.2240E-01
      5.633  0.2447E-02  0.2275E-01
      5.774  0.5569E-02  0.2354E-01
      5.916  0.3023E-02  0.2397E-01
      6.057  0.1947E-02  0.2424E-01
      6.198  0.4033E-02  0.2481E-01
      6.340  0.2644E-02  0.2518E-01
      6.481  0.8151E-03  0.2530E-01
      6.622  0.6952E-02  0.2628E-01
      6.764  0.3399E-02  0.2676E-01
      6.905  0.4967E-02  0.2747E-01
      7.047  0.5442E-02  0.2824E-01
      7.188  0.2499E-02  0.2859E-01
      7.329  0.3599E-02  0.2910E-01
      7.471  0.3184E-02  0.2955E-01
      7.612  0.4795E-02  0.3023E-01
      7.754  0.4428E-02  0.3085E-01
      7.895  0.5212E-02  0.3159E-01
      8.036  0.2934E-02  0.3200E-01
      8.178  0.1230E-02  0.3218E-01
      8.319  0.2025E-02  0.3246E-01
      8.461  0.7447E-02  0.3352E-01
      8.602  0.5176E-02  0.3425E-01
      8.743  0.3785E-02  0.3478E-01
      8.885  0.4393E-02  0.3540E-01
      9.026  0.4380E-02  0.3602E-01
      9.168  0.5010E-02  0.3673E-01
      9.309  0.5021E-02  0.3744E-01
      9.450  0.4348E-02  0.3806E-01
      9.592  0.5282E-02  0.3880E-01
      9.733  0.5352E-02  0.3956E-01
      9.875  0.3130E-02  0.4000E-01
     10.016  0.4755E-02  0.4068E-01
     10.157  0.2529E-02  0.4103E-01
     10.299  0.3985E-02  0.4160E-01
     10.440  0.4418E-02  0.4222E-01
     10.582  0.5058E-02  0.4294E-01
     10.723  0.5058E-02  0.4365E-01
     10.864  0.5590E-02  0.4444E-01
     11.006  0.7152E-02  0.4545E-01
     11.147  0.1897E-02  0.4572E-01
     11.289  0.3103E-02  0.4616E-01
     11.430  0.2090E-02  0.4646E-01
     11.571  0.6271E-02  0.4734E-01
     11.713  0.6909E-02  0.4832E-01
     11.854  0.2451E-02  0.4867E-01
     11.996  0.6236E-02  0.4955E-01
     12.137  0.4534E-02  0.5019E-01
     12.278  0.2172E-02  0.5050E-01
     12.420  0.3937E-02  0.5105E-01
     12.561  0.1619E-02  0.5128E-01
     12.703  0.5683E-02  0.5209E-01
     12.844  0.2985E-02  0.5251E-01
     12.985  0.7395E-02  0.5355E-01
     13.127  0.4857E-02  0.5424E-01
     13.268  0.4414E-02  0.5486E-01
     13.410  0.8683E-02  0.5609E-01
     13.551  0.4215E-02  0.5669E-01
     13.692  0.4942E-02  0.5739E-01
     13.834  0.3488E-02  0.5788E-01
     13.975  0.4374E-02  0.5850E-01
     14.117  0.4477E-02  0.5913E-01
     14.258  0.3702E-02  0.5965E-01
     14.399  0.5555E-02  0.6044E-01
     14.541  0.8468E-02  0.6164E-01
     14.682  0.2146E-02  0.6194E-01
     14.824  0.4947E-02  0.6264E-01
     14.965  0.2725E-02  0.6303E-01
     15.106  0.6992E-02  0.6401E-01
     15.248  0.4866E-02  0.6470E-01
     15.389  0.5103E-02  0.6542E-01
     15.531  0.7337E-02  0.6646E-01
     15.672  0.4243E-02  0.6706E-01
     15.813  0.5837E-02  0.6789E-01
     15.955  0.5487E-02  0.6866E-01
     16.096  0.8423E-02  0.6985E-01
     16.238  0.5991E-02  0.7070E-01
     16.379  0.1941E-02  0.7098E-01
     16.520  0.7281E-02  0.7201E-01
     16.662  0.3406E-02  0.7249E-01
     16.803  0.2357E-02  0.7282E-01
     16.945  0.3745E-02  0.7335E-01
     17.086  0.5708E-02  0.7416E-01
     17.227  0.8845E-02  0.7541E-01
     17.369  0.1295E-01  0.7724E-01
     17.510  0.8190E-02  0.7840E-01
     17.652  0.4040E-02  0.7897E-01
     17.793  0.4102E-02  0.7955E-01
     17.934  0.3933E-02  0.8010E-01
     18.076  0.7270E-02  0.8113E-01
     18.217  0.4667E-02  0.8179E-01
     18.359  0.3444E-02  0.8228E-01
     18.500  0.1965E-02  0.8256E-01
     18.641  0.3969E-02  0.8312E-01
     18.783  0.3889E-02  0.8367E-01
     18.924  0.1168E-02  0.8383E-01
     19.066  0.4817E-02  0.8451E-01
     19.207  0.6728E-02  0.8547E-01
     19.348  0.4317E-02  0.8608E-01
     19.490  0.5073E-02  0.8679E-01
     19.631  0.6903E-02  0.8777E-01
     19.773  0.6992E-02  0.8876E-01
     19.914  0.3902E-02  0.8931E-01
     20.055  0.1976E-02  0.8959E-01
     20.197  0.1035E-01  0.9105E-01
     20.338  0.4822E-02  0.9173E-01
     20.480  0.2384E-02  0.9207E-01
     20.621  0.7218E-02  0.9309E-01
     20.762  0.3755E-02  0.9362E-01
     20.904  0.6619E-02  0.9456E-01
     21.045  0.7438E-02  0.9561E-01
     21.187  0.4800E-02  0.9629E-01
     21.328  0.4734E-02  0.9696E-01
     21.469  0.6402E-02  0.9786E-01
     21.611  0.8243E-02  0.9903E-01
     21.752  0.9223E-02  0.1003E+00
     21.894  0.1395E-01  0.1023E+00
     22.035  0.7027E-02  0.1033E+00
     22.176  0.7248E-02  0.1043E+00
     22.318  0.8954E-02  0.1056E+00
     22.459  0.6357E-02  0.1065E+00
     22.601  0.2123E-02  0.1068E+00
     22.742  0.1791E-02  0.1070E+00
     22.883  0.2471E-02  0.1074E+00
     23.025  0.7774E-02  0.1085E+00
     23.166  0.8638E-02  0.1097E+00
     23.308  0.9101E-02  0.1110E+00
     23.449  0.4920E-02  0.1117E+00
     23.590  0.5739E-02  0.1125E+00
     23.732  0.5493E-02  0.1133E+00
     23.873  0.5030E-02  0.1140E+00
     24.015  0.4904E-02  0.1147E+00
     24.156  0.2298E-02  0.1150E+00
     24.297  0.6704E-02  0.1160E+00
     24.439  0.5177E-02  0.1167E+00
     24.580  0.1128E-01  0.1183E+00
     24.722  0.7265E-02  0.1193E+00
     24.863  0.4966E-02  0.1200E+00
     25.004  0.4385E-02  0.1206E+00
     25.146  0.6406E-02  0.1215E+00
     25.287  0.6347E-02  0.1224E+00
     25.429  0.5450E-02  0.1232E+00
     25.570  0.8043E-02  0.1243E+00
     25.711  0.3699E-02  0.1249E+00
     25.853  0.6738E-02  0.1258E+00
     25.994  0.4814E-02  0.1265E+00
     26.136  0.6161E-02  0.1274E+00
     26.277  0.6598E-02  0.1283E+00
     26.418  0.7876E-02  0.1294E+00
     26.560  0.7302E-02  0.1305E+00
     26.701  0.5000E-02  0.1312E+00
     26.843  0.9207E-02  0.1325E+00
     26.984  0.4748E-02  0.1331E+00
     27.125  0.7432E-02  0.1342E+00
     27.267  0.5446E-02  0.1350E+00
     27.408  0.6439E-02  0.1359E+00
     27.550  0.2644E-02  0.1362E+00
     27.691  0.5780E-02  0.1371E+00
     27.832  0.6109E-02  0.1379E+00
     27.974  0.7453E-02  0.1390E+00
     28.115  0.6058E-02  0.1398E+00
     28.257  0.4721E-02  0.1405E+00
     28.398  0.5737E-02  0.1413E+00
     28.539  0.6484E-02  0.1422E+00
     28.681  0.9601E-02  0.1436E+00
     28.822  0.6667E-02  0.1445E+00
     28.964  0.1252E-01  0.1463E+00
     29.105  0.7474E-02  0.1474E+00
     29.246  0.2704E-02  0.1477E+00
     29.388  0.6233E-02  0.1486E+00
     29.529  0.5197E-02  0.1494E+00
     29.671  0.5313E-02  0.1501E+00
     29.812  0.8462E-02  0.1513E+00
     29.953  0.8768E-02  0.1525E+00
     30.095  0.6383E-02  0.1534E+00
     30.236  0.2056E-02  0.1537E+00
     30.378  0.6053E-02  0.1546E+00
     30.519  0.4886E-02  0.1553E+00
     30.660  0.8148E-02  0.1564E+00
     30.802  0.5400E-02  0.1572E+00
     30.943  0.1669E-02  0.1574E+00
     31.085  0.4373E-02  0.1581E+00
     31.226  0.1990E-02  0.1583E+00
     31.367  0.3148E-03  0.1584E+00
     31.509  0.1751E-02  0.1586E+00
     31.650  0.2074E-02  0.1589E+00
     31.792  0.1374E-02  0.1591E+00
     31.933  0.1477E-03  0.1591E+00
     32.074  0.1519E-03  0.1592E+00
     32.216  0.3625E-03  0.1592E+00
     32.357  0.1010E-02  0.1594E+00
     32.499  0.1406E-03  0.1594E+00
     32.640  0.9960E-03  0.1595E+00
     32.781  0.5171E-03  0.1596E+00
     32.923  0.1188E-02  0.1598E+00
     33.064  0.5900E-03  0.1598E+00
     33.206  0.3189E-03  0.1599E+00
     33.347  0.4863E-05  0.1599E+00
     33.488  0.1056E-12  0.1599E+00
     33.630  0.0000E+00  0.1599E+00
     33.771  0.3191E-15  0.1599E+00
     33.913  0.3374E-06  0.1599E+00
     34.054  0.2121E-03  0.1599E+00
     34.195  0.2932E-03  0.1600E+00
     34.337  0.3307E-03  0.1600E+00
     34.478  0.1832E-05  0.1600E+00
     34.620  0.1001E-13  0.1600E+00
     34.761  0.0000E+00  0.1600E+00
     34.902  0.0000E+00  0.1600E+00
     35.044  0.0000E+00  0.1600E+00
     35.185  0.0000E+00  0.1600E+00
     35.327  0.0000E+00  0.1600E+00
     35.468  0.0000E+00  0.1600E+00
     35.609  0.0000E+00  0.1600E+00
     35.751  0.0000E+00  0.1600E+00
     35.892  0.0000E+00  0.1600E+00
     36.034  0.0000E+00  0.1600E+00
     36.175  0.0000E+00  0.1600E+00
