    1    1  100    1
  0.1386300E+02  0.2621157E-09  0.2621157E-09  0.2621157E-09  0.5000000E-15
  1.000000000000000E-004
  CAR 
 unknown system                          
      4    120      8
 
  0.0000000E+00  0.0000000E+00  0.0000000E+00  0.2962963E-03
    1       -4.316661   1.000000
    2       21.285319   0.000000
    3       21.285319   0.000000
    4       21.285319   0.000000
    5       22.437251   0.000000
    6       22.437251   0.000000
    7       22.437252   0.000000
    8       26.128878   0.000000
 
  0.6666667E-01  0.0000000E+00  0.0000000E+00  0.3555556E-02
    1       -4.180609   1.000000
    2       19.677781   0.000000
    3       20.154237   0.000000
    4       21.093659   0.000000
    5       21.990872   0.000000
    6       23.200053   0.000000
    7       23.796000   0.000000
    8       25.221809   0.000000
 
  0.1333333E+00  0.0000000E+00  0.0000000E+00  0.3555556E-02
    1       -3.772970   1.000000
    2       17.066538   0.000000
    3       18.817164   0.000000
    4       20.575104   0.000000
    5       21.014291   0.000000
    6       22.968906   0.000000
    7       25.141791   0.000000
    8       25.811918   0.000000
 
  0.2000000E+00  0.0000000E+00  0.0000000E+00  0.3555556E-02
    1       -3.095373   1.000000
    2       14.247107   0.000000
    3       17.681829   0.000000
    4       19.889928   0.000000
    5       19.959387   0.000000
    6       22.021313   0.000000
    7       26.007694   0.000000
    8       26.191978   0.000000
 
  0.2666667E+00  0.0000000E+00  0.0000000E+00  0.3555556E-02
    1       -2.150526   1.000000
    2       11.474284   0.000000
    3       16.770171   0.000000
    4       19.027014   0.000000
    5       19.208395   0.000000
    6       21.160902   0.000000
    7       26.817196   0.000000
    8       27.081549   0.000000
 
  0.3333333E+00  0.0000000E+00  0.0000000E+00  0.3555556E-02
    1       -0.942356   1.000000
    2        8.852887   1.000000
    3       16.086019   0.000000
    4       18.294743   0.000000
    5       18.639129   0.000000
    6       20.484782   0.000000
    7       27.719157   0.000000
    8       28.291478   0.000000
 
  0.4000000E+00  0.0000000E+00  0.0000000E+00  0.3555556E-02
    1        0.523404   1.000000
    2        6.430495   1.000000
    3       15.630058   0.000000
    4       17.795057   0.000000
    5       18.238248   0.000000
    6       20.020964   0.000000
    7       28.823307   0.000000
    8       29.559408   0.000000
 
  0.4666667E+00  0.0000000E+00  0.0000000E+00  0.3555556E-02
    1        2.231542   1.000000
    2        4.240525   1.000000
    3       15.402174   0.000000
    4       17.542376   0.000000
    5       18.032448   0.000000
    6       19.785240   0.000000
    7       29.899682   0.000000
    8       30.579912   0.000000
 
  0.6666667E-01  0.6666667E-01  0.0000000E+00  0.7111111E-02
    1       -3.908772   1.000000
    2       18.183154   0.000000
    3       18.729026   0.000000
    4       20.078194   0.000000
    5       22.147175   0.000000
    6       23.502674   0.000000
    7       24.458653   0.000000
    8       24.997746   0.000000
 
  0.1333333E+00  0.6666667E-01 -0.6938894E-17  0.1422222E-01
    1       -3.366151   1.000000
    2       15.712490   0.000000
    3       17.274440   0.000000
    4       19.109393   0.000000
    5       21.668790   0.000000
    6       23.059033   0.000000
    7       24.769538   0.000000
    8       26.390911   0.000000
 
  0.2000000E+00  0.6666667E-01 -0.6938894E-17  0.1422222E-01
    1       -2.554915   1.000000
    2       12.929842   0.000000
    3       16.210165   0.000000
    4       18.195031   0.000000
    5       20.937350   0.000000
    6       22.397105   0.000000
    7       25.325953   0.000000
    8       27.649261   0.000000
 
  0.2666667E+00  0.6666667E-01  0.6938894E-17  0.1422222E-01
    1       -1.478339   1.000000
    2       10.232670   0.000000
    3       15.385237   0.000000
    4       17.426151   0.000000
    5       20.234638   0.000000
    6       21.808671   0.000000
    7       26.121465   0.000000
    8       28.796925   0.000000
 
  0.3333333E+00  0.6666667E-01 -0.2081668E-16  0.1422222E-01
    1       -0.141106   1.000000
    2        7.709858   1.000000
    3       14.794197   0.000000
    4       16.855682   0.000000
    5       19.689853   0.000000
    6       21.341224   0.000000
    7       27.182951   0.000000
    8       29.907851   0.000000
 
  0.4000000E+00  0.6666667E-01  0.6938894E-17  0.1422222E-01
    1        1.448993   1.000000
    2        5.400176   1.000000
    3       14.438625   0.000000
    4       16.506942   0.000000
    5       19.350949   0.000000
    6       21.043339   0.000000
    7       28.445459   0.000000
    8       30.518397   0.000000
 
  0.4666667E+00  0.6666667E-01  0.6938894E-17  0.7111111E-02
    1        3.103124   1.000000
    2        3.505024   1.000000
    3       14.319941   0.000000
    4       16.389781   0.000000
    5       19.236320   0.000000
    6       20.941399   0.000000
    7       29.594559   0.000000
    8       29.951947   0.000000
 
  0.1333333E+00  0.1333333E+00  0.0000000E+00  0.7111111E-02
    1       -2.689876   1.000000
    2       14.350215   0.000000
    3       14.816038   0.000000
    4       18.051740   0.000000
    5       21.878366   0.000000
    6       22.977706   0.000000
    7       25.454096   0.000000
    8       26.756974   0.000000
 
  0.2000000E+00  0.1333333E+00  0.1387779E-16  0.1422222E-01
    1       -1.746855   1.000000
    2       11.821515   0.000000
    3       13.644685   0.000000
    4       17.188586   0.000000
    5       21.528077   0.000000
    6       23.030340   0.000000
    7       25.760444   0.000000
    8       28.185787   0.000000
 
  0.2666667E+00  0.1333333E+00  0.0000000E+00  0.1422222E-01
    1       -0.540990   1.000000
    2        9.225911   1.000000
    3       12.901855   0.000000
    4       16.515010   0.000000
    5       20.974467   0.000000
    6       23.262728   0.000000
    7       26.020211   0.000000
    8       29.779300   0.000000
 
  0.3333333E+00  0.1333333E+00  0.0000000E+00  0.1422222E-01
    1        0.922013   1.000000
    2        6.813906   1.000000
    3       12.408797   0.000000
    4       16.055709   0.000000
    5       20.550128   0.000000
    6       23.306969   0.000000
    7       26.809889   0.000000
    8       30.319468   0.000000
 
  0.4000000E+00  0.1333333E+00  0.0000000E+00  0.1422222E-01
    1        2.627352   1.000000
    2        4.629460   1.000000
    3       12.162017   0.000000
    4       15.823488   0.000000
    5       20.328612   0.000000
    6       23.266906   0.000000
    7       27.994490   0.000000
    8       29.428778   0.000000
 
  0.2000000E+00  0.2000000E+00  0.0000000E+00  0.7111111E-02
    1       -0.674470   1.000000
    2       10.799886   0.000000
    3       11.151880   0.000000
    4       16.419763   0.000000
    5       22.044241   0.000000
    6       22.931792   0.000000
    7       27.326155   0.000000
    8       28.253961   0.000000
 
  0.2666667E+00  0.2000000E+00  0.1387779E-16  0.1422222E-01
    1        0.657570   1.000000
    2        8.460682   1.000000
    3       10.365350   0.000000
    4       15.854378   0.000000
    5       21.899184   0.000000
    6       23.576885   0.000000
    7       27.459963   0.000000
    8       29.401561   0.000000
 
  0.3333333E+00  0.2000000E+00  0.1387779E-16  0.1422222E-01
    1        2.241551   1.000000
    2        6.170872   1.000000
    3        9.981972   0.001102
    4       15.508956   0.000000
    5       21.636611   0.000000
    6       24.483897   0.000000
    7       27.296004   0.000000
    8       29.345603   0.000000
 
  0.4000000E+00  0.2000000E+00  0.1387779E-16  0.7111111E-02
    1        3.896979   1.000000
    2        4.277569   1.000000
    3        9.855016   0.701757
    4       15.392889   0.000000
    5       21.538483   0.000000
    6       24.942709   0.000000
    7       27.266593   0.000000
    8       28.916252   0.000000
 
  0.2666667E+00  0.2666667E+00  0.0000000E+00  0.7111111E-02
    1        2.111449   1.000000
    2        7.811283   1.000000
    3        8.120883   1.000000
    4       15.402691   0.000000
    5       22.768234   0.000000
    6       23.667179   0.000000
    7       27.856416   0.000000
    8       29.712522   0.000000
 
  0.3333333E+00  0.2666667E+00  0.0000000E+00  0.1422222E-01
    1        3.805872   1.000000
    2        5.785430   1.000000
    3        7.724821   1.000000
    4       15.173308   0.000000
    5       22.891730   0.000000
    6       24.673045   0.000000
    7       26.526939   0.000000
    8       30.533935   0.000000
 
  0.3333333E+00  0.3333333E+00  0.0000000E+00  0.2370370E-02
    1        5.314433   1.000000
    2        5.819542   1.000000
    3        5.819542   1.000000
    4       15.060001   0.000000
    5       23.703570   0.000000
    6       25.141463   0.000000
    7       25.141463   0.000000
    8       32.526329   0.000000
 
  0.6666667E-01  0.6666667E-01  0.6666667E-01  0.2370370E-02
    1       -3.501680   1.000000
    2       16.715738   0.000000
    3       17.703363   0.000000
    4       17.703363   0.000000
    5       23.363968   0.000000
    6       23.363968   0.000000
    7       25.497931   0.000000
    8       25.497931   0.000000
 
  0.1333333E+00  0.6666667E-01  0.6666667E-01  0.7111111E-02
    1       -2.824977   1.000000
    2       14.433392   0.000000
    3       15.989975   0.000000
    4       16.643846   0.000000
    5       23.065269   0.000000
    6       23.730365   0.000000
    7       25.827361   0.000000
    8       26.305859   0.000000
 
  0.2000000E+00  0.6666667E-01  0.6666667E-01  0.7111111E-02
    1       -1.881342   1.000000
    2       11.714707   0.000000
    3       14.989199   0.000000
    4       15.726352   0.000000
    5       22.620824   0.000000
    6       23.169928   0.000000
    7       27.044982   0.000000
    8       27.045979   0.000000
 
  0.2666667E+00  0.6666667E-01  0.6666667E-01  0.7111111E-02
    1       -0.674682   1.000000
    2        9.105072   1.000000
    3       14.266309   0.000000
    4       15.012568   0.000000
    5       22.166706   0.000000
    6       22.604353   0.000000
    7       27.953396   0.000000
    8       28.362247   0.000000
 
  0.3333333E+00  0.6666667E-01  0.6666667E-01  0.7111111E-02
    1        0.789307   1.000000
    2        6.687768   1.000000
    3       13.786809   0.000000
    4       14.527774   0.000000
    5       21.816409   0.000000
    6       22.196127   0.000000
    7       29.034211   0.000000
    8       29.676245   0.000000
 
  0.4000000E+00  0.6666667E-01  0.6666667E-01  0.7111111E-02
    1        2.495708   1.000000
    2        4.500698   1.000000
    3       13.547159   0.000000
    4       14.283167   0.000000
    5       21.629425   0.000000
    6       21.985185   0.000000
    7       30.057438   0.000000
    8       30.705668   0.000000
 
 -0.6666667E-01  0.6666667E-01  0.6666667E-01  0.1777778E-02
    1       -4.044652   1.000000
    2       19.229720   0.000000
    3       19.229720   0.000000
    4       20.251056   0.000000
    5       22.703237   0.000000
    6       23.646381   0.000000
    7       23.784079   0.000000
    8       23.784079   0.000000
 
  0.1333333E+00  0.1333333E+00  0.6666667E-01  0.7111111E-02
    1       -2.015855   1.000000
    2       13.163770   0.000000
    3       13.676880   0.000000
    4       15.327397   0.000000
    5       23.658918   0.000000
    6       24.534648   0.000000
    7       26.144718   0.000000
    8       27.114325   0.000000
 
  0.2000000E+00  0.1333333E+00  0.6666667E-01  0.1422222E-01
    1       -0.942055   1.000000
    2       10.718969   0.000000
    3       12.590935   0.000000
    4       14.483681   0.000000
    5       23.585653   0.000000
    6       24.617998   0.000000
    7       26.953709   0.000000
    8       28.350320   0.000000
 
  0.2666667E+00  0.1333333E+00  0.6666667E-01  0.1422222E-01
    1        0.391837   1.000000
    2        8.217900   1.000000
    3       11.962384   0.000000
    4       13.879581   0.000000
    5       23.269049   0.000000
    6       24.536952   0.000000
    7       27.842276   0.000000
    8       29.782245   0.000000
 
  0.3333333E+00  0.1333333E+00  0.6666667E-01  0.1422222E-01
    1        1.978138   1.000000
    2        5.917081   1.000000
    3       11.588627   0.000000
    4       13.514787   0.000000
    5       23.017033   0.000000
    6       24.422252   0.000000
    7       28.957110   0.000000
    8       30.647576   0.000000
 
  0.4000000E+00  0.1333333E+00  0.6666667E-01  0.7111111E-02
    1        3.633123   1.000000
    2        4.022339   1.000000
    3       11.464110   0.000000
    4       13.392787   0.000000
    5       22.926309   0.000000
    6       24.372386   0.000000
    7       29.896403   0.000000
    8       30.400356   0.000000
 
 -0.1333333E+00  0.1333333E+00  0.6666667E-01  0.7111111E-02
    1       -3.637257   1.000000
    2       17.069126   0.000000
    3       17.930945   0.000000
    4       19.711628   0.000000
    5       22.082897   0.000000
    6       22.378047   0.000000
    7       24.245256   0.000000
    8       25.411258   0.000000
 
  0.2000000E+00  0.2000000E+00  0.6666667E-01  0.7111111E-02
    1        0.259111   1.000000
    2        9.812390   0.958640
    3       10.171801   0.000000
    4       13.749629   0.000000
    5       24.218777   0.000000
    6       25.221577   0.000000
    7       28.087697   0.000000
    8       28.921472   0.000000
 
  0.2666667E+00  0.2000000E+00  0.6666667E-01  0.1422222E-01
    1        1.716495   1.000000
    2        7.575815   1.000000
    3        9.503649   1.000000
    4       13.263616   0.000000
    5       24.309549   0.000000
    6       25.811805   0.000000
    7       28.590166   0.000000
    8       30.034687   0.000000
 
  0.3333333E+00  0.2000000E+00  0.6666667E-01  0.1422222E-01
    1        3.415667   1.000000
    2        5.406093   1.000000
    3        9.244567   1.000000
    4       13.019887   0.000000
    5       24.219976   0.000000
    6       26.332549   0.000000
    7       28.900981   0.000000
    8       30.249366   0.000000
 
 -0.2000000E+00  0.2000000E+00  0.6666667E-01  0.7111111E-02
    1       -2.960081   1.000000
    2       14.333958   0.000000
    3       16.787264   0.000000
    4       19.086963   0.000000
    5       21.080772   0.000000
    6       21.835729   0.000000
    7       24.297617   0.000000
    8       27.643121   0.000000
 
 -0.1333333E+00  0.2000000E+00  0.6666667E-01  0.7111111E-02
    1       -3.095315   1.000000
    2       15.673866   0.000000
    3       15.990350   0.000000
    4       19.118101   0.000000
    5       21.332546   0.000000
    6       21.832730   0.000000
    7       25.131735   0.000000
    8       26.042995   0.000000
 
  0.2666667E+00  0.2666667E+00  0.6666667E-01  0.7111111E-02
    1        3.291009   1.000000
    2        7.050210   1.000000
    3        7.366708   1.000000
    4       12.898377   0.000000
    5       25.169048   0.000000
    6       26.335732   0.000000
    7       28.843944   0.000000
    8       30.605012   0.000000
 
  0.3333333E+00  0.2666667E+00  0.6666667E-01  0.7111111E-02
    1        4.932680   1.000000
    2        5.311378   1.000000
    3        7.098796   1.000000
    4       12.776515   0.000000
    5       25.384101   0.000000
    6       27.034709   0.000000
    7       28.016039   0.000000
    8       31.389437   0.000000
 
 -0.2666667E+00  0.2666667E+00  0.6666667E-01  0.7111111E-02
    1       -2.015827   1.000000
    2       11.586303   0.000000
    3       15.856848   0.000000
    4       18.357616   0.000000
    5       20.179377   0.000000
    6       21.539062   0.000000
    7       24.542641   0.000000
    8       29.376528   0.000000
 
 -0.2000000E+00  0.2666667E+00  0.6666667E-01  0.1422222E-01
    1       -2.285111   1.000000
    2       13.125323   0.000000
    3       14.792012   0.000000
    4       18.596514   0.000000
    5       20.784922   0.000000
    6       21.418081   0.000000
    7       25.142961   0.000000
    8       27.808700   0.000000
 
 -0.3333333E+00  0.3333333E+00  0.6666667E-01  0.7111111E-02
    1       -0.808436   1.000000
    2        8.974726   1.000000
    3       15.153859   0.000000
    4       17.728713   0.000000
    5       19.470682   0.000000
    6       21.217571   0.000000
    7       25.248546   0.000000
    8       30.282236   0.000000
 
 -0.2666667E+00  0.3333333E+00  0.6666667E-01  0.1422222E-01
    1       -1.209927   1.000000
    2       10.466118   0.000000
    3       13.945619   0.000000
    4       17.975108   0.000000
    5       20.093951   0.000000
    6       21.721099   0.000000
    7       24.906848   0.000000
    8       29.669552   0.000000
 
 -0.2000000E+00  0.3333333E+00  0.6666667E-01  0.7111111E-02
    1       -1.343935   1.000000
    2       12.000711   0.000000
    3       12.329433   0.000000
    4       18.359884   0.000000
    5       20.689025   0.000000
    6       20.840326   0.000000
    7       26.786669   0.000000
    8       27.679204   0.000000
 
 -0.4000000E+00  0.4000000E+00  0.6666667E-01  0.7111111E-02
    1        0.656350   1.000000
    2        6.557065   1.000000
    3       14.683437   0.000000
    4       17.285510   0.000000
    5       18.987554   0.000000
    6       20.932072   0.000000
    7       26.340194   0.000000
    8       30.327166   0.000000
 
 -0.3333333E+00  0.4000000E+00  0.6666667E-01  0.1422222E-01
    1        0.125537   1.000000
    2        7.958117   1.000000
    3       13.339646   0.000000
    4       17.460674   0.000000
    5       19.527474   0.000000
    6       22.107818   0.000000
    7       25.080626   0.000000
    8       29.912545   0.000000
 
 -0.2666667E+00  0.4000000E+00  0.6666667E-01  0.1422222E-01
    1       -0.140485   1.000000
    2        9.582124   1.000000
    3       11.437138   0.000000
    4       17.946420   0.000000
    5       20.150906   0.000000
    6       21.405095   0.000000
    7       26.673946   0.000000
    8       28.855604   0.000000
 
 -0.4666667E+00  0.4666667E+00  0.6666667E-01  0.7111111E-02
    1        2.363485   1.000000
    2        4.369537   1.000000
    3       14.447790   0.000000
    4       17.058597   0.000000
    5       18.743465   0.000000
    6       20.769903   0.000000
    7       27.688751   0.000000
    8       29.186426   0.000000
 
 -0.4000000E+00  0.4666667E+00  0.6666667E-01  0.1422222E-01
    1        1.713483   1.000000
    2        5.655776   1.000000
    3       12.974976   0.000000
    4       17.135597   0.000000
    5       19.173684   0.000000
    6       22.274424   0.000000
    7       25.874130   0.000000
    8       28.734835   0.000000
 
 -0.3333333E+00  0.4666667E+00  0.6666667E-01  0.1422222E-01
    1        1.319451   1.000000
    2        7.190204   1.000000
    3       10.933381   0.000000
    4       17.583317   0.000000
    5       19.698370   0.000000
    6       22.398063   0.000000
    7       26.163786   0.000000
    8       28.605568   0.000000
 
 -0.2666667E+00  0.4666667E+00  0.6666667E-01  0.7111111E-02
    1        1.187718   1.000000
    2        8.815146   1.000000
    3        9.112410   1.000000
    4       17.692721   0.000000
    5       20.825790   0.000000
    6       21.068497   0.000000
    7       27.054545   0.000000
    8       28.971931   0.000000
 
 -0.4666667E+00 -0.4666667E+00  0.6666667E-01  0.7111111E-02
    1        3.369223   1.000000
    2        3.760442   1.000000
    3       12.853229   0.000000
    4       17.025247   0.000000
    5       19.054023   0.000000
    6       22.301029   0.000000
    7       26.854315   0.000000
    8       27.559863   0.000000
 
 -0.4000000E+00 -0.4666667E+00  0.6666667E-01  0.1422222E-01
    1        3.021378   1.000000
    2        5.014700   1.000000
    3       10.682501   0.000000
    4       17.385990   0.000000
    5       19.463938   0.000000
    6       23.360459   0.000000
    7       25.612910   0.000000
    8       27.901517   0.000000
 
 -0.3333333E+00 -0.4666667E+00  0.6666667E-01  0.1422222E-01
    1        2.766735   1.000000
    2        6.673242   1.000000
    3        8.595506   1.000000
    4       17.452629   0.000000
    5       20.608276   0.000000
    6       22.191013   0.000000
    7       25.497663   0.000000
    8       29.697826   0.000000
 
 -0.4000000E+00 -0.4000000E+00  0.6666667E-01  0.7111111E-02
    1        4.421439   1.000000
    2        4.786794   1.000000
    3        8.464680   1.000000
    4       17.363040   0.000000
    5       20.501611   0.000000
    6       23.296948   0.000000
    7       24.243858   0.000000
    8       29.784458   0.000000
 
 -0.3333333E+00 -0.4000000E+00  0.6666667E-01  0.7111111E-02
    1        4.449348   1.000000
    2        6.291096   1.000000
    3        6.577351   1.000000
    4       17.318275   0.000000
    5       21.708060   0.000000
    6       22.277725   0.000000
    7       23.799545   0.000000
    8       31.663612   0.000000
 
  0.1333333E+00  0.1333333E+00  0.1333333E+00  0.2370370E-02
    1       -1.075942   1.000000
    2       12.049073   0.000000
    3       12.717336   0.000000
    4       12.717336   0.000000
    5       25.314714   0.000000
    6       25.314714   0.000000
    7       27.349604   0.000000
    8       27.349604   0.000000
 
  0.2000000E+00  0.1333333E+00  0.1333333E+00  0.7111111E-02
    1        0.126087   1.000000
    2        9.841312   0.820448
    3       11.580866   0.000000
    4       11.980797   0.000000
    5       25.552976   0.000000
    6       25.887678   0.000000
    7       28.384570   0.000000
    8       28.526161   0.000000
 
  0.2666667E+00  0.1333333E+00  0.1333333E+00  0.7111111E-02
    1        1.584581   1.000000
    2        7.454182   1.000000
    3       11.063499   0.000000
    4       11.484012   0.000000
    5       25.564965   0.000000
    6       25.793887   0.000000
    7       29.593211   0.000000
    8       29.870479   0.000000
 
  0.3333333E+00  0.1333333E+00  0.1333333E+00  0.7111111E-02
    1        3.285148   1.000000
    2        5.278615   1.000000
    3       10.811063   0.000000
    4       11.234202   0.000000
    5       25.526775   0.000000
    6       25.682416   0.000000
    7       30.460427   0.000000
    8       31.000159   0.000000
 
 -0.1333333E+00  0.1333333E+00  0.1333333E+00  0.1777778E-02
    1       -3.230643   1.000000
    2       16.629277   0.000000
    3       16.629277   0.000000
    4       18.258628   0.000000
    5       20.513445   0.000000
    6       23.499114   0.000000
    7       25.030234   0.000000
    8       25.030234   0.000000
 
  0.2000000E+00  0.2000000E+00  0.1333333E+00  0.7111111E-02
    1        1.452994   1.000000
    2        9.052949   1.000000
    3        9.423890   1.000000
    4       11.179293   0.000000
    5       26.463133   0.000000
    6       27.176391   0.000000
    7       29.094156   0.000000
    8       29.569711   0.000000
 
  0.2666667E+00  0.2000000E+00  0.1333333E+00  0.1422222E-01
    1        3.030902   1.000000
    2        6.938744   1.000000
    3        8.874953   1.000000
    4       10.798870   0.000000
    5       26.777106   0.000000
    6       27.714203   0.000000
    7       29.988027   0.000000
    8       30.640592   0.000000
 
  0.3333333E+00  0.2000000E+00  0.1333333E+00  0.7111111E-02
    1        4.680759   1.000000
    2        5.056598   1.000000
    3        8.742605   1.000000
    4       10.673001   0.000000
    5       26.821546   0.000000
    6       27.881929   0.000000
    7       30.375788   0.000000
    8       31.156849   0.000000
 
 -0.2000000E+00  0.2000000E+00  0.1333333E+00  0.7111111E-02
    1       -2.554753   1.000000
    2       14.534301   0.000000
    3       15.470797   0.000000
    4       17.664219   0.000000
    5       19.633851   0.000000
    6       23.046293   0.000000
    7       25.220862   0.000000
    8       26.773453   0.000000
 
  0.2666667E+00  0.2666667E+00  0.1333333E+00  0.7111111E-02
    1        4.712039   1.000000
    2        6.549714   1.000000
    3        6.860439   1.000000
    4       10.542558   0.000000
    5       27.566335   0.000000
    6       28.822760   0.000000
    7       29.904640   0.000000
    8       31.474358   0.000000
 
 -0.2666667E+00  0.2666667E+00  0.1333333E+00  0.7111111E-02
    1       -1.612316   1.000000
    2       11.909077   0.000000
    3       14.525498   0.000000
    4       17.026981   0.000000
    5       19.830575   0.000000
    6       22.221404   0.000000
    7       24.895564   0.000000
    8       29.235863   0.000000
 
 -0.2000000E+00  0.2666667E+00  0.1333333E+00  0.7111111E-02
    1       -1.746609   1.000000
    2       13.349326   0.000000
    3       13.578824   0.000000
    4       17.284005   0.000000
    5       18.764885   0.000000
    6       22.871467   0.000000
    7       26.462307   0.000000
    8       27.149963   0.000000
 
 -0.3333333E+00  0.3333333E+00  0.1333333E+00  0.7111111E-02
    1       -0.407296   1.000000
    2        9.336023   1.000000
    3       13.810428   0.000000
    4       16.384712   0.000000
    5       20.501302   0.000000
    6       21.542461   0.000000
    7       24.579652   0.000000
    8       29.471566   0.000000
 
 -0.2666667E+00  0.3333333E+00  0.1333333E+00  0.1422222E-01
    1       -0.674241   1.000000
    2       10.914171   0.000000
    3       12.626008   0.000000
    4       16.924281   0.000000
    5       18.969236   0.000000
    6       22.252732   0.000000
    7       26.211877   0.000000
    8       28.465712   0.000000
 
 -0.4000000E+00  0.4000000E+00  0.1333333E+00  0.7111111E-02
    1        1.054511   1.000000
    2        6.934985   1.000000
    3       13.331705   0.000000
    4       15.921035   0.000000
    5       21.074563   0.000000
    6       21.212913   0.000000
    7       24.589529   0.000000
    8       28.241990   0.000000
 
 -0.3333333E+00  0.4000000E+00  0.1333333E+00  0.1422222E-01
    1        0.657577   1.000000
    2        8.448403   1.000000
    3       12.010201   0.000000
    4       16.431069   0.000000
    5       19.784540   0.000000
    6       21.817706   0.000000
    7       25.477959   0.000000
    8       28.077480   0.000000
 
 -0.2666667E+00  0.4000000E+00  0.1333333E+00  0.7111111E-02
    1        0.525039   1.000000
    2       10.039917   0.000001
    3       10.311768   0.000000
    4       17.346024   0.000000
    5       18.677402   0.000000
    6       21.793978   0.000000
    7       26.473187   0.000000
    8       28.429350   0.000000
 
 -0.4666667E+00  0.4666667E+00  0.1333333E+00  0.7111111E-02
    1        2.758447   1.000000
    2        4.755613   1.000000
    3       13.091864   0.000000
    4       15.682894   0.000000
    5       20.837295   0.000000
    6       21.636038   0.000000
    7       25.075167   0.000000
    8       26.915835   0.000000
 
 -0.4000000E+00  0.4666667E+00  0.1333333E+00  0.1422222E-01
    1        2.240985   1.000000
    2        6.164131   1.000000
    3       11.640565   0.000000
    4       16.096529   0.000000
    5       20.499532   0.000000
    6       21.910046   0.000000
    7       24.525400   0.000000
    8       27.298077   0.000000
 
 -0.3333333E+00  0.4666667E+00  0.1333333E+00  0.1422222E-01
    1        1.979557   1.000000
    2        7.807606   1.000000
    3        9.684513   1.000000
    4       17.264872   0.000000
    5       19.356108   0.000000
    6       21.504813   0.000000
    7       24.788077   0.000000
    8       29.044028   0.000000
 
 -0.4666667E+00 -0.4666667E+00  0.1333333E+00  0.7111111E-02
    1        3.898948   1.000000
    2        4.270109   1.000000
    3       11.517226   0.000000
    4       15.981542   0.000000
    5       20.660229   0.000000
    6       22.434818   0.000000
    7       23.776741   0.000000
    8       27.009195   0.000000
 
 -0.4000000E+00 -0.4666667E+00  0.1333333E+00  0.1422222E-01
    1        3.674964   1.000000
    2        5.652657   1.000000
    3        9.428711   1.000000
    4       17.102903   0.000000
    5       20.105710   0.000000
    6       21.827025   0.000000
    7       23.106459   0.000000
    8       29.071294   0.000000
 
 -0.3333333E+00 -0.4666667E+00  0.1333333E+00  0.7111111E-02
    1        3.549925   1.000000
    2        7.296994   1.000000
    3        7.575601   1.000000
    4       17.925489   0.000000
    5       19.579618   0.000000
    6       21.253287   0.000000
    7       23.053855   0.000000
    8       30.941292   0.000000
 
 -0.4000000E+00 -0.4000000E+00  0.1333333E+00  0.7111111E-02
    1        5.196596   1.000000
    2        5.546597   1.000000
    3        7.323734   1.000000
    4       18.054619   0.000000
    5       20.167015   0.000000
    6       21.304729   0.000000
    7       21.880243   0.000000
    8       31.543173   0.000000
 
  0.2000000E+00  0.2000000E+00  0.2000000E+00  0.2370370E-02
    1        2.901243   1.000000
    2        8.414984   1.000000
    3        8.920984   1.000000
    4        8.920984   1.000000
    5       28.393606   0.000000
    6       28.393606   0.000000
    7       30.181291   0.000000
    8       30.181291   0.000000
 
  0.2666667E+00  0.2000000E+00  0.2000000E+00  0.7111111E-02
    1        4.588119   1.000000
    2        6.556645   1.000000
    3        8.362897   1.000000
    4        8.668474   1.000000
    5       28.930346   0.000000
    6       29.266173   0.000000
    7       30.880155   0.000000
    8       31.153573   0.000000
 
 -0.2000000E+00  0.2000000E+00  0.2000000E+00  0.1777778E-02
    1       -1.880999   1.000000
    2       14.299963   0.000000
    3       14.299963   0.000000
    4       16.212556   0.000000
    5       17.814115   0.000000
    6       24.817635   0.000000
    7       26.353942   0.000000
    8       26.353942   0.000000
 