   2   2   0   0
  0.2016476E+02  0.3849278E-09  0.3849279E-09  0.3849278E-09  0.5000000E-15
  1.000000000000000E-004
  CAR 
 unknown system                          
     16.48790351     -7.27430579  301      5.87659192      1.00000000
     -7.274  0.0000E+00  0.0000E+00
     -7.195  0.0000E+00  0.0000E+00
     -7.116  0.0000E+00  0.0000E+00
     -7.037  0.0000E+00  0.0000E+00
     -6.957  0.0000E+00  0.0000E+00
     -6.878  0.0000E+00  0.0000E+00
     -6.799  0.0000E+00  0.0000E+00
     -6.720  0.0000E+00  0.0000E+00
     -6.641  0.0000E+00  0.0000E+00
     -6.561  0.0000E+00  0.0000E+00
     -6.482  0.1246E-19  0.9869E-21
     -6.403  0.1309E-12  0.1037E-13
     -6.324  0.9255E-08  0.7331E-09
     -6.245  0.6520E-05  0.5171E-06
     -6.165  0.2187E-03  0.1784E-04
     -6.086  0.8651E-03  0.8636E-04
     -6.007  0.1328E-02  0.1915E-03
     -5.928  0.1884E-02  0.3407E-03
     -5.849  0.1412E-02  0.4526E-03
     -5.769  0.2879E-02  0.6806E-03
     -5.690  0.2506E-02  0.8791E-03
     -5.611  0.1814E-02  0.1023E-02
     -5.532  0.3272E-02  0.1282E-02
     -5.453  0.3775E-02  0.1581E-02
     -5.373  0.3173E-02  0.1832E-02
     -5.294  0.2197E-02  0.2006E-02
     -5.215  0.3864E-02  0.2312E-02
     -5.136  0.4791E-02  0.2692E-02
     -5.056  0.5013E-02  0.3089E-02
     -4.977  0.1995E-02  0.3247E-02
     -4.898  0.4252E-02  0.3584E-02
     -4.819  0.5323E-02  0.4005E-02
     -4.740  0.4349E-02  0.4350E-02
     -4.660  0.6240E-02  0.4844E-02
     -4.581  0.5379E-02  0.5270E-02
     -4.502  0.2973E-02  0.5506E-02
     -4.423  0.5345E-02  0.5929E-02
     -4.344  0.6435E-02  0.6439E-02
     -4.264  0.6757E-02  0.6974E-02
     -4.185  0.7795E-02  0.7591E-02
     -4.106  0.6139E-02  0.8078E-02
     -4.027  0.4632E-02  0.8444E-02
     -3.948  0.6047E-02  0.8923E-02
     -3.868  0.1069E-01  0.9770E-02
     -3.789  0.1195E-01  0.1072E-01
     -3.710  0.9413E-02  0.1146E-01
     -3.631  0.4114E-02  0.1179E-01
     -3.552  0.7278E-02  0.1236E-01
     -3.472  0.9180E-02  0.1309E-01
     -3.393  0.8561E-02  0.1377E-01
     -3.314  0.7713E-02  0.1438E-01
     -3.235  0.9010E-02  0.1509E-01
     -3.156  0.2831E-02  0.1532E-01
     -3.076  0.5596E-02  0.1576E-01
     -2.997  0.6208E-02  0.1625E-01
     -2.918  0.1045E-01  0.1708E-01
     -2.839  0.4709E-02  0.1745E-01
     -2.759  0.3079E-02  0.1770E-01
     -2.680  0.3040E-02  0.1794E-01
     -2.601  0.4209E-02  0.1827E-01
     -2.522  0.9246E-02  0.1900E-01
     -2.443  0.3354E-02  0.1927E-01
     -2.363  0.1292E-02  0.1937E-01
     -2.284  0.1830E-02  0.1952E-01
     -2.205  0.2092E-02  0.1968E-01
     -2.126  0.3343E-02  0.1995E-01
     -2.047  0.1399E-02  0.2006E-01
     -1.967  0.1104E-02  0.2015E-01
     -1.888  0.9154E-03  0.2022E-01
     -1.809  0.1257E-02  0.2032E-01
     -1.730  0.1335E-02  0.2042E-01
     -1.651  0.1996E-02  0.2058E-01
     -1.571  0.5491E-02  0.2102E-01
     -1.492  0.5809E-02  0.2148E-01
     -1.413  0.4483E-02  0.2183E-01
     -1.334  0.2978E-02  0.2207E-01
     -1.255  0.3159E-02  0.2232E-01
     -1.175  0.8127E-02  0.2296E-01
     -1.096  0.1972E-01  0.2452E-01
     -1.017  0.1561E-01  0.2576E-01
     -0.938  0.1104E-01  0.2664E-01
     -0.859  0.7898E-02  0.2726E-01
     -0.779  0.6951E-02  0.2781E-01
     -0.700  0.1103E-01  0.2869E-01
     -0.621  0.8650E-02  0.2937E-01
     -0.542  0.3829E-02  0.2967E-01
     -0.462  0.6841E-02  0.3022E-01
     -0.383  0.8091E-02  0.3086E-01
     -0.304  0.2500E-02  0.3105E-01
     -0.225  0.3958E-02  0.3137E-01
     -0.146  0.8840E-02  0.3207E-01
     -0.066  0.3950E-02  0.3238E-01
      0.013  0.3390E-02  0.3265E-01
      0.092  0.5644E-02  0.3310E-01
      0.171  0.3628E-02  0.3338E-01
      0.250  0.1562E-02  0.3351E-01
      0.330  0.3340E-02  0.3377E-01
      0.409  0.7381E-02  0.3436E-01
      0.488  0.3878E-02  0.3466E-01
      0.567  0.2187E-02  0.3484E-01
      0.646  0.6300E-03  0.3489E-01
      0.726  0.3449E-02  0.3516E-01
      0.805  0.5190E-02  0.3557E-01
      0.884  0.2192E-02  0.3574E-01
      0.963  0.1396E-03  0.3576E-01
      1.042  0.2500E-02  0.3595E-01
      1.122  0.6051E-02  0.3643E-01
      1.201  0.2648E-02  0.3664E-01
      1.280  0.9568E-03  0.3672E-01
      1.359  0.2183E-02  0.3689E-01
      1.439  0.6465E-02  0.3740E-01
      1.518  0.8788E-02  0.3810E-01
      1.597  0.7990E-02  0.3873E-01
      1.676  0.1474E-01  0.3990E-01
      1.755  0.1179E-01  0.4083E-01
      1.835  0.1263E-01  0.4183E-01
      1.914  0.1338E-01  0.4289E-01
      1.993  0.7546E-02  0.4349E-01
      2.072  0.6646E-02  0.4402E-01
      2.151  0.9131E-02  0.4474E-01
      2.231  0.1782E-01  0.4615E-01
      2.310  0.1119E-01  0.4704E-01
      2.389  0.7680E-02  0.4765E-01
      2.468  0.7815E-02  0.4827E-01
      2.547  0.9901E-02  0.4905E-01
      2.627  0.1445E-01  0.5020E-01
      2.706  0.1764E-01  0.5159E-01
      2.785  0.1280E-01  0.5261E-01
      2.864  0.1122E-01  0.5350E-01
      2.943  0.1650E-01  0.5480E-01
      3.023  0.1395E-01  0.5591E-01
      3.102  0.1536E-01  0.5712E-01
      3.181  0.1746E-01  0.5851E-01
      3.260  0.1002E-01  0.5930E-01
      3.339  0.9810E-02  0.6008E-01
      3.419  0.1636E-01  0.6137E-01
      3.498  0.2371E-01  0.6325E-01
      3.577  0.1244E-01  0.6424E-01
      3.656  0.1282E-01  0.6525E-01
      3.736  0.8828E-02  0.6595E-01
      3.815  0.1122E-01  0.6684E-01
      3.894  0.1386E-01  0.6794E-01
      3.973  0.1201E-01  0.6889E-01
      4.052  0.1529E-01  0.7010E-01
      4.132  0.1208E-01  0.7106E-01
      4.211  0.8998E-02  0.7177E-01
      4.290  0.1502E-01  0.7296E-01
      4.369  0.1240E-01  0.7394E-01
      4.448  0.5958E-02  0.7441E-01
      4.528  0.1460E-01  0.7557E-01
      4.607  0.9682E-02  0.7634E-01
      4.686  0.4290E-02  0.7668E-01
      4.765  0.6139E-02  0.7716E-01
      4.844  0.7212E-02  0.7773E-01
      4.924  0.3077E-02  0.7798E-01
      5.003  0.3164E-02  0.7823E-01
      5.082  0.6297E-02  0.7873E-01
      5.161  0.4262E-02  0.7907E-01
      5.240  0.3291E-02  0.7933E-01
      5.320  0.2280E-02  0.7951E-01
      5.399  0.2294E-02  0.7969E-01
      5.478  0.1499E-02  0.7981E-01
      5.557  0.8791E-03  0.7988E-01
      5.636  0.1318E-02  0.7998E-01
      5.716  0.2234E-03  0.8000E-01
      5.795  0.1063E-04  0.8000E-01
      5.874  0.1017E-07  0.8000E-01
      5.953  0.8442E-13  0.8000E-01
      6.033  0.1066E-14  0.8000E-01
      6.112  0.6689E-09  0.8000E-01
      6.191  0.3440E-05  0.8000E-01
      6.270  0.2262E-03  0.8002E-01
      6.349  0.6009E-03  0.8007E-01
      6.429  0.1371E-02  0.8017E-01
      6.508  0.2441E-02  0.8037E-01
      6.587  0.2716E-02  0.8058E-01
      6.666  0.1257E-02  0.8068E-01
      6.745  0.5511E-02  0.8112E-01
      6.825  0.4647E-02  0.8149E-01
      6.904  0.3233E-02  0.8174E-01
      6.983  0.7413E-02  0.8233E-01
      7.062  0.5764E-02  0.8279E-01
      7.141  0.8496E-02  0.8346E-01
      7.221  0.6526E-02  0.8398E-01
      7.300  0.4806E-02  0.8436E-01
      7.379  0.7365E-02  0.8494E-01
      7.458  0.8201E-02  0.8559E-01
      7.537  0.8875E-02  0.8629E-01
      7.617  0.1409E-01  0.8741E-01
      7.696  0.1135E-01  0.8831E-01
      7.775  0.1153E-01  0.8922E-01
      7.854  0.1487E-01  0.9040E-01
      7.934  0.1289E-01  0.9142E-01
      8.013  0.2391E-01  0.9331E-01
      8.092  0.1742E-01  0.9469E-01
      8.171  0.1137E-01  0.9560E-01
      8.250  0.1680E-01  0.9693E-01
      8.330  0.1706E-01  0.9828E-01
      8.409  0.7117E-02  0.9884E-01
      8.488  0.6907E-02  0.9939E-01
      8.567  0.1283E-01  0.1004E+00
      8.646  0.9750E-02  0.1012E+00
      8.726  0.9171E-02  0.1019E+00
      8.805  0.6752E-02  0.1024E+00
      8.884  0.1510E-01  0.1036E+00
      8.963  0.2741E-01  0.1058E+00
      9.042  0.2147E-01  0.1075E+00
      9.122  0.1998E-01  0.1091E+00
      9.201  0.2067E-01  0.1107E+00
      9.280  0.1624E-01  0.1120E+00
      9.359  0.1623E-01  0.1133E+00
      9.438  0.1577E-01  0.1145E+00
      9.518  0.2060E-01  0.1162E+00
      9.597  0.1469E-01  0.1173E+00
      9.676  0.1074E-01  0.1182E+00
      9.755  0.1108E-01  0.1191E+00
      9.834  0.1176E-01  0.1200E+00
      9.914  0.9248E-02  0.1207E+00
      9.993  0.1495E-01  0.1219E+00
     10.072  0.9259E-02  0.1227E+00
     10.151  0.1108E-01  0.1235E+00
     10.231  0.1612E-01  0.1248E+00
     10.310  0.1950E-01  0.1264E+00
     10.389  0.8949E-02  0.1271E+00
     10.468  0.5793E-02  0.1275E+00
     10.547  0.1070E-01  0.1284E+00
     10.627  0.2272E-01  0.1302E+00
     10.706  0.1258E-01  0.1312E+00
     10.785  0.1485E-01  0.1323E+00
     10.864  0.1921E-01  0.1339E+00
     10.943  0.1096E-01  0.1347E+00
     11.023  0.9492E-02  0.1355E+00
     11.102  0.1244E-01  0.1365E+00
     11.181  0.5911E-02  0.1369E+00
     11.260  0.7144E-02  0.1375E+00
     11.339  0.7755E-02  0.1381E+00
     11.419  0.7602E-02  0.1387E+00
     11.498  0.8419E-02  0.1394E+00
     11.577  0.6614E-02  0.1399E+00
     11.656  0.1345E-01  0.1410E+00
     11.735  0.1343E-01  0.1420E+00
     11.815  0.1509E-01  0.1432E+00
     11.894  0.1745E-01  0.1446E+00
     11.973  0.1284E-01  0.1456E+00
     12.052  0.1232E-01  0.1466E+00
     12.131  0.1040E-01  0.1474E+00
     12.211  0.8016E-02  0.1481E+00
     12.290  0.5446E-02  0.1485E+00
     12.369  0.3560E-02  0.1488E+00
     12.448  0.9082E-02  0.1495E+00
     12.528  0.6254E-02  0.1500E+00
     12.607  0.3687E-02  0.1503E+00
     12.686  0.7418E-02  0.1509E+00
     12.765  0.6539E-02  0.1514E+00
     12.844  0.5512E-02  0.1518E+00
     12.924  0.5855E-02  0.1523E+00
     13.003  0.7690E-02  0.1529E+00
     13.082  0.6967E-02  0.1535E+00
     13.161  0.1012E-01  0.1543E+00
     13.240  0.1441E-01  0.1554E+00
     13.320  0.3489E-02  0.1557E+00
     13.399  0.5214E-02  0.1561E+00
     13.478  0.4443E-02  0.1564E+00
     13.557  0.5215E-02  0.1568E+00
     13.636  0.4496E-02  0.1572E+00
     13.716  0.1769E-02  0.1573E+00
     13.795  0.1616E-02  0.1575E+00
     13.874  0.4114E-02  0.1578E+00
     13.953  0.1788E-02  0.1579E+00
     14.032  0.1207E-02  0.1580E+00
     14.112  0.2824E-02  0.1583E+00
     14.191  0.2990E-02  0.1585E+00
     14.270  0.2976E-02  0.1587E+00
     14.349  0.2264E-02  0.1589E+00
     14.429  0.5915E-02  0.1594E+00
     14.508  0.3265E-02  0.1596E+00
     14.587  0.7144E-04  0.1596E+00
     14.666  0.2764E-07  0.1596E+00
     14.745  0.1090E-12  0.1596E+00
     14.825  0.0000E+00  0.1596E+00
     14.904  0.4457E-15  0.1596E+00
     14.983  0.5536E-09  0.1596E+00
     15.062  0.5422E-05  0.1596E+00
     15.141  0.5453E-03  0.1597E+00
     15.221  0.1228E-02  0.1598E+00
     15.300  0.9892E-03  0.1599E+00
     15.379  0.9748E-03  0.1599E+00
     15.458  0.6766E-03  0.1600E+00
     15.537  0.6903E-04  0.1600E+00
     15.617  0.1106E-06  0.1600E+00
     15.696  0.1571E-11  0.1600E+00
     15.775  0.1993E-18  0.1600E+00
     15.854  0.0000E+00  0.1600E+00
     15.933  0.0000E+00  0.1600E+00
     16.013  0.0000E+00  0.1600E+00
     16.092  0.0000E+00  0.1600E+00
     16.171  0.0000E+00  0.1600E+00
     16.250  0.0000E+00  0.1600E+00
     16.329  0.0000E+00  0.1600E+00
     16.409  0.0000E+00  0.1600E+00
     16.488  0.0000E+00  0.1600E+00
