    2    2  100    1
  0.2016476E+02  0.3849278E-09  0.3849279E-09  0.3849278E-09  0.5000000E-15
  1.000000000000000E-004
  CAR 
 unknown system                          
      8    120      8
 
  0.0000000E+00  0.0000000E+00  0.0000000E+00  0.2962963E-03
    1       -6.194205   1.000000
    2        5.656512   1.000000
    3        5.656516   1.000000
    4        5.656518   1.000000
    5        8.219252   0.000000
    6        8.219258   0.000000
    7        8.219260   0.000000
    8        8.781364   0.000000
 
  0.6666667E-01 -0.3469447E-17  0.0000000E+00  0.2370370E-02
    1       -6.136931   1.000000
    2        5.058340   1.000000
    3        5.561253   1.000000
    4        5.561258   1.000000
    5        8.253640   0.000000
    6        8.357289   0.000000
    7        8.357296   0.000000
    8        9.246417   0.000000
 
  0.1333333E+00 -0.6938894E-17  0.0000000E+00  0.2370370E-02
    1       -5.966056   1.000000
    2        3.901428   1.000000
    3        5.337476   1.000000
    4        5.337480   1.000000
    5        8.073401   0.000000
    6        8.683351   0.000000
    7        8.683357   0.000000
    8       10.336603   0.000000
 
  0.2000000E+00  0.0000000E+00  0.0000000E+00  0.2370370E-02
    1       -5.685614   1.000000
    2        2.655379   1.000000
    3        5.080777   1.000000
    4        5.080782   1.000000
    5        7.814443   0.000000
    6        9.015062   0.000000
    7        9.015069   0.000000
    8       11.539602   0.000000
 
  0.2666667E+00 -0.1387779E-16  0.0000000E+00  0.2370370E-02
    1       -5.304067   1.000000
    2        1.456246   1.000000
    3        4.846917   1.000000
    4        4.846922   1.000000
    5        7.559846   0.000000
    6        9.191800   0.000000
    7        9.191807   0.000000
    8       12.686172   0.000000
 
  0.3333333E+00 -0.1387779E-16  0.0000000E+00  0.2370370E-02
    1       -4.841689   1.000000
    2        0.361400   1.000000
    3        4.661795   1.000000
    4        4.661800   1.000000
    5        7.354450   0.000000
    6        9.186618   0.000000
    7        9.186626   0.000000
    8       13.443608   0.000000
 
  0.4000000E+00 -0.2775558E-16  0.0000000E+00  0.2370370E-02
    1       -4.349529   1.000000
    2       -0.560322   1.000000
    3        4.535048   1.000000
    4        4.535053   1.000000
    5        7.210695   0.000000
    6        9.106575   0.000000
    7        9.106583   0.000000
    8       13.462696   0.000000
 
  0.4666667E+00 -0.2775558E-16  0.0000000E+00  0.2370370E-02
    1       -3.970244   1.000000
    2       -1.155836   1.000000
    3        4.469221   1.000000
    4        4.469226   1.000000
    5        7.136177   0.000000
    6        9.035042   0.000000
    7        9.035051   0.000000
    8       13.373024   0.000000
 
  0.6666667E-01  0.6666667E-01  0.0000000E+00  0.1777778E-02
    1       -6.117731   1.000000
    2        5.169760   1.000000
    3        5.366524   1.000000
    4        5.366528   1.000000
    5        8.040114   0.000000
    6        8.602799   0.000000
    7        8.602803   0.000000
    8        9.244185   0.000000
 
  0.1333333E+00  0.6666667E-01  0.0000000E+00  0.7111111E-02
    1       -5.984511   1.000000
    2        4.239991   1.000000
    3        5.090829   1.000000
    4        5.258086   1.000000
    5        8.038316   0.000000
    6        8.663596   0.000000
    7        9.000188   0.000000
    8       10.044915   0.000000
 
  0.2000000E+00  0.6666667E-01  0.0000000E+00  0.7111111E-02
    1       -5.740149   1.000000
    2        3.045422   1.000000
    3        4.818032   1.000000
    4        5.040075   1.000000
    5        8.116054   0.000000
    6        8.662606   0.000000
    7        9.387808   0.000000
    8       10.939740   0.000000
 
  0.2666667E+00  0.6666667E-01  0.0000000E+00  0.7111111E-02
    1       -5.391095   1.000000
    2        1.847603   1.000000
    3        4.591172   1.000000
    4        4.767626   1.000000
    5        7.971928   0.000000
    6        8.857407   0.000000
    7        9.608273   0.000000
    8       11.451672   0.000000
 
  0.3333333E+00  0.6666667E-01  0.0000000E+00  0.7111111E-02
    1       -4.952454   1.000000
    2        0.724950   1.000000
    3        4.429071   1.000000
    4        4.505458   1.000000
    5        7.778691   0.000000
    6        8.958883   0.000000
    7        9.600547   0.000000
    8       12.029540   0.000000
 
  0.4000000E+00  0.6666667E-01  0.0000000E+00  0.7111111E-02
    1       -4.460859   1.000000
    2       -0.258113   1.000000
    3        4.284781   1.000000
    4        4.340534   1.000000
    5        7.622660   0.000000
    6        8.948452   0.000000
    7        9.465595   0.000000
    8       12.823480   0.000000
 
  0.4666667E+00  0.6666667E-01  0.0000000E+00  0.7111111E-02
    1       -4.017555   1.000000
    2       -0.985285   1.000000
    3        4.121362   1.000000
    4        4.327290   1.000000
    5        7.528400   0.000000
    6        8.936937   0.000000
    7        9.316495   0.000000
    8       13.434880   0.000000
 
 -0.4666667E+00  0.6666667E-01  0.0000000E+00  0.7111111E-02
    1       -3.866022   1.000000
    2       -1.207799   1.000000
    3        4.023388   1.000000
    4        4.385950   1.000000
    5        7.504366   0.000000
    6        8.988987   0.000000
    7        9.218153   0.000000
    8       13.564941   0.000000
 
 -0.4000000E+00  0.6666667E-01  0.0000000E+00  0.7111111E-02
    1       -4.148814   1.000000
    2       -0.782178   1.000000
    3        3.996331   1.000000
    4        4.511117   1.000000
    5        7.551307   0.000000
    6        9.112937   0.000000
    7        9.172887   0.000000
    8       13.539148   0.000000
 
 -0.3333333E+00  0.6666667E-01  0.0000000E+00  0.7111111E-02
    1       -4.627201   1.000000
    2        0.050937   1.000000
    3        4.044948   1.000000
    4        4.694446   1.000000
    5        7.665892   0.000000
    6        9.166060   0.000000
    7        9.267056   0.000000
    8       13.147278   0.000000
 
 -0.2666667E+00  0.6666667E-01  0.0000000E+00  0.7111111E-02
    1       -5.107665   1.000000
    2        1.088192   1.000000
    3        4.172393   1.000000
    4        4.924714   1.000000
    5        7.843322   0.000000
    6        9.121945   0.000000
    7        9.376338   0.000000
    8       12.392889   0.000000
 
 -0.2000000E+00  0.6666667E-01  0.0000000E+00  0.7111111E-02
    1       -5.518880   1.000000
    2        2.239138   1.000000
    3        4.381980   1.000000
    4        5.181670   1.000000
    5        8.069694   0.000000
    6        8.937341   0.000000
    7        9.293559   0.000000
    8       11.645224   0.000000
 
 -0.1333333E+00  0.6666667E-01  0.0000000E+00  0.7111111E-02
    1       -5.833896   1.000000
    2        3.433277   1.000000
    3        4.670433   1.000000
    4        5.425656   1.000000
    5        8.311172   0.000000
    6        8.631015   0.000000
    7        8.939993   0.000000
    8       10.819768   0.000000
 
 -0.6666667E-01  0.6666667E-01  0.0000000E+00  0.3555556E-02
    1       -6.041651   1.000000
    2        4.493236   1.000000
    3        5.075724   1.000000
    4        5.581489   1.000000
    5        8.377713   0.000000
    6        8.475234   0.000000
    7        8.488591   0.000000
    8        9.878509   0.000000
 
  0.1333333E+00  0.1333333E+00  0.0000000E+00  0.1777778E-02
    1       -5.888964   1.000000
    2        4.159880   1.000000
    3        4.784346   1.000000
    4        4.784348   1.000000
    5        7.616947   0.000000
    6        9.465087   0.000000
    7        9.465088   0.000000
    8        9.922042   0.000000
 
  0.2000000E+00  0.1333333E+00  0.0000000E+00  0.7111111E-02
    1       -5.681292   1.000000
    2        3.280378   1.000000
    3        4.495204   1.000000
    4        4.565385   1.000000
    5        7.585034   0.000000
    6        9.475776   0.000000
    7        9.934978   0.000000
    8       10.286623   0.000000
 
  0.2666667E+00  0.1333333E+00  0.0000000E+00  0.7111111E-02
    1       -5.366600   1.000000
    2        2.182702   1.000000
    3        4.260142   1.000000
    4        4.277075   1.000000
    5        7.778907   0.000000
    6        9.386872   0.000000
    7       10.246909   0.000000
    8       10.343838   0.000000
 
  0.3333333E+00  0.1333333E+00  0.0000000E+00  0.7111111E-02
    1       -4.955810   1.000000
    2        1.089543   1.000000
    3        3.948595   1.000000
    4        4.101292   1.000000
    5        7.877804   0.000000
    6        9.406236   0.000000
    7       10.299199   0.000000
    8       10.559197   0.000000
 
  0.4000000E+00  0.1333333E+00  0.0000000E+00  0.7111111E-02
    1       -4.475458   1.000000
    2        0.086653   1.000000
    3        3.643109   1.000000
    4        4.023974   1.000000
    5        7.849531   0.000000
    6        9.353717   0.000000
    7       10.171191   0.000000
    8       11.262305   0.000000
 
  0.4666667E+00  0.1333333E+00  0.0000000E+00  0.7111111E-02
    1       -3.995996   1.000000
    2       -0.727579   1.000000
    3        3.392577   1.000000
    4        4.031966   1.000000
    5        7.820227   0.000000
    6        9.279996   0.000000
    7        9.974750   0.000000
    8       12.275385   0.000000
 
 -0.4666667E+00  0.1333333E+00  0.0000000E+00  0.7111111E-02
    1       -3.713365   1.000000
    2       -1.144200   1.000000
    3        3.212411   1.000000
    4        4.121393   1.000000
    5        7.846985   0.000000
    6        9.258589   0.000000
    7        9.797229   0.000000
    8       13.373920   0.000000
 
 -0.4000000E+00  0.1333333E+00  0.0000000E+00  0.7111111E-02
    1       -3.869605   1.000000
    2       -0.917350   1.000000
    3        3.114645   1.000000
    4        4.285426   1.000000
    5        7.943702   0.000000
    6        9.312756   0.000000
    7        9.667691   0.000000
    8       13.784639   0.000000
 
 -0.3333333E+00  0.1333333E+00  0.0000000E+00  0.7111111E-02
    1       -4.315357   1.000000
    2       -0.199116   1.000000
    3        3.108582   1.000000
    4        4.513457   1.000000
    5        8.102281   0.000000
    6        9.435169   0.000000
    7        9.572218   0.000000
    8       12.949503   0.000000
 
 -0.2666667E+00  0.1333333E+00  0.0000000E+00  0.7111111E-02
    1       -4.806762   1.000000
    2        0.750402   1.000000
    3        3.207307   1.000000
    4        4.785683   1.000000
    5        8.305289   0.000000
    6        9.440591   0.000000
    7        9.552258   0.000000
    8       12.045989   0.000000
 
 -0.2000000E+00  0.1333333E+00  0.0000000E+00  0.7111111E-02
    1       -5.243732   1.000000
    2        1.789223   1.000000
    3        3.439437   1.000000
    4        5.071459   1.000000
    5        8.520534   0.000000
    6        9.189111   0.000000
    7        9.475566   0.000000
    8       11.423527   0.000000
 
 -0.1333333E+00  0.1333333E+00  0.0000000E+00  0.3555556E-02
    1       -5.590942   1.000000
    2        2.753895   1.000000
    3        3.896218   1.000000
    4        5.314337   1.000000
    5        8.645814   0.000000
    6        8.851593   0.000000
    7        9.092860   0.000000
    8       11.166692   0.000000
 
  0.2000000E+00  0.2000000E+00  0.0000000E+00  0.1777778E-02
    1       -5.510321   1.000000
    2        3.008280   1.000000
    3        4.186584   1.000000
    4        4.186584   1.000000
    5        7.134951   0.000000
    6        9.525014   0.000000
    7       10.517953   0.000000
    8       10.517953   0.000000
 
  0.2666667E+00  0.2000000E+00  0.0000000E+00  0.7111111E-02
    1       -5.230599   1.000000
    2        2.238115   1.000000
    3        3.876149   1.000000
    4        3.938491   1.000000
    5        7.127734   0.000000
    6        9.174512   0.000000
    7       10.797768   0.000000
    8       10.993155   0.000000
 
  0.3333333E+00  0.2000000E+00  0.0000000E+00  0.7111111E-02
    1       -4.850538   1.000000
    2        1.305705   1.000000
    3        3.473062   1.000000
    4        3.767952   1.000000
    5        7.344261   0.000000
    6        9.192898   0.000000
    7       10.715724   0.000000
    8       11.178817   0.000000
 
  0.4000000E+00  0.2000000E+00  0.0000000E+00  0.7111111E-02
    1       -4.389176   1.000000
    2        0.368714   1.000000
    3        3.059610   1.000000
    4        3.682734   1.000000
    5        7.451970   0.000000
    6        9.752979   0.000000
    7       10.544334   0.000000
    8       11.094656   0.000000
 
  0.4666667E+00  0.2000000E+00  0.0000000E+00  0.7111111E-02
    1       -3.895091   1.000000
    2       -0.463390   1.000000
    3        2.703673   1.000000
    4        3.688790   1.000000
    5        7.487957   0.000000
    6       10.387382   0.000000
    7       10.716627   0.000000
    8       10.890565   0.000000
 
 -0.4666667E+00  0.2000000E+00  0.0000000E+00  0.7111111E-02
    1       -3.513337   1.000000
    2       -1.015224   1.000000
    3        2.432867   1.000000
    4        3.783049   1.000000
    5        7.566008   0.000000
    6       10.278648   0.000000
    7       10.670253   0.000000
    8       11.900016   0.000000
 
 -0.4000000E+00  0.2000000E+00  0.0000000E+00  0.7111111E-02
    1       -3.525948   1.000000
    2       -0.994078   1.000000
    3        2.263841   1.000000
    4        3.958862   1.000000
    5        7.725069   0.000000
    6       10.229602   0.000000
    7       10.475908   0.000000
    8       13.205641   0.000000
 
 -0.3333333E+00  0.2000000E+00  0.0000000E+00  0.7111111E-02
    1       -3.918441   1.000000
    2       -0.420356   1.000000
    3        2.216539   1.000000
    4        4.206466   1.000000
    5        7.967690   0.000000
    6       10.237988   0.000000
    7       10.296822   0.000000
    8       12.829722   0.000000
 
 -0.2666667E+00  0.2000000E+00  0.0000000E+00  0.7111111E-02
    1       -4.411136   1.000000
    2        0.388762   1.000000
    3        2.329191   1.000000
    4        4.503607   1.000000
    5        8.258493   0.000000
    6       10.048609   0.000000
    7       10.237318   0.000000
    8       11.832373   0.000000
 
 -0.2000000E+00  0.2000000E+00  0.0000000E+00  0.3555556E-02
    1       -4.868517   1.000000
    2        1.187852   1.000000
    3        2.700282   1.000000
    4        4.813620   1.000000
    5        8.519518   0.000000
    6        9.639791   0.000000
    7        9.955928   0.000000
    8       11.326937   0.000000
 
  0.2666667E+00  0.2666667E+00  0.0000000E+00  0.1777778E-02
    1       -4.985538   1.000000
    2        1.825157   1.000000
    3        3.671130   1.000000
    4        3.671130   1.000000
    5        6.717334   0.000000
    6        8.572224   0.000000
    7       11.680293   0.000000
    8       11.680295   0.000000
 
  0.3333333E+00  0.2666667E+00  0.0000000E+00  0.7111111E-02
    1       -4.637731   1.000000
    2        1.142686   1.000000
    3        3.321062   1.000000
    4        3.480947   1.000000
    5        6.760622   0.000000
    6        8.268071   0.000000
    7       11.961654   0.000000
    8       12.102537   0.000000
 
  0.4000000E+00  0.2666667E+00  0.0000000E+00  0.7111111E-02
    1       -4.200564   1.000000
    2        0.380341   1.000000
    3        2.810878   1.000000
    4        3.378364   1.000000
    5        6.972132   0.000000
    6        8.465596   0.000000
    7       11.891330   0.000000
    8       12.157276   0.000000
 
  0.4666667E+00  0.2666667E+00  0.0000000E+00  0.7111111E-02
    1       -3.707245   1.000000
    2       -0.363370   1.000000
    3        2.308467   1.000000
    4        3.369255   1.000000
    5        7.070769   0.000000
    6        9.238916   0.000000
    7       11.742116   0.000000
    8       11.988962   0.000000
 
 -0.4666667E+00  0.2666667E+00  0.0000000E+00  0.7111111E-02
    1       -3.260156   1.000000
    2       -0.953686   1.000000
    3        1.906955   1.000000
    4        3.452473   1.000000
    5        7.164828   0.000000
    6       10.334667   0.000000
    7       11.615480   0.000000
    8       11.749935   0.000000
 
 -0.4000000E+00  0.2666667E+00  0.0000000E+00  0.7111111E-02
    1       -3.133852   1.000000
    2       -1.101497   1.000000
    3        1.646958   1.000000
    4        3.622923   1.000000
    5        7.336287   0.000000
    6       11.331258   0.000000
    7       11.501272   0.000000
    8       11.807700   0.000000
 
 -0.3333333E+00  0.2666667E+00  0.0000000E+00  0.7111111E-02
    1       -3.458485   1.000000
    2       -0.694066   1.000000
    3        1.570756   1.000000
    4        3.871250   1.000000
    5        7.604872   0.000000
    6       11.212355   0.000000
    7       11.363376   0.000000
    8       12.742839   0.000000
 
 -0.2666667E+00  0.2666667E+00  0.0000000E+00  0.3555556E-02
    1       -3.942752   1.000000
    2       -0.100937   1.000000
    3        1.763300   1.000000
    4        4.176941   1.000000
    5        7.938638   0.000000
    6       10.728818   0.000000
    7       11.093310   0.000000
    8       11.910924   0.000000
 
  0.3333333E+00  0.3333333E+00  0.0000000E+00  0.1777778E-02
    1       -4.321305   1.000000
    2        0.645472   1.000000
    3        3.268751   1.000000
    4        3.268752   1.000000
    5        6.420358   0.000000
    6        7.697016   0.000000
    7       12.888760   0.000000
    8       12.888763   0.000000
 
  0.4000000E+00  0.3333333E+00  0.0000000E+00  0.7111111E-02
    1       -3.911134   1.000000
    2        0.028274   1.000000
    3        2.922610   1.000000
    4        3.143163   1.000000
    5        6.524292   0.000000
    6        7.518635   0.000000
    7       13.188020   0.000000
    8       13.252171   0.000000
 
  0.4666667E+00  0.3333333E+00  0.0000000E+00  0.7111111E-02
    1       -3.429173   1.000000
    2       -0.595656   1.000000
    3        2.364458   1.000000
    4        3.112095   1.000000
    5        6.711485   0.000000
    6        7.959024   0.000000
    7       13.136714   0.000000
    8       13.202528   0.000000
 
 -0.4666667E+00  0.3333333E+00  0.0000000E+00  0.7111111E-02
    1       -2.945303   1.000000
    2       -1.141461   1.000000
    3        1.823801   1.000000
    4        3.175817   1.000000
    5        6.816297   0.000000
    6        8.930947   0.000000
    7       12.971178   0.000000
    8       12.999941   0.000000
 
 -0.4000000E+00  0.3333333E+00  0.0000000E+00  0.7111111E-02
    1       -2.713235   1.000000
    2       -1.371859   1.000000
    3        1.439691   1.000000
    4        3.330714   1.000000
    5        6.985498   0.000000
    6       10.156726   0.000000
    7       12.651919   0.000000
    8       12.871403   0.000000
 
 -0.3333333E+00  0.3333333E+00  0.0000000E+00  0.3555556E-02
    1       -2.991191   1.000000
    2       -1.083579   1.000000
    3        1.317483   1.000000
    4        3.568495   1.000000
    5        7.257502   0.000000
    6       11.488160   0.000000
    7       12.105051   0.000000
    8       12.673381   0.000000
 
  0.4000000E+00  0.4000000E+00  0.0000000E+00  0.1777778E-02
    1       -3.526983   1.000000
    2       -0.505235   1.000000
    3        2.993111   1.000000
    4        2.993112   1.000000
    5        6.276938   0.000000
    6        7.017171   0.000000
    7       14.127034   0.000000
    8       14.127038   0.000000
 
  0.4666667E+00  0.4000000E+00  0.0000000E+00  0.7111111E-02
    1       -3.062187   1.000000
    2       -1.066359   1.000000
    3        2.683833   1.000000
    4        2.937124   1.000000
    5        6.434977   0.000000
    6        6.998353   0.000000
    7       14.423288   0.000000
    8       14.438198   0.000000
 
 -0.4666667E+00  0.4000000E+00  0.0000000E+00  0.7111111E-02
    1       -2.562611   1.000000
    2       -1.576750   1.000000
    3        2.144125   1.000000
    4        2.976521   1.000000
    5        6.569600   0.000000
    6        7.700062   0.000000
    7       14.249768   0.000000
    8       14.400272   0.000000
 
 -0.4000000E+00  0.4000000E+00  0.0000000E+00  0.3555556E-02
    1       -2.348349   1.000000
    2       -1.744920   1.000000
    3        1.659827   1.000000
    4        3.110427   1.000000
    5        6.726112   0.000000
    6        8.828375   0.000000
    7       13.704210   0.000000
    8       14.249929   0.000000
 
  0.4666667E+00  0.4666667E+00  0.0000000E+00  0.1777778E-02
    1       -2.614027   1.000000
    2       -1.600084   1.000000
    3        2.854799   1.000000
    4        2.854799   1.000000
    5        6.318069   0.000000
    6        6.558653   0.000000
    7       15.315678   0.000000
    8       15.315683   0.000000
 
 -0.4666667E+00  0.4666667E+00  0.0000000E+00  0.3555556E-02
    1       -2.136214   1.000000
    2       -2.076895   1.000000
    3        2.604413   1.000000
    4        2.868156   1.000000
    5        6.447748   0.000000
    6        6.775093   0.000000
    7       15.275284   0.000000
    8       15.407803   0.000000
 
  0.2000000E+00  0.1333333E+00  0.6666667E-01  0.7111111E-02
    1       -5.814195   1.000000
    2        3.586077   1.000000
    3        4.491042   1.000000
    4        5.180388   1.000000
    5        8.024728   0.000000
    6        8.924410   0.000000
    7        9.327030   0.000000
    8       10.546186   0.000000
 
  0.2666667E+00  0.1333333E+00  0.6666667E-01  0.1422222E-01
    1       -5.534644   1.000000
    2        2.568349   1.000000
    3        4.050104   1.000000
    4        5.000392   1.000000
    5        8.212494   0.000000
    6        8.918487   0.000000
    7        9.722348   0.000000
    8       10.797890   0.000000
 
  0.3333333E+00  0.1333333E+00  0.6666667E-01  0.1422222E-01
    1       -5.154178   1.000000
    2        1.457862   1.000000
    3        3.773854   1.000000
    4        4.745344   1.000000
    5        8.246286   0.000000
    6        8.975238   0.000000
    7        9.926809   0.000000
    8       11.042011   0.000000
 
  0.4000000E+00  0.1333333E+00  0.6666667E-01  0.1422222E-01
    1       -4.692619   1.000000
    2        0.404700   1.000000
    3        3.596638   1.000000
    4        4.495899   1.000000
    5        8.135316   0.000000
    6        8.986759   0.000000
    7        9.904161   0.000000
    8       11.662263   0.000000
 
  0.4666667E+00  0.1333333E+00  0.6666667E-01  0.1422222E-01
    1       -4.199801   1.000000
    2       -0.496826   1.000000
    3        3.495683   1.000000
    4        4.301151   1.000000
    5        8.028728   0.000000
    6        8.920352   0.000000
    7        9.808942   0.000000
    8       12.583154   0.000000
 
 -0.4666667E+00  0.1333333E+00  0.6666667E-01  0.1422222E-01
    1       -3.818292   1.000000
    2       -1.085721   1.000000
    3        3.452227   1.000000
    4        4.193852   1.000000
    5        7.970389   0.000000
    6        8.865881   0.000000
    7        9.740030   0.000000
    8       13.523526   0.000000
 
  0.2666667E+00  0.2000000E+00  0.6666667E-01  0.7111111E-02
    1       -5.437861   1.000000
    2        2.616577   1.000000
    3        3.891970   1.000000
    4        4.484320   1.000000
    5        7.563995   0.000000
    6        9.539635   0.000000
    7       10.224984   0.000000
    8       10.421615   0.000000
 
  0.3333333E+00  0.2000000E+00  0.6666667E-01  0.1422222E-01
    1       -5.090541   1.000000
    2        1.703164   1.000000
    3        3.450430   1.000000
    4        4.281393   1.000000
    5        7.798467   0.000000
    6        9.528337   0.000000
    7       10.075111   0.000000
    8       10.797990   0.000000
 
  0.4000000E+00  0.2000000E+00  0.6666667E-01  0.1422222E-01
    1       -4.653477   1.000000
    2        0.721875   1.000000
    3        3.153475   1.000000
    4        4.047428   1.000000
    5        7.954649   0.000000
    6        9.646212   0.000000
    7       10.162385   0.000000
    8       10.904437   0.000000
 
  0.4666667E+00  0.2000000E+00  0.6666667E-01  0.1422222E-01
    1       -4.161642   1.000000
    2       -0.188590   1.000000
    3        2.934155   1.000000
    4        3.878452   1.000000
    5        7.989535   0.000000
    6        9.471685   0.000000
    7       10.774852   0.000000
    8       11.037488   0.000000
 
 -0.4666667E+00  0.2000000E+00  0.6666667E-01  0.1422222E-01
    1       -3.715258   1.000000
    2       -0.883754   1.000000
    3        2.766062   1.000000
    4        3.820711   1.000000
    5        8.033151   0.000000
    6        9.283983   0.000000
    7       10.706861   0.000000
    8       12.108512   0.000000
 
 -0.4000000E+00  0.2000000E+00  0.6666667E-01  0.1422222E-01
    1       -3.564057   1.000000
    2       -1.095664   1.000000
    3        2.652541   1.000000
    4        3.880646   1.000000
    5        8.137825   0.000000
    6        9.152246   0.000000
    7       10.633359   0.000000
    8       13.343379   0.000000
 
 -0.3333333E+00  0.2000000E+00  0.6666667E-01  0.1422222E-01
    1       -3.854785   1.000000
    2       -0.675103   1.000000
    3        2.612216   1.000000
    4        4.043674   1.000000
    5        8.308708   0.000000
    6        9.089423   0.000000
    7       10.600231   0.000000
    8       12.460547   0.000000
 
 -0.2666667E+00  0.2000000E+00  0.6666667E-01  0.1422222E-01
    1       -4.335720   1.000000
    2        0.114416   1.000000
    3        2.669876   1.000000
    4        4.285753   1.000000
    5        8.523370   0.000000
    6        9.071940   0.000000
    7       10.569311   0.000000
    8       11.451990   0.000000
 
 -0.2000000E+00  0.2000000E+00  0.6666667E-01  0.1422222E-01
    1       -4.814489   1.000000
    2        1.038263   1.000000
    3        2.866360   1.000000
    4        4.571043   1.000000
    5        8.709264   0.000000
    6        8.996119   0.000000
    7       10.453052   0.000000
    8       10.779676   0.000000
 
 -0.1333333E+00  0.2000000E+00  0.6666667E-01  0.7111111E-02
    1       -5.222464   1.000000
    2        1.914974   1.000000
    3        3.294964   1.000000
    4        4.841107   1.000000
    5        8.545233   0.000000
    6        8.979097   0.000000
    7       10.156260   0.000000
    8       10.588882   0.000000
 
  0.3333333E+00  0.2666667E+00  0.6666667E-01  0.7111111E-02
    1       -4.917326   1.000000
    2        1.595177   1.000000
    3        3.377317   1.000000
    4        3.809677   1.000000
    5        7.153294   0.000000
    6        8.834421   0.000000
    7       10.973653   0.000000
    8       11.615000   0.000000
 
  0.4000000E+00  0.2666667E+00  0.6666667E-01  0.1422222E-01
    1       -4.508676   1.000000
    2        0.812490   1.000000
    3        2.927053   1.000000
    4        3.603086   1.000000
    5        7.418768   0.000000
    6        8.885623   0.000000
    7       10.815481   0.000000
    8       11.966388   0.000000
 
  0.4666667E+00  0.2666667E+00  0.6666667E-01  0.1422222E-01
    1       -4.028900   1.000000
    2        0.000007   1.000000
    3        2.535756   1.000000
    4        3.454028   1.000000
    5        7.564622   0.000000
    6        9.513709   0.000000
    7       10.581046   0.000000
    8       11.996670   0.000000
 
 -0.4666667E+00  0.2666667E+00  0.6666667E-01  0.1422222E-01
    1       -3.546582   1.000000
    2       -0.710826   1.000000
    3        2.212210   1.000000
    4        3.422679   1.000000
    5        7.642904   0.000000
    6       10.275953   0.000000
    7       10.610836   0.000000
    8       11.895217   0.000000
 
 -0.4000000E+00  0.2666667E+00  0.6666667E-01  0.1422222E-01
    1       -3.264597   1.000000
    2       -1.081221   1.000000
    3        1.979079   1.000000
    4        3.508711   1.000000
    5        7.777663   0.000000
    6       10.119465   0.000000
    7       11.751650   0.000000
    8       11.833867   0.000000
 
 -0.3333333E+00  0.2666667E+00  0.6666667E-01  0.1422222E-01
    1       -3.441683   1.000000
    2       -0.845071   1.000000
    3        1.865195   1.000000
    4        3.696990   1.000000
    5        7.998601   0.000000
    6        9.971828   0.000000
    7       11.654694   0.000000
    8       12.428710   0.000000
 
 -0.2666667E+00  0.2666667E+00  0.6666667E-01  0.1422222E-01
    1       -3.897304   1.000000
    2       -0.210617   1.000000
    3        1.913625   1.000000
    4        3.963667   1.000000
    5        8.291302   0.000000
    6        9.818185   0.000000
    7       11.257329   0.000000
    8       11.633896   0.000000
 
 -0.2000000E+00  0.2666667E+00  0.6666667E-01  0.7111111E-02
    1       -4.384911   1.000000
    2        0.485501   1.000000
    3        2.214681   1.000000
    4        4.276016   1.000000
    5        8.611764   0.000000
    6        9.451145   0.000000
    7       10.722878   0.000000
    8       11.187858   0.000000
 
  0.4000000E+00  0.3333333E+00  0.6666667E-01  0.7111111E-02
    1       -4.259528   1.000000
    2        0.533366   1.000000
    3        2.986095   1.000000
    4        3.270209   1.000000
    5        6.855697   0.000000
    6        8.004926   0.000000
    7       12.032757   0.000000
    8       12.854942   0.000000
 
  0.4666667E+00  0.3333333E+00  0.6666667E-01  0.1422222E-01
    1       -3.799389   1.000000
    2       -0.125529   1.000000
    3        2.511605   1.000000
    4        3.107080   1.000000
    5        7.137953   0.000000
    6        8.244098   0.000000
    7       11.840408   0.000000
    8       13.196122   0.000000
 
 -0.4666667E+00  0.3333333E+00  0.6666667E-01  0.1422222E-01
    1       -3.303106   1.000000
    2       -0.755052   1.000000
    3        2.016876   1.000000
    4        3.078556   1.000000
    5        7.264815   0.000000
    6        9.093431   0.000000
    7       11.594819   0.000000
    8       13.183489   0.000000
 