       N       E                     dE             d eps       ncg     rms          rms(c)
DAV:   1    -0.355303898230E+01   -0.35530E+01   -0.18694E+03  2008   0.365E+02
DAV:   2    -0.109116684896E+02   -0.73586E+01   -0.68307E+01  3048   0.489E+01
DAV:   3    -0.109762012501E+02   -0.64533E-01   -0.64533E-01  2408   0.558E+00
DAV:   4    -0.109763508825E+02   -0.14963E-03   -0.14963E-03  3064   0.268E-01
DAV:   5    -0.109763510478E+02   -0.16522E-06   -0.16523E-06  2384   0.563E-03    0.606E+00
DAV:   6    -0.108555823021E+02    0.12077E+00   -0.77975E-02  2328   0.144E+00    0.372E+00
DAV:   7    -0.108004353429E+02    0.55147E-01   -0.15062E-01  2440   0.214E+00    0.184E-01
DAV:   8    -0.108013328965E+02   -0.89755E-03   -0.33543E-03  2096   0.413E-01    0.705E-02
DAV:   9    -0.108015567954E+02   -0.22390E-03   -0.22167E-04  2720   0.113E-01    0.611E-02
DAV:  10    -0.108015808002E+02   -0.24005E-04   -0.26355E-05  2208   0.383E-02    0.885E-03
DAV:  11    -0.108015804595E+02    0.34075E-06   -0.68155E-07  2760   0.526E-03
   1 F= -.10801580E+02 E0= -.10801580E+02  d E =-.108016E+02
       N       E                     dE             d eps       ncg     rms          rms(c)
DAV:   1    -0.108048575580E+02   -0.32768E-02   -0.89477E-02  2448   0.166E+00    0.280E-01
DAV:   2    -0.108033197379E+02    0.15378E-02   -0.11980E-03  2488   0.215E-01    0.161E-01
DAV:   3    -0.108025351047E+02    0.78463E-03   -0.16087E-03  2248   0.201E-01    0.609E-02
DAV:   4    -0.108025349541E+02    0.15063E-06   -0.12310E-05  2696   0.298E-02    0.564E-02
DAV:   5    -0.108025280594E+02    0.68947E-05   -0.45558E-06  2192   0.145E-02    0.185E-02
DAV:   6    -0.108025283177E+02   -0.25839E-06   -0.36821E-08  1200   0.167E-03
   2 F= -.10802528E+02 E0= -.10802528E+02  d E =-.947858E-03
       N       E                     dE             d eps       ncg     rms          rms(c)
DAV:   1    -0.108036588617E+02   -0.11308E-02   -0.14840E-02  2424   0.680E-01    0.116E-01
DAV:   2    -0.108034147114E+02    0.24415E-03   -0.19604E-04  2512   0.867E-02    0.665E-02
DAV:   3    -0.108032868203E+02    0.12789E-03   -0.26413E-04  2248   0.817E-02    0.249E-02
DAV:   4    -0.108032872526E+02   -0.43231E-06   -0.20078E-06  2536   0.121E-02    0.232E-02
DAV:   5    -0.108032888945E+02   -0.16419E-05   -0.71042E-07  1936   0.580E-03    0.806E-03
DAV:   6    -0.108032888023E+02    0.92287E-07   -0.86948E-09  1024   0.759E-04
   3 F= -.10803289E+02 E0= -.10803289E+02  d E =-.170834E-02
