 vasp.6.2.0 18Jan21 (build Aug 12 2022 13:00:08) complex                        
  
 executed on             LinuxIFC date 2024.11.03  22:21:07
 running on    4 total cores
 distrk:  each k-point on    4 cores,    1 groups
 distr:  one band on NCORE=   1 cores,    4 groups


--------------------------------------------------------------------------------------------------------


 INCAR:
   ISTART = 0            (Read existing wavefunction, if there)
   ISPIN = 1            (Non-Spin polarised DFT)
   LREAL = .FALSE.       (Projection operators: automatic)
   LWAVE = .FALSE.        (Write WAVECAR or not)
   LCHARG = .FALSE.        (Write CHGCAR or not)
   ADDGRID = .TRUE.        (Increase grid, helps GGA convergence)
   LASPH = .TRUE.        (Give more accurate total energies and band structure calculations)
   PREC = Accurate      (Accurate strictly avoids any aliasing or wrap around errors)
   ENCUT = 200          (Cut-off energy for plane wave basis set, in eV)
   ISMEAR = 0            (Gaussian smearing, metals:1)
   SIGMA = 0.05         (Smearing value in eV, metals:0.2)
   NELM = 90           (Max electronic SCF steps)
   NELMIN = 6            (Min electronic SCF steps)
   EDIFF = 1E-06        (SCF energy convergence, in eV)
   NSW = 100          (Max ionic steps)
   IBRION = 2            (Algorithm: 0-MD, 1-Quasi-New, 2-CG)
   ISIF = 3            (Stress/relaxation: 2-Ions, 3-Shape/Ions/V, 4-Shape/Ions)
   EDIFFG = -2E-03        (Ionic convergence, eV/AA)
   ISYM = 2              (Symmetry: 0\=none, 2\=GGA, 3\=hybrids)

 POTCAR:    PAW_PBE Si 05Jan2001                  
 POTCAR:    PAW_PBE Si 05Jan2001                  
   VRHFIN =Si: s2p2                                                                                 
   LEXCH  = PE                                                                                      
   EATOM  =   103.0669 eV,    7.5752 Ry                                                             
                                                                                                    
   TITEL  = PAW_PBE Si 05Jan2001                                                                    
   LULTRA =        F    use ultrasoft PP ?                                                          
   IUNSCR =        1    unscreen: 0-lin 1-nonlin 2-no                                               
   RPACOR =    1.500    partial core radius                                                         
   POMASS =   28.085; ZVAL   =    4.000    mass and valenz                                          
   RCORE  =    1.900    outmost cutoff radius                                                       
   RWIGS  =    2.480; RWIGS  =    1.312    wigner-seitz radius (au A)                               
   ENMAX  =  245.345; ENMIN  =  184.009 eV                                                          
   ICORE  =        2    local potential                                                             
   LCOR   =        T    correct aug charges                                                         
   LPAW   =        T    paw PP                                                                      
   EAUG   =  322.069                                                                                
   DEXC   =    0.000                                                                                
   RMAX   =    1.950    core radius for proj-oper                                                   
   RAUG   =    1.300    factor for augmentation sphere                                              
   RDEP   =    1.993    radius for radial grids                                                     
   RDEPT  =    1.837    core radius for aug-charge                                                  
                                                                                                    
   Atomic configuration                                                                             
    6 entries                                                                                       
     n  l   j            E        occ.                                                              
     1  0  0.50     -1785.8828   2.0000                                                             
     2  0  0.50      -139.4969   2.0000                                                             
     2  1  1.50       -95.5546   6.0000                                                             
     3  0  0.50       -10.8127   2.0000                                                             
     3  1  0.50        -4.0811   2.0000                                                             
     3  2  1.50        -4.0817   0.0000                                                             
   Description                                                                                      
     l       E           TYP  RCUT    TYP  RCUT                                                     
     0    -10.8127223     23  1.900                                                                 
     0     -7.6451159     23  1.900                                                                 
     1     -4.0811372     23  1.900                                                                 
     1      2.4879257     23  1.900                                                                 
     2     -4.0817478      7  1.900                                                                 
  local pseudopotential read in
  partial core-charges read in
  partial kinetic energy density read in
  atomic valenz-charges read in
  non local Contribution for L=           0  read in
    real space projection operators read in
  non local Contribution for L=           0  read in
    real space projection operators read in
  non local Contribution for L=           1  read in
    real space projection operators read in
  non local Contribution for L=           1  read in
    real space projection operators read in
    PAW grid and wavefunctions read in
 
   number of l-projection  operators is LMAX  =           4
   number of lm-projection operators is LMMAX =           8
 
  PAW_PBE Si 05Jan2001                  :
 energy of atom  1       EATOM= -103.0669
 kinetic energy error for atom=    0.0107 (will be added to EATOM!!)
 
 
 POSCAR: Si2
  positions in direct lattice
  No initial velocities read in
 exchange correlation table for  LEXCH =        8
   RHO(1)=    0.500       N(1)  =     2000
   RHO(2)=  100.500       N(2)  =     4000
 


--------------------------------------------------------------------------------------------------------


 ion  position               nearest neighbor table
   1  0.875  0.875  0.875-   2 2.36   2 2.36   2 2.36   2 2.36
   2  0.125  0.125  0.125-   1 2.36   1 2.36   1 2.36   1 2.36
 
  LATTYP: Found a face centered cubic cell.
 ALAT       =     5.4437031493
  
  Lattice vectors:
  
 A1 = (   3.3335730000,   0.0000000000,   1.9246390000)
 A2 = (   1.1111910000,   3.1429240000,   1.9246390000)
 A3 = (   0.0000000000,   0.0000000000,   3.8492780000)


Analysis of symmetry for initial positions (statically):
=====================================================================
 Subroutine PRICEL returns:
 Original cell was already a primitive cell.
 

 Routine SETGRP: Setting up the symmetry group for a 
 face centered cubic supercell.


 Subroutine GETGRP returns: Found 48 space group operations
 (whereof 12 operations were pure point group operations)
 out of a pool of 48 trial point group operations.


The static configuration has the point symmetry D_3d.
 The point group associated with its full space group is O_h .


Analysis of symmetry for dynamics (positions and initial velocities):
=====================================================================
 Subroutine PRICEL returns:
 Original cell was already a primitive cell.
 

 Routine SETGRP: Setting up the symmetry group for a 
 face centered cubic supercell.


 Subroutine GETGRP returns: Found 48 space group operations
 (whereof 12 operations were pure point group operations)
 out of a pool of 48 trial point group operations.


The dynamic configuration has the point symmetry D_3d.
 The point group associated with its full space group is O_h .


 Subroutine INISYM returns: Found 48 space group operations
 (whereof 12 operations are pure point group operations),
 and found     1 'primitive' translations


----------------------------------------------------------------------------------------

                                     Primitive cell                                     

  volume of cell :      40.3295

  direct lattice vectors                    reciprocal lattice vectors
     3.333573000  0.000000000  1.924639000     0.299978432 -0.106058350  0.000000000
     1.111191000  3.142924000  1.924639000     0.000000000  0.318175050  0.000000000
     0.000000000  0.000000000  3.849278000    -0.149989216 -0.106058350  0.259788979

  length of vectors
     3.849278403  3.849279412  3.849278000     0.318175161  0.318175050  0.318175190

  position of ions in fractional coordinates (direct lattice)
     0.875000000  0.875000000  0.875000000
     0.125000000  0.125000000  0.125000000

  ion indices of the primitive-cell ions
   primitive index   ion index
                 1           1
                 2           2

----------------------------------------------------------------------------------------

 
 
 KPOINTS: Automatic                               

Automatic generation of k-mesh.
 Grid dimensions read from file:
 generate k-points for:   15   15   15

 Generating k-lattice:

  Cartesian coordinates                     Fractional coordinates (reciprocal lattice)
     0.019998562 -0.007070557  0.000000000     0.066666667  0.000000000  0.000000000
     0.000000000  0.021211670  0.000000000     0.000000000  0.066666667  0.000000000
    -0.009999281 -0.007070557  0.017319265     0.000000000  0.000000000  0.066666667

  Length of vectors
     0.021211677  0.021211670  0.021211679

  Shift w.r.t. Gamma in fractional coordinates (k-lattice)
     0.000000000  0.000000000  0.000000000

 
 Subroutine IBZKPT returns following result:
 ===========================================
 
 Found    120 irreducible k-points:
 
 Following reciprocal coordinates:
            Coordinates               Weight
  0.000000  0.000000  0.000000      1.000000
  0.066667 -0.000000  0.000000      8.000000
  0.133333 -0.000000  0.000000      8.000000
  0.200000  0.000000  0.000000      8.000000
  0.266667 -0.000000  0.000000      8.000000
  0.333333 -0.000000  0.000000      8.000000
  0.400000 -0.000000  0.000000      8.000000
  0.466667 -0.000000  0.000000      8.000000
  0.066667  0.066667  0.000000      6.000000
  0.133333  0.066667  0.000000     24.000000
  0.200000  0.066667  0.000000     24.000000
  0.266667  0.066667  0.000000     24.000000
  0.333333  0.066667  0.000000     24.000000
  0.400000  0.066667  0.000000     24.000000
  0.466667  0.066667  0.000000     24.000000
 -0.466667  0.066667  0.000000     24.000000
 -0.400000  0.066667  0.000000     24.000000
 -0.333333  0.066667  0.000000     24.000000
 -0.266667  0.066667  0.000000     24.000000
 -0.200000  0.066667  0.000000     24.000000
 -0.133333  0.066667  0.000000     24.000000
 -0.066667  0.066667  0.000000     12.000000
  0.133333  0.133333  0.000000      6.000000
  0.200000  0.133333  0.000000     24.000000
  0.266667  0.133333  0.000000     24.000000
  0.333333  0.133333  0.000000     24.000000
  0.400000  0.133333  0.000000     24.000000
  0.466667  0.133333  0.000000     24.000000
 -0.466667  0.133333  0.000000     24.000000
 -0.400000  0.133333  0.000000     24.000000
 -0.333333  0.133333  0.000000     24.000000
 -0.266667  0.133333  0.000000     24.000000
 -0.200000  0.133333  0.000000     24.000000
 -0.133333  0.133333  0.000000     12.000000
  0.200000  0.200000  0.000000      6.000000
  0.266667  0.200000  0.000000     24.000000
  0.333333  0.200000  0.000000     24.000000
  0.400000  0.200000  0.000000     24.000000
  0.466667  0.200000  0.000000     24.000000
 -0.466667  0.200000  0.000000     24.000000
 -0.400000  0.200000  0.000000     24.000000
 -0.333333  0.200000  0.000000     24.000000
 -0.266667  0.200000  0.000000     24.000000
 -0.200000  0.200000  0.000000     12.000000
  0.266667  0.266667  0.000000      6.000000
  0.333333  0.266667  0.000000     24.000000
  0.400000  0.266667  0.000000     24.000000
  0.466667  0.266667  0.000000     24.000000
 -0.466667  0.266667  0.000000     24.000000
 -0.400000  0.266667  0.000000     24.000000
 -0.333333  0.266667  0.000000     24.000000
 -0.266667  0.266667  0.000000     12.000000
  0.333333  0.333333  0.000000      6.000000
  0.400000  0.333333  0.000000     24.000000
  0.466667  0.333333  0.000000     24.000000
 -0.466667  0.333333  0.000000     24.000000
 -0.400000  0.333333  0.000000     24.000000
 -0.333333  0.333333  0.000000     12.000000
  0.400000  0.400000  0.000000      6.000000
  0.466667  0.400000  0.000000     24.000000
 -0.466667  0.400000  0.000000     24.000000
 -0.400000  0.400000  0.000000     12.000000
  0.466667  0.466667  0.000000      6.000000
 -0.466667  0.466667  0.000000     12.000000
  0.200000  0.133333  0.066667     24.000000
  0.266667  0.133333  0.066667     48.000000
  0.333333  0.133333  0.066667     48.000000
  0.400000  0.133333  0.066667     48.000000
  0.466667  0.133333  0.066667     48.000000
 -0.466667  0.133333  0.066667     48.000000
  0.266667  0.200000  0.066667     24.000000
  0.333333  0.200000  0.066667     48.000000
  0.400000  0.200000  0.066667     48.000000
  0.466667  0.200000  0.066667     48.000000
 -0.466667  0.200000  0.066667     48.000000
 -0.400000  0.200000  0.066667     48.000000
 -0.333333  0.200000  0.066667     48.000000
 -0.266667  0.200000  0.066667     48.000000
 -0.200000  0.200000  0.066667     48.000000
 -0.133333  0.200000  0.066667     24.000000
  0.333333  0.266667  0.066667     24.000000
  0.400000  0.266667  0.066667     48.000000
  0.466667  0.266667  0.066667     48.000000
 -0.466667  0.266667  0.066667     48.000000
 -0.400000  0.266667  0.066667     48.000000
 -0.333333  0.266667  0.066667     48.000000
 -0.266667  0.266667  0.066667     48.000000
 -0.200000  0.266667  0.066667     24.000000
  0.400000  0.333333  0.066667     24.000000
  0.466667  0.333333  0.066667     48.000000
 -0.466667  0.333333  0.066667     48.000000
 -0.400000  0.333333  0.066667     48.000000
 -0.333333  0.333333  0.066667     48.000000
 -0.266667  0.333333  0.066667     24.000000
  0.466667  0.400000  0.066667     24.000000
 -0.466667  0.400000  0.066667     48.000000
 -0.400000  0.400000  0.066667     48.000000
 -0.333333  0.400000  0.066667     24.000000
 -0.466667  0.466667  0.066667     24.000000
 -0.400000  0.466667  0.066667     24.000000
  0.400000  0.266667  0.133333     24.000000
  0.466667  0.266667  0.133333     48.000000
 -0.466667  0.266667  0.133333     48.000000
 -0.400000  0.266667  0.133333     48.000000
  0.466667  0.333333  0.133333     24.000000
 -0.466667  0.333333  0.133333     48.000000
 -0.400000  0.333333  0.133333     48.000000
 -0.333333  0.333333  0.133333     48.000000
 -0.266667  0.333333  0.133333     48.000000
 -0.200000  0.333333  0.133333     24.000000
 -0.466667  0.400000  0.133333     24.000000
 -0.400000  0.400000  0.133333     48.000000
 -0.333333  0.400000  0.133333     48.000000
 -0.266667  0.400000  0.133333     24.000000
 -0.400000  0.466667  0.133333     24.000000
 -0.333333  0.466667  0.133333     24.000000
 -0.400000  0.400000  0.200000     24.000000
 -0.333333  0.400000  0.200000     48.000000
 -0.333333  0.466667  0.200000     24.000000
 -0.266667  0.466667  0.200000     24.000000
 
 Following cartesian coordinates:
            Coordinates               Weight
  0.000000  0.000000  0.000000      1.000000
  0.019999 -0.007071  0.000000      8.000000
  0.039997 -0.014141  0.000000      8.000000
  0.059996 -0.021212  0.000000      8.000000
  0.079994 -0.028282  0.000000      8.000000
  0.099993 -0.035353  0.000000      8.000000
  0.119991 -0.042423  0.000000      8.000000
  0.139990 -0.049494  0.000000      8.000000
  0.019999  0.014141  0.000000      6.000000
  0.039997  0.007071  0.000000     24.000000
  0.059996  0.000000  0.000000     24.000000
  0.079994 -0.007071  0.000000     24.000000
  0.099993 -0.014141  0.000000     24.000000
  0.119991 -0.021212  0.000000     24.000000
  0.139990 -0.028282  0.000000     24.000000
 -0.139990  0.070706  0.000000     24.000000
 -0.119991  0.063635  0.000000     24.000000
 -0.099993  0.056564  0.000000     24.000000
 -0.079994  0.049494  0.000000     24.000000
 -0.059996  0.042423  0.000000     24.000000
 -0.039997  0.035353  0.000000     24.000000
 -0.019999  0.028282  0.000000     12.000000
  0.039997  0.028282  0.000000      6.000000
  0.059996  0.021212  0.000000     24.000000
  0.079994  0.014141  0.000000     24.000000
  0.099993  0.007071  0.000000     24.000000
  0.119991  0.000000  0.000000     24.000000
  0.139990 -0.007071  0.000000     24.000000
 -0.139990  0.091917  0.000000     24.000000
 -0.119991  0.084847  0.000000     24.000000
 -0.099993  0.077776  0.000000     24.000000
 -0.079994  0.070706  0.000000     24.000000
 -0.059996  0.063635  0.000000     24.000000
 -0.039997  0.056564  0.000000     12.000000
  0.059996  0.042423  0.000000      6.000000
  0.079994  0.035353  0.000000     24.000000
  0.099993  0.028282  0.000000     24.000000
  0.119991  0.021212  0.000000     24.000000
  0.139990  0.014141  0.000000     24.000000
 -0.139990  0.113129  0.000000     24.000000
 -0.119991  0.106058  0.000000     24.000000
 -0.099993  0.098988  0.000000     24.000000
 -0.079994  0.091917  0.000000     24.000000
 -0.059996  0.084847  0.000000     12.000000
  0.079994  0.056564  0.000000      6.000000
  0.099993  0.049494  0.000000     24.000000
  0.119991  0.042423  0.000000     24.000000
  0.139990  0.035353  0.000000     24.000000
 -0.139990  0.134341  0.000000     24.000000
 -0.119991  0.127270  0.000000     24.000000
 -0.099993  0.120199  0.000000     24.000000
 -0.079994  0.113129  0.000000     12.000000
  0.099993  0.070706  0.000000      6.000000
  0.119991  0.063635  0.000000     24.000000
  0.139990  0.056564  0.000000     24.000000
 -0.139990  0.155552  0.000000     24.000000
 -0.119991  0.148482  0.000000     24.000000
 -0.099993  0.141411  0.000000     12.000000
  0.119991  0.084847  0.000000      6.000000
  0.139990  0.077776  0.000000     24.000000
 -0.139990  0.176764  0.000000     24.000000
 -0.119991  0.169693  0.000000     12.000000
  0.139990  0.098988  0.000000      6.000000
 -0.139990  0.197976  0.000000     12.000000
  0.049996  0.014141  0.017319     24.000000
  0.069995  0.007071  0.017319     48.000000
  0.089994 -0.000000  0.017319     48.000000
  0.109992 -0.007071  0.017319     48.000000
  0.129991 -0.014141  0.017319     48.000000
 -0.149989  0.084847  0.017319     48.000000
  0.069995  0.028282  0.017319     24.000000
  0.089994  0.021212  0.017319     48.000000
  0.109992  0.014141  0.017319     48.000000
  0.129991  0.007071  0.017319     48.000000
 -0.149989  0.106058  0.017319     48.000000
 -0.129991  0.098988  0.017319     48.000000
 -0.109992  0.091917  0.017319     48.000000
 -0.089994  0.084847  0.017319     48.000000
 -0.069995  0.077776  0.017319     48.000000
 -0.049996  0.070706  0.017319     24.000000
  0.089994  0.042423  0.017319     24.000000
  0.109992  0.035353  0.017319     48.000000
  0.129991  0.028282  0.017319     48.000000
 -0.149989  0.127270  0.017319     48.000000
 -0.129991  0.120199  0.017319     48.000000
 -0.109992  0.113129  0.017319     48.000000
 -0.089994  0.106058  0.017319     48.000000
 -0.069995  0.098988  0.017319     24.000000
  0.109992  0.056564  0.017319     24.000000
  0.129991  0.049494  0.017319     48.000000
 -0.149989  0.148482  0.017319     48.000000
 -0.129991  0.141411  0.017319     48.000000
 -0.109992  0.134341  0.017319     48.000000
 -0.089994  0.127270  0.017319     24.000000
  0.129991  0.070706  0.017319     24.000000
 -0.149989  0.169693  0.017319     48.000000
 -0.129991  0.162623  0.017319     48.000000
 -0.109992  0.155552  0.017319     24.000000
 -0.149989  0.190905  0.017319     24.000000
 -0.129991  0.183834  0.017319     24.000000
  0.099993  0.028282  0.034639     24.000000
  0.119991  0.021212  0.034639     48.000000
 -0.159988  0.120199  0.034639     48.000000
 -0.139990  0.113129  0.034639     48.000000
  0.119991  0.042423  0.034639     24.000000
 -0.159988  0.141411  0.034639     48.000000
 -0.139990  0.134341  0.034639     48.000000
 -0.119991  0.127270  0.034639     48.000000
 -0.099993  0.120199  0.034639     48.000000
 -0.079994  0.113129  0.034639     24.000000
 -0.159988  0.162623  0.034639     24.000000
 -0.139990  0.155552  0.034639     48.000000
 -0.119991  0.148482  0.034639     48.000000
 -0.099993  0.141411  0.034639     24.000000
 -0.139990  0.176764  0.034639     24.000000
 -0.119991  0.169693  0.034639     24.000000
 -0.149989  0.148482  0.051958     24.000000
 -0.129991  0.141411  0.051958     48.000000
 -0.129991  0.162623  0.051958     24.000000
 -0.109992  0.155552  0.051958     24.000000
 


--------------------------------------------------------------------------------------------------------




 Dimension of arrays:
   k-points           NKPTS =    120   k-points in BZ     NKDIM =    120   number of bands    NBANDS=      8
   number of dos      NEDOS =    301   number of ions     NIONS =      2
   non local maximal  LDIM  =      4   non local SUM 2l+1 LMDIM =      8
   total plane-waves  NPLWV =   5832
   max r-space proj   IRMAX =      1   max aug-charges    IRDMAX=  38875
   dimension x,y,z NGX =    18 NGY =   18 NGZ =   18
   dimension x,y,z NGXF=    36 NGYF=   36 NGZF=   36
   support grid    NGXF=    72 NGYF=   72 NGZF=   72
   ions per type =               2
   NGX,Y,Z   is equivalent  to a cutoff of   7.77,  7.77,  7.77 a.u.
   NGXF,Y,Z  is equivalent  to a cutoff of  15.55, 15.55, 15.55 a.u.

 SYSTEM =  unknown system                          
 POSCAR =  Si2                                     

 Startparameter for this run:
   NWRITE =      2    write-flag & timer
   PREC   = accura    normal or accurate (medium, high low for compatibility)
   ISTART =      0    job   : 0-new  1-cont  2-samecut
   ICHARG =      2    charge: 1-file 2-atom 10-const
   ISPIN  =      1    spin polarized calculation?
   LNONCOLLINEAR =      F non collinear calculations
   LSORBIT =      F    spin-orbit coupling
   INIWAV =      1    electr: 0-lowe 1-rand  2-diag
   LASPH  =      T    aspherical Exc in radial PAW
   METAGGA=      F    non-selfconsistent MetaGGA calc.

 Electronic Relaxation 1
   ENCUT  =  200.0 eV  14.70 Ry    3.83 a.u.   4.44  4.44  4.44*2*pi/ulx,y,z
   ENINI  =  200.0     initial cutoff
   ENAUG  =  322.1 eV  augmentation charge cutoff
   NELM   =     90;   NELMIN=  6; NELMDL= -5     # of ELM steps 
   EDIFF  = 0.1E-05   stopping-criterion for ELM
   LREAL  =      F    real-space projection
   NLSPLINE    = F    spline interpolate recip. space projectors
   LCOMPAT=      F    compatible to vasp.4.4
   GGA_COMPAT  = T    GGA compatible to vasp.4.4-vasp.4.6
   LMAXPAW     = -100 max onsite density
   LMAXMIX     =    2 max onsite mixed and CHGCAR
   VOSKOWN=      0    Vosko Wilk Nusair interpolation
   ROPT   =    0.00000
 Ionic relaxation
   EDIFFG = -.2E-02   stopping-criterion for IOM
   NSW    =    100    number of steps for IOM
   NBLOCK =      1;   KBLOCK =    100    inner block; outer block 
   IBRION =      2    ionic relax: 0-MD 1-quasi-New 2-CG
   NFREE  =      1    steps in history (QN), initial steepest desc. (CG)
   ISIF   =      3    stress and relaxation
   IWAVPR =     11    prediction:  0-non 1-charg 2-wave 3-comb
   ISYM   =      2    0-nonsym 1-usesym 2-fastsym
   LCORR  =      T    Harris-Foulkes like correction to forces

   POTIM  = 0.5000    time-step for ionic-motion
   TEIN   =    0.0    initial temperature
   TEBEG  =    0.0;   TEEND  =   0.0 temperature during run
   SMASS  =  -3.00    Nose mass-parameter (am)
   estimated Nose-frequenzy (Omega)   =  0.10E-29 period in steps = 0.13E+47 mass=  -0.339E-27a.u.
   SCALEE = 1.0000    scale energy and forces
   NPACO  =    256;   APACO  = 16.0  distance and # of slots for P.C.
   PSTRESS=    0.0 pullay stress

  Mass of Ions in am
   POMASS =  28.09
  Ionic Valenz
   ZVAL   =   4.00
  Atomic Wigner-Seitz radii
   RWIGS  =  -1.00
  virtual crystal weights 
   VCA    =   1.00
   NELECT =       8.0000    total number of electrons
   NUPDOWN=      -1.0000    fix difference up-down

 DOS related values:
   EMIN   =  10.00;   EMAX   =-10.00  energy-range for DOS
   EFERMI =   0.00
   ISMEAR =     0;   SIGMA  =   0.05  broadening in eV -4-tet -1-fermi 0-gaus

 Electronic relaxation 2 (details)
   IALGO  =     38    algorithm
   LDIAG  =      T    sub-space diagonalisation (order eigenvalues)
   LSUBROT=      F    optimize rotation matrix (better conditioning)
   TURBO    =      0    0=normal 1=particle mesh
   IRESTART =      0    0=no restart 2=restart with 2 vectors
   NREBOOT  =      0    no. of reboots
   NMIN     =      0    reboot dimension
   EREF     =   0.00    reference energy to select bands
   IMIX   =      4    mixing-type and parameters
     AMIX     =   0.40;   BMIX     =  1.00
     AMIX_MAG =   1.60;   BMIX_MAG =  1.00
     AMIN     =   0.10
     WC   =   100.;   INIMIX=   1;  MIXPRE=   1;  MAXMIX= -45

 Intra band minimization:
   WEIMIN = 0.0010     energy-eigenvalue tresh-hold
   EBREAK =  0.31E-07  absolut break condition
   DEPER  =   0.30     relativ break condition  

   TIME   =   0.40     timestep for ELM

  volume/ion in A,a.u.               =      20.16       136.08
  Fermi-wavevector in a.u.,A,eV,Ry     =   0.954766  1.804247 12.402783  0.911579
  Thomas-Fermi vector in A             =   2.083543
 
 Write flags
   LWAVE        =      F    write WAVECAR
   LDOWNSAMPLE  =      F    k-point downsampling of WAVECAR
   LCHARG       =      F    write CHGCAR
   LVTOT        =      F    write LOCPOT, total local potential
   LVHAR        =      F    write LOCPOT, Hartree potential only
   LELF         =      F    write electronic localiz. function (ELF)
   LORBIT       =      0    0 simple, 1 ext, 2 COOP (PROOUT), +10 PAW based schemes


 Dipole corrections
   LMONO  =      F    monopole corrections only (constant potential shift)
   LDIPOL =      F    correct potential (dipole corrections)
   IDIPOL =      0    1-x, 2-y, 3-z, 4-all directions 
   EPSILON=  1.0000000 bulk dielectric constant

 Exchange correlation treatment:
   GGA     =    --    GGA type
   LEXCH   =     8    internal setting for exchange type
   VOSKOWN=      0    Vosko Wilk Nusair interpolation
   LHFCALC =     F    Hartree Fock is set to
   LHFONE  =     F    Hartree Fock one center treatment
   AEXX    =    0.0000 exact exchange contribution

 Linear response parameters
   LEPSILON=     F    determine dielectric tensor
   LRPA    =     F    only Hartree local field effects (RPA)
   LNABLA  =     F    use nabla operator in PAW spheres
   LVEL    =     F    velocity operator in full k-point grid
   LINTERFAST=   F  fast interpolation
   KINTER  =     0    interpolate to denser k-point grid
   CSHIFT  =0.1000    complex shift for real part using Kramers Kronig
   OMEGAMAX=  -1.0    maximum frequency
   DEG_THRESHOLD= 0.2000000E-02 threshold for treating states as degnerate
   RTIME   =   -0.100 relaxation time in fs
  (WPLASMAI=    0.000 imaginary part of plasma frequency in eV, 0.658/RTIME)
   DFIELD  = 0.0000000 0.0000000 0.0000000 field for delta impulse in time
 
 Orbital magnetization related:
   ORBITALMAG=     F  switch on orbital magnetization
   LCHIMAG   =     F  perturbation theory with respect to B field
   DQ        =  0.001000  dq finite difference perturbation B field
   LLRAUG    =     F  two centre corrections for induced B field



--------------------------------------------------------------------------------------------------------


 conjugate gradient relaxation of ions
 charge density and potential will be updated during run
 non-spin polarized calculation
 Variant of blocked Davidson
 Davidson routine will perform the subspace rotation
 perform sub-space diagonalisation
    after iterative eigenvector-optimisation
 modified Broyden-mixing scheme, WC =      100.0
 initial mixing is a Kerker type mixing with AMIX =  0.4000 and BMIX =      1.0000
 Hartree-type preconditioning will be used
 using additional bands            4
 reciprocal scheme for non local part
 use partial core corrections
 calculate Harris-corrections to forces 
   (improved forces if not selfconsistent)
 use gradient corrections 
 use of overlap-Matrix (Vanderbilt PP)
 Gauss-broadening in eV      SIGMA  =   0.05


--------------------------------------------------------------------------------------------------------


  energy-cutoff  :      200.00
  volume of cell :       40.33
      direct lattice vectors                 reciprocal lattice vectors
     3.333573000  0.000000000  1.924639000     0.299978432 -0.106058350  0.000000000
     1.111191000  3.142924000  1.924639000     0.000000000  0.318175050  0.000000000
     0.000000000  0.000000000  3.849278000    -0.149989216 -0.106058350  0.259788979

  length of vectors
     3.849278403  3.849279412  3.849278000     0.318175161  0.318175050  0.318175190


 
 k-points in units of 2pi/SCALE and weight: Automatic                               
   0.00000000  0.00000000  0.00000000       0.000
   0.01999856 -0.00707056  0.00000000       0.002
   0.03999712 -0.01414111  0.00000000       0.002
   0.05999569 -0.02121167  0.00000000       0.002
   0.07999425 -0.02828223  0.00000000       0.002
   0.09999281 -0.03535278  0.00000000       0.002
   0.11999137 -0.04242334  0.00000000       0.002
   0.13998993 -0.04949390  0.00000000       0.002
   0.01999856  0.01414111  0.00000000       0.002
   0.03999712  0.00707056  0.00000000       0.007
   0.05999569  0.00000000  0.00000000       0.007
   0.07999425 -0.00707056  0.00000000       0.007
   0.09999281 -0.01414111  0.00000000       0.007
   0.11999137 -0.02121167  0.00000000       0.007
   0.13998993 -0.02828223  0.00000000       0.007
  -0.13998993  0.07070557  0.00000000       0.007
  -0.11999137  0.06363501  0.00000000       0.007
  -0.09999281  0.05656445  0.00000000       0.007
  -0.07999425  0.04949390  0.00000000       0.007
  -0.05999569  0.04242334  0.00000000       0.007
  -0.03999712  0.03535278  0.00000000       0.007
  -0.01999856  0.02828223  0.00000000       0.004
   0.03999712  0.02828223  0.00000000       0.002
   0.05999569  0.02121167  0.00000000       0.007
   0.07999425  0.01414111  0.00000000       0.007
   0.09999281  0.00707056  0.00000000       0.007
   0.11999137  0.00000000  0.00000000       0.007
   0.13998993 -0.00707056  0.00000000       0.007
  -0.13998993  0.09191724  0.00000000       0.007
  -0.11999137  0.08484668  0.00000000       0.007
  -0.09999281  0.07777612  0.00000000       0.007
  -0.07999425  0.07070557  0.00000000       0.007
  -0.05999569  0.06363501  0.00000000       0.007
  -0.03999712  0.05656445  0.00000000       0.004
   0.05999569  0.04242334  0.00000000       0.002
   0.07999425  0.03535278  0.00000000       0.007
   0.09999281  0.02828223  0.00000000       0.007
   0.11999137  0.02121167  0.00000000       0.007
   0.13998993  0.01414111  0.00000000       0.007
  -0.13998993  0.11312891  0.00000000       0.007
  -0.11999137  0.10605835  0.00000000       0.007
  -0.09999281  0.09898779  0.00000000       0.007
  -0.07999425  0.09191724  0.00000000       0.007
  -0.05999569  0.08484668  0.00000000       0.004
   0.07999425  0.05656445  0.00000000       0.002
   0.09999281  0.04949390  0.00000000       0.007
   0.11999137  0.04242334  0.00000000       0.007
   0.13998993  0.03535278  0.00000000       0.007
  -0.13998993  0.13434058  0.00000000       0.007
  -0.11999137  0.12727002  0.00000000       0.007
  -0.09999281  0.12019946  0.00000000       0.007
  -0.07999425  0.11312891  0.00000000       0.004
   0.09999281  0.07070557  0.00000000       0.002
   0.11999137  0.06363501  0.00000000       0.007
   0.13998993  0.05656445  0.00000000       0.007
  -0.13998993  0.15555225  0.00000000       0.007
  -0.11999137  0.14848169  0.00000000       0.007
  -0.09999281  0.14141113  0.00000000       0.004
   0.11999137  0.08484668  0.00000000       0.002
   0.13998993  0.07777612  0.00000000       0.007
  -0.13998993  0.17676392  0.00000000       0.007
  -0.11999137  0.16969336  0.00000000       0.004
   0.13998993  0.09898779  0.00000000       0.002
  -0.13998993  0.19797559  0.00000000       0.004
   0.04999641  0.01414111  0.01731927       0.007
   0.06999497  0.00707056  0.01731927       0.014
   0.08999353 -0.00000000  0.01731927       0.014
   0.10999209 -0.00707056  0.01731927       0.014
   0.12999065 -0.01414111  0.01731927       0.014
  -0.14998922  0.08484668  0.01731927       0.014
   0.06999497  0.02828223  0.01731927       0.007
   0.08999353  0.02121167  0.01731927       0.014
   0.10999209  0.01414111  0.01731927       0.014
   0.12999065  0.00707056  0.01731927       0.014
  -0.14998922  0.10605835  0.01731927       0.014
  -0.12999065  0.09898779  0.01731927       0.014
  -0.10999209  0.09191724  0.01731927       0.014
  -0.08999353  0.08484668  0.01731927       0.014
  -0.06999497  0.07777612  0.01731927       0.014
  -0.04999641  0.07070557  0.01731927       0.007
   0.08999353  0.04242334  0.01731927       0.007
   0.10999209  0.03535278  0.01731927       0.014
   0.12999065  0.02828223  0.01731927       0.014
  -0.14998922  0.12727002  0.01731927       0.014
  -0.12999065  0.12019946  0.01731927       0.014
  -0.10999209  0.11312891  0.01731927       0.014
  -0.08999353  0.10605835  0.01731927       0.014
  -0.06999497  0.09898779  0.01731927       0.007
   0.10999209  0.05656445  0.01731927       0.007
   0.12999065  0.04949390  0.01731927       0.014
  -0.14998922  0.14848169  0.01731927       0.014
  -0.12999065  0.14141113  0.01731927       0.014
  -0.10999209  0.13434058  0.01731927       0.014
  -0.08999353  0.12727002  0.01731927       0.007
   0.12999065  0.07070557  0.01731927       0.007
  -0.14998922  0.16969336  0.01731927       0.014
  -0.12999065  0.16262280  0.01731927       0.014
  -0.10999209  0.15555225  0.01731927       0.007
  -0.14998922  0.19090503  0.01731927       0.007
  -0.12999065  0.18383447  0.01731927       0.007
   0.09999281  0.02828223  0.03463853       0.007
   0.11999137  0.02121167  0.03463853       0.014
  -0.15998850  0.12019946  0.03463853       0.014
  -0.13998993  0.11312891  0.03463853       0.014
   0.11999137  0.04242334  0.03463853       0.007
  -0.15998850  0.14141113  0.03463853       0.014
  -0.13998993  0.13434058  0.03463853       0.014
  -0.11999137  0.12727002  0.03463853       0.014
  -0.09999281  0.12019946  0.03463853       0.014
  -0.07999425  0.11312891  0.03463853       0.007
  -0.15998850  0.16262280  0.03463853       0.007
  -0.13998993  0.15555225  0.03463853       0.014
  -0.11999137  0.14848169  0.03463853       0.014
  -0.09999281  0.14141113  0.03463853       0.007
  -0.13998993  0.17676392  0.03463853       0.007
  -0.11999137  0.16969336  0.03463853       0.007
  -0.14998922  0.14848169  0.05195780       0.007
  -0.12999065  0.14141113  0.05195780       0.014
  -0.12999065  0.16262280  0.05195780       0.007
  -0.10999209  0.15555225  0.05195780       0.007
 
 k-points in reciprocal lattice and weights: Automatic                               
   0.00000000  0.00000000  0.00000000       0.000
   0.06666667 -0.00000000  0.00000000       0.002
   0.13333333 -0.00000000  0.00000000       0.002
   0.20000000  0.00000000  0.00000000       0.002
   0.26666667 -0.00000000  0.00000000       0.002
   0.33333333 -0.00000000  0.00000000       0.002
   0.40000000 -0.00000000  0.00000000       0.002
   0.46666667 -0.00000000  0.00000000       0.002
   0.06666667  0.06666667  0.00000000       0.002
   0.13333333  0.06666667  0.00000000       0.007
   0.20000000  0.06666667  0.00000000       0.007
   0.26666667  0.06666667  0.00000000       0.007
   0.33333333  0.06666667  0.00000000       0.007
   0.40000000  0.06666667  0.00000000       0.007
   0.46666667  0.06666667  0.00000000       0.007
  -0.46666667  0.06666667  0.00000000       0.007
  -0.40000000  0.06666667  0.00000000       0.007
  -0.33333333  0.06666667  0.00000000       0.007
  -0.26666667  0.06666667  0.00000000       0.007
  -0.20000000  0.06666667  0.00000000       0.007
  -0.13333333  0.06666667  0.00000000       0.007
  -0.06666667  0.06666667  0.00000000       0.004
   0.13333333  0.13333333  0.00000000       0.002
   0.20000000  0.13333333  0.00000000       0.007
   0.26666667  0.13333333  0.00000000       0.007
   0.33333333  0.13333333  0.00000000       0.007
   0.40000000  0.13333333  0.00000000       0.007
   0.46666667  0.13333333  0.00000000       0.007
  -0.46666667  0.13333333  0.00000000       0.007
  -0.40000000  0.13333333  0.00000000       0.007
  -0.33333333  0.13333333  0.00000000       0.007
  -0.26666667  0.13333333  0.00000000       0.007
  -0.20000000  0.13333333  0.00000000       0.007
  -0.13333333  0.13333333  0.00000000       0.004
   0.20000000  0.20000000  0.00000000       0.002
   0.26666667  0.20000000  0.00000000       0.007
   0.33333333  0.20000000  0.00000000       0.007
   0.40000000  0.20000000  0.00000000       0.007
   0.46666667  0.20000000  0.00000000       0.007
  -0.46666667  0.20000000  0.00000000       0.007
  -0.40000000  0.20000000  0.00000000       0.007
  -0.33333333  0.20000000  0.00000000       0.007
  -0.26666667  0.20000000  0.00000000       0.007
  -0.20000000  0.20000000  0.00000000       0.004
   0.26666667  0.26666667  0.00000000       0.002
   0.33333333  0.26666667  0.00000000       0.007
   0.40000000  0.26666667  0.00000000       0.007
   0.46666667  0.26666667  0.00000000       0.007
  -0.46666667  0.26666667  0.00000000       0.007
  -0.40000000  0.26666667  0.00000000       0.007
  -0.33333333  0.26666667  0.00000000       0.007
  -0.26666667  0.26666667  0.00000000       0.004
   0.33333333  0.33333333  0.00000000       0.002
   0.40000000  0.33333333  0.00000000       0.007
   0.46666667  0.33333333  0.00000000       0.007
  -0.46666667  0.33333333  0.00000000       0.007
  -0.40000000  0.33333333  0.00000000       0.007
  -0.33333333  0.33333333  0.00000000       0.004
   0.40000000  0.40000000  0.00000000       0.002
   0.46666667  0.40000000  0.00000000       0.007
  -0.46666667  0.40000000  0.00000000       0.007
  -0.40000000  0.40000000  0.00000000       0.004
   0.46666667  0.46666667  0.00000000       0.002
  -0.46666667  0.46666667  0.00000000       0.004
   0.20000000  0.13333333  0.06666667       0.007
   0.26666667  0.13333333  0.06666667       0.014
   0.33333333  0.13333333  0.06666667       0.014
   0.40000000  0.13333333  0.06666667       0.014
   0.46666667  0.13333333  0.06666667       0.014
  -0.46666667  0.13333333  0.06666667       0.014
   0.26666667  0.20000000  0.06666667       0.007
   0.33333333  0.20000000  0.06666667       0.014
   0.40000000  0.20000000  0.06666667       0.014
   0.46666667  0.20000000  0.06666667       0.014
  -0.46666667  0.20000000  0.06666667       0.014
  -0.40000000  0.20000000  0.06666667       0.014
  -0.33333333  0.20000000  0.06666667       0.014
  -0.26666667  0.20000000  0.06666667       0.014
  -0.20000000  0.20000000  0.06666667       0.014
  -0.13333333  0.20000000  0.06666667       0.007
   0.33333333  0.26666667  0.06666667       0.007
   0.40000000  0.26666667  0.06666667       0.014
   0.46666667  0.26666667  0.06666667       0.014
  -0.46666667  0.26666667  0.06666667       0.014
  -0.40000000  0.26666667  0.06666667       0.014
  -0.33333333  0.26666667  0.06666667       0.014
  -0.26666667  0.26666667  0.06666667       0.014
  -0.20000000  0.26666667  0.06666667       0.007
   0.40000000  0.33333333  0.06666667       0.007
   0.46666667  0.33333333  0.06666667       0.014
  -0.46666667  0.33333333  0.06666667       0.014
  -0.40000000  0.33333333  0.06666667       0.014
  -0.33333333  0.33333333  0.06666667       0.014
  -0.26666667  0.33333333  0.06666667       0.007
   0.46666667  0.40000000  0.06666667       0.007
  -0.46666667  0.40000000  0.06666667       0.014
  -0.40000000  0.40000000  0.06666667       0.014
  -0.33333333  0.40000000  0.06666667       0.007
  -0.46666667  0.46666667  0.06666667       0.007
  -0.40000000  0.46666667  0.06666667       0.007
   0.40000000  0.26666667  0.13333333       0.007
   0.46666667  0.26666667  0.13333333       0.014
  -0.46666667  0.26666667  0.13333333       0.014
  -0.40000000  0.26666667  0.13333333       0.014
   0.46666667  0.33333333  0.13333333       0.007
  -0.46666667  0.33333333  0.13333333       0.014
  -0.40000000  0.33333333  0.13333333       0.014
  -0.33333333  0.33333333  0.13333333       0.014
  -0.26666667  0.33333333  0.13333333       0.014
  -0.20000000  0.33333333  0.13333333       0.007
  -0.46666667  0.40000000  0.13333333       0.007
  -0.40000000  0.40000000  0.13333333       0.014
  -0.33333333  0.40000000  0.13333333       0.014
  -0.26666667  0.40000000  0.13333333       0.007
  -0.40000000  0.46666667  0.13333333       0.007
  -0.33333333  0.46666667  0.13333333       0.007
  -0.40000000  0.40000000  0.20000000       0.007
  -0.33333333  0.40000000  0.20000000       0.014
  -0.33333333  0.46666667  0.20000000       0.007
  -0.26666667  0.46666667  0.20000000       0.007
 
 position of ions in fractional coordinates (direct lattice) 
   0.87500000  0.87500000  0.87500000
   0.12500000  0.12500000  0.12500000
 
 position of ions in cartesian coordinates  (Angst):
   3.88916850  2.75005850  6.73623650
   0.55559550  0.39286550  0.96231950
 


--------------------------------------------------------------------------------------------------------


 k-point   1 :   0.0000 0.0000 0.0000  plane waves:     259
 k-point   2 :   0.0667-0.0000 0.0000  plane waves:     265
 k-point   3 :   0.1333-0.0000 0.0000  plane waves:     271
 k-point   4 :   0.2000 0.0000 0.0000  plane waves:     271
 k-point   5 :   0.2667-0.0000 0.0000  plane waves:     262
 k-point   6 :   0.3333-0.0000 0.0000  plane waves:     256
 k-point   7 :   0.4000-0.0000 0.0000  plane waves:     257
 k-point   8 :   0.4667-0.0000 0.0000  plane waves:     266
 k-point   9 :   0.0667 0.0667 0.0000  plane waves:     263
 k-point  10 :   0.1333 0.0667 0.0000  plane waves:     267
 k-point  11 :   0.2000 0.0667 0.0000  plane waves:     270
 k-point  12 :   0.2667 0.0667 0.0000  plane waves:     265
 k-point  13 :   0.3333 0.0667 0.0000  plane waves:     261
 k-point  14 :   0.4000 0.0667 0.0000  plane waves:     263
 k-point  15 :   0.4667 0.0667 0.0000  plane waves:     263
 k-point  16 :  -0.4667 0.0667 0.0000  plane waves:     258
 k-point  17 :  -0.4000 0.0667 0.0000  plane waves:     258
 k-point  18 :  -0.3333 0.0667 0.0000  plane waves:     260
 k-point  19 :  -0.2667 0.0667 0.0000  plane waves:     265
 k-point  20 :  -0.2000 0.0667 0.0000  plane waves:     268
 k-point  21 :  -0.1333 0.0667 0.0000  plane waves:     268
 k-point  22 :  -0.0667 0.0667 0.0000  plane waves:     267
 k-point  23 :   0.1333 0.1333 0.0000  plane waves:     267
 k-point  24 :   0.2000 0.1333 0.0000  plane waves:     265
 k-point  25 :   0.2667 0.1333 0.0000  plane waves:     267
 k-point  26 :   0.3333 0.1333 0.0000  plane waves:     263
 k-point  27 :   0.4000 0.1333 0.0000  plane waves:     261
 k-point  28 :   0.4667 0.1333 0.0000  plane waves:     257
 k-point  29 :  -0.4667 0.1333 0.0000  plane waves:     257
 k-point  30 :  -0.4000 0.1333 0.0000  plane waves:     256
 k-point  31 :  -0.3333 0.1333 0.0000  plane waves:     256
 k-point  32 :  -0.2667 0.1333 0.0000  plane waves:     262
 k-point  33 :  -0.2000 0.1333 0.0000  plane waves:     264
 k-point  34 :  -0.1333 0.1333 0.0000  plane waves:     269
 k-point  35 :   0.2000 0.2000 0.0000  plane waves:     274
 k-point  36 :   0.2667 0.2000 0.0000  plane waves:     266
 k-point  37 :   0.3333 0.2000 0.0000  plane waves:     258
 k-point  38 :   0.4000 0.2000 0.0000  plane waves:     260
 k-point  39 :   0.4667 0.2000 0.0000  plane waves:     257
 k-point  40 :  -0.4667 0.2000 0.0000  plane waves:     255
 k-point  41 :  -0.4000 0.2000 0.0000  plane waves:     259
 k-point  42 :  -0.3333 0.2000 0.0000  plane waves:     258
 k-point  43 :  -0.2667 0.2000 0.0000  plane waves:     260
 k-point  44 :  -0.2000 0.2000 0.0000  plane waves:     265
 k-point  45 :   0.2667 0.2667 0.0000  plane waves:     258
 k-point  46 :   0.3333 0.2667 0.0000  plane waves:     257
 k-point  47 :   0.4000 0.2667 0.0000  plane waves:     257
 k-point  48 :   0.4667 0.2667 0.0000  plane waves:     255
 k-point  49 :  -0.4667 0.2667 0.0000  plane waves:     254
 k-point  50 :  -0.4000 0.2667 0.0000  plane waves:     257
 k-point  51 :  -0.3333 0.2667 0.0000  plane waves:     256
 k-point  52 :  -0.2667 0.2667 0.0000  plane waves:     256
 k-point  53 :   0.3333 0.3333 0.0000  plane waves:     250
 k-point  54 :   0.4000 0.3333 0.0000  plane waves:     253
 k-point  55 :   0.4667 0.3333 0.0000  plane waves:     253
 k-point  56 :  -0.4667 0.3333 0.0000  plane waves:     255
 k-point  57 :  -0.4000 0.3333 0.0000  plane waves:     257
 k-point  58 :  -0.3333 0.3333 0.0000  plane waves:     256
 k-point  59 :   0.4000 0.4000 0.0000  plane waves:     254
 k-point  60 :   0.4667 0.4000 0.0000  plane waves:     252
 k-point  61 :  -0.4667 0.4000 0.0000  plane waves:     258
 k-point  62 :  -0.4000 0.4000 0.0000  plane waves:     252
 k-point  63 :   0.4667 0.4667 0.0000  plane waves:     254
 k-point  64 :  -0.4667 0.4667 0.0000  plane waves:     254
 k-point  65 :   0.2000 0.1333 0.0667  plane waves:     268
 k-point  66 :   0.2667 0.1333 0.0667  plane waves:     267
 k-point  67 :   0.3333 0.1333 0.0667  plane waves:     261
 k-point  68 :   0.4000 0.1333 0.0667  plane waves:     262
 k-point  69 :   0.4667 0.1333 0.0667  plane waves:     258
 k-point  70 :  -0.4667 0.1333 0.0667  plane waves:     256
 k-point  71 :   0.2667 0.2000 0.0667  plane waves:     263
 k-point  72 :   0.3333 0.2000 0.0667  plane waves:     264
 k-point  73 :   0.4000 0.2000 0.0667  plane waves:     261
 k-point  74 :   0.4667 0.2000 0.0667  plane waves:     257
 k-point  75 :  -0.4667 0.2000 0.0667  plane waves:     254
 k-point  76 :  -0.4000 0.2000 0.0667  plane waves:     255
 k-point  77 :  -0.3333 0.2000 0.0667  plane waves:     258
 k-point  78 :  -0.2667 0.2000 0.0667  plane waves:     260
 k-point  79 :  -0.2000 0.2000 0.0667  plane waves:     263
 k-point  80 :  -0.1333 0.2000 0.0667  plane waves:     265
 k-point  81 :   0.3333 0.2667 0.0667  plane waves:     259
 k-point  82 :   0.4000 0.2667 0.0667  plane waves:     261
 k-point  83 :   0.4667 0.2667 0.0667  plane waves:     257
 k-point  84 :  -0.4667 0.2667 0.0667  plane waves:     257
 k-point  85 :  -0.4000 0.2667 0.0667  plane waves:     258
 k-point  86 :  -0.3333 0.2667 0.0667  plane waves:     255
 k-point  87 :  -0.2667 0.2667 0.0667  plane waves:     257
 k-point  88 :  -0.2000 0.2667 0.0667  plane waves:     260
 k-point  89 :   0.4000 0.3333 0.0667  plane waves:     258
 k-point  90 :   0.4667 0.3333 0.0667  plane waves:     256
 k-point  91 :  -0.4667 0.3333 0.0667  plane waves:     257
 k-point  92 :  -0.4000 0.3333 0.0667  plane waves:     256
 k-point  93 :  -0.3333 0.3333 0.0667  plane waves:     259
 k-point  94 :  -0.2667 0.3333 0.0667  plane waves:     258
 k-point  95 :   0.4667 0.4000 0.0667  plane waves:     255
 k-point  96 :  -0.4667 0.4000 0.0667  plane waves:     258
 k-point  97 :  -0.4000 0.4000 0.0667  plane waves:     257
 k-point  98 :  -0.3333 0.4000 0.0667  plane waves:     258
 k-point  99 :  -0.4667 0.4667 0.0667  plane waves:     255
 k-point 100 :  -0.4000 0.4667 0.0667  plane waves:     252
 k-point 101 :   0.4000 0.2667 0.1333  plane waves:     265
 k-point 102 :   0.4667 0.2667 0.1333  plane waves:     260
 k-point 103 :  -0.4667 0.2667 0.1333  plane waves:     259
 k-point 104 :  -0.4000 0.2667 0.1333  plane waves:     257
 k-point 105 :   0.4667 0.3333 0.1333  plane waves:     255
 k-point 106 :  -0.4667 0.3333 0.1333  plane waves:     254
 k-point 107 :  -0.4000 0.3333 0.1333  plane waves:     256
 k-point 108 :  -0.3333 0.3333 0.1333  plane waves:     258
 k-point 109 :  -0.2667 0.3333 0.1333  plane waves:     258
 k-point 110 :  -0.2000 0.3333 0.1333  plane waves:     260
 k-point 111 :  -0.4667 0.4000 0.1333  plane waves:     253
 k-point 112 :  -0.4000 0.4000 0.1333  plane waves:     256
 k-point 113 :  -0.3333 0.4000 0.1333  plane waves:     258
 k-point 114 :  -0.2667 0.4000 0.1333  plane waves:     259
 k-point 115 :  -0.4000 0.4667 0.1333  plane waves:     253
 k-point 116 :  -0.3333 0.4667 0.1333  plane waves:     260
 k-point 117 :  -0.4000 0.4000 0.2000  plane waves:     256
 k-point 118 :  -0.3333 0.4000 0.2000  plane waves:     260
 k-point 119 :  -0.3333 0.4667 0.2000  plane waves:     256
 k-point 120 :  -0.2667 0.4667 0.2000  plane waves:     260

 maximum and minimum number of plane-waves per node :       274      250

 maximum number of plane-waves:       274
 maximum index in each direction: 
   IXMAX=    4   IYMAX=    4   IZMAX=    4
   IXMIN=   -4   IYMIN=   -4   IZMIN=   -4


 serial   3D FFT for wavefunctions
 parallel 3D FFT for charge:
    minimum data exchange during FFTs selected (reduces bandwidth)


 total amount of memory used by VASP MPI-rank0    35849. kBytes
=======================================================================

   base      :      30000. kBytes
   nonl-proj :       2128. kBytes
   fftplans  :       1775. kBytes
   grid      :        819. kBytes
   one-center:          6. kBytes
   wavefun   :       1121. kBytes
 
     INWAV:  cpu time    0.0000: real time    0.0006
 Broyden mixing: mesh for mixing (old mesh)
   NGX =  9   NGY =  9   NGZ =  9
  (NGX  = 36   NGY  = 36   NGZ  = 36)
  gives a total of    729 points

 initial charge density was supplied:
 charge density of overlapping atoms calculated
 number of electron       8.0000000 magnetization 
 keeping initial charge density in first step


--------------------------------------------------------------------------------------------------------


 Maximum index for augmentation-charges         9364 (set IRDMAX)


--------------------------------------------------------------------------------------------------------


 First call to EWALD:  gamma=   0.517
 Maximum number of real-space cells 3x 3x 3
 Maximum number of reciprocal cells 3x 3x 3

    FEWALD:  cpu time    0.0030: real time    0.0034


--------------------------------------- Iteration      1(   1)  ---------------------------------------


    POTLOK:  cpu time    0.0130: real time    0.0172
    SETDIJ:  cpu time    0.1640: real time    0.1637
     EDDAV:  cpu time    0.5859: real time    0.5873
       DOS:  cpu time    0.0030: real time    0.0021
    --------------------------------------------
      LOOP:  cpu time    0.7659: real time    0.7706

 eigenvalue-minimisations  :  2008
 total energy-change (2. order) :-0.3553039E+01  (-0.1869450E+03)
 number of electron       8.0000000 magnetization 
 augmentation part        8.0000000 magnetization 

 Free energy of the ion-electron system (eV)
  ---------------------------------------------------
  alpha Z        PSCENC =         3.33880741
  Ewald energy   TEWEN  =      -227.98820643
  -Hartree energ DENC   =       -11.11484531
  -exchange      EXHF   =         0.00000000
  -V(xc)+E(xc)   XCENC  =       -18.63152474
  PAW double counting   =       176.24759923     -141.06103558
  entropy T*S    EENTRO =        -0.00021818
  eigenvalues    EBANDS =         9.54391199
  atomic energy  EATOM  =       206.11247263
  Solvation  Ediel_sol  =         0.00000000
  ---------------------------------------------------
  free energy    TOTEN  =        -3.55303898 eV

  energy without entropy =       -3.55282080  energy(sigma->0) =       -3.55292989


--------------------------------------------------------------------------------------------------------




--------------------------------------- Iteration      1(   2)  ---------------------------------------


     EDDAV:  cpu time    0.8739: real time    0.8861
       DOS:  cpu time    0.0010: real time    0.0013
    --------------------------------------------
      LOOP:  cpu time    0.8749: real time    0.8874

 eigenvalue-minimisations  :  3048
 total energy-change (2. order) :-0.7358630E+01  (-0.6830667E+01)
 number of electron       8.0000000 magnetization 
 augmentation part        8.0000000 magnetization 

 Free energy of the ion-electron system (eV)
  ---------------------------------------------------
  alpha Z        PSCENC =         3.33880741
  Ewald energy   TEWEN  =      -227.98820643
  -Hartree energ DENC   =       -11.11484531
  -exchange      EXHF   =         0.00000000
  -V(xc)+E(xc)   XCENC  =       -18.63152474
  PAW double counting   =       176.24759923     -141.06103558
  entropy T*S    EENTRO =        -0.00000000
  eigenvalues    EBANDS =         2.18506431
  atomic energy  EATOM  =       206.11247263
  Solvation  Ediel_sol  =         0.00000000
  ---------------------------------------------------
  free energy    TOTEN  =       -10.91166849 eV

  energy without entropy =      -10.91166849  energy(sigma->0) =      -10.91166849


--------------------------------------------------------------------------------------------------------




--------------------------------------- Iteration      1(   3)  ---------------------------------------


     EDDAV:  cpu time    0.6969: real time    0.7090
       DOS:  cpu time    0.0010: real time    0.0013
    --------------------------------------------
      LOOP:  cpu time    0.6979: real time    0.7103

 eigenvalue-minimisations  :  2408
 total energy-change (2. order) :-0.6453276E-01  (-0.6453276E-01)
 number of electron       8.0000000 magnetization 
 augmentation part        8.0000000 magnetization 

 Free energy of the ion-electron system (eV)
  ---------------------------------------------------
  alpha Z        PSCENC =         3.33880741
  Ewald energy   TEWEN  =      -227.98820643
  -Hartree energ DENC   =       -11.11484531
  -exchange      EXHF   =         0.00000000
  -V(xc)+E(xc)   XCENC  =       -18.63152474
  PAW double counting   =       176.24759923     -141.06103558
  entropy T*S    EENTRO =        -0.00000000
  eigenvalues    EBANDS =         2.12053154
  atomic energy  EATOM  =       206.11247263
  Solvation  Ediel_sol  =         0.00000000
  ---------------------------------------------------
  free energy    TOTEN  =       -10.97620125 eV

  energy without entropy =      -10.97620125  energy(sigma->0) =      -10.97620125


--------------------------------------------------------------------------------------------------------




--------------------------------------- Iteration      1(   4)  ---------------------------------------


     EDDAV:  cpu time    0.8739: real time    0.8858
       DOS:  cpu time    0.0010: real time    0.0014
    --------------------------------------------
      LOOP:  cpu time    0.8759: real time    0.8871

 eigenvalue-minimisations  :  3064
 total energy-change (2. order) :-0.1496324E-03  (-0.1496324E-03)
 number of electron       8.0000000 magnetization 
 augmentation part        8.0000000 magnetization 

 Free energy of the ion-electron system (eV)
  ---------------------------------------------------
  alpha Z        PSCENC =         3.33880741
  Ewald energy   TEWEN  =      -227.98820643
  -Hartree energ DENC   =       -11.11484531
  -exchange      EXHF   =         0.00000000
  -V(xc)+E(xc)   XCENC  =       -18.63152474
  PAW double counting   =       176.24759923     -141.06103558
  entropy T*S    EENTRO =        -0.00000000
  eigenvalues    EBANDS =         2.12038191
  atomic energy  EATOM  =       206.11247263
  Solvation  Ediel_sol  =         0.00000000
  ---------------------------------------------------
  free energy    TOTEN  =       -10.97635088 eV

  energy without entropy =      -10.97635088  energy(sigma->0) =      -10.97635088


--------------------------------------------------------------------------------------------------------




--------------------------------------- Iteration      1(   5)  ---------------------------------------


     EDDAV:  cpu time    0.6889: real time    0.7002
       DOS:  cpu time    0.0000: real time    0.0013
    CHARGE:  cpu time    0.0370: real time    0.0370
    MIXING:  cpu time    0.0010: real time    0.0009
    --------------------------------------------
      LOOP:  cpu time    0.7259: real time    0.7394

 eigenvalue-minimisations  :  2384
 total energy-change (2. order) :-0.1652247E-06  (-0.1652280E-06)
 number of electron       8.0000000 magnetization 
 augmentation part       -0.4666417 magnetization 

 Broyden mixing:
  rms(total) = 0.60589E+00    rms(broyden)= 0.60588E+00
  rms(prec ) = 0.10095E+01
  weight for this iteration     100.00

 Free energy of the ion-electron system (eV)
  ---------------------------------------------------
  alpha Z        PSCENC =         3.33880741
  Ewald energy   TEWEN  =      -227.98820643
  -Hartree energ DENC   =       -11.11484531
  -exchange      EXHF   =         0.00000000
  -V(xc)+E(xc)   XCENC  =       -18.63152474
  PAW double counting   =       176.24759923     -141.06103558
  entropy T*S    EENTRO =        -0.00000000
  eigenvalues    EBANDS =         2.12038175
  atomic energy  EATOM  =       206.11247263
  Solvation  Ediel_sol  =         0.00000000
  ---------------------------------------------------
  free energy    TOTEN  =       -10.97635105 eV

  energy without entropy =      -10.97635105  energy(sigma->0) =      -10.97635105


--------------------------------------------------------------------------------------------------------




--------------------------------------- Iteration      1(   6)  ---------------------------------------


    POTLOK:  cpu time    0.0160: real time    0.0262
    SETDIJ:  cpu time    0.1640: real time    0.1645
     EDDAV:  cpu time    0.6739: real time    0.6734
       DOS:  cpu time    0.0000: real time    0.0015
    CHARGE:  cpu time    0.0370: real time    0.0363
    MIXING:  cpu time    0.0010: real time    0.0010
    --------------------------------------------
      LOOP:  cpu time    0.8919: real time    0.9029

 eigenvalue-minimisations  :  2328
 total energy-change (2. order) : 0.1207687E+00  (-0.7797531E-02)
 number of electron       8.0000000 magnetization 
 augmentation part       -0.4609968 magnetization 

 Broyden mixing:
  rms(total) = 0.37202E+00    rms(broyden)= 0.37202E+00
  rms(prec ) = 0.60377E+00
  weight for this iteration     100.00

 eigenvalues of (default mixing * dielectric matrix)
  average eigenvalue GAMMA=   2.5848
  2.5848

 Free energy of the ion-electron system (eV)
  ---------------------------------------------------
  alpha Z        PSCENC =         3.33880741
  Ewald energy   TEWEN  =      -227.98820643
  -Hartree energ DENC   =       -12.59254290
  -exchange      EXHF   =         0.00000000
  -V(xc)+E(xc)   XCENC  =       -18.38749297
  PAW double counting   =       470.41275749     -435.33850068
  entropy T*S    EENTRO =        -0.00000000
  eigenvalues    EBANDS =         3.58712315
  atomic energy  EATOM  =       206.11247263
  Solvation  Ediel_sol  =         0.00000000
  ---------------------------------------------------
  free energy    TOTEN  =       -10.85558230 eV

  energy without entropy =      -10.85558230  energy(sigma->0) =      -10.85558230


--------------------------------------------------------------------------------------------------------




--------------------------------------- Iteration      1(   7)  ---------------------------------------


    POTLOK:  cpu time    0.0150: real time    0.0262
    SETDIJ:  cpu time    0.1630: real time    0.1638
     EDDAV:  cpu time    0.6999: real time    0.7009
       DOS:  cpu time    0.0010: real time    0.0014
    CHARGE:  cpu time    0.0360: real time    0.0359
    MIXING:  cpu time    0.0010: real time    0.0008
    --------------------------------------------
      LOOP:  cpu time    0.9159: real time    0.9289

 eigenvalue-minimisations  :  2440
 total energy-change (2. order) : 0.5514696E-01  (-0.1506157E-01)
 number of electron       8.0000000 magnetization 
 augmentation part       -0.4541421 magnetization 

 Broyden mixing:
  rms(total) = 0.18434E-01    rms(broyden)= 0.18433E-01
  rms(prec ) = 0.41309E-01
  weight for this iteration     100.00

 eigenvalues of (default mixing * dielectric matrix)
  average eigenvalue GAMMA=   2.0370
  1.6683  2.4056

 Free energy of the ion-electron system (eV)
  ---------------------------------------------------
  alpha Z        PSCENC =         3.33880741
  Ewald energy   TEWEN  =      -227.98820643
  -Hartree energ DENC   =       -15.03081159
  -exchange      EXHF   =         0.00000000
  -V(xc)+E(xc)   XCENC  =       -17.98134060
  PAW double counting   =      1245.31405683    -1210.38816075
  entropy T*S    EENTRO =        -0.00000000
  eigenvalues    EBANDS =         5.82274717
  atomic energy  EATOM  =       206.11247263
  Solvation  Ediel_sol  =         0.00000000
  ---------------------------------------------------
  free energy    TOTEN  =       -10.80043534 eV

  energy without entropy =      -10.80043534  energy(sigma->0) =      -10.80043534


--------------------------------------------------------------------------------------------------------




--------------------------------------- Iteration      1(   8)  ---------------------------------------


    POTLOK:  cpu time    0.0150: real time    0.0264
    SETDIJ:  cpu time    0.1640: real time    0.1639
     EDDAV:  cpu time    0.6089: real time    0.6102
       DOS:  cpu time    0.0020: real time    0.0015
    CHARGE:  cpu time    0.0340: real time    0.0357
    MIXING:  cpu time    0.0010: real time    0.0009
    --------------------------------------------
      LOOP:  cpu time    0.8259: real time    0.8387

 eigenvalue-minimisations  :  2096
 total energy-change (2. order) :-0.8975536E-03  (-0.3354268E-03)
 number of electron       8.0000000 magnetization 
 augmentation part       -0.4550815 magnetization 

 Broyden mixing:
  rms(total) = 0.70488E-02    rms(broyden)= 0.70486E-02
  rms(prec ) = 0.13695E-01
  weight for this iteration     100.00

 eigenvalues of (default mixing * dielectric matrix)
  average eigenvalue GAMMA=   2.2034
  2.8378  1.7887  1.9836

 Free energy of the ion-electron system (eV)
  ---------------------------------------------------
  alpha Z        PSCENC =         3.33880741
  Ewald energy   TEWEN  =      -227.98820643
  -Hartree energ DENC   =       -14.94043236
  -exchange      EXHF   =         0.00000000
  -V(xc)+E(xc)   XCENC  =       -17.98511461
  PAW double counting   =      1250.65912829    -1215.70666836
  entropy T*S    EENTRO =        -0.00000000
  eigenvalues    EBANDS =         5.70868053
  atomic energy  EATOM  =       206.11247263
  Solvation  Ediel_sol  =         0.00000000
  ---------------------------------------------------
  free energy    TOTEN  =       -10.80133290 eV

  energy without entropy =      -10.80133290  energy(sigma->0) =      -10.80133290


--------------------------------------------------------------------------------------------------------




--------------------------------------- Iteration      1(   9)  ---------------------------------------


    POTLOK:  cpu time    0.0160: real time    0.0265
    SETDIJ:  cpu time    0.1640: real time    0.1641
     EDDAV:  cpu time    0.7769: real time    0.7782
       DOS:  cpu time    0.0010: real time    0.0013
    CHARGE:  cpu time    0.0350: real time    0.0359
    MIXING:  cpu time    0.0010: real time    0.0009
    --------------------------------------------
      LOOP:  cpu time    0.9938: real time    1.0069

 eigenvalue-minimisations  :  2720
 total energy-change (2. order) :-0.2238989E-03  (-0.2216702E-04)
 number of electron       8.0000000 magnetization 
 augmentation part       -0.4552346 magnetization 

 Broyden mixing:
  rms(total) = 0.61140E-02    rms(broyden)= 0.61140E-02
  rms(prec ) = 0.68580E-02
  weight for this iteration     100.00

 eigenvalues of (default mixing * dielectric matrix)
  average eigenvalue GAMMA=   2.0758
  0.9257  2.6703  2.3536  2.3536

 Free energy of the ion-electron system (eV)
  ---------------------------------------------------
  alpha Z        PSCENC =         3.33880741
  Ewald energy   TEWEN  =      -227.98820643
  -Hartree energ DENC   =       -14.98208991
  -exchange      EXHF   =         0.00000000
  -V(xc)+E(xc)   XCENC  =       -17.97623084
  PAW double counting   =      1257.86851624    -1222.91262715
  entropy T*S    EENTRO =        -0.00000000
  eigenvalues    EBANDS =         5.73780125
  atomic energy  EATOM  =       206.11247263
  Solvation  Ediel_sol  =         0.00000000
  ---------------------------------------------------
  free energy    TOTEN  =       -10.80155680 eV

  energy without entropy =      -10.80155680  energy(sigma->0) =      -10.80155680


--------------------------------------------------------------------------------------------------------




--------------------------------------- Iteration      1(  10)  ---------------------------------------


    POTLOK:  cpu time    0.0150: real time    0.0310
    SETDIJ:  cpu time    0.1640: real time    0.1639
     EDDAV:  cpu time    0.6399: real time    0.6396
       DOS:  cpu time    0.0000: real time    0.0015
    CHARGE:  cpu time    0.0360: real time    0.0359
    MIXING:  cpu time    0.0010: real time    0.0009
    --------------------------------------------
      LOOP:  cpu time    0.8549: real time    0.8728

 eigenvalue-minimisations  :  2208
 total energy-change (2. order) :-0.2400488E-04  (-0.2635530E-05)
 number of electron       8.0000000 magnetization 
 augmentation part       -0.4552051 magnetization 

 Broyden mixing:
  rms(total) = 0.88464E-03    rms(broyden)= 0.88457E-03
  rms(prec ) = 0.99810E-03
  weight for this iteration     100.00

 eigenvalues of (default mixing * dielectric matrix)
  average eigenvalue GAMMA=   1.9309
  2.9123  2.4746  2.0195  0.9956  1.2527

 Free energy of the ion-electron system (eV)
  ---------------------------------------------------
  alpha Z        PSCENC =         3.33880741
  Ewald energy   TEWEN  =      -227.98820643
  -Hartree energ DENC   =       -14.99131304
  -exchange      EXHF   =         0.00000000
  -V(xc)+E(xc)   XCENC  =       -17.97585537
  PAW double counting   =      1241.91142432    -1206.95564339
  entropy T*S    EENTRO =        -0.00000000
  eigenvalues    EBANDS =         5.74673307
  atomic energy  EATOM  =       206.11247263
  Solvation  Ediel_sol  =         0.00000000
  ---------------------------------------------------
  free energy    TOTEN  =       -10.80158080 eV

  energy without entropy =      -10.80158080  energy(sigma->0) =      -10.80158080


--------------------------------------------------------------------------------------------------------




--------------------------------------- Iteration      1(  11)  ---------------------------------------


    POTLOK:  cpu time    0.0140: real time    0.0223
    SETDIJ:  cpu time    0.1650: real time    0.1645
     EDDAV:  cpu time    0.7939: real time    0.7947
       DOS:  cpu time    0.0010: real time    0.0014
    --------------------------------------------
      LOOP:  cpu time    0.9749: real time    0.9829

 eigenvalue-minimisations  :  2760
 total energy-change (2. order) : 0.3407544E-06  (-0.6815510E-07)
 number of electron       8.0000000 magnetization 
 augmentation part       -0.4552051 magnetization 

 Free energy of the ion-electron system (eV)
  ---------------------------------------------------
  alpha Z        PSCENC =         3.33880741
  Ewald energy   TEWEN  =      -227.98820643
  -Hartree energ DENC   =       -14.98991670
  -exchange      EXHF   =         0.00000000
  -V(xc)+E(xc)   XCENC  =       -17.97591647
  PAW double counting   =      1243.71701062    -1208.76073379
  entropy T*S    EENTRO =        -0.00000000
  eigenvalues    EBANDS =         5.74490228
  atomic energy  EATOM  =       206.11247263
  Solvation  Ediel_sol  =         0.00000000
  ---------------------------------------------------
  free energy    TOTEN  =       -10.80158046 eV

  energy without entropy =      -10.80158046  energy(sigma->0) =      -10.80158046


--------------------------------------------------------------------------------------------------------




 average (electrostatic) potential at core
  the test charge radii are     0.9892
  (the norm of the test charge is              1.0000)
       1 -83.3359       2 -83.3359
 
 
 
 E-fermi :   6.0184     XC(G=0):  -9.3828     alpha+bet :-11.8943

 Fermi energy:         6.0184447120

 k-point     1 :       0.0000    0.0000    0.0000
  band No.  band energies     occupation 
      1      -6.1554      2.00000
      2       5.7780      2.00000
      3       5.7780      2.00000
      4       5.7780      2.00000
      5       8.3460      0.00000
      6       8.3460      0.00000
      7       8.3460      0.00000
      8       9.0423      0.00000

 k-point     2 :       0.0667   -0.0000    0.0000
  band No.  band energies     occupation 
      1      -6.0976      2.00000
      2       5.1808      2.00000
      3       5.6815      2.00000
      4       5.6815      2.00000
      5       8.3975      0.00000
      6       8.4858      0.00000
      7       8.4858      0.00000
      8       9.4879      0.00000

 k-point     3 :       0.1333   -0.0000    0.0000
  band No.  band energies     occupation 
      1      -5.9249      2.00000
      2       4.0187      2.00000
      3       5.4551      2.00000
      4       5.4551      2.00000
      5       8.2331      0.00000
      6       8.8154      0.00000
      7       8.8154      0.00000
      8      10.5631      0.00000

 k-point     4 :       0.2000    0.0000    0.0000
  band No.  band energies     occupation 
      1      -5.6414      2.00000
      2       2.7632      2.00000
      3       5.1959      2.00000
      4       5.1959      2.00000
      5       7.9780      0.00000
      6       9.1487      0.00000
      7       9.1487      0.00000
      8      11.7639      0.00000

 k-point     5 :       0.2667   -0.0000    0.0000
  band No.  band energies     occupation 
      1      -5.2555      2.00000
      2       1.5533      2.00000
      3       4.9602      2.00000
      4       4.9602      2.00000
      5       7.7243      0.00000
      6       9.3221      0.00000
      7       9.3221      0.00000
      8      12.9040      0.00000

 k-point     6 :       0.3333   -0.0000    0.0000
  band No.  band energies     occupation 
      1      -4.7874      2.00000
      2       0.4475      2.00000
      3       4.7738      2.00000
      4       4.7738      2.00000
      5       7.5191      0.00000
      6       9.3109      0.00000
      7       9.3109      0.00000
      8      13.6163      0.00000

 k-point     7 :       0.4000   -0.0000    0.0000
  band No.  band energies     occupation 
      1      -4.2883      2.00000
      2      -0.4849      2.00000
      3       4.6463      2.00000
      4       4.6463      2.00000
      5       7.3755      0.00000
      6       9.2259      0.00000
      7       9.2259      0.00000
      8      13.6055      0.00000

 k-point     8 :       0.4667   -0.0000    0.0000
  band No.  band energies     occupation 
      1      -3.9022      2.00000
      2      -1.0890      2.00000
      3       4.5801      2.00000
      4       4.5801      2.00000
      5       7.3009      0.00000
      6       9.1517      0.00000
      7       9.1517      0.00000
      8      13.5104      0.00000

 k-point     9 :       0.0667    0.0667    0.0000
  band No.  band energies     occupation 
      1      -6.0782      2.00000
      2       5.2993      2.00000
      3       5.4835      2.00000
      4       5.4835      2.00000
      5       8.1648      0.00000
      6       8.7349      0.00000
      7       8.7349      0.00000
      8       9.4964      0.00000

 k-point    10 :       0.1333    0.0667    0.0000
  band No.  band energies     occupation 
      1      -5.9435      2.00000
      2       4.3627      2.00000
      3       5.2043      2.00000
      4       5.3777      2.00000
      5       8.1645      0.00000
      6       8.8201      0.00000
      7       9.1369      0.00000
      8      10.2685      0.00000

 k-point    11 :       0.2000    0.0667    0.0000
  band No.  band energies     occupation 
      1      -5.6965      2.00000
      2       3.1585      2.00000
      3       4.9288      2.00000
      4       5.1582      2.00000
      5       8.2585      0.00000
      6       8.8132      0.00000
      7       9.5272      0.00000
      8      11.1297      0.00000

 k-point    12 :       0.2667    0.0667    0.0000
  band No.  band energies     occupation 
      1      -5.3436      2.00000
      2       1.9498      2.00000
      3       4.7001      2.00000
      4       4.8835      2.00000
      5       8.1289      0.00000
      6       8.9936      0.00000
      7       9.7455      0.00000
      8      11.6018      0.00000

 k-point    13 :       0.3333    0.0667    0.0000
  band No.  band energies     occupation 
      1      -4.8997      2.00000
      2       0.8160      2.00000
      3       4.5370      2.00000
      4       4.6192      2.00000
      5       7.9394      0.00000
      6       9.0858      0.00000
      7       9.7316      0.00000
      8      12.1754      0.00000

 k-point    14 :       0.4000    0.0667    0.0000
  band No.  band energies     occupation 
      1      -4.4015      2.00000
      2      -0.1781      2.00000
      3       4.3965      2.00000
      4       4.4484      2.00000
      5       7.7846      0.00000
      6       9.0686      0.00000
      7       9.5905      0.00000
      8      12.9761      0.00000

 k-point    15 :       0.4667    0.0667    0.0000
  band No.  band energies     occupation 
      1      -3.9510      2.00000
      2      -0.9150      2.00000
      3       4.2313      2.00000
      4       4.4357      2.00000
      5       7.6910      0.00000
      6       9.0538      0.00000
      7       9.4371      0.00000
      8      13.5849      0.00000

 k-point    16 :      -0.4667    0.0667    0.0000
  band No.  band energies     occupation 
      1      -3.7964      2.00000
      2      -1.1412      2.00000
      3       4.1318      2.00000
      4       4.4955      2.00000
      5       7.6676      0.00000
      6       9.1054      0.00000
      7       9.3369      0.00000
      8      13.7101      0.00000

 k-point    17 :      -0.4000    0.0667    0.0000
  band No.  band energies     occupation 
      1      -4.0846      2.00000
      2      -0.7089      2.00000
      3       4.1037      2.00000
      4       4.6222      2.00000
      5       7.7152      0.00000
      6       9.2315      0.00000
      7       9.2923      0.00000
      8      13.6905      0.00000

 k-point    18 :      -0.3333    0.0667    0.0000
  band No.  band energies     occupation 
      1      -4.5702      2.00000
      2       0.1346      2.00000
      3       4.1518      2.00000
      4       4.8075      2.00000
      5       7.8302      0.00000
      6       9.2887      0.00000
      7       9.3903      0.00000
      8      13.3160      0.00000

 k-point    19 :      -0.2667    0.0667    0.0000
  band No.  band energies     occupation 
      1      -5.0568      2.00000
      2       1.1829      2.00000
      3       4.2793      2.00000
      4       5.0400      2.00000
      5       8.0077      0.00000
      6       9.2498      0.00000
      7       9.5066      0.00000
      8      12.5708      0.00000

 k-point    20 :      -0.2000    0.0667    0.0000
  band No.  band energies     occupation 
      1      -5.4728      2.00000
      2       2.3451      2.00000
      3       4.4897      2.00000
      4       5.2995      2.00000
      5       8.2335      0.00000
      6       9.0687      0.00000
      7       9.4308      0.00000
      8      11.8392      0.00000

 k-point    21 :      -0.1333    0.0667    0.0000
  band No.  band energies     occupation 
      1      -5.7913      2.00000
      2       3.5501      2.00000
      3       4.7796      2.00000
      4       5.5458      2.00000
      5       8.4720      0.00000
      6       8.7614      0.00000
      7       9.0805      0.00000
      8      11.0340      0.00000

 k-point    22 :      -0.0667    0.0667    0.0000
  band No.  band energies     occupation 
      1      -6.0013      2.00000
      2       4.6172      2.00000
      3       5.1884      2.00000
      4       5.7029      2.00000
      5       8.5058      0.00000
      6       8.6206      0.00000
      7       8.6348      0.00000
      8      10.1043      0.00000

 k-point    23 :       0.1333    0.1333    0.0000
  band No.  band energies     occupation 
      1      -5.8470      2.00000
      2       4.2935      2.00000
      3       4.8939      2.00000
      4       4.8939      2.00000
      5       7.7368      0.00000
      6       9.6073      0.00000
      7       9.6073      0.00000
      8      10.1436      0.00000

 k-point    24 :       0.2000    0.1333    0.0000
  band No.  band energies     occupation 
      1      -5.6371      2.00000
      2       3.4038      2.00000
      3       4.6017      2.00000
      4       4.6771      2.00000
      5       7.7049      0.00000
      6       9.6481      0.00000
      7      10.0815      0.00000
      8      10.4365      0.00000

 k-point    25 :       0.2667    0.1333    0.0000
  band No.  band energies     occupation 
      1      -5.3189      2.00000
      2       2.2937      2.00000
      3       4.3645      2.00000
      4       4.3881      2.00000
      5       7.9026      0.00000
      6       9.5614      0.00000
      7      10.3932      0.00000
      8      10.4666      0.00000

 k-point    26 :       0.3333    0.1333    0.0000
  band No.  band energies     occupation 
      1      -4.9034      2.00000
      2       1.1885      2.00000
      3       4.0573      2.00000
      4       4.2046      2.00000
      5       8.0060      0.00000
      6       9.5714      0.00000
      7      10.4399      0.00000
      8      10.6850      0.00000

 k-point    27 :       0.4000    0.1333    0.0000
  band No.  band energies     occupation 
      1      -4.4169      2.00000
      2       0.1741      2.00000
      3       3.7491      2.00000
      4       4.1271      2.00000
      5       7.9811      0.00000
      6       9.5054      0.00000
      7      10.3052      0.00000
      8      11.4029      0.00000

 k-point    28 :       0.4667    0.1333    0.0000
  band No.  band energies     occupation 
      1      -3.9302      2.00000
      2      -0.6508      2.00000
      3       3.4958      2.00000
      4       4.1358      2.00000
      5       7.9551      0.00000
      6       9.4240      0.00000
      7      10.1036      0.00000
      8      12.4287      0.00000

 k-point    29 :      -0.4667    0.1333    0.0000
  band No.  band energies     occupation 
      1      -3.6423      2.00000
      2      -1.0742      2.00000
      3       3.3132      2.00000
      4       4.2268      2.00000
      5       7.9864      0.00000
      6       9.3975      0.00000
      7       9.9230      0.00000
      8      13.5383      0.00000

 k-point    30 :      -0.4000    0.1333    0.0000
  band No.  band energies     occupation 
      1      -3.8015      2.00000
      2      -0.8436      2.00000
      3       3.2133      2.00000
      4       4.3931      2.00000
      5       8.0891      0.00000
      6       9.4478      0.00000
[...]
      8      11.8339      0.00000

 k-point    86 :      -0.3333    0.2667    0.0667
  band No.  band energies     occupation 
      1      -3.4417      2.00000
      2      -0.8451      2.00000
      3       1.8652      2.00000
      4       3.6970      2.00000
      5       7.9986      0.00000
      6       9.9718      0.00000
      7      11.6547      0.00000
      8      12.4287      0.00000

 k-point    87 :      -0.2667    0.2667    0.0667
  band No.  band energies     occupation 
      1      -3.8973      2.00000
      2      -0.2106      2.00000
      3       1.9136      2.00000
      4       3.9637      2.00000
      5       8.2913      0.00000
      6       9.8182      0.00000
      7      11.2573      0.00000
      8      11.6339      0.00000

 k-point    88 :      -0.2000    0.2667    0.0667
  band No.  band energies     occupation 
      1      -4.3849      2.00000
      2       0.4855      2.00000
      3       2.2147      2.00000
      4       4.2760      2.00000
      5       8.6118      0.00000
      6       9.4511      0.00000
      7      10.7229      0.00000
      8      11.1879      0.00000

 k-point    89 :       0.4000    0.3333    0.0667
  band No.  band energies     occupation 
      1      -4.2595      2.00000
      2       0.5334      2.00000
      3       2.9861      2.00000
      4       3.2702      2.00000
      5       6.8557      0.00000
      6       8.0049      0.00000
      7      12.0328      0.00000
      8      12.8549      0.00000

 k-point    90 :       0.4667    0.3333    0.0667
  band No.  band energies     occupation 
      1      -3.7994      2.00000
      2      -0.1255      2.00000
      3       2.5116      2.00000
      4       3.1071      2.00000
      5       7.1380      0.00000
      6       8.2441      0.00000
      7      11.8404      0.00000
      8      13.1961      0.00000

 k-point    91 :      -0.4667    0.3333    0.0667
  band No.  band energies     occupation 
      1      -3.3031      2.00000
      2      -0.7551      2.00000
      3       2.0169      2.00000
      4       3.0786      2.00000
      5       7.2648      0.00000
      6       9.0934      0.00000
      7      11.5948      0.00000
      8      13.1835      0.00000

 k-point    92 :      -0.4000    0.3333    0.0667
  band No.  band energies     occupation 
      1      -2.9232      2.00000
      2      -1.1888      2.00000
      3       1.6325      2.00000
      4       3.1685      2.00000
      5       7.4030      0.00000
      6      10.2426      0.00000
      7      11.3795      0.00000
      8      13.0325      0.00000

 k-point    93 :      -0.3333    0.3333    0.0667
  band No.  band energies     occupation 
      1      -2.9881      2.00000
      2      -1.1077      2.00000
      3       1.4304      2.00000
      4       3.3604      2.00000
      5       7.6259      0.00000
      6      11.0259      0.00000
      7      11.6996      0.00000
      8      12.4199      0.00000

 k-point    94 :      -0.2667    0.3333    0.0667
  band No.  band energies     occupation 
      1      -3.4125      2.00000
      2      -0.6515      2.00000
      3       1.4924      2.00000
      4       3.6354      2.00000
      5       7.9342      0.00000
      6      10.6742      0.00000
      7      11.5274      0.00000
      8      12.4383      0.00000

 k-point    95 :       0.4667    0.4000    0.0667
  band No.  band energies     occupation 
      1      -3.4749      2.00000
      2      -0.5416      2.00000
      3       2.7337      2.00000
      4       2.8929      2.00000
      5       6.7078      0.00000
      6       7.3692      0.00000
      7      13.1581      0.00000
      8      14.1198      0.00000

 k-point    96 :      -0.4667    0.4000    0.0667
  band No.  band energies     occupation 
      1      -2.9800      2.00000
      2      -1.0963      2.00000
      3       2.2420      2.00000
      4       2.8203      2.00000
      5       6.9684      0.00000
      6       7.8394      0.00000
      7      12.9404      0.00000
      8      14.4096      0.00000

 k-point    97 :      -0.4000    0.4000    0.0667
  band No.  band energies     occupation 
      1      -2.5384      2.00000
      2      -1.5302      2.00000
      3       1.7286      2.00000
      4       2.9018      2.00000
      5       7.1078      0.00000
      6       8.8849      0.00000
      7      12.6848      0.00000
      8      13.8621      0.00000

 k-point    98 :      -0.3333    0.4000    0.0667
  band No.  band energies     occupation 
      1      -2.5702      2.00000
      2      -1.4734      2.00000
      3       1.4100      2.00000
      4       3.0872      2.00000
      5       7.3187      0.00000
      6      10.1594      0.00000
      7      12.2739      0.00000
      8      12.7512      0.00000

 k-point    99 :      -0.4667    0.4667    0.0667
  band No.  band energies     occupation 
      1      -2.5784      2.00000
      2      -1.5914      2.00000
      3       2.6297      2.00000
      4       2.6809      2.00000
      5       6.7296      0.00000
      6       6.9429      0.00000
      7      14.3343      0.00000
      8      15.1592      0.00000

 k-point   100 :      -0.4000    0.4667    0.0667
  band No.  band energies     occupation 
      1      -2.1602      2.00000
      2      -1.9700      2.00000
      3       2.1491      2.00000
      4       2.7284      2.00000
      5       6.9168      0.00000
      6       7.7036      0.00000
      7      14.0195      0.00000
      8      14.1997      0.00000

 k-point   101 :       0.4000    0.2667    0.1333
  band No.  band energies     occupation 
      1      -4.7148      2.00000
      2       1.0806      2.00000
      3       2.7912      2.00000
      4       4.0792      2.00000
      5       8.1678      0.00000
      6       9.5122      0.00000
      7       9.8171      0.00000
      8      11.4312      0.00000

 k-point   102 :       0.4667    0.2667    0.1333
  band No.  band energies     occupation 
      1      -4.2567      2.00000
      2       0.3151      2.00000
      3       2.3960      2.00000
      4       3.8019      2.00000
      5       8.4924      0.00000
      6       9.4659      0.00000
      7       9.9570      0.00000
      8      11.7967      0.00000

 k-point   103 :      -0.4667    0.2667    0.1333
  band No.  band energies     occupation 
      1      -3.7631      2.00000
      2      -0.4510      2.00000
      3       2.1975      2.00000
      4       3.5644      2.00000
      5       8.6221      0.00000
      6       9.1725      0.00000
      7      10.8566      0.00000
      8      11.8796      0.00000

 k-point   104 :      -0.4000    0.2667    0.1333
  band No.  band energies     occupation 
      1      -3.3721      2.00000
      2      -0.9948      2.00000
      3       2.1173      2.00000
      4       3.4301      2.00000
      5       8.7374      0.00000
      6       8.9276      0.00000
      7      11.8342      0.00000
      8      12.0713      0.00000

 k-point   105 :       0.4667    0.3333    0.1333
  band No.  band energies     occupation 
      1      -4.0772      2.00000
      2       0.2276      2.00000
      3       2.4245      2.00000
      4       3.3277      2.00000
      5       7.8857      0.00000
      6       8.8483      0.00000
      7      10.5830      0.00000
      8      12.7640      0.00000

 k-point   106 :      -0.4667    0.3333    0.1333
  band No.  band energies     occupation 
      1      -3.5874      2.00000
      2      -0.4128      2.00000
      3       2.0544      2.00000
      4       3.0764      2.00000
      5       8.2113      0.00000
      6       9.3966      0.00000
      7      10.3047      0.00000
      8      13.1361      0.00000

 k-point   107 :      -0.4000    0.3333    0.1333
  band No.  band energies     occupation 
      1      -3.1320      2.00000
      2      -0.9728      2.00000
      3       1.7999      2.00000
      4       2.9604      2.00000
      5       8.3566      0.00000
      6       9.9357      0.00000
      7      10.5616      0.00000
      8      13.1693      0.00000

 k-point   108 :      -0.3333    0.3333    0.1333
  band No.  band energies     occupation 
      1      -2.9828      2.00000
      2      -1.1446      2.00000
      3       1.6573      2.00000
      4       3.0053      2.00000
      5       8.5406      0.00000
      6       9.7506      0.00000
      7      11.7409      0.00000
      8      12.1696      0.00000

 k-point   109 :      -0.2667    0.3333    0.1333
  band No.  band energies     occupation 
      1      -3.3015      2.00000
      2      -0.7679      2.00000
      3       1.6619      2.00000
      4       3.1909      2.00000
      5       8.8017      0.00000
      6       9.5652      0.00000
      7      10.8561      0.00000
      8      13.0283      0.00000

 k-point   110 :      -0.2000    0.3333    0.1333
  band No.  band energies     occupation 
      1      -3.7871      2.00000
      2      -0.1959      2.00000
      3       1.8844      2.00000
      4       3.4773      2.00000
      5       9.1291      0.00000
      6       9.2012      0.00000
      7      10.0719      0.00000
      8      12.6233      0.00000

 k-point   111 :      -0.4667    0.4000    0.1333
  band No.  band energies     occupation 
      1      -3.3255      2.00000
      2      -0.6638      2.00000
      3       2.2166      2.00000
      4       2.7342      2.00000
      5       7.7335      0.00000
      6       8.2826      0.00000
      7      11.5658      0.00000
      8      14.0944      0.00000

 k-point   112 :      -0.4000    0.4000    0.1333
  band No.  band energies     occupation 
      1      -2.8364      2.00000
      2      -1.1759      2.00000
      3       1.8522      2.00000
      4       2.5757      2.00000
      5       8.0289      0.00000
      6       9.0647      0.00000
      7      11.2841      0.00000
      8      13.6199      0.00000

 k-point   113 :      -0.3333    0.4000    0.1333
  band No.  band energies     occupation 
      1      -2.5649      2.00000
      2      -1.4398      2.00000
      3       1.5430      2.00000
      4       2.6465      2.00000
      5       8.2104      0.00000
      6      10.2280      0.00000
      7      11.0793      0.00000
      8      12.2250      0.00000

 k-point   114 :      -0.2667    0.4000    0.1333
  band No.  band energies     occupation 
      1      -2.8315      2.00000
      2      -1.1720      2.00000
      3       1.4465      2.00000
      4       2.8663      2.00000
      5       8.4680      0.00000
      6      10.5253      0.00000
      7      11.1025      0.00000
      8      11.8086      0.00000

 k-point   115 :      -0.4000    0.4667    0.1333
  band No.  band energies     occupation 
      1      -2.4820      2.00000
      2      -1.5804      2.00000
      3       2.1860      2.00000
      4       2.3526      2.00000
      5       7.7385      0.00000
      6       7.9166      0.00000
      7      12.6620      0.00000
      8      13.8486      0.00000

 k-point   116 :      -0.3333    0.4667    0.1333
  band No.  band energies     occupation 
      1      -2.1842      2.00000
      2      -1.8296      2.00000
      3       1.7872      2.00000
      4       2.3975      2.00000
      5       7.9680      0.00000
      6       8.9530      0.00000
      7      12.3229      0.00000
      8      12.4779      0.00000

 k-point   117 :      -0.4000    0.4000    0.2000
  band No.  band energies     occupation 
      1      -3.0989      2.00000
      2      -0.8839      2.00000
      3       1.7406      2.00000
      4       2.7116      2.00000
      5       9.0624      0.00000
      6       9.4718      0.00000
      7      10.0511      0.00000
      8      13.4109      0.00000

 k-point   118 :      -0.3333    0.4000    0.2000
  band No.  band energies     occupation 
      1      -2.6768      2.00000
      2      -1.3061      2.00000
      3       1.6026      2.00000
      4       2.4940      2.00000
      5       9.3384      0.00000
      6       9.6572      0.00000
      7      10.5969      0.00000
      8      11.9667      0.00000

 k-point   119 :      -0.3333    0.4667    0.2000
  band No.  band energies     occupation 
      1      -2.3564      2.00000
      2      -1.6052      2.00000
      3       1.8153      2.00000
      4       2.1372      2.00000
      5       9.0554      0.00000
      6       9.1996      0.00000
      7      11.0017      0.00000
      8      12.1441      0.00000

 k-point   120 :      -0.2667    0.4667    0.2000
  band No.  band energies     occupation 
      1      -2.2465      2.00000
      2      -1.6933      2.00000
      3       1.6639      2.00000
      4       2.1559      2.00000
      5       9.3085      0.00000
      6      10.2076      0.00000
      7      10.8439      0.00000
      8      10.8869      0.00000


--------------------------------------------------------------------------------------------------------


 soft charge-density along one line, spin component           1
         0         1         2         3         4         5         6         7         8         9
 total charge-density along one line
 
 pseudopotential strength for first ion, spin component:           1
 18.440  25.726   0.000  -0.000   0.000   0.000  -0.000   0.000
 25.726  35.898   0.000  -0.000   0.000   0.000  -0.000   0.000
  0.000   0.000   4.182  -0.000  -0.000   7.793  -0.000  -0.000
 -0.000  -0.000  -0.000   4.182  -0.000  -0.000   7.793  -0.000
  0.000   0.000  -0.000  -0.000   4.182  -0.000  -0.000   7.793
  0.000   0.000   7.793  -0.000  -0.000  14.532  -0.000  -0.000
 -0.000  -0.000  -0.000   7.793  -0.000  -0.000  14.532  -0.000
  0.000   0.000  -0.000  -0.000   7.793  -0.000  -0.000  14.532
 total augmentation occupancy for first ion, spin component:           1
  6.673  -2.674  -0.000   0.000  -0.000  -0.000   0.000  -0.000
 -2.674   1.172  -0.000  -0.000  -0.000   0.000  -0.000   0.000
 -0.000  -0.000   3.820   0.000  -0.000  -1.006  -0.000   0.000
  0.000   0.000   0.000   3.820   0.000  -0.000  -1.006  -0.000
  0.000  -0.000  -0.000   0.000   3.820   0.000  -0.000  -1.006
 -0.000  -0.000  -1.006  -0.000  -0.000   0.271   0.000  -0.000
  0.000  -0.000  -0.000  -1.006  -0.000   0.000   0.271   0.000
 -0.000  -0.000   0.000  -0.000  -1.006   0.000   0.000   0.271


------------------------ aborting loop because EDIFF is reached ----------------------------------------


    CHARGE:  cpu time    0.0350: real time    0.0359
    FORLOC:  cpu time    0.0000: real time    0.0008
    FORNL :  cpu time    0.0560: real time    0.0559
    STRESS:  cpu time    0.4169: real time    0.4178
    FORCOR:  cpu time    0.0130: real time    0.0140
    FORHAR:  cpu time    0.0030: real time    0.0028
    MIXING:  cpu time    0.0000: real time    0.0007
    OFIELD:  cpu time    0.0010: real time    0.0002

  FORCE on cell =-STRESS in cart. coord.  units (eV):
  Direction    XX          YY          ZZ          XY          YZ          ZX
  --------------------------------------------------------------------------------------
  Alpha Z     3.29838     3.29838     3.29838
  Ewald     -75.68808   -75.68815   -75.68807     0.00001    -0.00000    -0.00000
  Hartree     5.04556     5.04556     5.04556     0.00000     0.00000     0.00000
  E(xc)     -25.28773   -25.28773   -25.28773    -0.00000    -0.00000    -0.00000
  Local     -29.72103   -29.72102   -29.72098     0.00001     0.00003     0.00004
  n-local    74.18465    77.52495    81.67297    -0.87141    -0.93728    -0.02509
  augment   -11.55729   -11.55728   -11.55732    -0.00001    -0.00002    -0.00003
  Kinetic    52.90800    54.87454    60.57110     0.86317     1.26182    -0.56218
  Fock        0.00000     0.00000     0.00000     0.00000     0.00000     0.00000
  -------------------------------------------------------------------------------------
  Total       0.00187     0.00187     0.00187     0.00000     0.00000     0.00000
  in kB       0.07358     0.07358     0.07358     0.00000     0.00000     0.00000
  external pressure =        0.07 kB  Pullay stress =        0.00 kB


 VOLUME and BASIS-vectors are now :
 -----------------------------------------------------------------------------
  energy-cutoff  :      200.00
  volume of cell :       40.82
      direct lattice vectors                 reciprocal lattice vectors
     3.347138626 -0.000000000  1.932471114     0.298762648 -0.105628505 -0.000000000
     1.115712875  3.155713810  1.932471114     0.000000000  0.316885516 -0.000000000
     0.000000000  0.000000000  3.864942229    -0.149381324 -0.105628505  0.258736080

  length of vectors
     3.864942637  3.864943658  3.864942229     0.316885628  0.316885516  0.316885658


 FORCES acting on ions
    electron-ion (+dipol)            ewald-force                    non-local-force                 convergence-correction
 -----------------------------------------------------------------------------------------------
   0.627E-05 0.252E-04 0.187E-05   -.892E-05 -.418E-04 0.934E-14   -.521E-16 -.833E-16 0.347E-16   -.116E-06 -.821E-07 -.202E-06
   -.627E-05 -.252E-04 -.187E-05   0.892E-05 0.418E-04 -.944E-14   0.521E-16 0.833E-16 0.208E-16   0.116E-06 0.821E-07 0.202E-06
 -----------------------------------------------------------------------------------------------
   0.340E-13 -.367E-13 0.798E-13   0.217E-15 -.235E-16 -.988E-16   -.117E-27 -.156E-27 0.555E-16   -.491E-15 0.772E-15 -.351E-15
 
 
 POSITION                                       TOTAL-FORCE (eV/Angst)
 -----------------------------------------------------------------------------------
      3.90500      2.76125      6.76365         0.000000      0.000000      0.000000
      0.55786      0.39446      0.96624        -0.000000     -0.000000     -0.000000
 -----------------------------------------------------------------------------------
    total drift:                                0.000000     -0.000000      0.000000


--------------------------------------------------------------------------------------------------------



  FREE ENERGIE OF THE ION-ELECTRON SYSTEM (eV)
  ---------------------------------------------------
  free  energy   TOTEN  =       -10.80328880 eV

  energy  without entropy=      -10.80328880  energy(sigma->0) =      -10.80328880
 
 d Force = 0.0000000E+00[ 0.000E+00, 0.000E+00]  d Energy = 0.7604845E-03-0.760E-03
 d Force = 0.0000000E+00[ 0.000E+00, 0.000E+00]  d Ewald  = 0.6240047E+00-0.624E+00


--------------------------------------------------------------------------------------------------------


    POTLOK:  cpu time    0.1800: real time    0.1890


--------------------------------------------------------------------------------------------------------




--------------------------------------------------------------------------------------------------------


  
 reached required accuracy - stopping structural energy minimisation
     LOOP+:  cpu time    5.9371: real time    6.1534
    4ORBIT:  cpu time    0.0000: real time    0.0000

 total amount of memory used by VASP MPI-rank0    35849. kBytes
=======================================================================

   base      :      30000. kBytes
   nonl-proj :       2128. kBytes
   fftplans  :       1775. kBytes
   grid      :        819. kBytes
   one-center:          6. kBytes
   wavefun   :       1121. kBytes
 
  
  
 General timing and accounting informations for this job:
 ========================================================
  
                  Total CPU time used (sec):       23.126
                            User time (sec):       22.722
                          System time (sec):        0.405
                         Elapsed time (sec):       24.439
  
                   Maximum memory used (kb):       49112.
                   Average memory used (kb):          N/A
  
                          Minor page faults:         9531
                          Major page faults:            1
                 Voluntary context switches:        22287
