   1   1   0   0
  0.1408159E+02  0.2710538E-09  0.2710538E-09  0.2710538E-09  0.5000000E-15
  1.000000000000000E-004
  CAR 
 unknown system                          
     38.03841890     -6.22462933  301     10.24223580      1.00000000
     -6.225  0.0000E+00  0.0000E+00
     -6.077  0.0000E+00  0.0000E+00
     -5.930  0.0000E+00  0.0000E+00
     -5.782  0.0000E+00  0.0000E+00
     -5.634  0.0000E+00  0.0000E+00
     -5.487  0.0000E+00  0.0000E+00
     -5.339  0.0000E+00  0.0000E+00
     -5.192  0.0000E+00  0.0000E+00
     -5.044  0.0000E+00  0.0000E+00
     -4.897  0.0000E+00  0.0000E+00
     -4.749  0.0000E+00  0.0000E+00
     -4.602  0.0000E+00  0.0000E+00
     -4.454  0.1161E-14  0.1712E-15
     -4.307  0.1073E-05  0.1583E-06
     -4.159  0.2526E-03  0.3742E-04
     -4.011  0.4894E-03  0.1096E-03
     -3.864  0.4505E-03  0.1761E-03
     -3.716  0.7119E-03  0.2811E-03
     -3.569  0.1034E-02  0.4338E-03
     -3.421  0.1146E-02  0.6028E-03
     -3.274  0.6888E-03  0.7045E-03
     -3.126  0.6749E-03  0.8040E-03
     -2.979  0.1568E-02  0.1035E-02
     -2.831  0.1934E-02  0.1321E-02
     -2.684  0.7869E-03  0.1437E-02
     -2.536  0.6357E-03  0.1531E-02
     -2.388  0.1813E-02  0.1798E-02
     -2.241  0.2136E-02  0.2113E-02
     -2.093  0.1036E-02  0.2266E-02
     -1.946  0.1110E-02  0.2430E-02
     -1.798  0.2241E-02  0.2761E-02
     -1.651  0.2284E-02  0.3098E-02
     -1.503  0.1153E-02  0.3268E-02
     -1.356  0.9034E-03  0.3401E-02
     -1.208  0.1406E-02  0.3608E-02
     -1.061  0.3914E-02  0.4186E-02
     -0.913  0.1994E-02  0.4480E-02
     -0.766  0.1148E-02  0.4649E-02
     -0.618  0.1450E-02  0.4863E-02
     -0.470  0.3077E-02  0.5317E-02
     -0.323  0.7510E-03  0.5428E-02
     -0.175  0.2233E-02  0.5758E-02
     -0.028  0.2453E-02  0.6120E-02
      0.120  0.3540E-02  0.6642E-02
      0.267  0.1565E-02  0.6873E-02
      0.415  0.2497E-02  0.7241E-02
      0.562  0.1783E-02  0.7504E-02
      0.710  0.2415E-02  0.7861E-02
      0.857  0.2296E-02  0.8199E-02
      1.005  0.2970E-02  0.8638E-02
      1.153  0.2655E-02  0.9029E-02
      1.300  0.1922E-02  0.9313E-02
      1.448  0.1476E-02  0.9531E-02
      1.595  0.3394E-02  0.1003E-01
      1.743  0.4832E-02  0.1074E-01
      1.890  0.2241E-02  0.1107E-01
      2.038  0.2213E-02  0.1140E-01
      2.185  0.1388E-02  0.1161E-01
      2.333  0.3941E-02  0.1219E-01
      2.480  0.2065E-02  0.1249E-01
      2.628  0.1932E-02  0.1278E-01
      2.776  0.3217E-02  0.1325E-01
      2.923  0.5057E-02  0.1400E-01
      3.071  0.2300E-02  0.1434E-01
      3.218  0.3928E-02  0.1492E-01
      3.366  0.2191E-02  0.1524E-01
      3.513  0.2416E-02  0.1560E-01
      3.661  0.1452E-02  0.1581E-01
      3.808  0.3744E-02  0.1636E-01
      3.956  0.4751E-02  0.1706E-01
      4.103  0.2423E-02  0.1742E-01
      4.251  0.1861E-02  0.1770E-01
      4.399  0.2900E-02  0.1812E-01
      4.546  0.4222E-02  0.1875E-01
      4.694  0.5321E-02  0.1953E-01
      4.841  0.1247E-02  0.1972E-01
      4.989  0.3450E-02  0.2023E-01
      5.136  0.4124E-02  0.2083E-01
      5.284  0.2053E-02  0.2114E-01
      5.431  0.5418E-02  0.2194E-01
      5.579  0.2483E-02  0.2230E-01
      5.726  0.5124E-02  0.2306E-01
      5.874  0.1776E-02  0.2332E-01
      6.021  0.2428E-02  0.2368E-01
      6.169  0.3081E-02  0.2413E-01
      6.317  0.2385E-02  0.2449E-01
      6.464  0.3683E-02  0.2503E-01
      6.612  0.6245E-02  0.2595E-01
      6.759  0.4259E-02  0.2658E-01
      6.907  0.3172E-02  0.2705E-01
      7.054  0.5108E-02  0.2780E-01
      7.202  0.2382E-02  0.2815E-01
      7.349  0.5477E-02  0.2896E-01
      7.497  0.1002E-02  0.2911E-01
      7.644  0.3013E-02  0.2955E-01
      7.792  0.3298E-02  0.3004E-01
      7.940  0.2295E-02  0.3038E-01
      8.087  0.5796E-02  0.3123E-01
      8.235  0.4366E-02  0.3188E-01
      8.382  0.6289E-02  0.3281E-01
      8.530  0.4240E-02  0.3343E-01
      8.677  0.2207E-02  0.3376E-01
      8.825  0.4166E-02  0.3437E-01
      8.972  0.3444E-02  0.3488E-01
      9.120  0.2249E-02  0.3521E-01
      9.267  0.4575E-02  0.3589E-01
      9.415  0.7391E-02  0.3698E-01
      9.563  0.2880E-02  0.3740E-01
      9.710  0.5937E-02  0.3828E-01
      9.858  0.2020E-02  0.3858E-01
     10.005  0.4928E-02  0.3930E-01
     10.153  0.1288E-02  0.3949E-01
     10.300  0.5460E-02  0.4030E-01
     10.448  0.3920E-02  0.4088E-01
     10.595  0.7930E-02  0.4205E-01
     10.743  0.2397E-02  0.4240E-01
     10.890  0.4156E-02  0.4301E-01
     11.038  0.4116E-02  0.4362E-01
     11.186  0.5827E-02  0.4448E-01
     11.333  0.4532E-02  0.4515E-01
     11.481  0.5454E-02  0.4595E-01
     11.628  0.3845E-02  0.4652E-01
     11.776  0.4366E-02  0.4716E-01
     11.923  0.3795E-02  0.4772E-01
     12.071  0.6683E-02  0.4871E-01
     12.218  0.3936E-02  0.4929E-01
     12.366  0.5024E-02  0.5003E-01
     12.513  0.9757E-03  0.5018E-01
     12.661  0.6583E-02  0.5115E-01
     12.808  0.6269E-02  0.5207E-01
     12.956  0.5801E-02  0.5293E-01
     13.104  0.3932E-02  0.5351E-01
     13.251  0.7756E-02  0.5465E-01
     13.399  0.5764E-02  0.5550E-01
     13.546  0.4982E-02  0.5624E-01
     13.694  0.2556E-02  0.5662E-01
     13.841  0.7489E-02  0.5772E-01
     13.989  0.6286E-02  0.5865E-01
     14.136  0.5021E-02  0.5939E-01
     14.284  0.6600E-02  0.6036E-01
     14.431  0.3697E-02  0.6091E-01
     14.579  0.5494E-02  0.6172E-01
     14.727  0.4394E-02  0.6237E-01
     14.874  0.4880E-02  0.6309E-01
     15.022  0.2868E-02  0.6351E-01
     15.169  0.5387E-02  0.6431E-01
     15.317  0.4138E-02  0.6492E-01
     15.464  0.7683E-02  0.6605E-01
     15.612  0.3888E-02  0.6662E-01
     15.759  0.6056E-02  0.6752E-01
     15.907  0.3791E-02  0.6808E-01
     16.054  0.3994E-02  0.6867E-01
     16.202  0.4258E-02  0.6929E-01
     16.350  0.5408E-02  0.7009E-01
     16.497  0.4463E-02  0.7075E-01
     16.645  0.1168E-02  0.7092E-01
     16.792  0.8818E-02  0.7222E-01
     16.940  0.5273E-02  0.7300E-01
     17.087  0.3316E-02  0.7349E-01
     17.235  0.6123E-02  0.7439E-01
     17.382  0.4973E-02  0.7513E-01
     17.530  0.4965E-02  0.7586E-01
     17.677  0.5456E-02  0.7667E-01
     17.825  0.4085E-02  0.7727E-01
     17.973  0.2543E-02  0.7764E-01
     18.120  0.8364E-02  0.7888E-01
     18.268  0.3612E-02  0.7941E-01
     18.415  0.2730E-02  0.7981E-01
     18.563  0.8759E-02  0.8111E-01
     18.710  0.8416E-02  0.8235E-01
     18.858  0.3738E-02  0.8290E-01
     19.005  0.6340E-02  0.8383E-01
     19.153  0.3189E-02  0.8430E-01
     19.300  0.3679E-02  0.8485E-01
     19.448  0.4835E-02  0.8556E-01
     19.595  0.7697E-02  0.8670E-01
     19.743  0.5907E-02  0.8757E-01
     19.891  0.6934E-02  0.8859E-01
     20.038  0.4732E-02  0.8929E-01
     20.186  0.7192E-02  0.9035E-01
     20.333  0.1650E-02  0.9059E-01
     20.481  0.2734E-02  0.9100E-01
     20.628  0.7014E-02  0.9203E-01
     20.776  0.7368E-02  0.9312E-01
     20.923  0.5377E-02  0.9391E-01
     21.071  0.9075E-02  0.9525E-01
     21.218  0.6900E-02  0.9627E-01
     21.366  0.8330E-02  0.9750E-01
     21.514  0.4168E-02  0.9811E-01
     21.661  0.4218E-02  0.9874E-01
     21.809  0.3569E-02  0.9926E-01
     21.956  0.9513E-02  0.1007E+00
     22.104  0.5935E-02  0.1015E+00
     22.251  0.4440E-02  0.1022E+00
     22.399  0.3377E-02  0.1027E+00
     22.546  0.5114E-02  0.1035E+00
     22.694  0.4887E-02  0.1042E+00
     22.841  0.6520E-02  0.1051E+00
     22.989  0.7680E-02  0.1063E+00
     23.137  0.4042E-02  0.1069E+00
     23.284  0.1046E-01  0.1084E+00
     23.432  0.5674E-02  0.1092E+00
     23.579  0.7320E-02  0.1103E+00
     23.727  0.6625E-02  0.1113E+00
     23.874  0.5057E-02  0.1120E+00
     24.022  0.8287E-02  0.1133E+00
     24.169  0.3343E-02  0.1138E+00
     24.317  0.3083E-02  0.1142E+00
     24.464  0.8343E-02  0.1154E+00
     24.612  0.6358E-02  0.1164E+00
     24.760  0.9574E-02  0.1178E+00
     24.907  0.8230E-02  0.1190E+00
     25.055  0.7843E-02  0.1202E+00
     25.202  0.6806E-02  0.1212E+00
     25.350  0.5077E-02  0.1219E+00
     25.497  0.2834E-02  0.1223E+00
     25.645  0.2844E-02  0.1228E+00
     25.792  0.8685E-02  0.1240E+00
     25.940  0.6723E-02  0.1250E+00
     26.087  0.5724E-02  0.1259E+00
     26.235  0.8398E-02  0.1271E+00
     26.382  0.1130E-01  0.1288E+00
     26.530  0.6862E-02  0.1298E+00
     26.678  0.4211E-02  0.1304E+00
     26.825  0.4669E-02  0.1311E+00
     26.973  0.4839E-02  0.1318E+00
     27.120  0.5449E-02  0.1326E+00
     27.268  0.5904E-02  0.1335E+00
     27.415  0.9679E-02  0.1349E+00
     27.563  0.6218E-02  0.1358E+00
     27.710  0.7460E-02  0.1369E+00
     27.858  0.2721E-02  0.1373E+00
     28.005  0.3505E-02  0.1379E+00
     28.153  0.3935E-02  0.1384E+00
     28.301  0.4472E-02  0.1391E+00
     28.448  0.4574E-02  0.1398E+00
     28.596  0.1095E-01  0.1414E+00
     28.743  0.6950E-02  0.1424E+00
     28.891  0.7820E-02  0.1436E+00
     29.038  0.1952E-02  0.1439E+00
     29.186  0.4569E-02  0.1445E+00
     29.333  0.1318E-02  0.1447E+00
     29.481  0.4999E-02  0.1455E+00
     29.628  0.4055E-02  0.1461E+00
     29.776  0.5995E-02  0.1469E+00
     29.924  0.6841E-02  0.1480E+00
     30.071  0.4683E-02  0.1486E+00
     30.219  0.6836E-02  0.1497E+00
     30.366  0.7399E-02  0.1507E+00
     30.514  0.2939E-02  0.1512E+00
     30.661  0.1603E-02  0.1514E+00
     30.809  0.5887E-02  0.1523E+00
     30.956  0.4481E-02  0.1529E+00
     31.104  0.2967E-02  0.1534E+00
     31.251  0.2956E-02  0.1538E+00
     31.399  0.4326E-03  0.1539E+00
     31.547  0.4997E-02  0.1546E+00
     31.694  0.3423E-02  0.1551E+00
     31.842  0.4806E-03  0.1552E+00
     31.989  0.6954E-03  0.1553E+00
     32.137  0.3552E-02  0.1558E+00
     32.284  0.1015E-02  0.1560E+00
     32.432  0.3143E-02  0.1564E+00
     32.579  0.3351E-02  0.1569E+00
     32.727  0.3456E-02  0.1574E+00
     32.874  0.1471E-02  0.1577E+00
     33.022  0.3960E-03  0.1577E+00
     33.169  0.7088E-05  0.1577E+00
     33.317  0.1521E-02  0.1579E+00
     33.465  0.1772E-03  0.1580E+00
     33.612  0.2988E-02  0.1584E+00
     33.760  0.1799E-02  0.1587E+00
     33.907  0.1612E-02  0.1589E+00
     34.055  0.5635E-04  0.1589E+00
     34.202  0.7779E-03  0.1590E+00
     34.350  0.1123E-03  0.1591E+00
     34.497  0.1587E-02  0.1593E+00
     34.645  0.1551E-02  0.1595E+00
     34.792  0.1086E-02  0.1597E+00
     34.940  0.5510E-03  0.1598E+00
     35.088  0.3625E-08  0.1598E+00
     35.235  0.4670E-04  0.1598E+00
     35.383  0.7628E-03  0.1599E+00
     35.530  0.3832E-05  0.1599E+00
     35.678  0.5255E-14  0.1599E+00
     35.825  0.5146E-11  0.1599E+00
     35.973  0.5251E-04  0.1599E+00
     36.120  0.7576E-03  0.1600E+00
     36.268  0.3219E-05  0.1600E+00
     36.415  0.3482E-14  0.1600E+00
     36.563  0.0000E+00  0.1600E+00
     36.711  0.0000E+00  0.1600E+00
     36.858  0.0000E+00  0.1600E+00
     37.006  0.0000E+00  0.1600E+00
     37.153  0.0000E+00  0.1600E+00
     37.301  0.0000E+00  0.1600E+00
     37.448  0.0000E+00  0.1600E+00
     37.596  0.0000E+00  0.1600E+00
     37.743  0.0000E+00  0.1600E+00
     37.891  0.0000E+00  0.1600E+00
     38.038  0.0000E+00  0.1600E+00
