    1    1  100    1
  0.1408159E+02  0.2710538E-09  0.2710538E-09  0.2710538E-09  0.5000000E-15
  1.000000000000000E-004
  CAR 
 unknown system                          
      4    110      8
 
  0.5000000E-01  0.5000000E-01  0.5000000E-01  0.2000000E-02
    1       -4.212673   1.000000
    2       19.832287   0.000000
    3       20.847649   0.000000
    4       20.847656   0.000000
    5       22.662561   0.000000
    6       22.662570   0.000000
    7       22.942380   0.000000
    8       28.037364   0.000000
 
  0.1500000E+00  0.5000000E-01  0.5000000E-01  0.6000000E-02
    1       -3.824808   1.000000
    2       17.084243   0.000000
    3       18.595127   0.000000
    4       21.020353   0.000000
    5       22.907369   0.000000
    6       23.632894   0.000000
    7       24.662518   0.000000
    8       26.678885   0.000000
 
  0.2500000E+00  0.5000000E-01  0.5000000E-01  0.6000000E-02
    1       -2.858591   1.000000
    2       12.874450   0.000000
    3       17.749396   0.000000
    4       20.125248   0.000000
    5       23.315645   0.000000
    6       23.726497   0.000000
    7       24.620330   0.000000
    8       26.502744   0.000000
 
  0.3500000E+00  0.5000000E-01  0.5000000E-01  0.6000000E-02
    1       -1.323267   1.000000
    2        8.960783   1.000000
    3       17.380802   0.000000
    4       19.472987   0.000000
    5       22.021167   0.000000
    6       22.983465   0.000000
    7       23.683631   0.000000
    8       28.346770   0.000000
 
  0.4500000E+00  0.5000000E-01  0.5000000E-01  0.6000000E-02
    1        0.761680   1.000000
    2        5.493691   1.000000
    3       17.478730   0.000000
    4       18.844390   0.000000
    5       21.362153   0.000000
    6       21.595032   0.000000
    7       23.822250   0.000000
    8       27.106461   0.000000
 
 -0.4500000E+00  0.5000000E-01  0.5000000E-01  0.6000000E-02
    1        2.380816   1.000000
    2        3.526606   1.000000
    3       17.965086   0.000000
    4       18.208701   0.000000
    5       20.773035   0.000000
    6       21.661016   0.000000
    7       23.972236   0.000000
    8       26.663891   0.000000
 
 -0.3500000E+00  0.5000000E-01  0.5000000E-01  0.6000000E-02
    1        0.008011   1.000000
    2        6.594337   1.000000
    3       17.845487   0.000000
    4       18.593464   0.000000
    5       20.793808   0.000000
    6       22.659221   0.000000
    7       23.913619   0.000000
    8       27.349398   0.000000
 
 -0.2500000E+00  0.5000000E-01  0.5000000E-01  0.6000000E-02
    1       -1.897399   1.000000
    2       10.220804   0.727803
    3       17.905212   0.000000
    4       19.118096   0.000000
    5       21.829735   0.000000
    6       23.905482   0.000000
    7       24.118617   0.000000
    8       27.669382   0.000000
 
 -0.1500000E+00  0.5000000E-01  0.5000000E-01  0.6000000E-02
    1       -3.244479   1.000000
    2       14.258759   0.000000
    3       18.435508   0.000000
    4       19.787319   0.000000
    5       22.900682   0.000000
    6       24.217690   0.000000
    7       25.367405   0.000000
    8       25.691346   0.000000
 
 -0.5000000E-01  0.5000000E-01  0.5000000E-01  0.6000000E-02
    1       -4.018643   1.000000
    2       18.476880   0.000000
    3       19.442383   0.000000
    4       20.751615   0.000000
    5       21.828719   0.000000
    6       24.076493   0.000000
    7       24.288959   0.000000
    8       26.868748   0.000000
 
  0.1500000E+00  0.1500000E+00  0.5000000E-01  0.6000000E-02
    1       -3.631094   1.000000
    2       17.165578   0.000000
    3       18.128632   0.000000
    4       19.897250   0.000000
    5       20.732303   0.000000
    6       24.445038   0.000000
    7       25.766742   0.000000
    8       26.018077   0.000000
 
  0.2500000E+00  0.1500000E+00  0.5000000E-01  0.1200000E-01
    1       -2.858309   1.000000
    2       14.543552   0.000000
    3       16.203138   0.000000
    4       19.492207   0.000000
    5       20.764338   0.000000
    6       22.875469   0.000000
    7       26.702035   0.000000
    8       26.970936   0.000000
 
  0.3500000E+00  0.1500000E+00  0.5000000E-01  0.1200000E-01
    1       -1.513634   1.000000
    2       10.565492   0.000000
    3       15.666971   0.000000
    4       18.093175   0.000000
    5       20.278212   0.000000
    6       24.448405   0.000000
    7       25.624482   0.000000
    8       27.215037   0.000000
 
  0.4500000E+00  0.1500000E+00  0.5000000E-01  0.1200000E-01
    1        0.388490   1.000000
    2        6.956598   1.000000
    3       15.602399   0.000000
    4       16.687966   0.000000
    5       20.097065   0.000000
    6       23.864331   0.000000
    7       26.182729   0.000000
    8       28.798149   0.000000
 
 -0.4500000E+00  0.1500000E+00  0.5000000E-01  0.1200000E-01
    1        2.760315   1.000000
    2        3.893641   1.000000
    3       15.352314   0.000000
    4       16.299301   0.000000
    5       20.517787   0.000000
    6       22.822602   0.000000
    7       26.286519   0.000000
    8       29.659239   0.000000
 
 -0.3500000E+00  0.1500000E+00  0.5000000E-01  0.1200000E-01
    1        1.140929   1.000000
    2        5.858415   1.000000
    3       14.756798   0.000000
    4       17.195844   0.000000
    5       21.345766   0.000000
    6       22.383618   0.000000
    7       26.052269   0.000000
    8       29.927164   0.000000
 
 -0.2500000E+00  0.1500000E+00  0.5000000E-01  0.1200000E-01
    1       -0.940607   1.000000
    2        9.310186   1.000000
    3       14.610985   0.000000
    4       18.552171   0.000000
    5       21.902421   0.000000
    6       23.213213   0.000000
    7       25.697734   0.000000
    8       27.366269   0.000000
 
 -0.1500000E+00  0.1500000E+00  0.5000000E-01  0.1200000E-01
    1       -2.473231   1.000000
    2       13.168479   0.000000
    3       14.994098   0.000000
    4       20.086612   0.000000
    5       22.411496   0.000000
    6       23.947998   0.000000
    7       25.190980   0.000000
    8       26.006847   0.000000
 
 -0.5000000E-01  0.1500000E+00  0.5000000E-01  0.1200000E-01
    1       -3.437686   1.000000
    2       15.748783   0.000000
    3       17.356610   0.000000
    4       20.615735   0.000000
    5       22.088805   0.000000
    6       24.724537   0.000000
    7       25.085595   0.000000
    8       25.714804   0.000000
 
  0.2500000E+00  0.2500000E+00  0.5000000E-01  0.6000000E-02
    1       -2.280312   1.000000
    2       14.945489   0.000000
    3       15.955130   0.000000
    4       17.229734   0.000000
    5       18.144422   0.000000
    6       20.423725   0.000000
    7       29.192599   0.000000
    8       29.402821   0.000000
 
  0.3500000E+00  0.2500000E+00  0.5000000E-01  0.1200000E-01
    1       -1.129926   1.000000
    2       12.602299   0.000000
    3       14.278633   0.000000
    4       15.421158   0.000000
    5       18.527586   0.000000
    6       20.643718   0.000000
    7       28.704388   0.000000
    8       30.706484   0.000000
 
  0.4500000E+00  0.2500000E+00  0.5000000E-01  0.1200000E-01
    1        0.581368   1.000000
    2        8.935316   1.000000
    3       13.368736   0.000000
    4       14.292401   0.000000
    5       18.549193   0.000000
    6       23.404119   0.000000
    7       27.328636   0.000000
    8       30.671581   0.000000
 
 -0.4500000E+00  0.2500000E+00  0.5000000E-01  0.1200000E-01
    1        2.823493   1.000000
    2        5.676946   1.000000
    3       12.045263   0.000000
    4       14.557996   0.000000
    5       18.922124   0.000000
    6       25.793249   0.000000
    7       26.993599   0.000000
    8       30.209320   0.000000
 
 -0.3500000E+00  0.2500000E+00  0.5000000E-01  0.1200000E-01
    1        2.823794   1.000000
    2        5.670193   1.000000
    3       11.181729   0.000000
    4       15.394233   0.000000
    5       19.801347   0.000000
    6       25.215753   0.000000
    7       28.563159   0.000000
    8       29.897021   0.000000
 
 -0.2500000E+00  0.2500000E+00  0.5000000E-01  0.1200000E-01
    1        0.580284   1.000000
    2        8.878173   1.000000
    3       10.892826   0.000000
    4       16.724598   0.000000
    5       21.157195   0.000000
    6       24.908556   0.000000
    7       26.448926   0.000000
    8       28.695124   0.000000
 
 -0.1500000E+00  0.2500000E+00  0.5000000E-01  0.1200000E-01
    1       -1.131041   1.000000
    2       10.861802   0.000000
    3       12.809518   0.000000
    4       18.456936   0.000000
    5       22.715236   0.000000
    6       23.602503   0.000000
    7       25.178453   0.000000
    8       27.216877   0.000000
 
 -0.5000000E-01  0.2500000E+00  0.5000000E-01  0.1200000E-01
    1       -2.281104   1.000000
    2       11.638301   0.000000
    3       16.665194   0.000000
    4       19.667079   0.000000
    5       21.796196   0.000000
    6       24.423664   0.000000
    7       24.975109   0.000000
    8       26.221704   0.000000
 
  0.3500000E+00  0.3500000E+00  0.5000000E-01  0.6000000E-02
    1       -0.175854   1.000000
    2       12.654796   0.000000
    3       13.455050   0.000000
    4       14.434780   0.000000
    5       16.382615   0.000000
    6       18.563373   0.000000
    7       31.525752   0.000000
    8       32.706432   0.000000
 
  0.4500000E+00  0.3500000E+00  0.5000000E-01  0.1200000E-01
    1        1.338786   1.000000
    2       10.539910   0.000000
    3       11.442442   0.000000
    4       13.206037   0.000000
    5       17.247129   0.000000
    6       19.441425   0.000000
    7       30.917221   0.000000
    8       33.832710   0.000000
 
 -0.4500000E+00  0.3500000E+00  0.5000000E-01  0.1200000E-01
    1        3.391109   1.000000
    2        7.966209   1.000000
    3        9.096227   1.000000
    4       13.341764   0.000000
    5       17.650942   0.000000
    6       22.665490   0.000000
    7       29.745238   0.000000
    8       32.849814   0.000000
 
 -0.3500000E+00  0.3500000E+00  0.5000000E-01  0.1200000E-01
    1        5.008529   1.000000
    2        5.997543   1.000000
    3        8.036289   1.000000
    4       14.026374   0.000000
    5       18.404535   0.000000
    6       26.355820   0.000000
    7       28.871445   0.000000
    8       30.199095   0.000000
 
 -0.2500000E+00  0.3500000E+00  0.5000000E-01  0.1200000E-01
    1        2.646785   1.000000
    2        7.241846   1.000000
    3        9.289118   1.000000
    4       15.222467   0.000000
    5       19.643869   0.000000
    6       26.655624   0.000000
    7       28.141063   0.000000
    8       29.768649   0.000000
 
 -0.1500000E+00  0.3500000E+00  0.5000000E-01  0.1200000E-01
    1        0.767818   1.000000
    2        7.311457   1.000000
    3       12.752373   0.000000
    4       16.884617   0.000000
    5       21.260095   0.000000
    6       23.504741   0.000000
    7       27.035885   0.000000
    8       28.812650   0.000000
 
 -0.5000000E-01  0.3500000E+00  0.5000000E-01  0.1200000E-01
    1       -0.560425   1.000000
    2        7.870551   1.000000
    3       16.467317   0.000000
    4       18.639463   0.000000
    5       20.975519   0.000000
    6       23.166733   0.000000
    7       24.760678   0.000000
    8       28.572432   0.000000
 
  0.4500000E+00  0.4500000E+00  0.5000000E-01  0.6000000E-02
    1        2.649727   1.000000
    2        8.270747   1.000000
    3       12.531438   0.000000
    4       13.587059   0.000000
    5       15.443612   0.000000
    6       17.657065   0.000000
    7       33.668915   0.000000
    8       35.290842   0.000000
 
 -0.4500000E+00  0.4500000E+00  0.5000000E-01  0.1200000E-01
    1        4.461198   1.000000
    2        6.493376   1.000000
    3       10.856813   0.000000
    4       12.666780   0.000000
    5       16.699506   0.000000
    6       18.929034   0.000000
    7       33.262224   0.000000
    8       34.557161   0.000000
 
 -0.3500000E+00  0.4500000E+00  0.5000000E-01  0.1200000E-01
    1        5.006566   1.000000
    2        6.954624   1.000000
    3        7.983144   1.000000
    4       13.164355   0.000000
    5       17.469968   0.000000
    6       22.511380   0.000000
    7       31.074430   0.000000
    8       32.404500   0.000000
 
 -0.2500000E+00  0.4500000E+00  0.5000000E-01  0.1200000E-01
    1        4.262090   1.000000
    2        5.346247   1.000000
    3        9.940590   1.000000
    4       14.202127   0.000000
    5       18.578744   0.000000
    6       26.330256   0.000000
    7       27.604203   0.000000
    8       30.794976   0.000000
 
 -0.1500000E+00  0.4500000E+00  0.5000000E-01  0.1200000E-01
    1        3.138683   1.000000
    2        4.258732   1.000000
    3       13.252392   0.000000
    4       15.740218   0.000000
    5       20.104109   0.000000
    6       23.919328   0.000000
    7       27.526172   0.000000
    8       30.979468   0.000000
 
 -0.5000000E-01  0.4500000E+00  0.5000000E-01  0.1200000E-01
    1        1.693250   1.000000
    2        4.578992   1.000000
    3       16.715450   0.000000
    4       17.637408   0.000000
    5       20.946391   0.000000
    6       22.014186   0.000000
    7       24.875288   0.000000
    8       27.950099   0.000000
 
 -0.4500000E+00 -0.4500000E+00  0.5000000E-01  0.6000000E-02
    1        4.277503   1.000000
    2        6.314225   1.000000
    3       12.353171   0.000000
    4       13.417286   0.000000
    5       15.255883   0.000000
    6       17.477016   0.000000
    7       34.413490   0.000000
    8       36.026462   0.000000
 
 -0.3500000E+00 -0.4500000E+00  0.5000000E-01  0.1200000E-01
    1        2.835954   1.000000
    2        8.440293   1.000000
    3       11.042638   0.000000
    4       12.844887   0.000000
    5       16.881656   0.000000
    6       19.100313   0.000000
    7       32.126616   0.000000
    8       34.777757   0.000000
 
 -0.2500000E+00 -0.4500000E+00  0.5000000E-01  0.1200000E-01
    1        1.901028   1.000000
    2        8.380132   1.000000
    3       11.176907   0.000000
    4       13.701074   0.000000
    5       18.009467   0.000000
    6       22.967132   0.000000
    7       28.471334   0.000000
    8       32.012874   0.000000
 
 -0.1500000E+00 -0.4500000E+00  0.5000000E-01  0.1200000E-01
    1        1.519327   1.000000
    2        6.223369   1.000000
    3       14.210388   0.000000
    4       15.141681   0.000000
    5       19.429798   0.000000
    6       24.789457   0.000000
    7       26.863434   0.000000
    8       29.352380   0.000000
 
 -0.3500000E+00 -0.3500000E+00  0.5000000E-01  0.6000000E-02
    1        1.150618   1.000000
    2       10.416003   0.000000
    3       12.889825   0.000000
    4       13.926394   0.000000
    5       15.819610   0.000000
    6       18.017759   0.000000
    7       32.628888   0.000000
    8       34.119195   0.000000
 
 -0.2500000E+00 -0.3500000E+00  0.5000000E-01  0.1200000E-01
    1        0.013899   1.000000
    2       11.859238   0.000000
    3       12.872122   0.000000
    4       13.801137   0.000000
    5       17.793559   0.000000
    6       19.952657   0.000000
    7       29.764797   0.000000
    8       32.391019   0.000000
 
 -0.1500000E+00 -0.3500000E+00  0.5000000E-01  0.1200000E-01
    1       -0.558446   1.000000
    2        9.663356   1.000000
    3       14.775040   0.000000
    4       15.911837   0.000000
    5       19.279200   0.000000
    6       23.941778   0.000000
    7       26.354849   0.000000
    8       29.017797   0.000000
 
 -0.2500000E+00 -0.2500000E+00  0.5000000E-01  0.6000000E-02
    1       -1.320896   1.000000
    2       14.053658   0.000000
    3       15.086853   0.000000
    4       15.111366   0.000000
    5       17.139844   0.000000
    6       19.326395   0.000000
    7       30.411202   0.000000
    8       31.125721   0.000000
 
 -0.1500000E+00 -0.2500000E+00  0.5000000E-01  0.1200000E-01
    1       -2.088313   1.000000
    2       13.491997   0.000000
    3       15.182664   0.000000
    4       17.669219   0.000000
    5       19.483969   0.000000
    6       21.560942   0.000000
    7       27.721501   0.000000
    8       28.851511   0.000000
 
 -0.1500000E+00 -0.1500000E+00  0.5000000E-01  0.6000000E-02
    1       -3.051113   1.000000
    2       15.980848   0.000000
    3       16.962343   0.000000
    4       18.754642   0.000000
    5       19.487273   0.000000
    6       22.130312   0.000000
    7       27.586016   0.000000
    8       27.707556   0.000000
 
  0.1500000E+00  0.1500000E+00  0.1500000E+00  0.2000000E-02
    1       -3.631180   1.000000
    2       15.622270   0.000000
    3       19.715367   0.000000
    4       19.715374   0.000000
    5       23.424843   0.000000
    6       24.218995   0.000000
    7       24.219003   0.000000
    8       27.137100   0.000000
 
  0.2500000E+00  0.1500000E+00  0.1500000E+00  0.6000000E-02
    1       -3.051361   1.000000
    2       14.390640   0.000000
    3       16.144899   0.000000
    4       21.003015   0.000000
    5       23.264802   0.000000
    6       24.399297   0.000000
    7       24.932539   0.000000
    8       25.202991   0.000000
 
  0.3500000E+00  0.1500000E+00  0.1500000E+00  0.6000000E-02
    1       -1.896912   1.000000
    2       11.934001   0.000000
    3       13.837937   0.000000
    4       19.948261   0.000000
    5       23.178742   0.000000
    6       23.818619   0.000000
    7       25.413890   0.000000
    8       25.422166   0.000000
 
  0.4500000E+00  0.1500000E+00  0.1500000E+00  0.6000000E-02
    1       -0.179286   1.000000
    2        8.223096   1.000000
    3       13.615325   0.000000
    4       18.432232   0.000000
    5       21.369918   0.000000
    6       23.471843   0.000000
    7       25.833621   0.000000
    8       28.405856   0.000000
 
 -0.4500000E+00  0.1500000E+00  0.1500000E+00  0.6000000E-02
    1        2.071234   1.000000
    2        4.945470   1.000000
    3       13.943918   0.000000
    4       17.208779   0.000000
    5       19.981366   0.000000
    6       23.688931   0.000000
    7       26.201404   0.000000
    8       30.750378   0.000000
 
 -0.3500000E+00  0.1500000E+00  0.1500000E+00  0.6000000E-02
    1        2.071204   1.000000
    2        4.946506   1.000000
    3       14.777165   0.000000
    4       16.417773   0.000000
    5       19.117897   0.000000
    6       24.441214   0.000000
    7       26.449855   0.000000
    8       30.183804   0.000000
 
 -0.2500000E+00  0.1500000E+00  0.1500000E+00  0.6000000E-02
    1       -0.178962   1.000000
    2        8.229191   1.000000
    3       16.045388   0.000000
    4       16.103946   0.000000
    5       18.848264   0.000000
    6       25.457681   0.000000
    7       25.653156   0.000000
    8       28.229294   0.000000
 
 -0.1500000E+00  0.1500000E+00  0.1500000E+00  0.6000000E-02
    1       -1.896565   1.000000
    2       11.974993   0.000000
    3       16.284293   0.000000
    4       17.514305   0.000000
    5       19.283566   0.000000
    6       22.998617   0.000000
    7       27.135188   0.000000
    8       27.894264   0.000000
 
  0.2500000E+00  0.2500000E+00  0.1500000E+00  0.6000000E-02
    1       -2.665736   1.000000
    2       13.037318   0.000000
    3       17.284152   0.000000
    4       18.949921   0.000000
    5       21.119312   0.000000
    6       23.960991   0.000000
    7       26.107039   0.000000
    8       26.274439   0.000000
 
  0.3500000E+00  0.2500000E+00  0.1500000E+00  0.1200000E-01
    1       -1.704867   1.000000
    2       12.104966   0.000000
    3       13.971263   0.000000
    4       18.100871   0.000000
    5       21.342505   0.000000
    6       23.092237   0.000000
    7       25.675668   0.000000
    8       28.049128   0.000000
 
  0.4500000E+00  0.2500000E+00  0.1500000E+00  0.1200000E-01
    1       -0.177873   1.000000
    2        9.960731   1.000000
    3       11.930937   0.000000
    4       16.223133   0.000000
    5       22.469225   0.000000
    6       23.450114   0.000000
    7       24.935900   0.000000
    8       29.388444   0.000000
 
 -0.4500000E+00  0.2500000E+00  0.1500000E+00  0.1200000E-01
    1        1.896368   1.000000
    2        6.579880   1.000000
    3       12.038195   0.000000
    4       14.712171   0.000000
    5       21.871582   0.000000
    6       23.207509   0.000000
    7       27.562269   0.000000
    8       29.833299   0.000000
 
 -0.3500000E+00  0.2500000E+00  0.1500000E+00  0.1200000E-01
    1        3.515234   1.000000
    2        4.623796   1.000000
    3       12.658217   0.000000
    4       13.750278   0.000000
    5       21.045411   0.000000
    6       23.683514   0.000000
    7       28.542172   0.000000
    8       29.970997   0.000000
 
 -0.2500000E+00  0.2500000E+00  0.1500000E+00  0.1200000E-01
    1        1.146691   1.000000
    2        7.671990   1.000000
    3       12.982269   0.000000
    4       14.129386   0.000000
    5       20.567910   0.000000
    6       24.441559   0.000000
    7       25.926229   0.000000
    8       30.283267   0.000000
 
 -0.1500000E+00  0.2500000E+00  0.1500000E+00  0.1200000E-01
    1       -0.748529   1.000000
    2       11.209489   0.000000
    3       13.091163   0.000000
    4       15.761177   0.000000
    5       20.478209   0.000000
    6       22.362500   0.000000
    7       26.449231   0.000000
    8       30.114122   0.000000
 
  0.3500000E+00  0.3500000E+00  0.1500000E+00  0.6000000E-02
    1       -0.939239   1.000000
    2       11.079342   0.000000
    3       15.411880   0.000000
    4       15.444340   0.000000
    5       18.078105   0.000000
    6       22.196598   0.000000
    7       28.066202   0.000000
    8       29.668938   0.000000
 
  0.4500000E+00  0.3500000E+00  0.1500000E+00  0.1200000E-01
    1        0.392770   1.000000
    2       10.484355   0.000000
    3       12.311510   0.000000
    4       13.468301   0.000000
    5       19.785831   0.000000
    6       21.757799   0.000000
    7       27.423270   0.000000
    8       32.021974   0.000000
 
 -0.4500000E+00  0.3500000E+00  0.1500000E+00  0.1200000E-01
    1        2.276096   1.000000
    2        8.684125   1.000000
    3       10.580005   0.000000
    4       11.725415   0.000000
    5       21.468781   0.000000
    6       23.212394   0.000000
    7       26.158997   0.000000
    8       32.576021   0.000000
 
 -0.3500000E+00  0.3500000E+00  0.1500000E+00  0.1200000E-01
    1        4.635457   1.000000
    2        5.702008   1.000000
    3       10.198884   0.889931
    4       11.337615   0.000000
    5       21.998452   0.000000
    6       24.629374   0.000000
    7       27.117250   0.000000
    8       29.600281   0.000000
 
 -0.2500000E+00  0.3500000E+00  0.1500000E+00  0.1200000E-01
    1        3.020832   1.000000
    2        7.602454   1.000000
    3        9.615856   1.000000
    4       12.323166   0.000000
    5       22.788965   0.000000
    6       24.097541   0.000000
    7       25.879172   0.000000
    8       30.853427   0.000000
 
 -0.1500000E+00  0.3500000E+00  0.1500000E+00  0.1200000E-01
    1        0.959485   1.000000
    2        9.234958   1.000000
    3       11.205745   0.000000
    4       13.899842   0.000000
    5       21.937771   0.000000
    6       23.448337   0.000000
    7       25.244271   0.000000
    8       31.486001   0.000000
 
  0.4500000E+00  0.4500000E+00  0.1500000E+00  0.6000000E-02
    1        1.526484   1.000000
    2        9.766449   1.000000
    3       10.875588   0.000000
    4       14.262667   0.000000
    5       16.703834   0.000000
    6       21.066736   0.000000
    7       30.272642   0.000000
    8       32.595361   0.000000
 
 -0.4500000E+00  0.4500000E+00  0.1500000E+00  0.1200000E-01
    1        3.207562   1.000000
    2        8.743239   1.000000
    3        9.668194   1.000000
    4       11.627570   0.000000
    5       18.912276   0.000000
    6       20.974995   0.000000
    7       29.832886   0.000000
    8       33.573697   0.000000
 
 -0.3500000E+00  0.4500000E+00  0.1500000E+00  0.1200000E-01
    1        5.373176   1.000000
    2        7.318226   1.000000
    3        8.241361   1.000000
    4       10.266529   0.246008
    5       20.975623   0.000000
    6       22.852245   0.000000
    7       28.708610   0.000000
    8       30.314865   0.000000
 
 -0.2500000E+00  0.4500000E+00  0.1500000E+00  0.1200000E-01
    1        5.376135   1.000000
    2        6.356756   1.000000
    3        8.366727   1.000000
    4       11.088045   0.000000
    5       21.876403   0.000000
    6       25.799312   0.000000
    7       26.817327   0.000000
    8       28.526982   0.000000
 
 -0.1500000E+00  0.4500000E+00  0.1500000E+00  0.1200000E-01
    1        3.198009   1.000000
    2        6.034153   1.000000
    3       11.433247   0.000000
    4       12.567961   0.000000
    5       22.153017   0.000000
    6       23.561708   0.000000
    7       27.369294   0.000000
    8       30.486453   0.000000
 
 -0.4500000E+00 -0.4500000E+00  0.1500000E+00  0.6000000E-02
    1        4.643865   1.000000
    2        6.664467   1.000000
    3        9.336306   1.000000
    4       13.754413   0.000000
    5       16.137862   0.000000
    6       20.572191   0.000000
    7       32.645554   0.000000
    8       34.396620   0.000000
 
 -0.3500000E+00 -0.4500000E+00  0.1500000E+00  0.1200000E-01
    1        4.827488   1.000000
    2        6.844346   1.000000
    3        9.449077   1.000000
    4       11.435101   0.000000
    5       18.735920   0.000000
    6       20.815027   0.000000
    7       31.182569   0.000000
    8       32.511380   0.000000
 
 -0.2500000E+00 -0.4500000E+00  0.1500000E+00  0.1200000E-01
    1        3.762352   1.000000
    2        8.287440   1.000000
    3        9.318405   1.000000
    4       10.522682   0.000000
    5       21.141834   0.000000
    6       22.980929   0.000000
    7       27.368599   0.000000
    8       31.669019   0.000000
 
 -0.3500000E+00 -0.3500000E+00  0.1500000E+00  0.6000000E-02
    1        3.021502   1.000000
    2        8.565944   1.000000
    3        9.568252   1.000000
    4       13.923936   0.000000
    5       16.326140   0.000000
    6       20.738041   0.000000
    7       31.506364   0.000000
    8       33.701868   0.000000
 
 -0.2500000E+00 -0.3500000E+00  0.1500000E+00  0.1200000E-01
    1        1.714434   1.000000
    2        9.911435   1.000000
    3       10.930096   0.000000
    4       12.064589   0.000000
    5       19.263905   0.000000
    6       21.292354   0.000000
    7       28.564351   0.000000
    8       33.523658   0.000000
 
 -0.2500000E+00 -0.2500000E+00  0.1500000E+00  0.6000000E-02
    1        0.203261   1.000000
    2       10.352147   0.000939
    3       13.102197   0.000000
    4       14.769890   0.000000
    5       17.276260   0.000000
    6       21.554040   0.000000
    7       29.113592   0.000000
    8       31.244696   0.000000
 
  0.2500000E+00  0.2500000E+00  0.2500000E+00  0.2000000E-02
    1       -2.473586   1.000000
    2       11.470462   0.000000
    3       18.997154   0.000000
    4       18.997160   0.000000
    5       23.279258   0.000000
    6       23.615372   0.000000
    7       23.615379   0.000000
    8       28.265617   0.000000
 
  0.3500000E+00  0.2500000E+00  0.2500000E+00  0.6000000E-02
    1       -1.705507   1.000000
    2       10.391097   0.000013
    3       15.605075   0.000000
    4       19.867278   0.000000
    5       22.612363   0.000000
    6       23.178631   0.000000
    7       24.590340   0.000000
    8       27.176811   0.000000
 
  0.4500000E+00  0.2500000E+00  0.2500000E+00  0.6000000E-02
    1       -0.368520   1.000000
    2        9.783347   1.000000
    3       11.774669   0.000000
    4       18.303354   0.000000
    5       21.254600   0.000000
    6       24.939062   0.000000
    7       26.609887   0.000000
    8       26.709404   0.000000
 
 -0.4500000E+00  0.2500000E+00  0.2500000E+00  0.6000000E-02
    1        1.523288   1.000000
    2        7.970402   1.000000
    3       10.007637   1.000000
    4       16.735290   0.000000
    5       19.523525   0.000000
    6       26.483229   0.000000
    7       28.256556   0.000000
    8       28.274498   0.000000
 
 -0.3500000E+00  0.2500000E+00  0.2500000E+00  0.6000000E-02
    1        3.891589   1.000000
    2        4.981032   1.000000
    3       10.477526   0.000000
    4       15.592121   0.000000
    5       18.254349   0.000000
    6       26.936305   0.000000
    7       27.936963   0.000000
    8       30.087245   0.000000
 
 -0.2500000E+00  0.2500000E+00  0.2500000E+00  0.6000000E-02
    1        2.272565   1.000000
    2        6.946112   1.000000
    3       11.533225   0.000000
    4       14.931731   0.000000
    5       17.508319   0.000000
    6       24.819721   0.000000
    7       27.840070   0.000000
    8       30.659679   0.000000
 
  0.3500000E+00  0.3500000E+00  0.2500000E+00  0.6000000E-02
    1       -1.131745   1.000000
    2        9.138108   1.000000
    3       16.930876   0.000000
    4       18.024728   0.000000
    5       20.027214   0.000000
    6       24.799213   0.000000
    7       25.104775   0.000000
    8       27.418361   0.000000
 
  0.4500000E+00  0.3500000E+00  0.2500000E+00  0.1200000E-01
    1        0.011214   1.000000
    2        8.402441   1.000000
    3       13.744879   0.000000
    4       16.383338   0.000000
    5       21.185467   0.000000
    6       23.752173   0.000000
    7       26.076733   0.000000
    8       28.532426   0.000000
 
 -0.4500000E+00  0.3500000E+00  0.2500000E+00  0.1200000E-01
    1        1.711983   1.000000
    2        8.150470   1.000000
    3       10.173786   0.973569
    4       14.529781   0.000000
    5       21.883424   0.000000
    6       24.441130   0.000000
    7       26.155058   0.000000
    8       30.796456   0.000000
 