 vasp.6.2.0 18Jan21 (build Aug 12 2022 13:00:08) complex                        
  
 executed on             LinuxIFC date 2024.11.03  21:54:00
 running on    4 total cores
 distrk:  each k-point on    4 cores,    1 groups
 distr:  one band on NCORE=   1 cores,    4 groups


--------------------------------------------------------------------------------------------------------


 INCAR:
   ISTART = 0            (Read existing wavefunction, if there)
   ISPIN = 1            (Non-Spin polarised DFT)
   LREAL = .FALSE.       (Projection operators: automatic)
   LWAVE = .FALSE.        (Write WAVECAR or not)
   LCHARG = .FALSE.        (Write CHGCAR or not)
   ADDGRID = .TRUE.        (Increase grid, helps GGA convergence)
   LASPH = .TRUE.        (Give more accurate total energies and band structure calculations)
   PREC = Accurate      (Accurate strictly avoids any aliasing or wrap around errors)
   ENCUT = 350          (Cut-off energy for plane wave basis set, in eV)
   ISMEAR = 0            (Gaussian smearing, metals:1)
   SIGMA = 0.05         (Smearing value in eV, metals:0.2)
   NELM = 90           (Max electronic SCF steps)
   NELMIN = 6            (Min electronic SCF steps)
   EDIFF = 1E-06        (SCF energy convergence, in eV)
   NSW = 100          (Max ionic steps)
   IBRION = 2            (Algorithm: 0-MD, 1-Quasi-New, 2-CG)
   ISIF = 3            (Stress/relaxation: 2-Ions, 3-Shape/Ions/V, 4-Shape/Ions)
   EDIFFG = -2E-03        (Ionic convergence, eV/AA)
   ISYM = 2              (Symmetry: 0\=none, 2\=GGA, 3\=hybrids)

 POTCAR:    PAW_PBE Si 05Jan2001                  
 POTCAR:    PAW_PBE Si 05Jan2001                  
   VRHFIN =Si: s2p2                                                                                 
   LEXCH  = PE                                                                                      
   EATOM  =   103.0669 eV,    7.5752 Ry                                                             
                                                                                                    
   TITEL  = PAW_PBE Si 05Jan2001                                                                    
   LULTRA =        F    use ultrasoft PP ?                                                          
   IUNSCR =        1    unscreen: 0-lin 1-nonlin 2-no                                               
   RPACOR =    1.500    partial core radius                                                         
   POMASS =   28.085; ZVAL   =    4.000    mass and valenz                                          
   RCORE  =    1.900    outmost cutoff radius                                                       
   RWIGS  =    2.480; RWIGS  =    1.312    wigner-seitz radius (au A)                               
   ENMAX  =  245.345; ENMIN  =  184.009 eV                                                          
   ICORE  =        2    local potential                                                             
   LCOR   =        T    correct aug charges                                                         
   LPAW   =        T    paw PP                                                                      
   EAUG   =  322.069                                                                                
   DEXC   =    0.000                                                                                
   RMAX   =    1.950    core radius for proj-oper                                                   
   RAUG   =    1.300    factor for augmentation sphere                                              
   RDEP   =    1.993    radius for radial grids                                                     
   RDEPT  =    1.837    core radius for aug-charge                                                  
                                                                                                    
   Atomic configuration                                                                             
    6 entries                                                                                       
     n  l   j            E        occ.                                                              
     1  0  0.50     -1785.8828   2.0000                                                             
     2  0  0.50      -139.4969   2.0000                                                             
     2  1  1.50       -95.5546   6.0000                                                             
     3  0  0.50       -10.8127   2.0000                                                             
     3  1  0.50        -4.0811   2.0000                                                             
     3  2  1.50        -4.0817   0.0000                                                             
   Description                                                                                      
     l       E           TYP  RCUT    TYP  RCUT                                                     
     0    -10.8127223     23  1.900                                                                 
     0     -7.6451159     23  1.900                                                                 
     1     -4.0811372     23  1.900                                                                 
     1      2.4879257     23  1.900                                                                 
     2     -4.0817478      7  1.900                                                                 
  local pseudopotential read in
  partial core-charges read in
  partial kinetic energy density read in
  atomic valenz-charges read in
  non local Contribution for L=           0  read in
    real space projection operators read in
  non local Contribution for L=           0  read in
    real space projection operators read in
  non local Contribution for L=           1  read in
    real space projection operators read in
  non local Contribution for L=           1  read in
    real space projection operators read in
    PAW grid and wavefunctions read in
 
   number of l-projection  operators is LMAX  =           4
   number of lm-projection operators is LMMAX =           8
 
  PAW_PBE Si 05Jan2001                  :
 energy of atom  1       EATOM= -103.0669
 kinetic energy error for atom=    0.0013 (will be added to EATOM!!)
 
 
 POSCAR: Si1
  positions in direct lattice
  No initial velocities read in
 exchange correlation table for  LEXCH =        8
   RHO(1)=    0.500       N(1)  =     2000
   RHO(2)=  100.500       N(2)  =     4000
 


--------------------------------------------------------------------------------------------------------


 ion  position               nearest neighbor table
   1  0.000  0.000  0.000-
 
  LATTYP: Found a face centered cubic cell.
 ALAT       =     3.8332789147
  
  Lattice vectors:
  
 A1 = (   2.3473950000,   0.0000000000,   1.3552680000)
 A2 = (   0.7824650000,   2.2131450000,   1.3552680000)
 A3 = (   0.0000000000,   0.0000000000,   2.7105380000)


Analysis of symmetry for initial positions (statically):
=====================================================================
 Subroutine PRICEL returns:
 Original cell was already a primitive cell.
 

 Routine SETGRP: Setting up the symmetry group for a 
 face centered cubic supercell.


 Subroutine GETGRP returns: Found 48 space group operations
 (whereof 48 operations were pure point group operations)
 out of a pool of 48 trial point group operations.


The static configuration has the point symmetry O_h .


Analysis of symmetry for dynamics (positions and initial velocities):
=====================================================================
 Subroutine PRICEL returns:
 Original cell was already a primitive cell.
 

 Routine SETGRP: Setting up the symmetry group for a 
 face centered cubic supercell.


 Subroutine GETGRP returns: Found 48 space group operations
 (whereof 48 operations were pure point group operations)
 out of a pool of 48 trial point group operations.


The dynamic configuration has the point symmetry O_h .


 Subroutine INISYM returns: Found 48 space group operations
 (whereof 48 operations are pure point group operations),
 and found     1 'primitive' translations


----------------------------------------------------------------------------------------

                                     Primitive cell                                     

  volume of cell :      14.0816

  direct lattice vectors                    reciprocal lattice vectors
     2.347395000  0.000000000  1.355268000     0.426004145 -0.150615226  0.000000000
     0.782465000  2.213145000  1.355268000     0.000000000  0.451845677  0.000000000
     0.000000000  0.000000000  2.710538000    -0.213001915 -0.150615114  0.368930448

  length of vectors
     2.710537703  2.710537515  2.710538000     0.451845635  0.451845677  0.451845554

  position of ions in fractional coordinates (direct lattice)
     0.000000000  0.000000000  0.000000000

  ion indices of the primitive-cell ions
   primitive index   ion index
                 1           1

----------------------------------------------------------------------------------------

 
 
 KPOINTS: Automatic                               

Automatic generation of k-mesh.
 Grid dimensions read from file:
 generate k-points for:   10   10   10

 Generating k-lattice:

  Cartesian coordinates                     Fractional coordinates (reciprocal lattice)
     0.042600415 -0.015061523  0.000000000     0.100000000 -0.000000000  0.000000000
     0.000000000  0.045184568  0.000000000     0.000000000  0.100000000  0.000000000
    -0.021300192 -0.015061511  0.036893045     0.000000000  0.000000000  0.100000000

  Length of vectors
     0.045184563  0.045184568  0.045184555

  Shift w.r.t. Gamma in fractional coordinates (k-lattice)
     0.500000000  0.500000000  0.500000000

 
 Subroutine IBZKPT returns following result:
 ===========================================
 
 Found    110 irreducible k-points:
 
 Following reciprocal coordinates:
            Coordinates               Weight
  0.050000  0.050000  0.050000      8.000000
  0.150000  0.050000  0.050000     24.000000
  0.250000  0.050000  0.050000     24.000000
  0.350000  0.050000  0.050000     24.000000
  0.450000  0.050000  0.050000     24.000000
 -0.450000  0.050000  0.050000     24.000000
 -0.350000  0.050000  0.050000     24.000000
 -0.250000  0.050000  0.050000     24.000000
 -0.150000  0.050000  0.050000     24.000000
 -0.050000  0.050000  0.050000     24.000000
  0.150000  0.150000  0.050000     24.000000
  0.250000  0.150000  0.050000     48.000000
  0.350000  0.150000  0.050000     48.000000
  0.450000  0.150000  0.050000     48.000000
 -0.450000  0.150000  0.050000     48.000000
 -0.350000  0.150000  0.050000     48.000000
 -0.250000  0.150000  0.050000     48.000000
 -0.150000  0.150000  0.050000     48.000000
 -0.050000  0.150000  0.050000     48.000000
  0.250000  0.250000  0.050000     24.000000
  0.350000  0.250000  0.050000     48.000000
  0.450000  0.250000  0.050000     48.000000
 -0.450000  0.250000  0.050000     48.000000
 -0.350000  0.250000  0.050000     48.000000
 -0.250000  0.250000  0.050000     48.000000
 -0.150000  0.250000  0.050000     48.000000
 -0.050000  0.250000  0.050000     48.000000
  0.350000  0.350000  0.050000     24.000000
  0.450000  0.350000  0.050000     48.000000
 -0.450000  0.350000  0.050000     48.000000
 -0.350000  0.350000  0.050000     48.000000
 -0.250000  0.350000  0.050000     48.000000
 -0.150000  0.350000  0.050000     48.000000
 -0.050000  0.350000  0.050000     48.000000
  0.450000  0.450000  0.050000     24.000000
 -0.450000  0.450000  0.050000     48.000000
 -0.350000  0.450000  0.050000     48.000000
 -0.250000  0.450000  0.050000     48.000000
 -0.150000  0.450000  0.050000     48.000000
 -0.050000  0.450000  0.050000     48.000000
 -0.450000 -0.450000  0.050000     24.000000
 -0.350000 -0.450000  0.050000     48.000000
 -0.250000 -0.450000  0.050000     48.000000
 -0.150000 -0.450000  0.050000     48.000000
 -0.350000 -0.350000  0.050000     24.000000
 -0.250000 -0.350000  0.050000     48.000000
 -0.150000 -0.350000  0.050000     48.000000
 -0.250000 -0.250000  0.050000     24.000000
 -0.150000 -0.250000  0.050000     48.000000
 -0.150000 -0.150000  0.050000     24.000000
  0.150000  0.150000  0.150000      8.000000
  0.250000  0.150000  0.150000     24.000000
  0.350000  0.150000  0.150000     24.000000
  0.450000  0.150000  0.150000     24.000000
 -0.450000  0.150000  0.150000     24.000000
 -0.350000  0.150000  0.150000     24.000000
 -0.250000  0.150000  0.150000     24.000000
 -0.150000  0.150000  0.150000     24.000000
  0.250000  0.250000  0.150000     24.000000
  0.350000  0.250000  0.150000     48.000000
  0.450000  0.250000  0.150000     48.000000
 -0.450000  0.250000  0.150000     48.000000
 -0.350000  0.250000  0.150000     48.000000
 -0.250000  0.250000  0.150000     48.000000
 -0.150000  0.250000  0.150000     48.000000
  0.350000  0.350000  0.150000     24.000000
  0.450000  0.350000  0.150000     48.000000
 -0.450000  0.350000  0.150000     48.000000
 -0.350000  0.350000  0.150000     48.000000
 -0.250000  0.350000  0.150000     48.000000
 -0.150000  0.350000  0.150000     48.000000
  0.450000  0.450000  0.150000     24.000000
 -0.450000  0.450000  0.150000     48.000000
 -0.350000  0.450000  0.150000     48.000000
 -0.250000  0.450000  0.150000     48.000000
 -0.150000  0.450000  0.150000     48.000000
 -0.450000 -0.450000  0.150000     24.000000
 -0.350000 -0.450000  0.150000     48.000000
 -0.250000 -0.450000  0.150000     48.000000
 -0.350000 -0.350000  0.150000     24.000000
 -0.250000 -0.350000  0.150000     48.000000
 -0.250000 -0.250000  0.150000     24.000000
  0.250000  0.250000  0.250000      8.000000
  0.350000  0.250000  0.250000     24.000000
  0.450000  0.250000  0.250000     24.000000
 -0.450000  0.250000  0.250000     24.000000
 -0.350000  0.250000  0.250000     24.000000
 -0.250000  0.250000  0.250000     24.000000
  0.350000  0.350000  0.250000     24.000000
  0.450000  0.350000  0.250000     48.000000
 -0.450000  0.350000  0.250000     48.000000
 -0.350000  0.350000  0.250000     48.000000
 -0.250000  0.350000  0.250000     48.000000
  0.450000  0.450000  0.250000     24.000000
 -0.450000  0.450000  0.250000     48.000000
 -0.350000  0.450000  0.250000     48.000000
 -0.250000  0.450000  0.250000     48.000000
 -0.450000 -0.450000  0.250000     24.000000
 -0.350000 -0.450000  0.250000     48.000000
 -0.350000 -0.350000  0.250000     24.000000
  0.350000  0.350000  0.350000      8.000000
  0.450000  0.350000  0.350000     24.000000
 -0.450000  0.350000  0.350000     24.000000
 -0.350000  0.350000  0.350000     24.000000
  0.450000  0.450000  0.350000     24.000000
 -0.450000  0.450000  0.350000     48.000000
 -0.350000  0.450000  0.350000     48.000000
 -0.450000 -0.450000  0.350000     24.000000
  0.450000  0.450000  0.450000      8.000000
 -0.450000  0.450000  0.450000     24.000000
 
 Following cartesian coordinates:
            Coordinates               Weight
  0.010650  0.007531  0.018447      8.000000
  0.053251 -0.007531  0.018447     24.000000
  0.095851 -0.022592  0.018447     24.000000
  0.138451 -0.037654  0.018447     24.000000
  0.181052 -0.052715  0.018447     24.000000
 -0.202352  0.082838  0.018447     24.000000
 -0.159752  0.067777  0.018447     24.000000
 -0.117151  0.052715  0.018447     24.000000
 -0.074551  0.037654  0.018447     24.000000
 -0.031950  0.022592  0.018447     24.000000
  0.053251  0.037654  0.018447     24.000000
  0.095851  0.022592  0.018447     48.000000
  0.138451  0.007531  0.018447     48.000000
  0.181052 -0.007531  0.018447     48.000000
 -0.202352  0.128023  0.018447     48.000000
 -0.159752  0.112961  0.018447     48.000000
 -0.117151  0.097900  0.018447     48.000000
 -0.074551  0.082838  0.018447     48.000000
 -0.031950  0.067777  0.018447     48.000000
  0.095851  0.067777  0.018447     24.000000
  0.138451  0.052715  0.018447     48.000000
  0.181052  0.037654  0.018447     48.000000
 -0.202352  0.173208  0.018447     48.000000
 -0.159752  0.158146  0.018447     48.000000
 -0.117151  0.143084  0.018447     48.000000
 -0.074551  0.128023  0.018447     48.000000
 -0.031950  0.112961  0.018447     48.000000
  0.138451  0.097900  0.018447     24.000000
  0.181052  0.082838  0.018447     48.000000
 -0.202352  0.218392  0.018447     48.000000
 -0.159752  0.203331  0.018447     48.000000
 -0.117151  0.188269  0.018447     48.000000
 -0.074551  0.173208  0.018447     48.000000
 -0.031950  0.158146  0.018447     48.000000
  0.181052  0.128023  0.018447     24.000000
 -0.202352  0.263577  0.018447     48.000000
 -0.159752  0.248515  0.018447     48.000000
 -0.117151  0.233454  0.018447     48.000000
 -0.074551  0.218392  0.018447     48.000000
 -0.031950  0.203331  0.018447     48.000000
 -0.202352 -0.143084  0.018447     24.000000
 -0.159752 -0.158146  0.018447     48.000000
 -0.117151 -0.173208  0.018447     48.000000
 -0.074551 -0.188269  0.018447     48.000000
 -0.159752 -0.112961  0.018447     24.000000
 -0.117151 -0.128023  0.018447     48.000000
 -0.074551 -0.143084  0.018447     48.000000
 -0.117151 -0.082838  0.018447     24.000000
 -0.074551 -0.097900  0.018447     48.000000
 -0.074551 -0.052715  0.018447     24.000000
  0.031950  0.022592  0.055340      8.000000
  0.074551  0.007531  0.055340     24.000000
  0.117151 -0.007531  0.055340     24.000000
  0.159752 -0.022592  0.055340     24.000000
 -0.223652  0.112961  0.055340     24.000000
 -0.181052  0.097900  0.055340     24.000000
 -0.138451  0.082838  0.055340     24.000000
 -0.095851  0.067777  0.055340     24.000000
  0.074551  0.052715  0.055340     24.000000
  0.117151  0.037654  0.055340     48.000000
  0.159752  0.022592  0.055340     48.000000
 -0.223652  0.158146  0.055340     48.000000
 -0.181052  0.143084  0.055340     48.000000
 -0.138451  0.128023  0.055340     48.000000
 -0.095851  0.112961  0.055340     48.000000
  0.117151  0.082838  0.055340     24.000000
  0.159752  0.067777  0.055340     48.000000
 -0.223652  0.203331  0.055340     48.000000
 -0.181052  0.188269  0.055340     48.000000
 -0.138451  0.173208  0.055340     48.000000
 -0.095851  0.158146  0.055340     48.000000
  0.159752  0.112961  0.055340     24.000000
 -0.223652  0.248515  0.055340     48.000000
 -0.181052  0.233454  0.055340     48.000000
 -0.138451  0.218392  0.055340     48.000000
 -0.095851  0.203331  0.055340     48.000000
 -0.223652 -0.158146  0.055340     24.000000
 -0.181052 -0.173207  0.055340     48.000000
 -0.138451 -0.188269  0.055340     48.000000
 -0.181052 -0.128023  0.055340     24.000000
 -0.138451 -0.143084  0.055340     48.000000
 -0.138451 -0.097900  0.055340     24.000000
  0.053251  0.037654  0.092233      8.000000
  0.095851  0.022592  0.092233     24.000000
  0.138451  0.007531  0.092233     24.000000
 -0.244952  0.143084  0.092233     24.000000
 -0.202352  0.128023  0.092233     24.000000
 -0.159752  0.112961  0.092233     24.000000
  0.095851  0.067777  0.092233     24.000000
  0.138451  0.052715  0.092233     48.000000
 -0.244952  0.188269  0.092233     48.000000
 -0.202352  0.173208  0.092233     48.000000
 -0.159752  0.158146  0.092233     48.000000
  0.138451  0.097900  0.092233     24.000000
 -0.244952  0.233454  0.092233     48.000000
 -0.202352  0.218392  0.092233     48.000000
 -0.159752  0.203331  0.092233     48.000000
 -0.244952 -0.173207  0.092233     24.000000
 -0.202352 -0.188269  0.092233     48.000000
 -0.202352 -0.143084  0.092233     24.000000
  0.074551  0.052715  0.129126      8.000000
  0.117151  0.037654  0.129126     24.000000
 -0.266253  0.173208  0.129126     24.000000
 -0.223652  0.158146  0.129126     24.000000
  0.117151  0.082838  0.129126     24.000000
 -0.266253  0.218392  0.129126     48.000000
 -0.223652  0.203331  0.129126     48.000000
 -0.266253 -0.188269  0.129126     24.000000
  0.095851  0.067777  0.166019      8.000000
 -0.287553  0.203331  0.166019     24.000000
 


--------------------------------------------------------------------------------------------------------




 Dimension of arrays:
   k-points           NKPTS =    110   k-points in BZ     NKDIM =    110   number of bands    NBANDS=      8
   number of dos      NEDOS =    301   number of ions     NIONS =      1
   non local maximal  LDIM  =      4   non local SUM 2l+1 LMDIM =      8
   total plane-waves  NPLWV =   5832
   max r-space proj   IRMAX =      1   max aug-charges    IRDMAX= 110965
   dimension x,y,z NGX =    18 NGY =   18 NGZ =   18
   dimension x,y,z NGXF=    36 NGYF=   36 NGZF=   36
   support grid    NGXF=    72 NGYF=   72 NGZF=   72
   ions per type =               1
   NGX,Y,Z   is equivalent  to a cutoff of  11.04, 11.04, 11.04 a.u.
   NGXF,Y,Z  is equivalent  to a cutoff of  22.08, 22.08, 22.08 a.u.

 SYSTEM =  unknown system                          
 POSCAR =  Si1                                     

 Startparameter for this run:
   NWRITE =      2    write-flag & timer
   PREC   = accura    normal or accurate (medium, high low for compatibility)
   ISTART =      0    job   : 0-new  1-cont  2-samecut
   ICHARG =      2    charge: 1-file 2-atom 10-const
   ISPIN  =      1    spin polarized calculation?
   LNONCOLLINEAR =      F non collinear calculations
   LSORBIT =      F    spin-orbit coupling
   INIWAV =      1    electr: 0-lowe 1-rand  2-diag
   LASPH  =      T    aspherical Exc in radial PAW
   METAGGA=      F    non-selfconsistent MetaGGA calc.

 Electronic Relaxation 1
   ENCUT  =  350.0 eV  25.72 Ry    5.07 a.u.   4.13  4.13  4.13*2*pi/ulx,y,z
   ENINI  =  350.0     initial cutoff
   ENAUG  =  322.1 eV  augmentation charge cutoff
   NELM   =     90;   NELMIN=  6; NELMDL= -5     # of ELM steps 
   EDIFF  = 0.1E-05   stopping-criterion for ELM
   LREAL  =      F    real-space projection
   NLSPLINE    = F    spline interpolate recip. space projectors
   LCOMPAT=      F    compatible to vasp.4.4
   GGA_COMPAT  = T    GGA compatible to vasp.4.4-vasp.4.6
   LMAXPAW     = -100 max onsite density
   LMAXMIX     =    2 max onsite mixed and CHGCAR
   VOSKOWN=      0    Vosko Wilk Nusair interpolation
   ROPT   =    0.00000
 Ionic relaxation
   EDIFFG = -.2E-02   stopping-criterion for IOM
   NSW    =    100    number of steps for IOM
   NBLOCK =      1;   KBLOCK =    100    inner block; outer block 
   IBRION =      2    ionic relax: 0-MD 1-quasi-New 2-CG
   NFREE  =      1    steps in history (QN), initial steepest desc. (CG)
   ISIF   =      3    stress and relaxation
   IWAVPR =     11    prediction:  0-non 1-charg 2-wave 3-comb
   ISYM   =      2    0-nonsym 1-usesym 2-fastsym
   LCORR  =      T    Harris-Foulkes like correction to forces

   POTIM  = 0.5000    time-step for ionic-motion
   TEIN   =    0.0    initial temperature
   TEBEG  =    0.0;   TEEND  =   0.0 temperature during run
   SMASS  =  -3.00    Nose mass-parameter (am)
   estimated Nose-frequenzy (Omega)   =  0.10E-29 period in steps = 0.13E+47 mass=  -0.168E-27a.u.
   SCALEE = 1.0000    scale energy and forces
   NPACO  =    256;   APACO  = 16.0  distance and # of slots for P.C.
   PSTRESS=    0.0 pullay stress

  Mass of Ions in am
   POMASS =  28.09
  Ionic Valenz
   ZVAL   =   4.00
  Atomic Wigner-Seitz radii
   RWIGS  =  -1.00
  virtual crystal weights 
   VCA    =   1.00
   NELECT =       4.0000    total number of electrons
   NUPDOWN=      -1.0000    fix difference up-down

 DOS related values:
   EMIN   =  10.00;   EMAX   =-10.00  energy-range for DOS
   EFERMI =   0.00
   ISMEAR =     0;   SIGMA  =   0.05  broadening in eV -4-tet -1-fermi 0-gaus

 Electronic relaxation 2 (details)
   IALGO  =     38    algorithm
   LDIAG  =      T    sub-space diagonalisation (order eigenvalues)
   LSUBROT=      F    optimize rotation matrix (better conditioning)
   TURBO    =      0    0=normal 1=particle mesh
   IRESTART =      0    0=no restart 2=restart with 2 vectors
   NREBOOT  =      0    no. of reboots
   NMIN     =      0    reboot dimension
   EREF     =   0.00    reference energy to select bands
   IMIX   =      4    mixing-type and parameters
     AMIX     =   0.40;   BMIX     =  1.00
     AMIX_MAG =   1.60;   BMIX_MAG =  1.00
     AMIN     =   0.10
     WC   =   100.;   INIMIX=   1;  MIXPRE=   1;  MAXMIX= -45

 Intra band minimization:
   WEIMIN = 0.0010     energy-eigenvalue tresh-hold
   EBREAK =  0.31E-07  absolut break condition
   DEPER  =   0.30     relativ break condition  

   TIME   =   0.40     timestep for ELM

  volume/ion in A,a.u.               =      14.08        95.03
  Fermi-wavevector in a.u.,A,eV,Ry     =   1.076162  2.033651 15.757242  1.158125
  Thomas-Fermi vector in A             =   2.212039
 
 Write flags
   LWAVE        =      F    write WAVECAR
   LDOWNSAMPLE  =      F    k-point downsampling of WAVECAR
   LCHARG       =      F    write CHGCAR
   LVTOT        =      F    write LOCPOT, total local potential
   LVHAR        =      F    write LOCPOT, Hartree potential only
   LELF         =      F    write electronic localiz. function (ELF)
   LORBIT       =      0    0 simple, 1 ext, 2 COOP (PROOUT), +10 PAW based schemes


 Dipole corrections
   LMONO  =      F    monopole corrections only (constant potential shift)
   LDIPOL =      F    correct potential (dipole corrections)
   IDIPOL =      0    1-x, 2-y, 3-z, 4-all directions 
   EPSILON=  1.0000000 bulk dielectric constant

 Exchange correlation treatment:
   GGA     =    --    GGA type
   LEXCH   =     8    internal setting for exchange type
   VOSKOWN=      0    Vosko Wilk Nusair interpolation
   LHFCALC =     F    Hartree Fock is set to
   LHFONE  =     F    Hartree Fock one center treatment
   AEXX    =    0.0000 exact exchange contribution

 Linear response parameters
   LEPSILON=     F    determine dielectric tensor
   LRPA    =     F    only Hartree local field effects (RPA)
   LNABLA  =     F    use nabla operator in PAW spheres
   LVEL    =     F    velocity operator in full k-point grid
   LINTERFAST=   F  fast interpolation
   KINTER  =     0    interpolate to denser k-point grid
   CSHIFT  =0.1000    complex shift for real part using Kramers Kronig
   OMEGAMAX=  -1.0    maximum frequency
   DEG_THRESHOLD= 0.2000000E-02 threshold for treating states as degnerate
   RTIME   =   -0.100 relaxation time in fs
  (WPLASMAI=    0.000 imaginary part of plasma frequency in eV, 0.658/RTIME)
   DFIELD  = 0.0000000 0.0000000 0.0000000 field for delta impulse in time
 
 Orbital magnetization related:
   ORBITALMAG=     F  switch on orbital magnetization
   LCHIMAG   =     F  perturbation theory with respect to B field
   DQ        =  0.001000  dq finite difference perturbation B field
   LLRAUG    =     F  two centre corrections for induced B field



--------------------------------------------------------------------------------------------------------


 conjugate gradient relaxation of ions
 charge density and potential will be updated during run
 non-spin polarized calculation
 Variant of blocked Davidson
 Davidson routine will perform the subspace rotation
 perform sub-space diagonalisation
    after iterative eigenvector-optimisation
 modified Broyden-mixing scheme, WC =      100.0
 initial mixing is a Kerker type mixing with AMIX =  0.4000 and BMIX =      1.0000
 Hartree-type preconditioning will be used
 using additional bands            6
 reciprocal scheme for non local part
 use partial core corrections
 calculate Harris-corrections to forces 
   (improved forces if not selfconsistent)
 use gradient corrections 
 use of overlap-Matrix (Vanderbilt PP)
 Gauss-broadening in eV      SIGMA  =   0.05


--------------------------------------------------------------------------------------------------------


  energy-cutoff  :      350.00
  volume of cell :       14.08
      direct lattice vectors                 reciprocal lattice vectors
     2.347395000  0.000000000  1.355268000     0.426004145 -0.150615226  0.000000000
     0.782465000  2.213145000  1.355268000     0.000000000  0.451845677  0.000000000
     0.000000000  0.000000000  2.710538000    -0.213001915 -0.150615114  0.368930448

  length of vectors
     2.710537703  2.710537515  2.710538000     0.451845635  0.451845677  0.451845554


 
 k-points in units of 2pi/SCALE and weight: Automatic                               
   0.01065011  0.00753077  0.01844652       0.002
   0.05325053 -0.00753076  0.01844652       0.006
   0.09585094 -0.02259228  0.01844652       0.006
   0.13845135 -0.03765380  0.01844652       0.006
   0.18105177 -0.05271532  0.01844652       0.006
  -0.20235196  0.08283838  0.01844652       0.006
  -0.15975155  0.06777686  0.01844652       0.006
  -0.11715113  0.05271533  0.01844652       0.006
  -0.07455072  0.03765381  0.01844652       0.006
  -0.03195030  0.02259229  0.01844652       0.006
   0.05325053  0.03765381  0.01844652       0.006
   0.09585094  0.02259229  0.01844652       0.012
   0.13845135  0.00753077  0.01844652       0.012
   0.18105177 -0.00753076  0.01844652       0.012
  -0.20235196  0.12802295  0.01844652       0.012
  -0.15975155  0.11296142  0.01844652       0.012
  -0.11715113  0.09789990  0.01844652       0.012
  -0.07455072  0.08283838  0.01844652       0.012
  -0.03195030  0.06777686  0.01844652       0.012
   0.09585094  0.06777686  0.01844652       0.006
   0.13845135  0.05271533  0.01844652       0.012
   0.18105177  0.03765381  0.01844652       0.012
  -0.20235196  0.17320751  0.01844652       0.012
  -0.15975155  0.15814599  0.01844652       0.012
  -0.11715113  0.14308447  0.01844652       0.012
  -0.07455072  0.12802295  0.01844652       0.012
  -0.03195030  0.11296142  0.01844652       0.012
   0.13845135  0.09789990  0.01844652       0.006
   0.18105177  0.08283838  0.01844652       0.012
  -0.20235196  0.21839208  0.01844652       0.012
  -0.15975155  0.20333056  0.01844652       0.012
  -0.11715113  0.18826904  0.01844652       0.012
  -0.07455072  0.17320751  0.01844652       0.012
  -0.03195030  0.15814599  0.01844652       0.012
   0.18105177  0.12802295  0.01844652       0.006
  -0.20235196  0.26357665  0.01844652       0.012
  -0.15975155  0.24851513  0.01844652       0.012
  -0.11715113  0.23345361  0.01844652       0.012
  -0.07455072  0.21839208  0.01844652       0.012
  -0.03195030  0.20333056  0.01844652       0.012
  -0.20235196 -0.14308446  0.01844652       0.006
  -0.15975155 -0.15814598  0.01844652       0.012
  -0.11715113 -0.17320750  0.01844652       0.012
  -0.07455072 -0.18826903  0.01844652       0.012
  -0.15975155 -0.11296141  0.01844652       0.006
  -0.11715113 -0.12802294  0.01844652       0.012
  -0.07455072 -0.14308446  0.01844652       0.012
  -0.11715113 -0.08283837  0.01844652       0.006
  -0.07455072 -0.09789989  0.01844652       0.012
  -0.07455072 -0.05271532  0.01844652       0.006
   0.03195033  0.02259230  0.05533957       0.002
   0.07455075  0.00753078  0.05533957       0.006
   0.11715116 -0.00753074  0.05533957       0.006
   0.15975158 -0.02259227  0.05533957       0.006
  -0.22365215  0.11296144  0.05533957       0.006
  -0.18105174  0.09789991  0.05533957       0.006
  -0.13845132  0.08283839  0.05533957       0.006
  -0.09585091  0.06777687  0.05533957       0.006
   0.07455075  0.05271535  0.05533957       0.006
   0.11715116  0.03765382  0.05533957       0.012
   0.15975158  0.02259230  0.05533957       0.012
  -0.22365215  0.15814600  0.05533957       0.012
  -0.18105174  0.14308448  0.05533957       0.012
  -0.13845132  0.12802296  0.05533957       0.012
  -0.09585091  0.11296144  0.05533957       0.012
   0.11715116  0.08283839  0.05533957       0.006
   0.15975158  0.06777687  0.05533957       0.012
  -0.22365215  0.20333057  0.05533957       0.012
  -0.18105174  0.18826905  0.05533957       0.012
  -0.13845132  0.17320753  0.05533957       0.012
  -0.09585091  0.15814600  0.05533957       0.012
   0.15975158  0.11296144  0.05533957       0.006
  -0.22365215  0.24851514  0.05533957       0.012
  -0.18105174  0.23345362  0.05533957       0.012
  -0.13845132  0.21839209  0.05533957       0.012
  -0.09585091  0.20333057  0.05533957       0.012
  -0.22365215 -0.15814597  0.05533957       0.006
  -0.18105174 -0.17320749  0.05533957       0.012
  -0.13845132 -0.18826902  0.05533957       0.012
  -0.18105174 -0.12802293  0.05533957       0.006
  -0.13845132 -0.14308445  0.05533957       0.012
  -0.13845132 -0.09789988  0.05533957       0.006
   0.05325056  0.03765383  0.09223261       0.002
   0.09585097  0.02259231  0.09223261       0.006
   0.13845139  0.00753079  0.09223261       0.006
  -0.24495234  0.14308449  0.09223261       0.006
  -0.20235193  0.12802297  0.09223261       0.006
  -0.15975152  0.11296145  0.09223261       0.006
   0.09585097  0.06777688  0.09223261       0.006
   0.13845139  0.05271536  0.09223261       0.012
  -0.24495234  0.18826906  0.09223261       0.012
  -0.20235193  0.17320754  0.09223261       0.012
  -0.15975152  0.15814601  0.09223261       0.012
   0.13845139  0.09789992  0.09223261       0.006
  -0.24495234  0.23345363  0.09223261       0.012
  -0.20235193  0.21839210  0.09223261       0.012
  -0.15975152  0.20333058  0.09223261       0.012
  -0.24495234 -0.17320748  0.09223261       0.006
  -0.20235193 -0.18826900  0.09223261       0.012
  -0.20235193 -0.14308444  0.09223261       0.006
   0.07455078  0.05271537  0.12912566       0.002
   0.11715119  0.03765385  0.12912566       0.006
  -0.26625254  0.17320755  0.12912566       0.006
  -0.22365212  0.15814603  0.12912566       0.006
   0.11715119  0.08283841  0.12912566       0.006
  -0.26625254  0.21839212  0.12912566       0.012
  -0.22365212  0.20333059  0.12912566       0.012
  -0.26625254 -0.18826899  0.12912566       0.006
   0.09585100  0.06777690  0.16601870       0.002
  -0.28755273  0.20333060  0.16601870       0.006
 
 k-points in reciprocal lattice and weights: Automatic                               
   0.05000000  0.05000000  0.05000000       0.002
   0.15000000  0.05000000  0.05000000       0.006
   0.25000000  0.05000000  0.05000000       0.006
   0.35000000  0.05000000  0.05000000       0.006
   0.45000000  0.05000000  0.05000000       0.006
  -0.45000000  0.05000000  0.05000000       0.006
  -0.35000000  0.05000000  0.05000000       0.006
  -0.25000000  0.05000000  0.05000000       0.006
  -0.15000000  0.05000000  0.05000000       0.006
  -0.05000000  0.05000000  0.05000000       0.006
   0.15000000  0.15000000  0.05000000       0.006
   0.25000000  0.15000000  0.05000000       0.012
   0.35000000  0.15000000  0.05000000       0.012
   0.45000000  0.15000000  0.05000000       0.012
  -0.45000000  0.15000000  0.05000000       0.012
  -0.35000000  0.15000000  0.05000000       0.012
  -0.25000000  0.15000000  0.05000000       0.012
  -0.15000000  0.15000000  0.05000000       0.012
  -0.05000000  0.15000000  0.05000000       0.012
   0.25000000  0.25000000  0.05000000       0.006
   0.35000000  0.25000000  0.05000000       0.012
   0.45000000  0.25000000  0.05000000       0.012
  -0.45000000  0.25000000  0.05000000       0.012
  -0.35000000  0.25000000  0.05000000       0.012
  -0.25000000  0.25000000  0.05000000       0.012
  -0.15000000  0.25000000  0.05000000       0.012
  -0.05000000  0.25000000  0.05000000       0.012
   0.35000000  0.35000000  0.05000000       0.006
   0.45000000  0.35000000  0.05000000       0.012
  -0.45000000  0.35000000  0.05000000       0.012
  -0.35000000  0.35000000  0.05000000       0.012
  -0.25000000  0.35000000  0.05000000       0.012
  -0.15000000  0.35000000  0.05000000       0.012
  -0.05000000  0.35000000  0.05000000       0.012
   0.45000000  0.45000000  0.05000000       0.006
  -0.45000000  0.45000000  0.05000000       0.012
  -0.35000000  0.45000000  0.05000000       0.012
  -0.25000000  0.45000000  0.05000000       0.012
  -0.15000000  0.45000000  0.05000000       0.012
  -0.05000000  0.45000000  0.05000000       0.012
  -0.45000000 -0.45000000  0.05000000       0.006
  -0.35000000 -0.45000000  0.05000000       0.012
  -0.25000000 -0.45000000  0.05000000       0.012
  -0.15000000 -0.45000000  0.05000000       0.012
  -0.35000000 -0.35000000  0.05000000       0.006
  -0.25000000 -0.35000000  0.05000000       0.012
  -0.15000000 -0.35000000  0.05000000       0.012
  -0.25000000 -0.25000000  0.05000000       0.006
  -0.15000000 -0.25000000  0.05000000       0.012
  -0.15000000 -0.15000000  0.05000000       0.006
   0.15000000  0.15000000  0.15000000       0.002
   0.25000000  0.15000000  0.15000000       0.006
   0.35000000  0.15000000  0.15000000       0.006
   0.45000000  0.15000000  0.15000000       0.006
  -0.45000000  0.15000000  0.15000000       0.006
  -0.35000000  0.15000000  0.15000000       0.006
  -0.25000000  0.15000000  0.15000000       0.006
  -0.15000000  0.15000000  0.15000000       0.006
   0.25000000  0.25000000  0.15000000       0.006
   0.35000000  0.25000000  0.15000000       0.012
   0.45000000  0.25000000  0.15000000       0.012
  -0.45000000  0.25000000  0.15000000       0.012
  -0.35000000  0.25000000  0.15000000       0.012
  -0.25000000  0.25000000  0.15000000       0.012
  -0.15000000  0.25000000  0.15000000       0.012
   0.35000000  0.35000000  0.15000000       0.006
   0.45000000  0.35000000  0.15000000       0.012
  -0.45000000  0.35000000  0.15000000       0.012
  -0.35000000  0.35000000  0.15000000       0.012
  -0.25000000  0.35000000  0.15000000       0.012
  -0.15000000  0.35000000  0.15000000       0.012
   0.45000000  0.45000000  0.15000000       0.006
  -0.45000000  0.45000000  0.15000000       0.012
  -0.35000000  0.45000000  0.15000000       0.012
  -0.25000000  0.45000000  0.15000000       0.012
  -0.15000000  0.45000000  0.15000000       0.012
  -0.45000000 -0.45000000  0.15000000       0.006
  -0.35000000 -0.45000000  0.15000000       0.012
  -0.25000000 -0.45000000  0.15000000       0.012
  -0.35000000 -0.35000000  0.15000000       0.006
  -0.25000000 -0.35000000  0.15000000       0.012
  -0.25000000 -0.25000000  0.15000000       0.006
   0.25000000  0.25000000  0.25000000       0.002
   0.35000000  0.25000000  0.25000000       0.006
   0.45000000  0.25000000  0.25000000       0.006
  -0.45000000  0.25000000  0.25000000       0.006
  -0.35000000  0.25000000  0.25000000       0.006
  -0.25000000  0.25000000  0.25000000       0.006
   0.35000000  0.35000000  0.25000000       0.006
   0.45000000  0.35000000  0.25000000       0.012
  -0.45000000  0.35000000  0.25000000       0.012
  -0.35000000  0.35000000  0.25000000       0.012
  -0.25000000  0.35000000  0.25000000       0.012
   0.45000000  0.45000000  0.25000000       0.006
  -0.45000000  0.45000000  0.25000000       0.012
  -0.35000000  0.45000000  0.25000000       0.012
  -0.25000000  0.45000000  0.25000000       0.012
  -0.45000000 -0.45000000  0.25000000       0.006
  -0.35000000 -0.45000000  0.25000000       0.012
  -0.35000000 -0.35000000  0.25000000       0.006
   0.35000000  0.35000000  0.35000000       0.002
   0.45000000  0.35000000  0.35000000       0.006
  -0.45000000  0.35000000  0.35000000       0.006
  -0.35000000  0.35000000  0.35000000       0.006
   0.45000000  0.45000000  0.35000000       0.006
  -0.45000000  0.45000000  0.35000000       0.012
  -0.35000000  0.45000000  0.35000000       0.012
  -0.45000000 -0.45000000  0.35000000       0.006
   0.45000000  0.45000000  0.45000000       0.002
  -0.45000000  0.45000000  0.45000000       0.006
 
 position of ions in fractional coordinates (direct lattice) 
   0.00000000  0.00000000  0.00000000
 
 position of ions in cartesian coordinates  (Angst):
   0.00000000  0.00000000  0.00000000
 


--------------------------------------------------------------------------------------------------------


 k-point   1 :   0.0500 0.0500 0.0500  plane waves:     187
 k-point   2 :   0.1500 0.0500 0.0500  plane waves:     200
 k-point   3 :   0.2500 0.0500 0.0500  plane waves:     204
 k-point   4 :   0.3500 0.0500 0.0500  plane waves:     207
 k-point   5 :   0.4500 0.0500 0.0500  plane waves:     212
 k-point   6 :  -0.4500 0.0500 0.0500  plane waves:     214
 k-point   7 :  -0.3500 0.0500 0.0500  plane waves:     208
 k-point   8 :  -0.2500 0.0500 0.0500  plane waves:     205
 k-point   9 :  -0.1500 0.0500 0.0500  plane waves:     202
 k-point  10 :  -0.0500 0.0500 0.0500  plane waves:     195
 k-point  11 :   0.1500 0.1500 0.0500  plane waves:     202
 k-point  12 :   0.2500 0.1500 0.0500  plane waves:     205
 k-point  13 :   0.3500 0.1500 0.0500  plane waves:     206
 k-point  14 :   0.4500 0.1500 0.0500  plane waves:     210
 k-point  15 :  -0.4500 0.1500 0.0500  plane waves:     211
 k-point  16 :  -0.3500 0.1500 0.0500  plane waves:     211
 k-point  17 :  -0.2500 0.1500 0.0500  plane waves:     208
 k-point  18 :  -0.1500 0.1500 0.0500  plane waves:     207
 k-point  19 :  -0.0500 0.1500 0.0500  plane waves:     204
 k-point  20 :   0.2500 0.2500 0.0500  plane waves:     207
 k-point  21 :   0.3500 0.2500 0.0500  plane waves:     211
 k-point  22 :   0.4500 0.2500 0.0500  plane waves:     210
 k-point  23 :  -0.4500 0.2500 0.0500  plane waves:     210
 k-point  24 :  -0.3500 0.2500 0.0500  plane waves:     210
 k-point  25 :  -0.2500 0.2500 0.0500  plane waves:     210
 k-point  26 :  -0.1500 0.2500 0.0500  plane waves:     207
 k-point  27 :  -0.0500 0.2500 0.0500  plane waves:     205
 k-point  28 :   0.3500 0.3500 0.0500  plane waves:     213
 k-point  29 :   0.4500 0.3500 0.0500  plane waves:     208
 k-point  30 :  -0.4500 0.3500 0.0500  plane waves:     211
 k-point  31 :  -0.3500 0.3500 0.0500  plane waves:     216
 k-point  32 :  -0.2500 0.3500 0.0500  plane waves:     209
 k-point  33 :  -0.1500 0.3500 0.0500  plane waves:     208
 k-point  34 :  -0.0500 0.3500 0.0500  plane waves:     210
 k-point  35 :   0.4500 0.4500 0.0500  plane waves:     211
 k-point  36 :  -0.4500 0.4500 0.0500  plane waves:     211
 k-point  37 :  -0.3500 0.4500 0.0500  plane waves:     214
 k-point  38 :  -0.2500 0.4500 0.0500  plane waves:     213
 k-point  39 :  -0.1500 0.4500 0.0500  plane waves:     213
 k-point  40 :  -0.0500 0.4500 0.0500  plane waves:     212
 k-point  41 :  -0.4500-0.4500 0.0500  plane waves:     214
 k-point  42 :  -0.3500-0.4500 0.0500  plane waves:     211
 k-point  43 :  -0.2500-0.4500 0.0500  plane waves:     212
 k-point  44 :  -0.1500-0.4500 0.0500  plane waves:     208
 k-point  45 :  -0.3500-0.3500 0.0500  plane waves:     209
 k-point  46 :  -0.2500-0.3500 0.0500  plane waves:     211
 k-point  47 :  -0.1500-0.3500 0.0500  plane waves:     208
 k-point  48 :  -0.2500-0.2500 0.0500  plane waves:     213
 k-point  49 :  -0.1500-0.2500 0.0500  plane waves:     208
 k-point  50 :  -0.1500-0.1500 0.0500  plane waves:     205
 k-point  51 :   0.1500 0.1500 0.1500  plane waves:     199
 k-point  52 :   0.2500 0.1500 0.1500  plane waves:     206
 k-point  53 :   0.3500 0.1500 0.1500  plane waves:     206
 k-point  54 :   0.4500 0.1500 0.1500  plane waves:     210
 k-point  55 :  -0.4500 0.1500 0.1500  plane waves:     212
 k-point  56 :  -0.3500 0.1500 0.1500  plane waves:     213
 k-point  57 :  -0.2500 0.1500 0.1500  plane waves:     208
 k-point  58 :  -0.1500 0.1500 0.1500  plane waves:     204
 k-point  59 :   0.2500 0.2500 0.1500  plane waves:     204
 k-point  60 :   0.3500 0.2500 0.1500  plane waves:     209
 k-point  61 :   0.4500 0.2500 0.1500  plane waves:     211
 k-point  62 :  -0.4500 0.2500 0.1500  plane waves:     207
 k-point  63 :  -0.3500 0.2500 0.1500  plane waves:     209
 k-point  64 :  -0.2500 0.2500 0.1500  plane waves:     210
 k-point  65 :  -0.1500 0.2500 0.1500  plane waves:     210
 k-point  66 :   0.3500 0.3500 0.1500  plane waves:     212
 k-point  67 :   0.4500 0.3500 0.1500  plane waves:     211
 k-point  68 :  -0.4500 0.3500 0.1500  plane waves:     209
 k-point  69 :  -0.3500 0.3500 0.1500  plane waves:     210
 k-point  70 :  -0.2500 0.3500 0.1500  plane waves:     210
 k-point  71 :  -0.1500 0.3500 0.1500  plane waves:     209
 k-point  72 :   0.4500 0.4500 0.1500  plane waves:     208
 k-point  73 :  -0.4500 0.4500 0.1500  plane waves:     210
 k-point  74 :  -0.3500 0.4500 0.1500  plane waves:     210
 k-point  75 :  -0.2500 0.4500 0.1500  plane waves:     208
 k-point  76 :  -0.1500 0.4500 0.1500  plane waves:     211
 k-point  77 :  -0.4500-0.4500 0.1500  plane waves:     211
 k-point  78 :  -0.3500-0.4500 0.1500  plane waves:     210
 k-point  79 :  -0.2500-0.4500 0.1500  plane waves:     210
 k-point  80 :  -0.3500-0.3500 0.1500  plane waves:     209
 k-point  81 :  -0.2500-0.3500 0.1500  plane waves:     207
 k-point  82 :  -0.2500-0.2500 0.1500  plane waves:     211
 k-point  83 :   0.2500 0.2500 0.2500  plane waves:     205
 k-point  84 :   0.3500 0.2500 0.2500  plane waves:     210
 k-point  85 :   0.4500 0.2500 0.2500  plane waves:     210
 k-point  86 :  -0.4500 0.2500 0.2500  plane waves:     211
 k-point  87 :  -0.3500 0.2500 0.2500  plane waves:     212
 k-point  88 :  -0.2500 0.2500 0.2500  plane waves:     214
 k-point  89 :   0.3500 0.3500 0.2500  plane waves:     209
 k-point  90 :   0.4500 0.3500 0.2500  plane waves:     209
 k-point  91 :  -0.4500 0.3500 0.2500  plane waves:     208
 k-point  92 :  -0.3500 0.3500 0.2500  plane waves:     211
 k-point  93 :  -0.2500 0.3500 0.2500  plane waves:     212
 k-point  94 :   0.4500 0.4500 0.2500  plane waves:     211
 k-point  95 :  -0.4500 0.4500 0.2500  plane waves:     209
 k-point  96 :  -0.3500 0.4500 0.2500  plane waves:     210
 k-point  97 :  -0.2500 0.4500 0.2500  plane waves:     207
 k-point  98 :  -0.4500-0.4500 0.2500  plane waves:     213
 k-point  99 :  -0.3500-0.4500 0.2500  plane waves:     211
 k-point 100 :  -0.3500-0.3500 0.2500  plane waves:     214
 k-point 101 :   0.3500 0.3500 0.3500  plane waves:     205
 k-point 102 :   0.4500 0.3500 0.3500  plane waves:     212
 k-point 103 :  -0.4500 0.3500 0.3500  plane waves:     211
 k-point 104 :  -0.3500 0.3500 0.3500  plane waves:     214
 k-point 105 :   0.4500 0.4500 0.3500  plane waves:     210
 k-point 106 :  -0.4500 0.4500 0.3500  plane waves:     211
 k-point 107 :  -0.3500 0.4500 0.3500  plane waves:     208
 k-point 108 :  -0.4500-0.4500 0.3500  plane waves:     214
 k-point 109 :   0.4500 0.4500 0.4500  plane waves:     213
 k-point 110 :  -0.4500 0.4500 0.4500  plane waves:     209

 maximum and minimum number of plane-waves per node :       216      187

 maximum number of plane-waves:       216
 maximum index in each direction: 
   IXMAX=    4   IYMAX=    4   IZMAX=    4
   IXMIN=   -4   IYMIN=   -4   IZMIN=   -4


 serial   3D FFT for wavefunctions
 parallel 3D FFT for charge:
    minimum data exchange during FFTs selected (reduces bandwidth)


 total amount of memory used by VASP MPI-rank0    34909. kBytes
=======================================================================

   base      :      30000. kBytes
   nonl-proj :       1524. kBytes
   fftplans  :       1775. kBytes
   grid      :        819. kBytes
   one-center:          3. kBytes
   wavefun   :        788. kBytes
 
     INWAV:  cpu time    0.0000: real time    0.0053
 Broyden mixing: mesh for mixing (old mesh)
   NGX =  9   NGY =  9   NGZ =  9
  (NGX  = 36   NGY  = 36   NGZ  = 36)
  gives a total of    729 points

 initial charge density was supplied:
 charge density of overlapping atoms calculated
 number of electron       4.0000000 magnetization 
 keeping initial charge density in first step


--------------------------------------------------------------------------------------------------------


 Maximum index for augmentation-charges        26783 (set IRDMAX)


--------------------------------------------------------------------------------------------------------


 First call to EWALD:  gamma=   0.734
 Maximum number of real-space cells 3x 3x 3
 Maximum number of reciprocal cells 3x 3x 3

    FEWALD:  cpu time    0.0030: real time    0.0036


--------------------------------------- Iteration      1(   1)  ---------------------------------------


    POTLOK:  cpu time    0.0140: real time    0.0173
    SETDIJ:  cpu time    0.1670: real time    0.1672
     EDDAV:  cpu time    0.5579: real time    0.5586
       DOS:  cpu time    0.0020: real time    0.0019
    --------------------------------------------
      LOOP:  cpu time    0.7409: real time    0.7453

 eigenvalue-minimisations  :  1960
 total energy-change (2. order) :-0.3337766E+01  (-0.1508305E+03)
 number of electron       4.0000000 magnetization 
 augmentation part        4.0000000 magnetization 

 Free energy of the ion-electron system (eV)
  ---------------------------------------------------
  alpha Z        PSCENC =         2.39057823
  Ewald energy   TEWEN  =      -137.78496289
  -Hartree energ DENC   =        -0.54229904
  -exchange      EXHF   =         0.00000000
  -V(xc)+E(xc)   XCENC  =        -8.73348015
  PAW double counting   =        88.12379961      -70.53051779
  entropy T*S    EENTRO =        -0.00100413
  eigenvalues    EBANDS =        20.67449294
  atomic energy  EATOM  =       103.06562707
  Solvation  Ediel_sol  =         0.00000000
  ---------------------------------------------------
  free energy    TOTEN  =        -3.33776615 eV

  energy without entropy =       -3.33676202  energy(sigma->0) =       -3.33726409


--------------------------------------------------------------------------------------------------------




--------------------------------------- Iteration      1(   2)  ---------------------------------------


     EDDAV:  cpu time    0.7799: real time    0.7902
       DOS:  cpu time    0.0010: real time    0.0020
    --------------------------------------------
      LOOP:  cpu time    0.7819: real time    0.7922

 eigenvalue-minimisations  :  2696
 total energy-change (2. order) :-0.1561333E+01  (-0.1437129E+01)
 number of electron       4.0000000 magnetization 
 augmentation part        4.0000000 magnetization 

 Free energy of the ion-electron system (eV)
  ---------------------------------------------------
  alpha Z        PSCENC =         2.39057823
  Ewald energy   TEWEN  =      -137.78496289
  -Hartree energ DENC   =        -0.54229904
  -exchange      EXHF   =         0.00000000
  -V(xc)+E(xc)   XCENC  =        -8.73348015
  PAW double counting   =        88.12379961      -70.53051779
  entropy T*S    EENTRO =        -0.00130492
  eigenvalues    EBANDS =        19.11346054
  atomic energy  EATOM  =       103.06562707
  Solvation  Ediel_sol  =         0.00000000
  ---------------------------------------------------
  free energy    TOTEN  =        -4.89909933 eV

  energy without entropy =       -4.89779441  energy(sigma->0) =       -4.89844687


--------------------------------------------------------------------------------------------------------




--------------------------------------- Iteration      1(   3)  ---------------------------------------


     EDDAV:  cpu time    0.5369: real time    0.5464
       DOS:  cpu time    0.0020: real time    0.0019
    --------------------------------------------
      LOOP:  cpu time    0.5379: real time    0.5484

 eigenvalue-minimisations  :  1872
 total energy-change (2. order) :-0.7021183E-02  (-0.7018184E-02)
 number of electron       4.0000000 magnetization 
 augmentation part        4.0000000 magnetization 

 Free energy of the ion-electron system (eV)
  ---------------------------------------------------
  alpha Z        PSCENC =         2.39057823
  Ewald energy   TEWEN  =      -137.78496289
  -Hartree energ DENC   =        -0.54229904
  -exchange      EXHF   =         0.00000000
  -V(xc)+E(xc)   XCENC  =        -8.73348015
  PAW double counting   =        88.12379961      -70.53051779
  entropy T*S    EENTRO =        -0.00129334
  eigenvalues    EBANDS =        19.10642779
  atomic energy  EATOM  =       103.06562707
  Solvation  Ediel_sol  =         0.00000000
  ---------------------------------------------------
  free energy    TOTEN  =        -4.90612051 eV

  energy without entropy =       -4.90482717  energy(sigma->0) =       -4.90547384


--------------------------------------------------------------------------------------------------------




--------------------------------------- Iteration      1(   4)  ---------------------------------------


     EDDAV:  cpu time    0.8239: real time    0.8346
       DOS:  cpu time    0.0010: real time    0.0018
    --------------------------------------------
      LOOP:  cpu time    0.8259: real time    0.8363

 eigenvalue-minimisations  :  2984
 total energy-change (2. order) :-0.6068173E-05  (-0.6066922E-05)
 number of electron       4.0000000 magnetization 
 augmentation part        4.0000000 magnetization 

 Free energy of the ion-electron system (eV)
  ---------------------------------------------------
  alpha Z        PSCENC =         2.39057823
  Ewald energy   TEWEN  =      -137.78496289
  -Hartree energ DENC   =        -0.54229904
  -exchange      EXHF   =         0.00000000
  -V(xc)+E(xc)   XCENC  =        -8.73348015
  PAW double counting   =        88.12379961      -70.53051779
  entropy T*S    EENTRO =        -0.00129332
  eigenvalues    EBANDS =        19.10642170
  atomic energy  EATOM  =       103.06562707
  Solvation  Ediel_sol  =         0.00000000
  ---------------------------------------------------
  free energy    TOTEN  =        -4.90612658 eV

  energy without entropy =       -4.90483326  energy(sigma->0) =       -4.90547992


--------------------------------------------------------------------------------------------------------




--------------------------------------- Iteration      1(   5)  ---------------------------------------


     EDDAV:  cpu time    0.5409: real time    0.5551
       DOS:  cpu time    0.0020: real time    0.0020
    CHARGE:  cpu time    0.0380: real time    0.0377
    MIXING:  cpu time    0.0000: real time    0.0009
    --------------------------------------------
      LOOP:  cpu time    0.5809: real time    0.5957

 eigenvalue-minimisations  :  1920
 total energy-change (2. order) :-0.1892332E-08  (-0.1483578E-08)
 number of electron       4.0000000 magnetization 
 augmentation part       -0.2402515 magnetization 

 Broyden mixing:
  rms(total) = 0.28008E+00    rms(broyden)= 0.28008E+00
  rms(prec ) = 0.41698E+00
  weight for this iteration     100.00

 Free energy of the ion-electron system (eV)
  ---------------------------------------------------
  alpha Z        PSCENC =         2.39057823
  Ewald energy   TEWEN  =      -137.78496289
  -Hartree energ DENC   =        -0.54229904
  -exchange      EXHF   =         0.00000000
  -V(xc)+E(xc)   XCENC  =        -8.73348015
  PAW double counting   =        88.12379961      -70.53051779
  entropy T*S    EENTRO =        -0.00129332
  eigenvalues    EBANDS =        19.10642170
  atomic energy  EATOM  =       103.06562707
  Solvation  Ediel_sol  =         0.00000000
  ---------------------------------------------------
  free energy    TOTEN  =        -4.90612658 eV

  energy without entropy =       -4.90483326  energy(sigma->0) =       -4.90547992


--------------------------------------------------------------------------------------------------------




--------------------------------------- Iteration      1(   6)  ---------------------------------------


    POTLOK:  cpu time    0.0150: real time    0.0229
    SETDIJ:  cpu time    0.1660: real time    0.1663
     EDDAV:  cpu time    0.5529: real time    0.5538
       DOS:  cpu time    0.0010: real time    0.0030
    CHARGE:  cpu time    0.0370: real time    0.0368
    MIXING:  cpu time    0.0010: real time    0.0010
    --------------------------------------------
      LOOP:  cpu time    0.7729: real time    0.7836

 eigenvalue-minimisations  :  1984
 total energy-change (2. order) : 0.1358621E-01  (-0.3935889E-03)
 number of electron       4.0000000 magnetization 
 augmentation part       -0.2425227 magnetization 

 Broyden mixing:
  rms(total) = 0.15478E+00    rms(broyden)= 0.15478E+00
  rms(prec ) = 0.24081E+00
  weight for this iteration     100.00

 eigenvalues of (default mixing * dielectric matrix)
  average eigenvalue GAMMA=   2.2249
  2.2249

 Free energy of the ion-electron system (eV)
  ---------------------------------------------------
  alpha Z        PSCENC =         2.39057823
  Ewald energy   TEWEN  =      -137.78496289
  -Hartree energ DENC   =        -0.47320704
  -exchange      EXHF   =         0.00000000
  -V(xc)+E(xc)   XCENC  =        -8.71179364
  PAW double counting   =       172.25926733     -154.66628956
  entropy T*S    EENTRO =        -0.00126497
  eigenvalues    EBANDS =        19.02950509
  atomic energy  EATOM  =       103.06562707
  Solvation  Ediel_sol  =         0.00000000
  ---------------------------------------------------
  free energy    TOTEN  =        -4.89254037 eV

  energy without entropy =       -4.89127541  energy(sigma->0) =       -4.89190789


--------------------------------------------------------------------------------------------------------




--------------------------------------- Iteration      1(   7)  ---------------------------------------


    POTLOK:  cpu time    0.0150: real time    0.0236
    SETDIJ:  cpu time    0.1660: real time    0.1661
     EDDAV:  cpu time    0.5799: real time    0.5800
       DOS:  cpu time    0.0000: real time    0.0016
    CHARGE:  cpu time    0.0360: real time    0.0356
    MIXING:  cpu time    0.0010: real time    0.0009
    --------------------------------------------
      LOOP:  cpu time    0.7979: real time    0.8079

 eigenvalue-minimisations  :  2088
 total energy-change (2. order) : 0.7770020E-02  (-0.7911777E-03)
 number of electron       4.0000000 magnetization 
 augmentation part       -0.2458002 magnetization 

 Broyden mixing:
  rms(total) = 0.13232E-01    rms(broyden)= 0.13232E-01
  rms(prec ) = 0.17989E-01
  weight for this iteration     100.00

 eigenvalues of (default mixing * dielectric matrix)
  average eigenvalue GAMMA=   2.3906
  2.3906  2.3906

 Free energy of the ion-electron system (eV)
  ---------------------------------------------------
  alpha Z        PSCENC =         2.39057823
  Ewald energy   TEWEN  =      -137.78496289
  -Hartree energ DENC   =        -0.40484628
  -exchange      EXHF   =         0.00000000
  -V(xc)+E(xc)   XCENC  =        -8.67588061
  PAW double counting   =       333.64620880     -316.05796779
  entropy T*S    EENTRO =        -0.00118521
  eigenvalues    EBANDS =        18.93765833
  atomic energy  EATOM  =       103.06562707
  Solvation  Ediel_sol  =         0.00000000
  ---------------------------------------------------
  free energy    TOTEN  =        -4.88477035 eV

  energy without entropy =       -4.88358514  energy(sigma->0) =       -4.88417775


--------------------------------------------------------------------------------------------------------




--------------------------------------- Iteration      1(   8)  ---------------------------------------


    POTLOK:  cpu time    0.0150: real time    0.0247
    SETDIJ:  cpu time    0.1660: real time    0.1663
     EDDAV:  cpu time    0.7339: real time    0.7343
       DOS:  cpu time    0.0010: real time    0.0019
    CHARGE:  cpu time    0.0360: real time    0.0357
    MIXING:  cpu time    0.0010: real time    0.0009
    --------------------------------------------
      LOOP:  cpu time    0.9519: real time    0.9637

 eigenvalue-minimisations  :  2648
 total energy-change (2. order) : 0.3910380E-04  (-0.2551293E-05)
 number of electron       4.0000000 magnetization 
 augmentation part       -0.2458813 magnetization 

 Broyden mixing:
  rms(total) = 0.14064E-02    rms(broyden)= 0.14064E-02
  rms(prec ) = 0.22269E-02
  weight for this iteration     100.00

 eigenvalues of (default mixing * dielectric matrix)
  average eigenvalue GAMMA=   2.0119
  1.0090  2.4114  2.6154

 Free energy of the ion-electron system (eV)
  ---------------------------------------------------
  alpha Z        PSCENC =         2.39057823
  Ewald energy   TEWEN  =      -137.78496289
  -Hartree energ DENC   =        -0.40751955
  -exchange      EXHF   =         0.00000000
  -V(xc)+E(xc)   XCENC  =        -8.67178625
  PAW double counting   =       319.19662968     -301.61514448
  entropy T*S    EENTRO =        -0.00118541
  eigenvalues    EBANDS =        18.94303236
  atomic energy  EATOM  =       103.06562707
  Solvation  Ediel_sol  =         0.00000000
  ---------------------------------------------------
  free energy    TOTEN  =        -4.88473125 eV

  energy without entropy =       -4.88354584  energy(sigma->0) =       -4.88413854


--------------------------------------------------------------------------------------------------------




--------------------------------------- Iteration      1(   9)  ---------------------------------------


    POTLOK:  cpu time    0.0140: real time    0.0233
    SETDIJ:  cpu time    0.1660: real time    0.1665
     EDDAV:  cpu time    0.6079: real time    0.6074
       DOS:  cpu time    0.0010: real time    0.0019
    --------------------------------------------
      LOOP:  cpu time    0.7899: real time    0.7991

 eigenvalue-minimisations  :  2152
 total energy-change (2. order) :-0.3565502E-06  (-0.3265883E-07)
 number of electron       4.0000000 magnetization 
 augmentation part       -0.2458813 magnetization 

 Free energy of the ion-electron system (eV)
  ---------------------------------------------------
  alpha Z        PSCENC =         2.39057823
  Ewald energy   TEWEN  =      -137.78496289
  -Hartree energ DENC   =        -0.40774110
  -exchange      EXHF   =         0.00000000
  -V(xc)+E(xc)   XCENC  =        -8.67121808
  PAW double counting   =       317.49547172     -299.91467001
  entropy T*S    EENTRO =        -0.00118512
  eigenvalues    EBANDS =        18.94336858
  atomic energy  EATOM  =       103.06562707
  Solvation  Ediel_sol  =         0.00000000
  ---------------------------------------------------
  free energy    TOTEN  =        -4.88473161 eV

  energy without entropy =       -4.88354649  energy(sigma->0) =       -4.88413905


--------------------------------------------------------------------------------------------------------




 average (electrostatic) potential at core
  the test charge radii are     0.9892
  (the norm of the test charge is              1.0000)
       1 -79.5446
 
 
 
 E-fermi :  10.6227     XC(G=0): -11.3058     alpha+bet :-17.0325

 Fermi energy:        10.6227025794

 k-point     1 :       0.0500    0.0500    0.0500
  band No.  band energies     occupation 
      1      -4.1006      2.00000
      2      20.4062      0.00000
      3      21.4772      0.00000
      4      21.4773      0.00000
      5      23.2218      0.00000
      6      23.2218      0.00000
      7      23.5396      0.00000
      8      28.5949      0.00000

 k-point     2 :       0.1500    0.0500    0.0500
  band No.  band energies     occupation 
      1      -3.7054      2.00000
      2      17.5827      0.00000
      3      19.1463      0.00000
      4      21.6776      0.00000
      5      23.4567      0.00000
      6      24.2690      0.00000
      7      25.2930      0.00000
      8      27.2468      0.00000

 k-point     3 :       0.2500    0.0500    0.0500
  band No.  band energies     occupation 
      1      -2.7207      2.00000
      2      13.2914      0.00000
      3      18.2866      0.00000
      4      20.7539      0.00000
      5      23.8590      0.00000
      6      24.3612      0.00000
      7      25.2270      0.00000
      8      27.0913      0.00000

 k-point     4 :       0.3500    0.0500    0.0500
  band No.  band energies     occupation 
      1      -1.1560      2.00000
      2       9.3059      2.00000
      3      17.9185      0.00000
      4      20.1093      0.00000
      5      22.4989      0.00000
      6      23.5351      0.00000
      7      24.3278      0.00000
      8      28.9599      0.00000

 k-point     5 :       0.4500    0.0500    0.0500
  band No.  band energies     occupation 
      1       0.9708      2.00000
      2       5.7732      2.00000
      3      18.0317      0.00000
      4      19.4671      0.00000
      5      21.8270      0.00000
      6      22.1057      0.00000
      7      24.4911      0.00000
      8      27.6722      0.00000

 k-point     6 :      -0.4500    0.0500    0.0500
  band No.  band energies     occupation 
      1       2.6424      2.00000
      2       3.7479      2.00000
      3      18.5524      0.00000
      4      18.7911      0.00000
      5      21.2432      0.00000
      6      22.1597      0.00000
      7      24.6619      0.00000
      8      27.2034      0.00000

 k-point     7 :      -0.3500    0.0500    0.0500
  band No.  band energies     occupation 
      1       0.2015      2.00000
      2       6.8955      2.00000
      3      18.4019      0.00000
      4      19.2167      0.00000
      5      21.2414      0.00000
      6      23.1960      0.00000
      7      24.5803      0.00000
      8      27.9222      0.00000

 k-point     8 :      -0.2500    0.0500    0.0500
  band No.  band energies     occupation 
      1      -1.7411      2.00000
      2      10.5891      1.65806
      3      18.4522      0.00000
      4      19.7292      0.00000
      5      22.3273      0.00000
      6      24.5482      0.00000
      7      24.6986      0.00000
      8      28.2949      0.00000

 k-point     9 :      -0.1500    0.0500    0.0500
  band No.  band energies     occupation 
      1      -3.1140      2.00000
      2      14.7022      0.00000
      3      18.9869      0.00000
      4      20.3886      0.00000
      5      23.5004      0.00000
      6      24.8308      0.00000
      7      26.0093      0.00000
      8      26.2505      0.00000

 k-point    10 :      -0.0500    0.0500    0.0500
  band No.  band energies     occupation 
      1      -3.9029      2.00000
      2      19.0110      0.00000
      3      20.0131      0.00000
      4      21.3773      0.00000
      5      22.3938      0.00000
      6      24.6934      0.00000
      7      24.9139      0.00000
      8      27.4456      0.00000

 k-point    11 :       0.1500    0.1500    0.0500
  band No.  band energies     occupation 
      1      -3.5080      2.00000
      2      17.6695      0.00000
      3      18.6686      0.00000
      4      20.4648      0.00000
      5      21.3317      0.00000
      6      24.9689      0.00000
      7      26.4215      0.00000
      8      26.6849      0.00000

 k-point    12 :       0.2500    0.1500    0.0500
  band No.  band energies     occupation 
      1      -2.7205      2.00000
      2      14.9872      0.00000
      3      16.7096      0.00000
      4      20.1324      0.00000
      5      21.2663      0.00000
      6      23.4024      0.00000
      7      27.3730      0.00000
      8      27.6387      0.00000

 k-point    13 :       0.3500    0.1500    0.0500
  band No.  band energies     occupation 
      1      -1.3502      2.00000
      2      10.9392      0.00000
      3      16.1650      0.00000
      4      18.6759      0.00000
      5      20.7461      0.00000
      6      25.0845      0.00000
      7      26.2346      0.00000
      8      27.8773      0.00000

 k-point    14 :       0.4500    0.1500    0.0500
  band No.  band energies     occupation 
      1       0.5889      2.00000
      2       7.2643      2.00000
      3      16.1142      0.00000
      4      17.1992      0.00000
      5      20.5930      0.00000
      6      24.4489      0.00000
      7      26.8826      0.00000
      8      29.4569      0.00000

 k-point    15 :      -0.4500    0.1500    0.0500
  band No.  band energies     occupation 
      1       3.0282      2.00000
      2       4.1223      2.00000
      3      15.8680      0.00000
      4      16.7848      0.00000
      5      21.0409      0.00000
      6      23.3739      0.00000
      7      26.9987      0.00000
      8      30.2665      0.00000

 k-point    16 :      -0.3500    0.1500    0.0500
  band No.  band energies     occupation 
      1       1.3570      2.00000
      2       6.1444      2.00000
      3      15.2409      0.00000
      4      17.7219      0.00000
      5      21.8996      0.00000
      6      22.9093      0.00000
      7      26.7451      0.00000
      8      30.5690      0.00000

 k-point    17 :      -0.2500    0.1500    0.0500
  band No.  band energies     occupation 
      1      -0.7662      2.00000
      2       9.6602      2.00000
      3      15.0866      0.00000
      4      19.1284      0.00000
      5      22.4336      0.00000
      6      23.7774      0.00000
      7      26.3652      0.00000
      8      27.9937      0.00000

 k-point    18 :      -0.1500    0.1500    0.0500
  band No.  band energies     occupation 
      1      -2.3281      2.00000
      2      13.5817      0.00000
      3      15.4810      0.00000
      4      20.7373      0.00000
      5      22.9220      0.00000
      6      24.5380      0.00000
      7      25.7915      0.00000
      8      26.6508      0.00000

 k-point    19 :      -0.0500    0.1500    0.0500
  band No.  band energies     occupation 
      1      -3.3109      2.00000
      2      16.2173      0.00000
      3      17.8835      0.00000
      4      21.2665      0.00000
      5      22.6516      0.00000
      6      25.2841      0.00000
      7      25.6973      0.00000
      8      26.3693      0.00000

 k-point    20 :       0.2500    0.2500    0.0500
  band No.  band energies     occupation 
      1      -2.1316      2.00000
      2      15.4056      0.00000
      3      16.4531      0.00000
      4      17.8264      0.00000
      5      18.5722      0.00000
      6      20.9260      0.00000
      7      29.9024      0.00000
      8      30.1369      0.00000

 k-point    21 :       0.3500    0.2500    0.0500
  band No.  band energies     occupation 
      1      -0.9596      2.00000
      2      13.0109      0.00000
      3      14.7668      0.00000
      4      15.9030      0.00000
      5      18.9804      0.00000
      6      21.2062      0.00000
      7      29.3838      0.00000
      8      31.4555      0.00000

 k-point    22 :       0.4500    0.2500    0.0500
  band No.  band energies     occupation 
      1       0.7841      2.00000
      2       9.2806      2.00000
      3      13.8448      0.00000
      4      14.7275      0.00000
      5      19.0277      0.00000
      6      24.0157      0.00000
      7      27.9731      0.00000
      8      31.4251      0.00000

 k-point    23 :      -0.4500    0.2500    0.0500
  band No.  band energies     occupation 
      1       3.0732      2.00000
      2       5.9577      2.00000
      3      12.4750      0.00000
      4      15.0157      0.00000
      5      19.4186      0.00000
      6      26.4312      0.00000
      7      27.6491      0.00000
      8      30.9457      0.00000

 k-point    24 :      -0.3500    0.2500    0.0500
  band No.  band energies     occupation 
      1       3.0747      2.00000
      2       5.9476      2.00000
      3      11.5918      0.00000
      4      15.8736      0.00000
      5      20.3199      0.00000
      6      25.8222      0.00000
      7      29.2842      0.00000
      8      30.5937      0.00000

 k-point    25 :      -0.2500    0.2500    0.0500
  band No.  band energies     occupation 
      1       0.7837      2.00000
      2       9.2077      2.00000
      3      11.3078      0.00000
      4      17.2362      0.00000
      5      21.7055      0.00000
      6      25.4987      0.00000
      7      27.0927      0.00000
      8      29.3787      0.00000

 k-point    26 :      -0.1500    0.2500    0.0500
  band No.  band energies     occupation 
      1      -0.9603      2.00000
      2      11.2292      0.00000
      3      13.2590      0.00000
      4      19.0212      0.00000
      5      23.3016      0.00000
      6      24.1500      0.00000
      7      25.7897      0.00000
      8      27.8783      0.00000

 k-point    27 :      -0.0500    0.2500    0.0500
  band No.  band energies     occupation 
      1      -2.1322      2.00000
      2      12.0319      0.00000
      3      17.1803      0.00000
      4      20.3061      0.00000
      5      22.2840      0.00000
      6      25.0660      0.00000
      7      25.5860      0.00000
      8      26.8205      0.00000

 k-point    28 :       0.3500    0.3500    0.0500
  band No.  band energies     occupation 
      1       0.0120      2.00000
      2      13.1285      0.00000
      3      13.8636      0.00000
      4      14.9061      0.00000
      5      16.7723      0.00000
      6      19.1070      0.00000
      7      32.2381      0.00000
      8      33.4917      0.00000

 k-point    29 :       0.4500    0.3500    0.0500
  band No.  band energies     occupation 
      1       1.5544      2.00000
      2      10.9701      0.00000
      3      11.8007      0.00000
      4      13.6402      0.00000
      5      17.6860      0.00000
      6      20.0032      0.00000
      7      31.6254      0.00000
      8      34.6219      0.00000

 k-point    30 :      -0.4500    0.3500    0.0500
  band No.  band energies     occupation 
      1       3.6445      2.00000
      2       8.3149      2.00000
      3       9.4432      2.00000
      4      13.7793      0.00000
      5      18.1214      0.00000
      6      23.2655      0.00000
      7      30.4332      0.00000
      8      33.6180      0.00000

 k-point    31 :      -0.3500    0.3500    0.0500
  band No.  band energies     occupation 
      1       5.3165      2.00000
      2       6.2597      2.00000
      3       8.3894      2.00000
      4      14.4781      0.00000
      5      18.8957      0.00000
      6      27.0178      0.00000
      7      29.5438      0.00000
      8      30.9038      0.00000

 k-point    32 :      -0.2500    0.3500    0.0500
  band No.  band energies     occupation 
      1       2.8911      2.00000
      2       7.5401      2.00000
      3       9.6730      2.00000
      4      15.6989      0.00000
      5      20.1605      0.00000
      6      27.2911      0.00000
      7      28.8110      0.00000
      8      30.4882      0.00000

 k-point    33 :      -0.1500    0.3500    0.0500
  band No.  band energies     occupation 
      1       0.9753      2.00000
      2       7.6237      2.00000
      3      13.1927      0.00000
      4      17.4008      0.00000
      5      21.8111      0.00000
      6      24.0650      0.00000
      7      27.7301      0.00000
      8      29.4705      0.00000

 k-point    34 :      -0.0500    0.3500    0.0500
  band No.  band energies     occupation 
      1      -0.3784      2.00000
      2       8.1955      2.00000
      3      16.9857      0.00000
      4      19.2428      0.00000
      5      21.4507      0.00000
      6      23.7292      0.00000
      7      25.4270      0.00000
      8      29.1959      0.00000

 k-point    35 :       0.4500    0.4500    0.0500
  band No.  band energies     occupation 
      1       2.8871      2.00000
      2       8.6377      2.00000
      3      12.9334      0.00000
      4      14.0441      0.00000
      5      15.8201      0.00000
      6      18.2024      0.00000
      7      34.4118      0.00000
      8      36.0896      0.00000

 k-point    36 :      -0.4500    0.4500    0.0500
  band No.  band energies     occupation 
      1       4.7190      2.00000
      2       6.8406      2.00000
      3      11.2179      0.00000
      4      13.0966      0.00000
      5      17.1306      0.00000
      6      19.4870      0.00000
      7      34.0103      0.00000
      8      35.3225      0.00000

 k-point    37 :      -0.3500    0.4500    0.0500
  band No.  band energies     occupation 
      1       5.2774      2.00000
      2       7.3363      2.00000
      3       8.2681      2.00000
      4      13.5998      0.00000
      5      17.9383      0.00000
      6      23.1090      0.00000
      7      31.7899      0.00000
      8      33.1400      0.00000

 k-point    38 :      -0.2500    0.4500    0.0500
  band No.  band energies     occupation 
      1       4.5516      2.00000
      2       5.6074      2.00000
      3      10.3248      2.00000
      4      14.6562      0.00000
      5      19.0718      0.00000
      6      26.9944      0.00000
      7      28.2493      0.00000
      8      31.5360      0.00000

 k-point    39 :      -0.1500    0.4500    0.0500
  band No.  band energies     occupation 
      1       3.4130      2.00000
      2       4.4942      2.00000
      3      13.7066      0.00000
      4      16.2245      0.00000
      5      20.6257      0.00000
      6      24.4985      0.00000
      7      28.2445      0.00000
      8      31.6979      0.00000

 k-point    40 :      -0.0500    0.4500    0.0500
  band No.  band energies     occupation 
      1       1.9238      2.00000
      2       4.8378      2.00000
      3      17.2567      0.00000
      4      18.1808      0.00000
      5      21.4596      0.00000
      6      22.5338      0.00000
      7      25.5675      0.00000
      8      28.5232      0.00000

 k-point    41 :      -0.4500   -0.4500    0.0500
  band No.  band energies     occupation 
      1       4.5316      2.00000
      2       6.6557      2.00000
      3      12.7522      0.00000
      4      13.8715      0.00000
      5      15.6296      0.00000
      6      18.0217      0.00000
      7      35.1710      0.00000
      8      36.8370      0.00000

 k-point    42 :      -0.3500   -0.4500    0.0500
  band No.  band energies     occupation 
      1       3.0771      2.00000
      2       8.8149      2.00000
      3      11.4050      0.00000
      4      13.2766      0.00000
      5      17.3155      0.00000
      6      19.6597      0.00000
      7      32.8540      0.00000
      8      35.5635      0.00000

 k-point    43 :      -0.2500   -0.4500    0.0500
  band No.  band energies     occupation 
      1       2.1281      2.00000
      2       8.7187      2.00000
      3      11.5855      0.00000
      4      14.1417      0.00000
      5      18.4839      0.00000
      6      23.5718      0.00000
      7      29.1363      0.00000
      8      32.7820      0.00000

 k-point    44 :      -0.1500   -0.4500    0.0500
  band No.  band energies     occupation 
      1       1.7420      2.00000
      2       6.5167      2.00000
      3      14.7037      0.00000
      4      15.5958      0.00000
      5      19.9291      0.00000
      6      25.3970      0.00000
      7      27.5474      0.00000
      8      30.0605      0.00000

 k-point    45 :      -0.3500   -0.3500    0.0500
  band No.  band energies     occupation 
      1       1.3625      2.00000
      2      10.8277      0.00000
      3      13.2968      0.00000
      4      14.3891      0.00000
      5      16.2015      0.00000
      6      18.5635      0.00000
      7      33.3548      0.00000
      8      34.9152      0.00000

 k-point    46 :      -0.2500   -0.3500    0.0500
  band No.  band energies     occupation 
      1       0.2055      2.00000
      2      12.2662      0.00000
      3      13.3298      0.00000
      4      14.2281      0.00000
      5      18.2394      0.00000
      6      20.5165      0.00000
      7      30.4565      0.00000
      8      33.1667      0.00000

 k-point    47 :      -0.1500   -0.3500    0.0500
  band No.  band energies     occupation 
      1      -0.3770      2.00000
      2      10.0208      2.00000
      3      15.2685      0.00000
      4      16.4038      0.00000
      5      19.7580      0.00000
      6      24.5631      0.00000
      7      26.9808      0.00000
      8      29.7363      0.00000

 k-point    48 :      -0.2500   -0.2500    0.0500
  band No.  band energies     occupation 
      1      -1.1542      2.00000
      2      14.5051      0.00000
      3      15.5943      0.00000
      4      15.6001      0.00000
      5      17.5389      0.00000
      6      19.8588      0.00000
      7      31.1179      0.00000
[...]
      1       5.3761      2.00000
      2       6.3568      2.00000
      3       8.3667      2.00000
      4      11.0880      0.00000
      5      21.8764      0.00000
      6      25.7993      0.00000
      7      26.8173      0.00000
      8      28.5270      0.00000

 k-point    76 :      -0.1500    0.4500    0.1500
  band No.  band energies     occupation 
      1       3.1980      2.00000
      2       6.0342      2.00000
      3      11.4332      0.00000
      4      12.5680      0.00000
      5      22.1530      0.00000
      6      23.5617      0.00000
      7      27.3693      0.00000
      8      30.4865      0.00000

 k-point    77 :      -0.4500   -0.4500    0.1500
  band No.  band energies     occupation 
      1       4.6439      2.00000
      2       6.6645      2.00000
      3       9.3363      2.00000
      4      13.7544      0.00000
      5      16.1379      0.00000
      6      20.5722      0.00000
      7      32.6456      0.00000
      8      34.3966      0.00000

 k-point    78 :      -0.3500   -0.4500    0.1500
  band No.  band energies     occupation 
      1       4.8275      2.00000
      2       6.8443      2.00000
      3       9.4491      2.00000
      4      11.4351      0.00000
      5      18.7359      0.00000
      6      20.8150      0.00000
      7      31.1826      0.00000
      8      32.5114      0.00000

 k-point    79 :      -0.2500   -0.4500    0.1500
  band No.  band energies     occupation 
      1       3.7624      2.00000
      2       8.2874      2.00000
      3       9.3184      2.00000
      4      10.5227      0.00000
      5      21.1418      0.00000
      6      22.9809      0.00000
      7      27.3686      0.00000
      8      31.6690      0.00000

 k-point    80 :      -0.3500   -0.3500    0.1500
  band No.  band energies     occupation 
      1       3.0215      2.00000
      2       8.5659      2.00000
      3       9.5683      2.00000
      4      13.9239      0.00000
      5      16.3261      0.00000
      6      20.7380      0.00000
      7      31.5064      0.00000
      8      33.7019      0.00000

 k-point    81 :      -0.2500   -0.3500    0.1500
  band No.  band energies     occupation 
      1       1.7144      2.00000
      2       9.9114      2.00000
      3      10.9301      0.00000
      4      12.0646      0.00000
      5      19.2639      0.00000
      6      21.2924      0.00000
      7      28.5644      0.00000
      8      33.5237      0.00000

 k-point    82 :      -0.2500   -0.2500    0.1500
  band No.  band energies     occupation 
      1       0.2033      2.00000
      2      10.3521      0.00188
      3      13.1022      0.00000
      4      14.7699      0.00000
      5      17.2763      0.00000
      6      21.5540      0.00000
      7      29.1136      0.00000
      8      31.2447      0.00000

 k-point    83 :       0.2500    0.2500    0.2500
  band No.  band energies     occupation 
      1      -2.4736      2.00000
      2      11.4705      0.00000
      3      18.9972      0.00000
      4      18.9972      0.00000
      5      23.2793      0.00000
      6      23.6154      0.00000
      7      23.6154      0.00000
      8      28.2656      0.00000

 k-point    84 :       0.3500    0.2500    0.2500
  band No.  band energies     occupation 
      1      -1.7055      2.00000
      2      10.3911      0.00003
      3      15.6051      0.00000
      4      19.8673      0.00000
      5      22.6124      0.00000
      6      23.1786      0.00000
      7      24.5903      0.00000
      8      27.1768      0.00000

 k-point    85 :       0.4500    0.2500    0.2500
  band No.  band energies     occupation 
      1      -0.3685      2.00000
      2       9.7833      2.00000
      3      11.7747      0.00000
      4      18.3034      0.00000
      5      21.2546      0.00000
      6      24.9391      0.00000
      7      26.6099      0.00000
      8      26.7094      0.00000

 k-point    86 :      -0.4500    0.2500    0.2500
  band No.  band energies     occupation 
      1       1.5233      2.00000
      2       7.9704      2.00000
      3      10.0076      2.00000
      4      16.7353      0.00000
      5      19.5235      0.00000
      6      26.4832      0.00000
      7      28.2566      0.00000
      8      28.2745      0.00000

 k-point    87 :      -0.3500    0.2500    0.2500
  band No.  band energies     occupation 
      1       3.8916      2.00000
      2       4.9810      2.00000
      3      10.4775      0.00000
      4      15.5921      0.00000
      5      18.2543      0.00000
      6      26.9363      0.00000
      7      27.9370      0.00000
      8      30.0872      0.00000

 k-point    88 :      -0.2500    0.2500    0.2500
  band No.  band energies     occupation 
      1       2.2726      2.00000
      2       6.9461      2.00000
      3      11.5332      0.00000
      4      14.9317      0.00000
      5      17.5083      0.00000
      6      24.8197      0.00000
      7      27.8401      0.00000
      8      30.6597      0.00000

 k-point    89 :       0.3500    0.3500    0.2500
  band No.  band energies     occupation 
      1      -1.1317      2.00000
      2       9.1381      2.00000
      3      16.9309      0.00000
      4      18.0247      0.00000
      5      20.0272      0.00000
      6      24.7992      0.00000
      7      25.1048      0.00000
      8      27.4184      0.00000

 k-point    90 :       0.4500    0.3500    0.2500
  band No.  band energies     occupation 
      1       0.0112      2.00000
      2       8.4024      2.00000
      3      13.7449      0.00000
      4      16.3833      0.00000
      5      21.1855      0.00000
      6      23.7522      0.00000
      7      26.0767      0.00000
      8      28.5324      0.00000

 k-point    91 :      -0.4500    0.3500    0.2500
  band No.  band energies     occupation 
      1       1.7120      2.00000
      2       8.1505      2.00000
      3      10.1738      1.94714
      4      14.5298      0.00000
      5      21.8834      0.00000
      6      24.4411      0.00000
      7      26.1551      0.00000
      8      30.7965      0.00000

 k-point    92 :      -0.3500    0.3500    0.2500
  band No.  band energies     occupation 
      1       3.9421      2.00000
      2       6.6973      2.00000
      3       8.7428      2.00000
      4      13.1381      0.00000
      5      20.6220      0.00000
      6      26.3028      0.00000
      7      27.6934      0.00000
      8      29.1106      0.00000

 k-point    93 :      -0.2500    0.3500    0.2500
  band No.  band energies     occupation 
      1       3.9399      2.00000
      2       6.7489      2.00000
      3       9.5728      2.00000
      4      12.2787      0.00000
      5      19.7507      0.00000
      6      24.6363      0.00000
      7      27.4769      0.00000
      8      31.4714      0.00000

 k-point    94 :       0.4500    0.4500    0.2500
  band No.  band energies     occupation 
      1       0.9577      2.00000
      2       7.4977      2.00000
      3      13.7766      0.00000
      4      15.4356      0.00000
      5      18.0662      0.00000
      6      25.1650      0.00000
      7      26.6709      0.00000
      8      29.4993      0.00000

 k-point    95 :      -0.4500    0.4500    0.2500
  band No.  band energies     occupation 
      1       2.4602      2.00000
      2       7.1212      2.00000
      3      11.6183      0.00000
      4      12.7089      0.00000
      5      20.0834      0.00000
      6      24.7352      0.00000
      7      26.3762      0.00000
      8      31.5589      0.00000

 k-point    96 :      -0.3500    0.4500    0.2500
  band No.  band energies     occupation 
      1       4.4948      2.00000
      2       7.2341      2.00000
      3       9.1573      2.00000
      4      10.3109      0.05223
      5      23.2870      0.00000
      6      24.3011      0.00000
      7      25.8264      0.00000
      8      29.5848      0.00000

 k-point    97 :      -0.2500    0.4500    0.2500
  band No.  band energies     occupation 
      1       6.0791      2.00000
      2       7.0230      2.00000
      3       8.0860      2.00000
      4       9.3203      2.00000
      5      23.2732      0.00000
      6      24.7160      0.00000
      7      26.3043      0.00000
      8      28.2979      0.00000

 k-point    98 :      -0.4500   -0.4500    0.2500
  band No.  band energies     occupation 
      1       3.7539      2.00000
      2       6.5730      2.00000
      3       9.4151      2.00000
      4      14.5948      0.00000
      5      17.1398      0.00000
      6      24.5610      0.00000
      7      29.1384      0.00000
      8      31.6510      0.00000

 k-point    99 :      -0.3500   -0.4500    0.2500
  band No.  band energies     occupation 
      1       5.5286      2.00000
      2       6.5182      2.00000
      3       7.7163      2.00000
      4      12.0884      0.00000
      5      19.5829      0.00000
      6      24.5394      0.00000
      7      28.8037      0.00000
      8      30.2898      0.00000

 k-point   100 :      -0.3500   -0.3500    0.2500
  band No.  band energies     occupation 
      1       5.3440      2.00000
      2       6.3392      2.00000
      3       7.5485      2.00000
      4      14.4261      0.00000
      5      16.9557      0.00000
      6      24.4247      0.00000
      7      30.4489      0.00000
      8      32.2872      0.00000

 k-point   101 :       0.3500    0.3500    0.3500
  band No.  band energies     occupation 
      1      -0.7514      2.00000
      2       7.6913      2.00000
      3      18.7037      0.00000
      4      18.7037      0.00000
      5      22.1296      0.00000
      6      22.1296      0.00000
      7      23.2612      0.00000
      8      27.2322      0.00000

 k-point   102 :       0.4500    0.3500    0.3500
  band No.  band energies     occupation 
      1       0.1983      2.00000
      2       6.7750      2.00000
      3      15.5840      0.00000
      4      18.6549      0.00000
      5      21.5470      0.00000
      6      22.2318      0.00000
      7      24.7615      0.00000
      8      29.1514      0.00000

 k-point   103 :      -0.4500    0.3500    0.3500
  band No.  band energies     occupation 
      1       1.7078      2.00000
      2       6.3978      2.00000
      3      11.8893      0.00000
      4      16.8948      0.00000
      5      19.6808      0.00000
      6      25.0155      0.00000
      7      27.3325      0.00000
      8      29.9919      0.00000

 k-point   104 :      -0.3500    0.3500    0.3500
  band No.  band energies     occupation 
      1       3.7564      2.00000
      2       6.5160      2.00000
      3       8.5722      2.00000
      4      15.4256      0.00000
      5      18.0784      0.00000
      6      28.1611      0.00000
      7      28.3455      0.00000
      8      30.2376      0.00000

 k-point   105 :       0.4500    0.4500    0.3500
  band No.  band energies     occupation 
      1       0.9515      2.00000
      2       5.6767      2.00000
      3      16.9411      0.00000
      4      17.0647      0.00000
      5      19.8099      0.00000
      6      23.4479      0.00000
      7      25.2478      0.00000
      8      28.4866      0.00000

 k-point   106 :      -0.4500    0.4500    0.3500
  band No.  band energies     occupation 
      1       2.2598      2.00000
      2       5.1290      2.00000
      3      14.0098      0.00000
      4      15.1159      0.00000
      5      21.3538      0.00000
      6      22.7128      0.00000
      7      27.6134      0.00000
      8      30.1642      0.00000

 k-point   107 :      -0.3500    0.4500    0.3500
  band No.  band energies     occupation 
      1       4.0786      2.00000
      2       5.1627      2.00000
      3      10.6339      0.00000
      4      13.3263      0.00000
      5      20.7704      0.00000
      6      24.9241      0.00000
      7      28.6233      0.00000
      8      29.4512      0.00000

 k-point   108 :      -0.4500   -0.4500    0.3500
  band No.  band energies     occupation 
      1       3.3267      2.00000
      2       4.4422      2.00000
      3      12.5775      0.00000
      4      15.9239      0.00000
      5      18.6018      0.00000
      6      25.6094      0.00000
      7      27.3619      0.00000
      8      30.0313      0.00000

 k-point   109 :       0.4500    0.4500    0.4500
  band No.  band energies     occupation 
      1       1.5038      2.00000
      2       4.3949      2.00000
      3      18.7038      0.00000
      4      18.7038      0.00000
      5      21.1659      0.00000
      6      21.1659      0.00000
      7      23.4206      0.00000
      8      26.1208      0.00000

 k-point   110 :      -0.4500    0.4500    0.4500
  band No.  band energies     occupation 
      1       2.5708      2.00000
      2       3.7102      2.00000
      3      16.0510      0.00000
      4      17.6621      0.00000
      5      20.3863      0.00000
      6      22.5551      0.00000
      7      25.0591      0.00000
      8      28.4050      0.00000


--------------------------------------------------------------------------------------------------------


 soft charge-density along one line, spin component           1
         0         1         2         3         4         5         6         7         8         9
 total charge-density along one line
 
 pseudopotential strength for first ion, spin component:           1
 17.968  25.067   0.000  -0.000   0.000   0.000  -0.000   0.000
 25.067  34.974   0.000  -0.000   0.000   0.000  -0.000   0.000
  0.000   0.000   4.096  -0.000  -0.000   7.630  -0.000  -0.000
 -0.000  -0.000  -0.000   4.096  -0.000  -0.000   7.630  -0.000
  0.000   0.000  -0.000  -0.000   4.096  -0.000  -0.000   7.630
  0.000   0.000   7.630  -0.000  -0.000  14.225  -0.000  -0.000
 -0.000  -0.000  -0.000   7.630  -0.000  -0.000  14.225  -0.000
  0.000   0.000  -0.000  -0.000   7.630  -0.000  -0.000  14.225
 total augmentation occupancy for first ion, spin component:           1
  4.843  -2.032   0.000   0.000   0.000   0.000   0.000   0.000
 -2.032   1.325   0.000   0.000   0.000   0.000   0.000   0.000
  0.000   0.000   2.312  -0.000   0.000  -0.549   0.000  -0.000
  0.000   0.000  -0.000   2.312  -0.000   0.000  -0.549   0.000
  0.000   0.000   0.000  -0.000   2.312  -0.000   0.000  -0.549
  0.000   0.000  -0.549   0.000  -0.000   0.144  -0.000   0.000
  0.000   0.000   0.000  -0.549   0.000  -0.000   0.144  -0.000
  0.000   0.000  -0.000   0.000  -0.549   0.000  -0.000   0.144


------------------------ aborting loop because EDIFF is reached ----------------------------------------


    CHARGE:  cpu time    0.0360: real time    0.0356
    FORLOC:  cpu time    0.0000: real time    0.0006
    FORNL :  cpu time    0.0560: real time    0.0559
    STRESS:  cpu time    0.3719: real time    0.3716
    FORCOR:  cpu time    0.0140: real time    0.0136
    FORHAR:  cpu time    0.0020: real time    0.0026
    MIXING:  cpu time    0.0000: real time    0.0006
    OFIELD:  cpu time    0.0010: real time    0.0002

  FORCE on cell =-STRESS in cart. coord.  units (eV):
  Direction    XX          YY          ZZ          XY          YZ          ZX
  --------------------------------------------------------------------------------------
  Alpha Z     2.32519     2.32519     2.32519
  Ewald     -45.50568   -45.50568   -45.50568     0.00000     0.00001     0.00001
  Hartree     0.14971     0.14971     0.14971     0.00000     0.00000     0.00000
  E(xc)     -12.69494   -12.69494   -12.69494    -0.00000    -0.00000    -0.00000
  Local      -4.98932    -4.98932    -4.98931     0.00000     0.00000     0.00001
  n-local    37.35604    38.45411    39.48150    -0.55200    -0.18902    -0.26013
  augment    -6.30028    -6.30028    -6.30029    -0.00000    -0.00000    -0.00000
  Kinetic    39.47867    28.20739    18.06871     1.67248     5.05396     1.63335
  Fock        0.00000     0.00000     0.00000     0.00000     0.00000     0.00000
  -------------------------------------------------------------------------------------
  Total       0.00015     0.00015     0.00015    -0.00000    -0.00000    -0.00000
  in kB       0.01656     0.01656     0.01656    -0.00000    -0.00000    -0.00000
  external pressure =        0.02 kB  Pullay stress =        0.00 kB


 VOLUME and BASIS-vectors are now :
 -----------------------------------------------------------------------------
  energy-cutoff  :      350.00
  volume of cell :       14.48
      direct lattice vectors                 reciprocal lattice vectors
     2.369196943 -0.000000004  1.367855338     0.422083947 -0.149229227  0.000000001
     0.789732311  2.233700064  1.367855338     0.000000000  0.447687680  0.000000001
    -0.000000011 -0.000000008  2.735712714    -0.211041817 -0.149229115  0.365535457

  length of vectors
     2.735712408  2.735712215  2.735712714     0.447687637  0.447687680  0.447687556


 FORCES acting on ions
    electron-ion (+dipol)            ewald-force                    non-local-force                 convergence-correction
 -----------------------------------------------------------------------------------------------
   -.253E-15 0.132E-14 0.413E-15   0.444E-16 -.248E-16 -.173E-16   -.131E-25 0.160E-26 0.194E-25   0.218E-15 -.459E-16 -.692E-17
 -----------------------------------------------------------------------------------------------
   -.253E-15 0.132E-14 0.413E-15   0.444E-16 -.248E-16 -.173E-16   -.131E-25 0.160E-26 0.194E-25   0.218E-15 -.459E-16 -.692E-17
 
 
 POSITION                                       TOTAL-FORCE (eV/Angst)
 -----------------------------------------------------------------------------------
     -0.00000     -0.00000      0.00000         0.000000      0.000000     -0.000000
 -----------------------------------------------------------------------------------
    total drift:                                0.000000      0.000000      0.000000


--------------------------------------------------------------------------------------------------------



  FREE ENERGIE OF THE ION-ELECTRON SYSTEM (eV)
  ---------------------------------------------------
  free  energy   TOTEN  =        -4.88754837 eV

  energy  without entropy=       -4.88687579  energy(sigma->0) =       -4.88721208
 
 d Force = 0.0000000E+00[ 0.000E+00, 0.000E+00]  d Energy = 0.6898363E-05-0.690E-05
 d Force = 0.0000000E+00[ 0.000E+00, 0.000E+00]  d Ewald  = 0.6165655E-01-0.617E-01


--------------------------------------------------------------------------------------------------------


    POTLOK:  cpu time    0.1820: real time    0.1879


--------------------------------------------------------------------------------------------------------




--------------------------------------------------------------------------------------------------------


  
 reached required accuracy - stopping structural energy minimisation
     LOOP+:  cpu time    4.8593: real time    5.0308
    4ORBIT:  cpu time    0.0000: real time    0.0000

 total amount of memory used by VASP MPI-rank0    34909. kBytes
=======================================================================

   base      :      30000. kBytes
   nonl-proj :       1524. kBytes
   fftplans  :       1775. kBytes
   grid      :        819. kBytes
   one-center:          3. kBytes
   wavefun   :        788. kBytes
 
  
  
 General timing and accounting informations for this job:
 ========================================================
  
                  Total CPU time used (sec):       19.165
                            User time (sec):       18.784
                          System time (sec):        0.381
                         Elapsed time (sec):       20.417
  
                   Maximum memory used (kb):       59936.
                   Average memory used (kb):          N/A
  
                          Minor page faults:        10165
                          Major page faults:            1
                 Voluntary context switches:        20876
