 running on    4 total cores
 distrk:  each k-point on    4 cores,    1 groups
 distr:  one band on    1 cores,    4 groups
 vasp.6.2.0 18Jan21 (build Aug 12 2022 13:00:08) complex                        
  
 POSCAR found type information on POSCAR Si
 POSCAR found :  1 types and       1 ions
 scaLAPACK will be used
 LDA part: xc-table for Pade appr. of Perdew
 POSCAR, INCAR and KPOINTS ok, starting setup
 FFT: planning ...
 WAVECAR not read
 entering main loop
       N       E                     dE             d eps       ncg     rms          rms(c)
DAV:   1    -0.333776614882E+01   -0.33378E+01   -0.15083E+03  1960   0.279E+02
DAV:   2    -0.489909933069E+01   -0.15613E+01   -0.14371E+01  2696   0.234E+01
DAV:   3    -0.490612051363E+01   -0.70212E-02   -0.70182E-02  1872   0.157E+00
DAV:   4    -0.490612658181E+01   -0.60682E-05   -0.60669E-05  2984   0.478E-02
DAV:   5    -0.490612658370E+01   -0.18923E-08   -0.14836E-08  1920   0.320E-04    0.280E+00
DAV:   6    -0.489254037248E+01    0.13586E-01   -0.39359E-03  1984   0.274E-01    0.155E+00
DAV:   7    -0.488477035278E+01    0.77700E-02   -0.79118E-03  2088   0.388E-01    0.132E-01
DAV:   8    -0.488473124898E+01    0.39104E-04   -0.25513E-05  2648   0.403E-02    0.141E-02
DAV:   9    -0.488473160553E+01   -0.35655E-06   -0.32659E-07  2152   0.329E-03
   1 F= -.48847316E+01 E0= -.48841390E+01  d E =-.488473E+01
 curvature:   0.00 expect dE= 0.000E+00 dE for cont linesearch  0.000E+00
 trial: gam= 0.00000 g(F)=  0.209E-65 g(S)=  0.590E-02 ort = 0.000E+00 (trialstep = 0.100E+01)
 search vector abs. value=  0.590E-02
 bond charge predicted
       N       E                     dE             d eps       ncg     rms          rms(c)
DAV:   1    -0.488918060113E+01   -0.44494E-02   -0.92722E-02  1904   0.119E+00    0.288E-01
DAV:   2    -0.488814707336E+01    0.10335E-02   -0.50943E-04  2512   0.162E-01    0.162E-01
DAV:   3    -0.488754580482E+01    0.60127E-03   -0.69144E-04  1920   0.110E-01    0.489E-02
DAV:   4    -0.488754489537E+01    0.90945E-06   -0.12926E-06  2688   0.977E-03    0.411E-02
DAV:   5    -0.488754122904E+01    0.36663E-05   -0.24429E-07  1352   0.339E-03    0.821E-03
DAV:   6    -0.488754147098E+01   -0.24194E-06   -0.82529E-09  1016   0.754E-04
   2 F= -.48875415E+01 E0= -.48872161E+01  d E =-.280987E-02
 trial-energy change:   -0.002810  1 .order   -0.002807   -0.005904    0.000290
 step:   0.9532(harm=  0.9532)  dis= 0.00000  next Energy=    -4.887545 (dE=-0.281E-02)
 bond charge predicted
       N       E                     dE             d eps       ncg     rms          rms(c)
DAV:   1    -0.488755162891E+01   -0.10400E-04   -0.20484E-04  1928   0.564E-02    0.130E-02
DAV:   2    -0.488754941545E+01    0.22135E-05   -0.10935E-06  2280   0.754E-03    0.729E-03
DAV:   3    -0.488754826307E+01    0.11524E-05   -0.14863E-06  1816   0.511E-03    0.233E-03
DAV:   4    -0.488754828047E+01   -0.17402E-07   -0.29285E-09   904   0.474E-04    0.198E-03
DAV:   5    -0.488754838198E+01   -0.10151E-06   -0.81021E-10   904   0.215E-04    0.345E-04
DAV:   6    -0.488754836934E+01    0.12640E-07   -0.28302E-11   904   0.418E-05
   3 F= -.48875484E+01 E0= -.48872121E+01  d E =-.281676E-02
 curvature:  -0.48 expect dE=-0.154E-08 dE for cont linesearch -0.154E-08
 trial: gam=-0.00074 g(F)=  0.114E-65 g(S)=  0.324E-08 ort = 0.437E-05 (trialstep = 0.991E+00)
 search vector abs. value=  0.100E-09
 reached required accuracy - stopping structural energy minimisation
