unknown system                          
           1
     2.347395    0.000000    1.355268
     0.782465    2.213145    1.355268
     0.000000    0.000000    2.710538
   Si
     1
Direct configuration=     1
   0.00000000  0.00000000  0.00000000
unknown system                          
           1
     2.370267   -0.000000    1.368473
     0.790089    2.234709    1.368473
    -0.000000   -0.000000    2.736949
   Si
     1
Direct configuration=     2
  -0.00000000  0.00000000  0.00000000
unknown system                          
           1
     2.369197   -0.000000    1.367855
     0.789732    2.233700    1.367855
    -0.000000   -0.000000    2.735713
   Si
     1
Direct configuration=     3
  -0.00000000 -0.00000000  0.00000000
