   1   1   0   0
  0.1386300E+02  0.2621157E-09  0.2621157E-09  0.2621157E-09  0.5000000E-15
  1.000000000000000E-004
  CAR 
 unknown system                          
     36.17571924     -6.24486029  301      9.87397846      1.00000000
     -6.245  0.0000E+00  0.0000E+00
     -6.103  0.0000E+00  0.0000E+00
     -5.962  0.0000E+00  0.0000E+00
     -5.821  0.0000E+00  0.0000E+00
     -5.679  0.0000E+00  0.0000E+00
     -5.538  0.0000E+00  0.0000E+00
     -5.396  0.0000E+00  0.0000E+00
     -5.255  0.0000E+00  0.0000E+00
     -5.114  0.0000E+00  0.0000E+00
     -4.972  0.0000E+00  0.0000E+00
     -4.831  0.0000E+00  0.0000E+00
     -4.689  0.0000E+00  0.0000E+00
     -4.548  0.1250E-14  0.1768E-15
     -4.407  0.2289E-06  0.3237E-07
     -4.265  0.4281E-04  0.6085E-05
     -4.124  0.4776E-03  0.7362E-04
     -3.982  0.2844E-03  0.1138E-03
     -3.841  0.9827E-03  0.2528E-03
     -3.700  0.5466E-03  0.3301E-03
     -3.558  0.9820E-03  0.4689E-03
     -3.417  0.4792E-03  0.5367E-03
     -3.275  0.1878E-02  0.8022E-03
     -3.134  0.4413E-03  0.8646E-03
     -2.993  0.1480E-02  0.1074E-02
     -2.851  0.1058E-02  0.1223E-02
     -2.710  0.1064E-02  0.1374E-02
     -2.568  0.1775E-02  0.1625E-02
     -2.427  0.1961E-02  0.1902E-02
     -2.286  0.9934E-03  0.2043E-02
     -2.144  0.1306E-02  0.2227E-02
     -2.003  0.1510E-02  0.2441E-02
     -1.861  0.1615E-02  0.2669E-02
     -1.720  0.2699E-02  0.3051E-02
     -1.579  0.1517E-02  0.3265E-02
     -1.437  0.1936E-02  0.3539E-02
     -1.296  0.1176E-02  0.3705E-02
     -1.154  0.1971E-02  0.3984E-02
     -1.013  0.5137E-03  0.4057E-02
     -0.872  0.3410E-02  0.4539E-02
     -0.730  0.1267E-02  0.4718E-02
     -0.589  0.3953E-02  0.5277E-02
     -0.447  0.1987E-02  0.5558E-02
     -0.306  0.8833E-03  0.5683E-02
     -0.165  0.1007E-02  0.5825E-02
     -0.023  0.3097E-02  0.6263E-02
      0.118  0.1835E-02  0.6522E-02
      0.260  0.3374E-02  0.6999E-02
      0.401  0.2209E-02  0.7312E-02
      0.542  0.1850E-02  0.7573E-02
      0.684  0.4345E-02  0.8188E-02
      0.825  0.2000E-02  0.8471E-02
      0.967  0.1959E-02  0.8748E-02
      1.108  0.1167E-02  0.8913E-02
      1.249  0.2018E-02  0.9198E-02
      1.391  0.2224E-02  0.9512E-02
      1.532  0.4866E-02  0.1020E-01
      1.674  0.1588E-02  0.1042E-01
      1.815  0.4422E-02  0.1105E-01
      1.956  0.1066E-02  0.1120E-01
      2.098  0.3319E-02  0.1167E-01
      2.239  0.2864E-02  0.1208E-01
      2.381  0.3150E-02  0.1252E-01
      2.522  0.1883E-02  0.1279E-01
      2.663  0.3040E-02  0.1322E-01
      2.805  0.3173E-02  0.1367E-01
      2.946  0.1663E-02  0.1390E-01
      3.088  0.6153E-02  0.1477E-01
      3.229  0.1037E-02  0.1492E-01
      3.370  0.2721E-02  0.1530E-01
      3.512  0.3928E-02  0.1586E-01
      3.653  0.2558E-02  0.1622E-01
      3.795  0.3676E-02  0.1674E-01
      3.936  0.3841E-02  0.1728E-01
      4.077  0.2399E-02  0.1762E-01
      4.219  0.1155E-02  0.1778E-01
      4.360  0.3536E-02  0.1828E-01
      4.502  0.3203E-02  0.1874E-01
      4.643  0.4995E-02  0.1944E-01
      4.784  0.4844E-02  0.2013E-01
      4.926  0.1203E-02  0.2030E-01
      5.067  0.3915E-02  0.2085E-01
      5.209  0.1412E-02  0.2105E-01
      5.350  0.3468E-02  0.2154E-01
      5.492  0.6094E-02  0.2240E-01
      5.633  0.2447E-02  0.2275E-01
      5.774  0.5569E-02  0.2354E-01
      5.916  0.3023E-02  0.2397E-01
      6.057  0.1947E-02  0.2424E-01
      6.199  0.4033E-02  0.2481E-01
      6.340  0.2643E-02  0.2518E-01
      6.481  0.8153E-03  0.2530E-01
      6.623  0.6953E-02  0.2628E-01
      6.764  0.3398E-02  0.2676E-01
      6.906  0.4968E-02  0.2747E-01
      7.047  0.5440E-02  0.2824E-01
      7.188  0.2500E-02  0.2859E-01
      7.330  0.3599E-02  0.2910E-01
      7.471  0.3183E-02  0.2955E-01
      7.613  0.4795E-02  0.3023E-01
      7.754  0.4429E-02  0.3085E-01
      7.895  0.5211E-02  0.3159E-01
      8.037  0.2933E-02  0.3200E-01
      8.178  0.1230E-02  0.3218E-01
      8.320  0.2024E-02  0.3246E-01
      8.461  0.7449E-02  0.3352E-01
      8.602  0.5176E-02  0.3425E-01
      8.744  0.3784E-02  0.3478E-01
      8.885  0.4394E-02  0.3541E-01
      9.027  0.4379E-02  0.3602E-01
      9.168  0.5011E-02  0.3673E-01
      9.309  0.5020E-02  0.3744E-01
      9.451  0.4350E-02  0.3806E-01
      9.592  0.5281E-02  0.3880E-01
      9.734  0.5352E-02  0.3956E-01
      9.875  0.3130E-02  0.4000E-01
     10.016  0.4755E-02  0.4068E-01
     10.158  0.2530E-02  0.4103E-01
     10.299  0.3985E-02  0.4160E-01
     10.441  0.4418E-02  0.4222E-01
     10.582  0.5057E-02  0.4294E-01
     10.723  0.5059E-02  0.4365E-01
     10.865  0.5590E-02  0.4444E-01
     11.006  0.7151E-02  0.4545E-01
     11.148  0.1898E-02  0.4572E-01
     11.289  0.3101E-02  0.4616E-01
     11.430  0.2092E-02  0.4646E-01
     11.572  0.6272E-02  0.4734E-01
     11.713  0.6907E-02  0.4832E-01
     11.855  0.2451E-02  0.4867E-01
     11.996  0.6238E-02  0.4955E-01
     12.137  0.4531E-02  0.5019E-01
     12.279  0.2171E-02  0.5050E-01
     12.420  0.3938E-02  0.5105E-01
     12.562  0.1619E-02  0.5128E-01
     12.703  0.5682E-02  0.5209E-01
     12.844  0.2986E-02  0.5251E-01
     12.986  0.7396E-02  0.5355E-01
     13.127  0.4856E-02  0.5424E-01
     13.269  0.4414E-02  0.5486E-01
     13.410  0.8683E-02  0.5609E-01
     13.551  0.4214E-02  0.5669E-01
     13.693  0.4942E-02  0.5739E-01
     13.834  0.3487E-02  0.5788E-01
     13.976  0.4376E-02  0.5850E-01
     14.117  0.4475E-02  0.5913E-01
     14.258  0.3702E-02  0.5966E-01
     14.400  0.5554E-02  0.6044E-01
     14.541  0.8470E-02  0.6164E-01
     14.683  0.2144E-02  0.6194E-01
     14.824  0.4950E-02  0.6264E-01
     14.965  0.2724E-02  0.6303E-01
     15.107  0.6992E-02  0.6402E-01
     15.248  0.4864E-02  0.6470E-01
     15.390  0.5108E-02  0.6542E-01
     15.531  0.7335E-02  0.6646E-01
     15.672  0.4243E-02  0.6706E-01
     15.814  0.5837E-02  0.6789E-01
     15.955  0.5487E-02  0.6866E-01
     16.097  0.8424E-02  0.6985E-01
     16.238  0.5988E-02  0.7070E-01
     16.379  0.1942E-02  0.7098E-01
     16.521  0.7283E-02  0.7201E-01
     16.662  0.3405E-02  0.7249E-01
     16.804  0.2355E-02  0.7282E-01
     16.945  0.3744E-02  0.7335E-01
     17.086  0.5712E-02  0.7416E-01
     17.228  0.8847E-02  0.7541E-01
     17.369  0.1295E-01  0.7724E-01
     17.511  0.8186E-02  0.7840E-01
     17.652  0.4041E-02  0.7897E-01
     17.793  0.4101E-02  0.7955E-01
     17.935  0.3937E-02  0.8010E-01
     18.076  0.7267E-02  0.8113E-01
     18.218  0.4670E-02  0.8179E-01
     18.359  0.3440E-02  0.8228E-01
     18.500  0.1966E-02  0.8256E-01
     18.642  0.3969E-02  0.8312E-01
     18.783  0.3890E-02  0.8367E-01
     18.925  0.1167E-02  0.8383E-01
     19.066  0.4821E-02  0.8451E-01
     19.207  0.6727E-02  0.8547E-01
     19.349  0.4320E-02  0.8608E-01
     19.490  0.5072E-02  0.8679E-01
     19.632  0.6902E-02  0.8777E-01
     19.773  0.6991E-02  0.8876E-01
     19.914  0.3900E-02  0.8931E-01
     20.056  0.1979E-02  0.8959E-01
     20.197  0.1035E-01  0.9105E-01
     20.339  0.4818E-02  0.9173E-01
     20.480  0.2388E-02  0.9207E-01
     20.622  0.7216E-02  0.9309E-01
     20.763  0.3755E-02  0.9362E-01
     20.904  0.6618E-02  0.9456E-01
     21.046  0.7440E-02  0.9561E-01
     21.187  0.4797E-02  0.9629E-01
     21.329  0.4736E-02  0.9696E-01
     21.470  0.6401E-02  0.9786E-01
     21.611  0.8245E-02  0.9903E-01
     21.753  0.9223E-02  0.1003E+00
     21.894  0.1396E-01  0.1023E+00
     22.036  0.7023E-02  0.1033E+00
     22.177  0.7249E-02  0.1043E+00
     22.318  0.8952E-02  0.1056E+00
     22.460  0.6356E-02  0.1065E+00
     22.601  0.2123E-02  0.1068E+00
     22.743  0.1791E-02  0.1070E+00
     22.884  0.2474E-02  0.1074E+00
     23.025  0.7777E-02  0.1085E+00
     23.167  0.8632E-02  0.1097E+00
     23.308  0.9107E-02  0.1110E+00
     23.450  0.4913E-02  0.1117E+00
     23.591  0.5742E-02  0.1125E+00
     23.732  0.5491E-02  0.1133E+00
     23.874  0.5030E-02  0.1140E+00
     24.015  0.4903E-02  0.1147E+00
     24.157  0.2299E-02  0.1150E+00
     24.298  0.6705E-02  0.1160E+00
     24.439  0.5179E-02  0.1167E+00
     24.581  0.1127E-01  0.1183E+00
     24.722  0.7263E-02  0.1193E+00
     24.864  0.4966E-02  0.1200E+00
     25.005  0.4385E-02  0.1206E+00
     25.146  0.6406E-02  0.1215E+00
     25.288  0.6346E-02  0.1224E+00
     25.429  0.5450E-02  0.1232E+00
     25.571  0.8044E-02  0.1243E+00
     25.712  0.3698E-02  0.1249E+00
     25.853  0.6738E-02  0.1258E+00
     25.995  0.4813E-02  0.1265E+00
     26.136  0.6161E-02  0.1274E+00
     26.278  0.6598E-02  0.1283E+00
     26.419  0.7877E-02  0.1294E+00
     26.560  0.7300E-02  0.1305E+00
     26.702  0.5000E-02  0.1312E+00
     26.843  0.9205E-02  0.1325E+00
     26.985  0.4750E-02  0.1331E+00
     27.126  0.7432E-02  0.1342E+00
     27.267  0.5444E-02  0.1350E+00
     27.409  0.6440E-02  0.1359E+00
     27.550  0.2644E-02  0.1362E+00
     27.692  0.5777E-02  0.1371E+00
     27.833  0.6109E-02  0.1379E+00
     27.974  0.7452E-02  0.1390E+00
     28.116  0.6061E-02  0.1398E+00
     28.257  0.4718E-02  0.1405E+00
     28.399  0.5737E-02  0.1413E+00
     28.540  0.6485E-02  0.1422E+00
     28.681  0.9600E-02  0.1436E+00
     28.823  0.6663E-02  0.1445E+00
     28.964  0.1252E-01  0.1463E+00
     29.106  0.7480E-02  0.1474E+00
     29.247  0.2705E-02  0.1477E+00
     29.388  0.6224E-02  0.1486E+00
     29.530  0.5205E-02  0.1494E+00
     29.671  0.5310E-02  0.1501E+00
     29.813  0.8462E-02  0.1513E+00
     29.954  0.8763E-02  0.1525E+00
     30.095  0.6388E-02  0.1534E+00
     30.237  0.2059E-02  0.1537E+00
     30.378  0.6047E-02  0.1546E+00
     30.520  0.4887E-02  0.1553E+00
     30.661  0.8137E-02  0.1564E+00
     30.802  0.5419E-02  0.1572E+00
     30.944  0.1666E-02  0.1574E+00
     31.085  0.4376E-02  0.1581E+00
     31.227  0.1991E-02  0.1583E+00
     31.368  0.3137E-03  0.1584E+00
     31.509  0.1750E-02  0.1586E+00
     31.651  0.2074E-02  0.1589E+00
     31.792  0.1376E-02  0.1591E+00
     31.934  0.1489E-03  0.1591E+00
     32.075  0.1519E-03  0.1592E+00
     32.216  0.3614E-03  0.1592E+00
     32.358  0.1009E-02  0.1594E+00
     32.499  0.1420E-03  0.1594E+00
     32.641  0.9930E-03  0.1595E+00
     32.782  0.5185E-03  0.1596E+00
     32.923  0.1189E-02  0.1598E+00
     33.065  0.5913E-03  0.1598E+00
     33.206  0.3189E-03  0.1599E+00
     33.348  0.4943E-05  0.1599E+00
     33.489  0.1100E-12  0.1599E+00
     33.630  0.0000E+00  0.1599E+00
     33.772  0.3166E-15  0.1599E+00
     33.913  0.3363E-06  0.1599E+00
     34.055  0.2121E-03  0.1599E+00
     34.196  0.2932E-03  0.1600E+00
     34.337  0.3307E-03  0.1600E+00
     34.479  0.1831E-05  0.1600E+00
     34.620  0.1000E-13  0.1600E+00
     34.762  0.0000E+00  0.1600E+00
     34.903  0.0000E+00  0.1600E+00
     35.045  0.0000E+00  0.1600E+00
     35.186  0.0000E+00  0.1600E+00
     35.327  0.0000E+00  0.1600E+00
     35.469  0.0000E+00  0.1600E+00
     35.610  0.0000E+00  0.1600E+00
     35.752  0.0000E+00  0.1600E+00
     35.893  0.0000E+00  0.1600E+00
     36.034  0.0000E+00  0.1600E+00
     36.176  0.0000E+00  0.1600E+00
