    1    1  100    1
  0.1386300E+02  0.2621157E-09  0.2621157E-09  0.2621157E-09  0.5000000E-15
  1.000000000000000E-004
  CAR 
 unknown system                          
      4    120      8
 
  0.0000000E+00  0.0000000E+00  0.0000000E+00  0.2962963E-03
    1       -4.316652   1.000000
    2       21.285703   0.000000
    3       21.285703   0.000000
    4       21.285703   0.000000
    5       22.437572   0.000000
    6       22.437572   0.000000
    7       22.437572   0.000000
    8       26.129238   0.000000
 
  0.6666667E-01  0.0000000E+00  0.0000000E+00  0.3555556E-02
    1       -4.180571   1.000000
    2       19.678169   0.000000
    3       20.154601   0.000000
    4       21.094070   0.000000
    5       21.991240   0.000000
    6       23.200500   0.000000
    7       23.796462   0.000000
    8       25.222210   0.000000
 
  0.1333333E+00  0.0000000E+00  0.0000000E+00  0.3555556E-02
    1       -3.772912   1.000000
    2       17.066860   0.000000
    3       18.817548   0.000000
    4       20.575514   0.000000
    5       21.014653   0.000000
    6       22.969299   0.000000
    7       25.142387   0.000000
    8       25.812511   0.000000
 
  0.2000000E+00  0.0000000E+00  0.0000000E+00  0.3555556E-02
    1       -3.095301   1.000000
    2       14.247388   0.000000
    3       17.682191   0.000000
    4       19.890323   0.000000
    5       19.959790   0.000000
    6       22.021754   0.000000
    7       26.008336   0.000000
    8       26.192572   0.000000
 
  0.2666667E+00  0.0000000E+00  0.0000000E+00  0.3555556E-02
    1       -2.150456   1.000000
    2       11.474523   0.000000
    3       16.770516   0.000000
    4       19.027308   0.000000
    5       19.208767   0.000000
    6       21.161251   0.000000
    7       26.817716   0.000000
    8       27.082161   0.000000
 
  0.3333333E+00  0.0000000E+00  0.0000000E+00  0.3555556E-02
    1       -0.942268   1.000000
    2        8.853104   1.000000
    3       16.086355   0.000000
    4       18.295030   0.000000
    5       18.639484   0.000000
    6       20.485165   0.000000
    7       27.719727   0.000000
    8       28.292184   0.000000
 
  0.4000000E+00  0.0000000E+00  0.0000000E+00  0.3555556E-02
    1        0.523509   1.000000
    2        6.430691   1.000000
    3       15.630391   0.000000
    4       17.795303   0.000000
    5       18.238602   0.000000
    6       20.021340   0.000000
    7       28.823900   0.000000
    8       29.560113   0.000000
 
  0.4666667E+00  0.0000000E+00  0.0000000E+00  0.3555556E-02
    1        2.231697   1.000000
    2        4.240696   1.000000
    3       15.402521   0.000000
    4       17.542626   0.000000
    5       18.032819   0.000000
    6       19.785658   0.000000
    7       29.900682   0.000000
    8       30.580748   0.000000
 
  0.6666667E-01  0.6666667E-01  0.0000000E+00  0.7111111E-02
    1       -3.908720   1.000000
    2       18.183508   0.000000
    3       18.729365   0.000000
    4       20.078583   0.000000
    5       22.147588   0.000000
    6       23.503082   0.000000
    7       24.459082   0.000000
    8       24.998241   0.000000
 
  0.1333333E+00  0.6666667E-01 -0.6938894E-17  0.1422222E-01
    1       -3.366086   1.000000
    2       15.712795   0.000000
    3       17.274773   0.000000
    4       19.109758   0.000000
    5       21.669206   0.000000
    6       23.059456   0.000000
    7       24.770123   0.000000
    8       26.391500   0.000000
 
  0.2000000E+00  0.6666667E-01 -0.6938894E-17  0.1422222E-01
    1       -2.554841   1.000000
    2       12.930104   0.000000
    3       16.210488   0.000000
    4       18.195359   0.000000
    5       20.937742   0.000000
    6       22.397534   0.000000
    7       25.326529   0.000000
    8       27.649905   0.000000
 
  0.2666667E+00  0.6666667E-01  0.6938894E-17  0.1422222E-01
    1       -1.478262   1.000000
    2       10.232908   0.000000
    3       15.385547   0.000000
    4       17.426461   0.000000
    5       20.235003   0.000000
    6       21.809084   0.000000
    7       26.122041   0.000000
    8       28.797620   0.000000
 
  0.3333333E+00  0.6666667E-01 -0.2081668E-16  0.1422222E-01
    1       -0.141005   1.000000
    2        7.710075   1.000000
    3       14.794505   0.000000
    4       16.855989   0.000000
    5       19.690210   0.000000
    6       21.341618   0.000000
    7       27.183578   0.000000
    8       29.908573   0.000000
 
  0.4000000E+00  0.6666667E-01  0.6938894E-17  0.1422222E-01
    1        1.449128   1.000000
    2        5.400369   1.000000
    3       14.438945   0.000000
    4       16.507248   0.000000
    5       19.351307   0.000000
    6       21.043744   0.000000
    7       28.446217   0.000000
    8       30.519300   0.000000
 
  0.4666667E+00  0.6666667E-01  0.6938894E-17  0.7111111E-02
    1        3.103310   1.000000
    2        3.505166   1.000000
    3       14.320248   0.000000
    4       16.390091   0.000000
    5       19.236677   0.000000
    6       20.941830   0.000000
    7       29.595528   0.000000
    8       29.952706   0.000000
 
  0.1333333E+00  0.1333333E+00  0.0000000E+00  0.7111111E-02
    1       -2.689811   1.000000
    2       14.350522   0.000000
    3       14.816295   0.000000
    4       18.052069   0.000000
    5       21.878788   0.000000
    6       22.978156   0.000000
    7       25.454651   0.000000
    8       26.757514   0.000000
 
  0.2000000E+00  0.1333333E+00  0.1387779E-16  0.1422222E-01
    1       -1.746781   1.000000
    2       11.821764   0.000000
    3       13.644953   0.000000
    4       17.188895   0.000000
    5       21.528488   0.000000
    6       23.030790   0.000000
    7       25.761029   0.000000
    8       28.186387   0.000000
 
  0.2666667E+00  0.1333333E+00  0.0000000E+00  0.1422222E-01
    1       -0.540888   1.000000
    2        9.226148   1.000000
    3       12.902131   0.000000
    4       16.515325   0.000000
    5       20.974882   0.000000
    6       23.263182   0.000000
    7       26.020872   0.000000
    8       29.780155   0.000000
 
  0.3333333E+00  0.1333333E+00  0.0000000E+00  0.1422222E-01
    1        0.922139   1.000000
    2        6.814118   1.000000
    3       12.409071   0.000000
    4       16.056014   0.000000
    5       20.550552   0.000000
    6       23.307414   0.000000
    7       26.810577   0.000000
    8       30.320414   0.000000
 
  0.4000000E+00  0.1333333E+00  0.0000000E+00  0.1422222E-01
    1        2.627517   1.000000
    2        4.629632   1.000000
    3       12.162285   0.000000
    4       15.823790   0.000000
    5       20.329037   0.000000
    6       23.267353   0.000000
    7       27.995241   0.000000
    8       29.429560   0.000000
 
  0.2000000E+00  0.2000000E+00  0.0000000E+00  0.7111111E-02
    1       -0.674378   1.000000
    2       10.800192   0.000000
    3       11.152078   0.000000
    4       16.420063   0.000000
    5       22.044690   0.000000
    6       22.932239   0.000000
    7       27.326772   0.000000
    8       28.254734   0.000000
 
  0.2666667E+00  0.2000000E+00  0.1387779E-16  0.1422222E-01
    1        0.657693   1.000000
    2        8.460909   1.000000
    3       10.365587   0.000000
    4       15.854679   0.000000
    5       21.899633   0.000000
    6       23.577350   0.000000
    7       27.460695   0.000000
    8       29.402447   0.000000
 
  0.3333333E+00  0.2000000E+00  0.1387779E-16  0.1422222E-01
    1        2.241702   1.000000
    2        6.171066   1.000000
    3        9.982203   0.001103
    4       15.509251   0.000000
    5       21.637039   0.000000
    6       24.484383   0.000000
    7       27.296702   0.000000
    8       29.346391   0.000000
 
  0.4000000E+00  0.2000000E+00  0.1387779E-16  0.7111111E-02
    1        3.897181   1.000000
    2        4.277716   1.000000
    3        9.855243   0.701913
    4       15.393182   0.000000
    5       21.538905   0.000000
    6       24.943211   0.000000
    7       27.267286   0.000000
    8       28.916988   0.000000
 
  0.2666667E+00  0.2666667E+00  0.0000000E+00  0.7111111E-02
    1        2.111595   1.000000
    2        7.811526   1.000000
    3        8.121048   1.000000
    4       15.402975   0.000000
    5       22.768687   0.000000
    6       23.667593   0.000000
    7       27.857173   0.000000
    8       29.713258   0.000000
 
  0.3333333E+00  0.2666667E+00  0.0000000E+00  0.1422222E-01
    1        3.806043   1.000000
    2        5.785614   1.000000
    3        7.725022   1.000000
    4       15.173594   0.000000
    5       22.892164   0.000000
    6       24.673528   0.000000
    7       26.527567   0.000000
    8       30.534726   0.000000
 
  0.3333333E+00  0.3333333E+00  0.0000000E+00  0.2370370E-02
    1        5.314694   1.000000
    2        5.819699   1.000000
    3        5.819699   1.000000
    4       15.060284   0.000000
    5       23.704002   0.000000
    6       25.142080   0.000000
    7       25.142080   0.000000
    8       32.527267   0.000000
 
  0.6666667E-01  0.6666667E-01  0.6666667E-01  0.2370370E-02
    1       -3.501615   1.000000
    2       16.716087   0.000000
    3       17.703673   0.000000
    4       17.703673   0.000000
    5       23.364401   0.000000
    6       23.364401   0.000000
    7       25.498561   0.000000
    8       25.498561   0.000000
 
  0.1333333E+00  0.6666667E-01  0.6666667E-01  0.7111111E-02
    1       -2.824904   1.000000
    2       14.433687   0.000000
    3       15.990280   0.000000
    4       16.644139   0.000000
    5       23.065715   0.000000
    6       23.730828   0.000000
    7       25.827925   0.000000
    8       26.306463   0.000000
 
  0.2000000E+00  0.6666667E-01  0.6666667E-01  0.7111111E-02
    1       -1.881271   1.000000
    2       11.714958   0.000000
    3       14.989494   0.000000
    4       15.726630   0.000000
    5       22.621276   0.000000
    6       23.170343   0.000000
    7       27.045573   0.000000
    8       27.046580   0.000000
 
  0.2666667E+00  0.6666667E-01  0.6666667E-01  0.7111111E-02
    1       -0.674592   1.000000
    2        9.105309   1.000000
    3       14.266613   0.000000
    4       15.012828   0.000000
    5       22.167145   0.000000
    6       22.604791   0.000000
    7       27.953997   0.000000
    8       28.362965   0.000000
 
  0.3333333E+00  0.6666667E-01  0.6666667E-01  0.7111111E-02
    1        0.789435   1.000000
    2        6.687978   1.000000
    3       13.787128   0.000000
    4       14.528036   0.000000
    5       21.816824   0.000000
    6       22.196601   0.000000
    7       29.034998   0.000000
    8       29.677049   0.000000
 
  0.4000000E+00  0.6666667E-01  0.6666667E-01  0.7111111E-02
    1        2.495865   1.000000
    2        4.500875   1.000000
    3       13.547472   0.000000
    4       14.283411   0.000000
    5       21.629832   0.000000
    6       21.985663   0.000000
    7       30.058492   0.000000
    8       30.706487   0.000000
 
 -0.6666667E-01  0.6666667E-01  0.6666667E-01  0.1777778E-02
    1       -4.044601   1.000000
    2       19.230105   0.000000
    3       19.230105   0.000000
    4       20.251478   0.000000
    5       22.703603   0.000000
    6       23.646808   0.000000
    7       23.784558   0.000000
    8       23.784558   0.000000
 
  0.1333333E+00  0.1333333E+00  0.6666667E-01  0.7111111E-02
    1       -2.015778   1.000000
    2       13.164079   0.000000
    3       13.677120   0.000000
    4       15.327673   0.000000
    5       23.659370   0.000000
    6       24.535149   0.000000
    7       26.145342   0.000000
    8       27.114941   0.000000
 
  0.2000000E+00  0.1333333E+00  0.6666667E-01  0.1422222E-01
    1       -0.941970   1.000000
    2       10.719225   0.000000
    3       12.591194   0.000000
    4       14.483945   0.000000
    5       23.586112   0.000000
    6       24.618454   0.000000
    7       26.954329   0.000000
    8       28.350957   0.000000
 
  0.2666667E+00  0.1333333E+00  0.6666667E-01  0.1422222E-01
    1        0.391953   1.000000
    2        8.218119   1.000000
    3       11.962640   0.000000
    4       13.879844   0.000000
    5       23.269505   0.000000
    6       24.537413   0.000000
    7       27.842964   0.000000
    8       29.783004   0.000000
 
  0.3333333E+00  0.1333333E+00  0.6666667E-01  0.1422222E-01
    1        1.978289   1.000000
    2        5.917278   1.000000
    3       11.588887   0.000000
    4       13.515054   0.000000
    5       23.017494   0.000000
    6       24.422748   0.000000
    7       28.957932   0.000000
    8       30.648532   0.000000
 
  0.4000000E+00  0.1333333E+00  0.6666667E-01  0.7111111E-02
    1        3.633319   1.000000
    2        4.022486   1.000000
    3       11.464365   0.000000
    4       13.393044   0.000000
    5       22.926760   0.000000
    6       24.372867   0.000000
    7       29.897425   0.000000
    8       30.401103   0.000000
 
 -0.1333333E+00  0.1333333E+00  0.6666667E-01  0.7111111E-02
    1       -3.637201   1.000000
    2       17.069445   0.000000
    3       17.931295   0.000000
    4       19.712030   0.000000
    5       22.083275   0.000000
    6       22.378386   0.000000
    7       24.245702   0.000000
    8       25.411765   0.000000
 
  0.2000000E+00  0.2000000E+00  0.6666667E-01  0.7111111E-02
    1        0.259228   1.000000
    2        9.812661   0.958570
    3       10.171990   0.000000
    4       13.749893   0.000000
    5       24.219246   0.000000
    6       25.222087   0.000000
    7       28.088409   0.000000
    8       28.922264   0.000000
 
  0.2666667E+00  0.2000000E+00  0.6666667E-01  0.1422222E-01
    1        1.716642   1.000000
    2        7.576041   1.000000
    3        9.503873   1.000000
    4       13.263880   0.000000
    5       24.310084   0.000000
    6       25.812358   0.000000
    7       28.591000   0.000000
    8       30.035632   0.000000
 
  0.3333333E+00  0.2000000E+00  0.6666667E-01  0.1422222E-01
    1        3.415841   1.000000
    2        5.406280   1.000000
    3        9.244793   1.000000
    4       13.020142   0.000000
    5       24.220456   0.000000
    6       26.333137   0.000000
    7       28.901816   0.000000
    8       30.250158   0.000000
 
 -0.2000000E+00  0.2000000E+00  0.6666667E-01  0.7111111E-02
    1       -2.960013   1.000000
    2       14.334243   0.000000
    3       16.787596   0.000000
    4       19.087349   0.000000
    5       21.081140   0.000000
    6       21.836105   0.000000
    7       24.298111   0.000000
    8       27.643773   0.000000
 
 -0.1333333E+00  0.2000000E+00  0.6666667E-01  0.7111111E-02
    1       -3.095248   1.000000
    2       15.674191   0.000000
    3       15.990642   0.000000
    4       19.118503   0.000000
    5       21.332928   0.000000
    6       21.833143   0.000000
    7       25.132266   0.000000
    8       26.043557   0.000000
 
  0.2666667E+00  0.2666667E+00  0.6666667E-01  0.7111111E-02
    1        3.291189   1.000000
    2        7.050456   1.000000
    3        7.366872   1.000000
    4       12.898631   0.000000
    5       25.169571   0.000000
    6       26.336450   0.000000
    7       28.844821   0.000000
    8       30.605865   0.000000
 
  0.3333333E+00  0.2666667E+00  0.6666667E-01  0.7111111E-02
    1        4.932921   1.000000
    2        5.311532   1.000000
    3        7.098986   1.000000
    4       12.776769   0.000000
    5       25.384641   0.000000
    6       27.035432   0.000000
    7       28.016804   0.000000
    8       31.390311   0.000000
 
 -0.2666667E+00  0.2666667E+00  0.6666667E-01  0.7111111E-02
    1       -2.015755   1.000000
    2       11.586549   0.000000
    3       15.857163   0.000000
    4       18.357973   0.000000
    5       20.179734   0.000000
    6       21.539428   0.000000
    7       24.543178   0.000000
    8       29.377233   0.000000
 
 -0.2000000E+00  0.2666667E+00  0.6666667E-01  0.1422222E-01
    1       -2.285039   1.000000
    2       13.125591   0.000000
    3       14.792308   0.000000
    4       18.596887   0.000000
    5       20.785293   0.000000
    6       21.418476   0.000000
    7       25.143477   0.000000
    8       27.809334   0.000000
 
 -0.3333333E+00  0.3333333E+00  0.6666667E-01  0.7111111E-02
    1       -0.808347   1.000000
    2        8.974952   1.000000
    3       15.154160   0.000000
    4       17.729074   0.000000
    5       19.471000   0.000000
    6       21.217960   0.000000
    7       25.249132   0.000000
    8       30.282972   0.000000
 
 -0.2666667E+00  0.3333333E+00  0.6666667E-01  0.1422222E-01
    1       -1.209845   1.000000
    2       10.466357   0.000000
    3       13.945905   0.000000
    4       17.975468   0.000000
    5       20.094296   0.000000
    6       21.721518   0.000000
    7       24.907453   0.000000
    8       29.670282   0.000000
 
 -0.2000000E+00  0.3333333E+00  0.6666667E-01  0.7111111E-02
    1       -1.343853   1.000000
    2       12.001003   0.000000
    3       12.329652   0.000000
    4       18.360251   0.000000
    5       20.689359   0.000000
    6       20.840699   0.000000
    7       26.787243   0.000000
    8       27.679875   0.000000
 
 -0.4000000E+00  0.4000000E+00  0.6666667E-01  0.7111111E-02
    1        0.656470   1.000000
    2        6.557276   1.000000
    3       14.683742   0.000000
    4       17.285878   0.000000
    5       18.987865   0.000000
    6       20.932469   0.000000
    7       26.340837   0.000000
    8       30.328068   0.000000
 
 -0.3333333E+00  0.4000000E+00  0.6666667E-01  0.1422222E-01
    1        0.125644   1.000000
    2        7.958337   1.000000
    3       13.339928   0.000000
    4       17.461039   0.000000
    5       19.527810   0.000000
    6       22.108240   0.000000
    7       25.081266   0.000000
    8       29.913387   0.000000
 
 -0.2666667E+00  0.4000000E+00  0.6666667E-01  0.1422222E-01
    1       -0.140382   1.000000
    2        9.582356   1.000000
    3       11.437382   0.000000
    4       17.946778   0.000000
    5       20.151245   0.000000
    6       21.405496   0.000000
    7       26.674577   0.000000
    8       28.856423   0.000000
 
 -0.4666667E+00  0.4666667E+00  0.6666667E-01  0.7111111E-02
    1        2.363638   1.000000
    2        4.369706   1.000000
    3       14.448091   0.000000
    4       17.058957   0.000000
    5       18.743772   0.000000
    6       20.770308   0.000000
    7       27.689417   0.000000
    8       29.187205   0.000000
 
 -0.4000000E+00  0.4666667E+00  0.6666667E-01  0.1422222E-01
    1        1.713625   1.000000
    2        5.655971   1.000000
    3       12.975262   0.000000
    4       17.135963   0.000000
    5       19.174012   0.000000
    6       22.274859   0.000000
    7       25.874767   0.000000
    8       28.735556   0.000000
 
 -0.3333333E+00  0.4666667E+00  0.6666667E-01  0.1422222E-01
    1        1.319580   1.000000
    2        7.190416   1.000000
    3       10.933637   0.000000
    4       17.583666   0.000000
    5       19.698730   0.000000
    6       22.398494   0.000000
    7       26.164417   0.000000
    8       28.606277   0.000000
 
 -0.2666667E+00  0.4666667E+00  0.6666667E-01  0.7111111E-02
    1        1.187847   1.000000
    2        8.815421   1.000000
    3        9.112594   1.000000
    4       17.693062   0.000000
    5       20.826230   0.000000
    6       21.068880   0.000000
    7       27.055216   0.000000
    8       28.972651   0.000000
 
 -0.4666667E+00 -0.4666667E+00  0.6666667E-01  0.7111111E-02
    1        3.369416   1.000000
    2        3.760587   1.000000
    3       12.853512   0.000000
    4       17.025604   0.000000
    5       19.054358   0.000000
    6       22.301457   0.000000
    7       26.855028   0.000000
    8       27.560525   0.000000
 
 -0.4000000E+00 -0.4666667E+00  0.6666667E-01  0.1422222E-01
    1        3.021543   1.000000
    2        5.014866   1.000000
    3       10.682744   0.000000
    4       17.386343   0.000000
    5       19.464281   0.000000
    6       23.360892   0.000000
    7       25.613517   0.000000
    8       27.902186   0.000000
 
 -0.3333333E+00 -0.4666667E+00  0.6666667E-01  0.1422222E-01
    1        2.766896   1.000000
    2        6.673438   1.000000
    3        8.595714   1.000000
    4       17.452972   0.000000
    5       20.608668   0.000000
    6       22.191437   0.000000
    7       25.498219   0.000000
    8       29.698566   0.000000
 
 -0.4000000E+00 -0.4000000E+00  0.6666667E-01  0.7111111E-02
    1        4.421638   1.000000
    2        4.786935   1.000000
    3        8.464892   1.000000
    4       17.363381   0.000000
    5       20.502021   0.000000
    6       23.297374   0.000000
    7       24.244390   0.000000
    8       29.785238   0.000000
 
 -0.3333333E+00 -0.4000000E+00  0.6666667E-01  0.7111111E-02
    1        4.449535   1.000000
    2        6.291313   1.000000
    3        6.577508   1.000000
    4       17.318611   0.000000
    5       21.708466   0.000000
    6       22.278152   0.000000
    7       23.800079   0.000000
    8       31.664482   0.000000
 
  0.1333333E+00  0.1333333E+00  0.1333333E+00  0.2370370E-02
    1       -1.075841   1.000000
    2       12.049414   0.000000
    3       12.717562   0.000000
    4       12.717562   0.000000
    5       25.315181   0.000000
    6       25.315181   0.000000
    7       27.350235   0.000000
    8       27.350235   0.000000
 
  0.2000000E+00  0.1333333E+00  0.1333333E+00  0.7111111E-02
    1        0.126191   1.000000
    2        9.841556   0.820442
    3       11.581125   0.000000
    4       11.981008   0.000000
    5       25.553461   0.000000
    6       25.888171   0.000000
    7       28.385233   0.000000
    8       28.526783   0.000000
 
  0.2666667E+00  0.1333333E+00  0.1333333E+00  0.7111111E-02
    1        1.584719   1.000000
    2        7.454398   1.000000
    3       11.063767   0.000000
    4       11.484220   0.000000
    5       25.565464   0.000000
    6       25.794457   0.000000
    7       29.594055   0.000000
    8       29.871238   0.000000
 
  0.3333333E+00  0.1333333E+00  0.1333333E+00  0.7111111E-02
    1        3.285324   1.000000
    2        5.278795   1.000000
    3       10.811330   0.000000
    4       11.234423   0.000000
    5       25.527349   0.000000
    6       25.682970   0.000000
    7       30.461577   0.000000
    8       31.000959   0.000000
 
 -0.1333333E+00  0.1333333E+00  0.1333333E+00  0.1777778E-02
    1       -3.230574   1.000000
    2       16.629606   0.000000
    3       16.629606   0.000000
    4       18.259028   0.000000
    5       20.513744   0.000000
    6       23.499666   0.000000
    7       25.030714   0.000000
    8       25.030714   0.000000
 
  0.2000000E+00  0.2000000E+00  0.1333333E+00  0.7111111E-02
    1        1.453137   1.000000
    2        9.053221   1.000000
    3        9.424080   1.000000
    4       11.179525   0.000000
    5       26.463687   0.000000
    6       27.177022   0.000000
    7       29.094912   0.000000
    8       29.570546   0.000000
 
  0.2666667E+00  0.2000000E+00  0.1333333E+00  0.1422222E-01
    1        3.031087   1.000000
    2        6.938958   1.000000
    3        8.875169   1.000000
    4       10.799099   0.000000
    5       26.777735   0.000000
    6       27.714927   0.000000
    7       29.988958   0.000000
    8       30.641545   0.000000
 
  0.3333333E+00  0.2000000E+00  0.1333333E+00  0.7111111E-02
    1        4.681002   1.000000
    2        5.056750   1.000000
    3        8.742813   1.000000
    4       10.673226   0.000000
    5       26.822163   0.000000
    6       27.882631   0.000000
    7       30.376872   0.000000
    8       31.157710   0.000000
 
 -0.2000000E+00  0.2000000E+00  0.1333333E+00  0.7111111E-02
    1       -2.554686   1.000000
    2       14.534596   0.000000
    3       15.471105   0.000000
    4       17.664591   0.000000
    5       19.634148   0.000000
    6       23.046755   0.000000
    7       25.221351   0.000000
    8       26.774050   0.000000
 
  0.2666667E+00  0.2666667E+00  0.1333333E+00  0.7111111E-02
    1        4.712239   1.000000
    2        6.549932   1.000000
    3        6.860594   1.000000
    4       10.542767   0.000000
    5       27.566938   0.000000
    6       28.823515   0.000000
    7       29.905561   0.000000
    8       31.475228   0.000000
 
 -0.2666667E+00  0.2666667E+00  0.1333333E+00  0.7111111E-02
    1       -1.612250   1.000000
    2       11.909327   0.000000
    3       14.525783   0.000000
    4       17.027329   0.000000
    5       19.830882   0.000000
    6       22.221796   0.000000
    7       24.896005   0.000000
    8       29.236564   0.000000
 
 -0.2000000E+00  0.2666667E+00  0.1333333E+00  0.7111111E-02
    1       -1.746541   1.000000
    2       13.349626   0.000000
    3       13.579081   0.000000
    4       17.284388   0.000000
    5       18.765171   0.000000
    6       22.871902   0.000000
    7       26.462882   0.000000
    8       27.150529   0.000000
 
 -0.3333333E+00  0.3333333E+00  0.1333333E+00  0.7111111E-02
    1       -0.407198   1.000000
    2        9.336260   1.000000
    3       13.810709   0.000000
    4       16.385062   0.000000
    5       20.501641   0.000000
    6       21.542848   0.000000
    7       24.580214   0.000000
    8       29.472416   0.000000
 
 -0.2666667E+00  0.3333333E+00  0.1333333E+00  0.1422222E-01
    1       -0.674141   1.000000
    2       10.914429   0.000000
    3       12.626273   0.000000
    4       16.924648   0.000000
    5       18.969550   0.000000
    6       22.253182   0.000000
    7       26.212493   0.000000
    8       28.466457   0.000000
 
 -0.4000000E+00  0.4000000E+00  0.1333333E+00  0.7111111E-02
    1        1.054633   1.000000
    2        6.935183   1.000000
    3       13.331977   0.000000
    4       15.921369   0.000000
    5       21.074907   0.000000
    6       21.213291   0.000000
    7       24.590108   0.000000
    8       28.242622   0.000000
 
 -0.3333333E+00  0.4000000E+00  0.1333333E+00  0.1422222E-01
    1        0.657702   1.000000
    2        8.448628   1.000000
    3       12.010468   0.000000
    4       16.431415   0.000000
    5       19.784890   0.000000
    6       21.818120   0.000000
    7       25.478570   0.000000
    8       28.078110   0.000000
 
 -0.2666667E+00  0.4000000E+00  0.1333333E+00  0.7111111E-02
    1        0.525158   1.000000
    2       10.040203   0.000001
    3       10.311969   0.000000
    4       17.346422   0.000000
    5       18.677693   0.000000
    6       21.794400   0.000000
    7       26.473807   0.000000
    8       28.430005   0.000000
 
 -0.4666667E+00  0.4666667E+00  0.1333333E+00  0.7111111E-02
    1        2.758613   1.000000
    2        4.755791   1.000000
    3       13.092150   0.000000
    4       15.683244   0.000000
    5       20.837674   0.000000
    6       21.636461   0.000000
    7       25.075832   0.000000
    8       26.916473   0.000000
 
 -0.4000000E+00  0.4666667E+00  0.1333333E+00  0.1422222E-01
    1        2.241133   1.000000
    2        6.164323   1.000000
    3       11.640828   0.000000
    4       16.096870   0.000000
    5       20.499907   0.000000
    6       21.910462   0.000000
    7       24.526012   0.000000
    8       27.298656   0.000000
 
 -0.3333333E+00  0.4666667E+00  0.1333333E+00  0.1422222E-01
    1        1.979703   1.000000
    2        7.807834   1.000000
    3        9.684753   1.000000
    4       17.265253   0.000000
    5       19.356432   0.000000
    6       21.505240   0.000000
    7       24.788641   0.000000
    8       29.044760   0.000000
 
 -0.4666667E+00 -0.4666667E+00  0.1333333E+00  0.7111111E-02
    1        3.899144   1.000000
    2        4.270253   1.000000
    3       11.517492   0.000000
    4       15.981870   0.000000
    5       20.660600   0.000000
    6       22.435216   0.000000
    7       23.777279   0.000000
    8       27.009768   0.000000
 
 -0.4000000E+00 -0.4666667E+00  0.1333333E+00  0.1422222E-01
    1        3.675143   1.000000
    2        5.652842   1.000000
    3        9.428943   1.000000
    4       17.103273   0.000000
    5       20.106079   0.000000
    6       21.827440   0.000000
    7       23.106937   0.000000
    8       29.072041   0.000000
 
 -0.3333333E+00 -0.4666667E+00  0.1333333E+00  0.7111111E-02
    1        3.550097   1.000000
    2        7.297240   1.000000
    3        7.575765   1.000000
    4       17.925904   0.000000
    5       19.579921   0.000000
    6       21.253685   0.000000
    7       23.054324   0.000000
    8       30.942121   0.000000
 
 -0.4000000E+00 -0.4000000E+00  0.1333333E+00  0.7111111E-02
    1        5.196827   1.000000
    2        5.546749   1.000000
    3        7.323934   1.000000
    4       18.055025   0.000000
    5       20.167357   0.000000
    6       21.305157   0.000000
    7       21.880660   0.000000
    8       31.544079   0.000000
 
  0.2000000E+00  0.2000000E+00  0.2000000E+00  0.2370370E-02
    1        2.901418   1.000000
    2        8.415280   1.000000
    3        8.921162   1.000000
    4        8.921162   1.000000
    5       28.394323   0.000000
    6       28.394323   0.000000
    7       30.182143   0.000000
    8       30.182143   0.000000
 
  0.2666667E+00  0.2000000E+00  0.2000000E+00  0.7111111E-02
    1        4.588311   1.000000
    2        6.556856   1.000000
    3        8.363118   1.000000
    4        8.668667   1.000000
    5       28.931039   0.000000
    6       29.266969   0.000000
    7       30.881360   0.000000
    8       31.154498   0.000000
 
 -0.2000000E+00  0.2000000E+00  0.2000000E+00  0.1777778E-02
    1       -1.880929   1.000000
    2       14.300248   0.000000
    3       14.300248   0.000000
    4       16.212962   0.000000
    5       17.814356   0.000000
    6       24.818214   0.000000
    7       26.354486   0.000000
    8       26.354486   0.000000
 