       N       E                     dE             d eps       ncg     rms          rms(c)
DAV:   1    -0.272818761244E+01   -0.27282E+01   -0.17781E+03  2080   0.370E+02
DAV:   2    -0.490251070562E+01   -0.21743E+01   -0.20872E+01  2864   0.287E+01
DAV:   3    -0.491366846458E+01   -0.11158E-01   -0.11149E-01  2160   0.215E+00
DAV:   4    -0.491367815573E+01   -0.96911E-05   -0.96911E-05  3048   0.687E-02
DAV:   5    -0.491367815877E+01   -0.30461E-08   -0.14170E-08  2200   0.596E-04    0.285E+00
DAV:   6    -0.490222675970E+01    0.11451E-01   -0.35907E-03  2040   0.267E-01    0.158E+00
DAV:   7    -0.489565575287E+01    0.65710E-02   -0.72394E-03  2064   0.379E-01    0.136E-01
DAV:   8    -0.489563454637E+01    0.21206E-04   -0.34602E-05  2792   0.461E-02    0.115E-02
DAV:   9    -0.489563511160E+01   -0.56523E-06   -0.46648E-07  2160   0.392E-03
   1 F= -.48956351E+01 E0= -.48953203E+01  d E =-.489564E+01
       N       E                     dE             d eps       ncg     rms          rms(c)
DAV:   1    -0.491611499970E+01   -0.20480E-01   -0.49997E-01  1960   0.285E+00    0.666E-01
DAV:   2    -0.491075329259E+01    0.53617E-02   -0.32617E-03  2144   0.467E-01    0.383E-01
DAV:   3    -0.490756222043E+01    0.31911E-02   -0.35184E-03  2056   0.255E-01    0.114E-01
DAV:   4    -0.490755916705E+01    0.30534E-05   -0.74396E-06  2504   0.255E-02    0.961E-02
DAV:   5    -0.490754698385E+01    0.12183E-04   -0.12817E-06  2384   0.790E-03    0.175E-02
DAV:   6    -0.490754740701E+01   -0.42316E-06   -0.25022E-08  1024   0.130E-03
   2 F= -.49075474E+01 E0= -.49073161E+01  d E =-.119123E-01
       N       E                     dE             d eps       ncg     rms          rms(c)
DAV:   1    -0.490904326193E+01   -0.14963E-02   -0.26734E-02  1952   0.669E-01    0.151E-01
DAV:   2    -0.490875974777E+01    0.28351E-03   -0.17161E-04  2160   0.109E-01    0.866E-02
DAV:   3    -0.490859333973E+01    0.16641E-03   -0.18508E-04  2064   0.586E-02    0.281E-02
DAV:   4    -0.490859340332E+01   -0.63590E-07   -0.37879E-07  2376   0.578E-03    0.242E-02
DAV:   5    -0.490859413098E+01   -0.72767E-06   -0.70590E-08  1120   0.195E-03    0.473E-03
DAV:   6    -0.490859398621E+01    0.14477E-06   -0.31449E-09   960   0.549E-04
   3 F= -.49085940E+01 E0= -.49083498E+01  d E =-.129589E-01
