   1   1   0   0
  0.1450827E+02  0.2737643E-09  0.2737643E-09  0.2737643E-09  0.5000000E-15
  1.000000000000000E-004
  CAR 
 unknown system                          
     38.06828189     -6.30133040  301     10.00672523      1.00000000
     -6.301  0.0000E+00  0.0000E+00
     -6.153  0.0000E+00  0.0000E+00
     -6.006  0.0000E+00  0.0000E+00
     -5.858  0.0000E+00  0.0000E+00
     -5.710  0.0000E+00  0.0000E+00
     -5.562  0.0000E+00  0.0000E+00
     -5.414  0.0000E+00  0.0000E+00
     -5.266  0.0000E+00  0.0000E+00
     -5.118  0.0000E+00  0.0000E+00
     -4.970  0.0000E+00  0.0000E+00
     -4.822  0.0000E+00  0.0000E+00
     -4.674  0.0000E+00  0.0000E+00
     -4.527  0.3878E-15  0.5736E-16
     -4.379  0.3946E-06  0.5835E-07
     -4.231  0.9469E-04  0.1406E-04
     -4.083  0.1167E-03  0.3132E-04
     -3.935  0.1185E-02  0.2065E-03
     -3.787  0.1276E-03  0.2254E-03
     -3.639  0.6681E-03  0.3242E-03
     -3.491  0.5670E-03  0.4081E-03
     -3.343  0.2549E-02  0.7851E-03
     -3.195  0.6860E-03  0.8865E-03
     -3.048  0.6674E-04  0.8964E-03
     -2.900  0.5422E-03  0.9766E-03
     -2.752  0.1658E-02  0.1222E-02
     -2.604  0.3194E-02  0.1694E-02
     -2.456  0.4063E-04  0.1700E-02
     -2.308  0.2310E-02  0.2042E-02
     -2.160  0.7217E-03  0.2149E-02
     -2.012  0.2641E-02  0.2539E-02
     -1.864  0.1720E-05  0.2539E-02
     -1.716  0.8226E-03  0.2661E-02
     -1.569  0.4868E-03  0.2733E-02
     -1.421  0.6065E-02  0.3630E-02
     -1.273  0.1769E-02  0.3892E-02
     -1.125  0.5589E-03  0.3974E-02
     -0.977  0.1881E-02  0.4253E-02
     -0.829  0.2286E-02  0.4591E-02
     -0.681  0.2585E-02  0.4973E-02
     -0.533  0.3788E-04  0.4979E-02
     -0.385  0.7736E-03  0.5093E-02
     -0.237  0.2184E-02  0.5416E-02
     -0.090  0.5055E-02  0.6164E-02
      0.058  0.9415E-04  0.6178E-02
      0.206  0.4441E-02  0.6834E-02
      0.354  0.1386E-02  0.7039E-02
      0.502  0.6345E-02  0.7978E-02
      0.650  0.8306E-05  0.7979E-02
      0.798  0.3661E-03  0.8033E-02
      0.946  0.2945E-03  0.8077E-02
      1.094  0.4725E-02  0.8775E-02
      1.242  0.2539E-02  0.9151E-02
      1.389  0.1010E-02  0.9300E-02
      1.537  0.2663E-02  0.9694E-02
      1.685  0.5616E-02  0.1052E-01
      1.833  0.2496E-02  0.1089E-01
      1.981  0.1809E-03  0.1092E-01
      2.129  0.2254E-02  0.1125E-01
      2.277  0.5741E-02  0.1210E-01
      2.425  0.6424E-02  0.1305E-01
      2.573  0.1507E-02  0.1328E-01
      2.720  0.9628E-03  0.1342E-01
      2.868  0.1728E-02  0.1367E-01
      3.016  0.3148E-02  0.1414E-01
      3.164  0.5830E-03  0.1423E-01
      3.312  0.1855E-02  0.1450E-01
      3.460  0.1209E-02  0.1468E-01
      3.608  0.6856E-02  0.1569E-01
      3.756  0.2564E-02  0.1607E-01
      3.904  0.6641E-02  0.1705E-01
      4.052  0.8550E-03  0.1718E-01
      4.199  0.6681E-02  0.1817E-01
      4.347  0.3428E-02  0.1868E-01
      4.495  0.9672E-05  0.1868E-01
      4.643  0.1491E-06  0.1868E-01
      4.791  0.2043E-02  0.1898E-01
      4.939  0.1033E-01  0.2051E-01
      5.087  0.5568E-02  0.2133E-01
      5.235  0.3514E-03  0.2138E-01
      5.383  0.8605E-03  0.2151E-01
      5.531  0.1950E-02  0.2180E-01
      5.678  0.3119E-02  0.2226E-01
      5.826  0.1064E-02  0.2242E-01
      5.974  0.1696E-02  0.2267E-01
      6.122  0.1067E-01  0.2425E-01
      6.270  0.3352E-02  0.2474E-01
      6.418  0.4679E-02  0.2543E-01
      6.566  0.1627E-02  0.2567E-01
      6.714  0.8737E-02  0.2697E-01
      6.862  0.2469E-02  0.2733E-01
      7.010  0.2061E-02  0.2764E-01
      7.157  0.1260E-02  0.2782E-01
      7.305  0.2347E-02  0.2817E-01
      7.453  0.4284E-02  0.2880E-01
      7.601  0.6657E-02  0.2979E-01
      7.749  0.3107E-02  0.3025E-01
      7.897  0.4857E-02  0.3097E-01
      8.045  0.4266E-04  0.3097E-01
      8.193  0.2310E-02  0.3131E-01
      8.341  0.1836E-02  0.3158E-01
      8.489  0.2976E-02  0.3202E-01
      8.636  0.1295E-01  0.3394E-01
      8.784  0.5505E-02  0.3475E-01
      8.932  0.2840E-03  0.3480E-01
      9.080  0.6170E-02  0.3571E-01
      9.228  0.3103E-02  0.3617E-01
      9.376  0.2109E-03  0.3620E-01
      9.524  0.2680E-02  0.3659E-01
      9.672  0.8153E-02  0.3780E-01
      9.820  0.7464E-02  0.3890E-01
      9.968  0.5179E-02  0.3967E-01
     10.115  0.4597E-02  0.4035E-01
     10.263  0.3032E-02  0.4080E-01
     10.411  0.3827E-02  0.4137E-01
     10.559  0.6626E-03  0.4146E-01
     10.707  0.5716E-03  0.4155E-01
     10.855  0.1080E-03  0.4156E-01
     11.003  0.7500E-02  0.4267E-01
     11.151  0.1195E-01  0.4444E-01
     11.299  0.3949E-02  0.4502E-01
     11.447  0.5683E-02  0.4587E-01
     11.594  0.6179E-02  0.4678E-01
     11.742  0.6883E-03  0.4688E-01
     11.890  0.4622E-02  0.4756E-01
     12.038  0.2562E-02  0.4794E-01
     12.186  0.6130E-02  0.4885E-01
     12.334  0.9166E-02  0.5021E-01
     12.482  0.4197E-02  0.5083E-01
     12.630  0.5675E-02  0.5167E-01
     12.778  0.5044E-02  0.5241E-01
     12.926  0.5249E-02  0.5319E-01
     13.073  0.1153E-02  0.5336E-01
     13.221  0.4266E-02  0.5399E-01
     13.369  0.8491E-02  0.5525E-01
     13.517  0.4180E-02  0.5586E-01
     13.665  0.2901E-02  0.5629E-01
     13.813  0.4407E-02  0.5694E-01
     13.961  0.9568E-02  0.5836E-01
     14.109  0.3982E-02  0.5895E-01
     14.257  0.3266E-02  0.5943E-01
     14.404  0.9323E-02  0.6081E-01
     14.552  0.7845E-02  0.6197E-01
     14.700  0.6505E-02  0.6293E-01
     14.848  0.4841E-03  0.6300E-01
     14.996  0.6834E-02  0.6401E-01
     15.144  0.3745E-02  0.6457E-01
     15.292  0.9671E-03  0.6471E-01
     15.440  0.2508E-03  0.6475E-01
     15.588  0.4778E-02  0.6546E-01
     15.736  0.1421E-01  0.6756E-01
     15.883  0.2262E-02  0.6789E-01
     16.031  0.8073E-02  0.6909E-01
     16.179  0.2157E-02  0.6941E-01
     16.327  0.3811E-02  0.6997E-01
     16.475  0.7152E-02  0.7103E-01
     16.623  0.2197E-02  0.7135E-01
     16.771  0.4529E-02  0.7202E-01
     16.919  0.3431E-02  0.7253E-01
     17.067  0.6246E-02  0.7345E-01
     17.215  0.8071E-02  0.7465E-01
     17.362  0.7262E-02  0.7572E-01
     17.510  0.2405E-02  0.7608E-01
     17.658  0.8763E-03  0.7621E-01
     17.806  0.3811E-02  0.7677E-01
     17.954  0.2470E-02  0.7713E-01
     18.102  0.4308E-02  0.7777E-01
     18.250  0.5889E-02  0.7864E-01
     18.398  0.1082E-01  0.8024E-01
     18.546  0.1859E-02  0.8052E-01
     18.694  0.7263E-02  0.8159E-01
     18.841  0.6946E-02  0.8262E-01
     18.989  0.1154E-01  0.8433E-01
     19.137  0.2008E-02  0.8462E-01
     19.285  0.1764E-02  0.8488E-01
     19.433  0.1203E-02  0.8506E-01
     19.581  0.8362E-02  0.8630E-01
     19.729  0.1195E-01  0.8806E-01
     19.877  0.8933E-02  0.8939E-01
     20.025  0.3136E-02  0.8985E-01
     20.173  0.6686E-02  0.9084E-01
     20.320  0.7415E-03  0.9095E-01
     20.468  0.3367E-02  0.9145E-01
     20.616  0.3887E-02  0.9202E-01
     20.764  0.7325E-02  0.9310E-01
     20.912  0.2501E-02  0.9347E-01
     21.060  0.1347E-02  0.9367E-01
     21.208  0.1420E-01  0.9577E-01
     21.356  0.1096E-01  0.9740E-01
     21.504  0.3868E-02  0.9797E-01
     21.652  0.3194E-02  0.9844E-01
     21.799  0.5920E-02  0.9932E-01
     21.947  0.6284E-02  0.1002E+00
     22.095  0.3715E-02  0.1008E+00
     22.243  0.4970E-02  0.1015E+00
     22.391  0.8286E-02  0.1028E+00
     22.539  0.3820E-02  0.1033E+00
     22.687  0.4688E-02  0.1040E+00
     22.835  0.9377E-02  0.1054E+00
     22.983  0.1436E-01  0.1075E+00
     23.131  0.2902E-02  0.1080E+00
     23.278  0.5386E-02  0.1087E+00
     23.426  0.7129E-02  0.1098E+00
     23.574  0.7435E-02  0.1109E+00
     23.722  0.3805E-04  0.1109E+00
     23.870  0.1399E-02  0.1111E+00
     24.018  0.5823E-02  0.1120E+00
     24.166  0.9441E-02  0.1134E+00
     24.314  0.4029E-02  0.1140E+00
     24.462  0.1139E-01  0.1157E+00
     24.609  0.1254E-01  0.1175E+00
     24.757  0.2511E-02  0.1179E+00
     24.905  0.5766E-02  0.1187E+00
     25.053  0.1117E-01  0.1204E+00
     25.201  0.2181E-02  0.1207E+00
     25.349  0.6056E-02  0.1216E+00
     25.497  0.8681E-02  0.1229E+00
     25.645  0.6596E-02  0.1239E+00
     25.793  0.5455E-02  0.1247E+00
     25.941  0.2619E-02  0.1251E+00
     26.088  0.6018E-02  0.1259E+00
     26.236  0.2982E-02  0.1264E+00
     26.384  0.4850E-02  0.1271E+00
     26.532  0.1763E-01  0.1297E+00
     26.680  0.7051E-03  0.1298E+00
     26.828  0.4861E-02  0.1305E+00
     26.976  0.9724E-02  0.1320E+00
     27.124  0.8495E-02  0.1332E+00
     27.272  0.8197E-02  0.1344E+00
     27.420  0.2522E-02  0.1348E+00
     27.567  0.3587E-02  0.1353E+00
     27.715  0.5350E-02  0.1361E+00
     27.863  0.2623E-02  0.1365E+00
     28.011  0.1165E-01  0.1382E+00
     28.159  0.9510E-02  0.1397E+00
     28.307  0.3059E-02  0.1401E+00
     28.455  0.7783E-02  0.1413E+00
     28.603  0.3555E-02  0.1418E+00
     28.751  0.2277E-02  0.1421E+00
     28.899  0.4880E-02  0.1428E+00
     29.046  0.9327E-02  0.1442E+00
     29.194  0.4017E-02  0.1448E+00
     29.342  0.2463E-02  0.1452E+00
     29.490  0.4737E-02  0.1459E+00
     29.638  0.4029E-02  0.1465E+00
     29.786  0.3288E-05  0.1465E+00
     29.934  0.3946E-02  0.1471E+00
     30.082  0.6456E-02  0.1480E+00
     30.230  0.4230E-02  0.1486E+00
     30.378  0.3112E-02  0.1491E+00
     30.525  0.1315E-01  0.1510E+00
     30.673  0.5094E-02  0.1518E+00
     30.821  0.3116E-02  0.1523E+00
     30.969  0.5738E-02  0.1531E+00
     31.117  0.4587E-03  0.1532E+00
     31.265  0.5614E-02  0.1540E+00
     31.413  0.5144E-02  0.1548E+00
     31.561  0.3370E-02  0.1553E+00
     31.709  0.1941E-02  0.1556E+00
     31.857  0.8036E-03  0.1557E+00
     32.004  0.1033E-02  0.1558E+00
     32.152  0.1558E-02  0.1561E+00
     32.300  0.2275E-02  0.1564E+00
     32.448  0.3622E-03  0.1564E+00
     32.596  0.2220E-02  0.1568E+00
     32.744  0.2293E-02  0.1571E+00
     32.892  0.1163E-04  0.1571E+00
     33.040  0.4922E-04  0.1571E+00
     33.188  0.4463E-02  0.1578E+00
     33.336  0.9744E-03  0.1579E+00
     33.483  0.3255E-03  0.1580E+00
     33.631  0.2110E-02  0.1583E+00
     33.779  0.2096E-04  0.1583E+00
     33.927  0.2485E-02  0.1587E+00
     34.075  0.1625E-02  0.1589E+00
     34.223  0.1583E-03  0.1589E+00
     34.371  0.2487E-02  0.1593E+00
     34.519  0.2562E-02  0.1597E+00
     34.667  0.4168E-03  0.1597E+00
     34.815  0.5461E-07  0.1597E+00
     34.962  0.0000E+00  0.1597E+00
     35.110  0.0000E+00  0.1597E+00
     35.258  0.6768E-18  0.1597E+00
     35.406  0.7912E-07  0.1597E+00
     35.554  0.7792E-03  0.1598E+00
     35.702  0.4399E-03  0.1599E+00
     35.850  0.3440E-08  0.1599E+00
     35.998  0.3908E-04  0.1599E+00
     36.146  0.5681E-03  0.1600E+00
     36.293  0.2367E-05  0.1600E+00
     36.441  0.2327E-14  0.1600E+00
     36.589  0.0000E+00  0.1600E+00
     36.737  0.0000E+00  0.1600E+00
     36.885  0.0000E+00  0.1600E+00
     37.033  0.0000E+00  0.1600E+00
     37.181  0.0000E+00  0.1600E+00
     37.329  0.0000E+00  0.1600E+00
     37.477  0.0000E+00  0.1600E+00
     37.625  0.0000E+00  0.1600E+00
     37.772  0.0000E+00  0.1600E+00
     37.920  0.0000E+00  0.1600E+00
     38.068  0.0000E+00  0.1600E+00
