    1    1  100    1
  0.1450827E+02  0.2737643E-09  0.2737643E-09  0.2737643E-09  0.5000000E-15
  1.000000000000000E-004
  CAR 
 unknown system                          
      4     56      8
 
  0.0000000E+00  0.0000000E+00  0.0000000E+00  0.7513148E-03
    1       -4.284530   1.000000
    2       21.307849   0.000000
    3       21.307856   0.000000
    4       21.307864   0.000000
    5       22.100887   0.000000
    6       22.100895   0.000000
    7       22.100904   0.000000
    8       27.433816   0.000000
 
  0.9090909E-01 -0.6938894E-17  0.0000000E+00  0.6010518E-02
    1       -4.043897   1.000000
    2       18.153642   0.000000
    3       20.347083   0.000000
    4       20.347094   0.000000
    5       23.325518   0.000000
    6       23.340740   0.000000
    7       23.340755   0.000000
    8       27.931531   0.000000
 
  0.1818182E+00 -0.6938894E-17  0.0000000E+00  0.6010518E-02
    1       -3.323717   1.000000
    2       14.275640   0.000000
    3       19.442438   0.000000
    4       19.442448   0.000000
    5       23.386747   0.000000
    6       24.334295   0.000000
    7       24.334306   0.000000
    8       27.087351   0.000000
 
  0.2727273E+00  0.0000000E+00  0.0000000E+00  0.6010518E-02
    1       -2.129551   1.000000
    2       10.578007   0.000000
    3       18.900943   0.000000
    4       18.900951   0.000000
    5       23.255205   0.000000
    6       23.256172   0.000000
    7       23.256180   0.000000
    8       28.544277   0.000000
 
  0.3636364E+00 -0.2775558E-16  0.0000000E+00  0.6010518E-02
    1       -0.471772   1.000000
    2        7.214543   1.000000
    3       18.698399   0.000000
    4       18.698405   0.000000
    5       21.948263   0.000000
    6       21.948274   0.000000
    7       23.274904   0.000000
    8       27.040681   0.000000
 
  0.4545455E+00 -0.5551115E-16  0.0000000E+00  0.6010518E-02
    1        1.619394   1.000000
    2        4.262610   1.000000
    3       18.714698   0.000000
    4       18.714702   0.000000
    5       21.134664   0.000000
    6       21.134676   0.000000
    7       23.425874   0.000000
    8       26.099569   0.000000
 
  0.9090909E-01  0.9090909E-01  0.0000000E+00  0.4507889E-02
    1       -3.963713   1.000000
    2       18.975789   0.000000
    3       18.975790   0.000000
    4       20.582183   0.000000
    5       20.603333   0.000000
    6       24.830276   0.000000
    7       24.830276   0.000000
    8       26.062403   0.000000
 
  0.1818182E+00  0.9090909E-01  0.0000000E+00  0.1803156E-01
    1       -3.403487   1.000000
    2       15.710331   0.000000
    3       17.945444   0.000000
    4       19.678205   0.000000
    5       21.479407   0.000000
    6       24.161649   0.000000
    7       25.631561   0.000000
    8       26.220811   0.000000
 
  0.2727273E+00  0.9090909E-01  0.0000000E+00  0.1803156E-01
    1       -2.367474   1.000000
    2       11.963176   0.000000
    3       17.311850   0.000000
    4       18.886510   0.000000
    5       21.099054   0.000000
    6       24.497153   0.000000
    7       25.699352   0.000000
    8       26.068377   0.000000
 
  0.3636364E+00  0.9090909E-01  0.0000000E+00  0.1803156E-01
    1       -0.864071   1.000000
    2        8.490590   1.000000
    3       17.083571   0.000000
    4       18.096511   0.000000
    5       20.135957   0.000000
    6       24.311840   0.000000
    7       24.957999   0.000000
    8       27.955955   0.000000
 
  0.4545455E+00  0.9090909E-01  0.0000000E+00  0.1803156E-01
    1        1.088954   1.000000
    2        5.396013   1.000000
    3       17.175804   0.000000
    4       17.253543   0.000000
    5       19.981354   0.000000
    6       23.126992   0.000000
    7       24.994475   0.000000
    8       28.135908   0.000000
 
 -0.4545455E+00  0.9090909E-01  0.0000000E+00  0.1803156E-01
    1        2.563162   1.000000
    2        3.634868   1.000000
    3       16.400390   0.000000
    4       17.798648   0.000000
    5       20.498258   0.000000
    6       22.337554   0.000000
    7       24.839678   0.000000
    8       28.043075   0.000000
 
 -0.3636364E+00  0.9090909E-01  0.0000000E+00  0.1803156E-01
    1        0.390190   1.000000
    2        6.380505   1.000000
    3       15.959328   0.000000
    4       18.657374   0.000000
    5       21.512196   0.000000
    6       22.035107   0.000000
    7       24.582925   0.000000
    8       28.702173   0.000000
 
 -0.2727273E+00  0.9090909E-01  0.0000000E+00  0.1803156E-01
    1       -1.416466   1.000000
    2        9.607896   1.000000
    3       15.913179   0.000000
    4       19.681985   0.000000
    5       22.338085   0.000000
    6       22.927906   0.000000
    7       24.428359   0.000000
    8       27.908264   0.000000
 
 -0.1818182E+00  0.9090909E-01  0.0000000E+00  0.1803156E-01
    1       -2.765319   1.000000
    2       13.183484   0.000000
    3       16.282114   0.000000
    4       20.668508   0.000000
    5       23.152905   0.000000
    6       24.340189   0.000000
    7       24.561733   0.000000
    8       25.629782   0.000000
 
 -0.9090909E-01  0.9090909E-01  0.0000000E+00  0.9015778E-02
    1       -3.643418   1.000000
    2       16.811403   0.000000
    3       17.222659   0.000000
    4       21.388132   0.000000
    5       22.720468   0.000000
    6       23.954997   0.000000
    7       25.077859   0.000000
    8       25.984723   0.000000
 
  0.1818182E+00  0.1818182E+00  0.0000000E+00  0.4507889E-02
    1       -3.004062   1.000000
    2       16.780250   0.000000
    3       16.780251   0.000000
    4       18.368221   0.000000
    5       18.654509   0.000000
    6       21.652252   0.000000
    7       28.112862   0.000000
    8       28.112862   0.000000
 
  0.2727273E+00  0.1818182E+00  0.0000000E+00  0.1803156E-01
    1       -2.128488   1.000000
    2       13.703728   0.000000
    3       16.014375   0.000000
    4       17.236109   0.000000
    5       18.690307   0.000000
    6       21.187201   0.000000
    7       28.473308   0.000000
    8       28.954968   0.000000
 
  0.3636364E+00  0.1818182E+00  0.0000000E+00  0.1803156E-01
    1       -0.783596   1.000000
    2       10.186422   0.000000
    3       15.660385   0.000000
    4       15.689790   0.000000
    5       18.346852   0.000000
    6       23.341487   0.000000
    7       27.236554   0.000000
    8       29.030975   0.000000
 
  0.4545455E+00  0.1818182E+00  0.0000000E+00  0.1803156E-01
    1        1.017674   1.000000
    2        6.980713   1.000000
    3       14.292377   0.000000
    4       15.719504   0.000000
    5       18.372331   0.000000
    6       25.893741   0.000000
    7       25.985470   0.000000
    8       29.088244   0.000000
 
 -0.4545455E+00  0.1818182E+00  0.0000000E+00  0.1803156E-01
    1        3.189275   1.000000
    2        4.240188   1.000000
    3       13.243825   0.000000
    4       16.187203   0.000000
    5       18.876900   0.000000
    6       25.041447   0.000000
    7       27.109397   0.000000
    8       30.369841   0.000000
 
 -0.3636364E+00  0.1818182E+00  0.0000000E+00  0.1803156E-01
    1        1.714266   1.000000
    2        5.995964   1.000000
    3       12.607524   0.000000
    4       17.049935   0.000000
    5       19.834127   0.000000
    6       24.489881   0.000000
    7       26.908568   0.000000
    8       30.483188   0.000000
 
 -0.2727273E+00  0.1818182E+00  0.0000000E+00  0.1803156E-01
    1       -0.233551   1.000000
    2        9.056486   1.000000
    3       12.416260   0.000000
    4       18.273196   0.000000
    5       21.206744   0.000000
    6       24.371667   0.000000
    7       26.475680   0.000000
    8       27.384536   0.000000
 
 -0.1818182E+00  0.1818182E+00  0.0000000E+00  0.9015778E-02
    1       -1.732493   1.000000
    2       12.165865   0.000000
    3       12.975484   0.000000
    4       19.740917   0.000000
    5       22.905891   0.000000
    6       24.565306   0.000000
    7       24.843873   0.000000
    8       25.718938   0.000000
 
  0.2727273E+00  0.2727273E+00  0.0000000E+00  0.4507889E-02
    1       -1.414483   1.000000
    2       15.087737   0.000000
    3       15.111132   0.000000
    4       15.111133   0.000000
    5       16.537562   0.000000
    6       18.959485   0.000000
    7       31.285306   0.000000
    8       31.285306   0.000000
 
  0.3636364E+00  0.2727273E+00  0.0000000E+00  0.1803156E-01
    1       -0.231087   1.000000
    2       12.198178   0.000000
    3       13.211170   0.000000
    4       14.620505   0.000000
    5       16.934754   0.000000
    6       19.666566   0.000000
    7       30.404875   0.000000
    8       32.011230   0.000000
 
  0.4545455E+00  0.2727273E+00  0.0000000E+00  0.1803156E-01
    1        1.411084   1.000000
    2        8.975757   1.000000
    3       11.533868   0.000000
    4       14.546762   0.000000
    5       17.046577   0.000000
    6       22.340508   0.000000
    7       29.203777   0.000000
    8       31.693042   0.000000
 
 -0.4545455E+00  0.2727273E+00  0.0000000E+00  0.1803156E-01
    1        3.483381   1.000000
    2        6.072842   1.000000
    3       10.284804   0.000000
    4       14.888785   0.000000
    5       17.462715   0.000000
    6       25.492400   0.000000
    7       28.186331   0.000000
    8       30.925243   0.000000
 
 -0.3636364E+00  0.2727273E+00  0.0000000E+00  0.1803156E-01
    1        3.484930   1.000000
    2        6.051317   1.000000
    3        9.493752   1.000000
    4       15.640995   0.000000
    5       18.308811   0.000000
    6       27.493219   0.000000
    7       28.448721   0.000000
    8       30.050151   0.000000
 
 -0.2727273E+00  0.2727273E+00  0.0000000E+00  0.9015778E-02
    1        1.409115   1.000000
    2        8.578899   1.000000
    3        9.517151   1.000000
    4       16.787831   0.000000
    5       19.578361   0.000000
    6       26.962013   0.000000
    7       27.572980   0.000000
    8       28.370854   0.000000
 
  0.3636364E+00  0.3636364E+00  0.0000000E+00  0.4507889E-02
    1        0.788795   1.000000
    2       10.890711   0.000000
    3       13.991672   0.000000
    4       13.991673   0.000000
    5       15.283649   0.000000
    6       17.660815   0.000000
    7       33.090031   0.000000
    8       34.048273   0.000000
 
  0.4545455E+00  0.3636364E+00  0.0000000E+00  0.1803156E-01
    1        2.265504   1.000000
    2        9.036322   1.000000
    3       11.410765   0.000000
    4       13.780390   0.000000
    5       15.992389   0.000000
    6       18.805356   0.000000
    7       32.485612   0.000000
    8       34.424212   0.000000
 
 -0.4545455E+00  0.3636364E+00  0.0000000E+00  0.1803156E-01
    1        4.170883   1.000000
    2        7.557509   1.000000
    3        8.517477   1.000000
    4       13.987430   0.000000
    5       16.424931   0.000000
    6       21.817649   0.000000
    7       31.482535   0.000000
    8       33.522666   0.000000
 
 -0.3636364E+00  0.3636364E+00  0.0000000E+00  0.9015778E-02
    1        5.639538   1.000000
    2        6.170038   1.000000
    3        7.190193   1.000000
    4       14.610412   0.000000
    5       17.160022   0.000000
    6       25.299125   0.000000
    7       30.324518   0.000000
    8       31.533997   0.000000
 
  0.4545455E+00  0.4545455E+00  0.0000000E+00  0.4507889E-02
    1        3.562526   1.000000
    2        7.041059   1.000000
    3       13.430700   0.000000
    4       13.430701   0.000000
    5       14.651697   0.000000
    6       17.050018   0.000000
    7       34.534145   0.000000
    8       36.051481   0.000000
 
 -0.4545455E+00  0.4545455E+00  0.0000000E+00  0.9015778E-02
    1        4.963487   1.000000
    2        5.804049   1.000000
    3       11.103805   0.000000
    4       13.499938   0.000000
    5       15.680352   0.000000
    6       18.517779   0.000000
    7       33.966435   0.000000
    8       35.541405   0.000000
 
  0.2727273E+00  0.1818182E+00  0.9090909E-01  0.1803156E-01
    1       -2.685459   1.000000
    2       14.512804   0.000000
    3       15.106795   0.000000
    4       19.630985   0.000000
    5       21.155988   0.000000
    6       22.783602   0.000000
    7       26.405413   0.000000
    8       27.061799   0.000000
 
  0.3636364E+00  0.1818182E+00  0.9090909E-01  0.3606311E-01
    1       -1.494833   1.000000
    2       11.133249   0.000000
    3       14.356198   0.000000
    4       18.111938   0.000000
    5       21.236430   0.000000
    6       23.890111   0.000000
    7       25.314756   0.000000
    8       27.625587   0.000000
 
  0.4545455E+00  0.1818182E+00  0.9090909E-01  0.3606311E-01
    1        0.158162   1.000000
    2        7.807413   1.000000
    3       14.253034   0.000000
    4       16.643444   0.000000
    5       21.090227   0.000000
    6       23.482669   0.000000
    7       26.462597   0.000000
    8       28.357573   0.000000
 
 -0.4545455E+00  0.1818182E+00  0.9090909E-01  0.3606311E-01
    1        2.244575   1.000000
    2        4.870118   1.000000
    3       14.524973   0.000000
    4       15.557505   0.000000
    5       21.260755   0.000000
    6       22.540840   0.000000
    7       27.164638   0.000000
    8       30.481475   0.000000
 
  0.3636364E+00  0.2727273E+00  0.9090909E-01  0.1803156E-01
    1       -1.098659   1.000000
    2       12.749892   0.000000
    3       13.389398   0.000000
    4       15.610007   0.000000
    5       19.460534   0.000000
    6       20.831886   0.000000
    7       27.991891   0.000000
    8       30.695604   0.000000
 
  0.4545455E+00  0.2727273E+00  0.9090909E-01  0.3606311E-01
    1        0.395598   1.000000
    2        9.640948   1.000000
    3       12.837421   0.000000
    4       13.933862   0.000000
    5       19.812491   0.000000
    6       22.891362   0.000000
    7       26.727786   0.000000
    8       31.178823   0.000000
 
 -0.4545455E+00  0.2727273E+00  0.9090909E-01  0.3606311E-01
    1        2.336895   1.000000
    2        6.596968   1.000000
    3       12.293362   0.000000
    4       13.305753   0.000000
    5       20.068582   0.000000
    6       24.993532   0.000000
    7       26.436563   0.000000
    8       30.843023   0.000000
 
 -0.3636364E+00  0.2727273E+00  0.9090909E-01  0.3606311E-01
    1        3.812515   1.000000
    2        4.838605   1.000000
    3       11.429452   0.000000
    4       13.867540   0.000000
    5       20.698082   0.000000
    6       24.470757   0.000000
    7       28.972662   0.000000
    8       29.523381   0.000000
 
 -0.2727273E+00  0.2727273E+00  0.9090909E-01  0.3606311E-01
    1        1.641754   1.000000
    2        7.552756   1.000000
    3       10.954767   0.000000
    4       14.921864   0.000000
    5       21.684966   0.000000
    6       24.043031   0.000000
    7       26.877252   0.000000
    8       30.108332   0.000000
 
 -0.1818182E+00  0.2727273E+00  0.9090909E-01  0.1803156E-01
    1       -0.154195   1.000000
    2       10.377862   0.000000
    3       11.255204   0.000000
    4       16.383533   0.000000
    5       22.829126   0.000000
    6       23.485338   0.000000
    7       24.744933   0.000000
    8       29.374225   0.000000
 
  0.4545455E+00  0.3636364E+00  0.9090909E-01  0.1803156E-01
    1        1.100549   1.000000
    2       11.095498   0.000000
    3       11.564722   0.000000
    4       12.480933   0.000000
    5       18.288033   0.000000
    6       19.714014   0.000000
    7       29.953025   0.000000
    8       33.865154   0.000000
 
 -0.4545455E+00  0.3636364E+00  0.9090909E-01  0.3606311E-01
    1        2.881593   1.000000
    2        8.686108   1.000000
    3        9.717786   1.000000
    4       12.152745   0.000000
    5       18.953862   0.000000
    6       22.159490   0.000000
    7       28.850083   0.000000
    8       33.157798   0.000000
 
 -0.3636364E+00  0.3636364E+00  0.9090909E-01  0.3606311E-01
    1        5.035213   1.000000
    2        6.012714   1.000000
    3        8.602939   1.000000
    4       12.626577   0.000000
    5       19.522802   0.000000
    6       25.386404   0.000000
    7       27.986476   0.000000
    8       30.505439   0.000000
 
 -0.2727273E+00  0.3636364E+00  0.9090909E-01  0.1803156E-01
    1        3.569629   1.000000
    2        7.375471   1.000000
    3        8.321415   1.000000
    4       13.561140   0.000000
    5       20.453199   0.000000
    6       26.939619   0.000000
    7       27.108874   0.000000
    8       29.369463   0.000000
 
 -0.4545455E+00  0.4545455E+00  0.9090909E-01  0.1803156E-01
    1        3.868139   1.000000
    2        7.333433   1.000000
    3       10.970000   0.000000
    4       11.806169   0.000000
    5       17.694501   0.000000
    6       19.158240   0.000000
    7       32.206455   0.000000
    8       34.307723   0.000000
 
 -0.3636364E+00  0.4545455E+00  0.9090909E-01  0.1803156E-01
    1        5.566892   1.000000
    2        6.377060   1.000000
    3        8.514081   1.000000
    4       11.839829   0.000000
    5       18.664835   0.000000
    6       21.904027   0.000000
    7       31.289158   0.000000
    8       31.347261   0.000000
 
 -0.4545455E+00  0.3636364E+00  0.1818182E+00  0.1803156E-01
    1        2.032195   1.000000
    2        9.179755   1.000000
    3       10.030760   0.248316
    4       12.227671   0.000000
    5       22.382120   0.000000
    6       22.964930   0.000000
    7       25.604816   0.000000
    8       32.652284   0.000000
 
 -0.3636364E+00  0.3636364E+00  0.1818182E+00  0.3606311E-01
    1        4.098659   1.000000
    2        6.648183   1.000000
    3        9.961909   0.897530
    4       11.046644   0.000000
    5       22.849767   0.000000
    6       24.121759   0.000000
    7       26.381419   0.000000
    8       29.919061   0.000000
 
 -0.3636364E+00  0.4545455E+00  0.1818182E+00  0.1803156E-01
    1        4.778993   1.000000
    2        8.133325   1.000000
    3        8.579396   1.000000
    4        9.705434   1.000000
    5       21.813866   0.000000
    6       22.658734   0.000000
    7       27.803164   0.000000
    8       30.576742   0.000000
 
 -0.2727273E+00  0.4545455E+00  0.1818182E+00  0.1803156E-01
    1        6.238780   1.000000
    2        6.773161   1.000000
    3        7.704177   1.000000
    4        9.903234   0.998290
    5       22.779120   0.000000
    6       25.401496   0.000000
    7       26.421118   0.000000
    8       28.044450   0.000000
