 vasp.6.2.0 18Jan21 (build Aug 12 2022 13:00:08) complex                        
  
 executed on             LinuxIFC date 2024.11.05  06:23:41
 running on    4 total cores
 distrk:  each k-point on    4 cores,    1 groups
 distr:  one band on NCORE=   1 cores,    4 groups


--------------------------------------------------------------------------------------------------------


 INCAR:
   ISTART = 0            (Read existing wavefunction, if there)
   ISPIN = 1            (Non-Spin polarised DFT)
   LREAL = .FALSE.       (Projection operators: automatic)
   LWAVE = .FALSE.        (Write WAVECAR or not)
   LCHARG = .FALSE.        (Write CHGCAR or not)
   ADDGRID = .TRUE.        (Increase grid, helps GGA convergence)
   LASPH = .TRUE.        (Give more accurate total energies and band structure calculations)
   PREC = Accurate      (Accurate strictly avoids any aliasing or wrap around errors)
   ENCUT = 400          (Cut-off energy for plane wave basis set, in eV)
   ISMEAR = 0            (Gaussian smearing, metals:1)
   SIGMA = 0.05         (Smearing value in eV, metals:0.2)
   NELM = 90           (Max electronic SCF steps)
   NELMIN = 6            (Min electronic SCF steps)
   EDIFF = 1E-06        (SCF energy convergence, in eV)
   NSW = 100          (Max ionic steps)
   IBRION = 2            (Algorithm: 0-MD, 1-Quasi-New, 2-CG)
   ISIF = 3            (Stress/relaxation: 2-Ions, 3-Shape/Ions/V, 4-Shape/Ions)
   EDIFFG = -2E-03        (Ionic convergence, eV/AA)
   ISYM = 2              (Symmetry: 0\=none, 2\=GGA, 3\=hybrids)

 POTCAR:    PAW_PBE Si 05Jan2001                  
 POTCAR:    PAW_PBE Si 05Jan2001                  
   VRHFIN =Si: s2p2                                                                                 
   LEXCH  = PE                                                                                      
   EATOM  =   103.0669 eV,    7.5752 Ry                                                             
                                                                                                    
   TITEL  = PAW_PBE Si 05Jan2001                                                                    
   LULTRA =        F    use ultrasoft PP ?                                                          
   IUNSCR =        1    unscreen: 0-lin 1-nonlin 2-no                                               
   RPACOR =    1.500    partial core radius                                                         
   POMASS =   28.085; ZVAL   =    4.000    mass and valenz                                          
   RCORE  =    1.900    outmost cutoff radius                                                       
   RWIGS  =    2.480; RWIGS  =    1.312    wigner-seitz radius (au A)                               
   ENMAX  =  245.345; ENMIN  =  184.009 eV                                                          
   ICORE  =        2    local potential                                                             
   LCOR   =        T    correct aug charges                                                         
   LPAW   =        T    paw PP                                                                      
   EAUG   =  322.069                                                                                
   DEXC   =    0.000                                                                                
   RMAX   =    1.950    core radius for proj-oper                                                   
   RAUG   =    1.300    factor for augmentation sphere                                              
   RDEP   =    1.993    radius for radial grids                                                     
   RDEPT  =    1.837    core radius for aug-charge                                                  
                                                                                                    
   Atomic configuration                                                                             
    6 entries                                                                                       
     n  l   j            E        occ.                                                              
     1  0  0.50     -1785.8828   2.0000                                                             
     2  0  0.50      -139.4969   2.0000                                                             
     2  1  1.50       -95.5546   6.0000                                                             
     3  0  0.50       -10.8127   2.0000                                                             
     3  1  0.50        -4.0811   2.0000                                                             
     3  2  1.50        -4.0817   0.0000                                                             
   Description                                                                                      
     l       E           TYP  RCUT    TYP  RCUT                                                     
     0    -10.8127223     23  1.900                                                                 
     0     -7.6451159     23  1.900                                                                 
     1     -4.0811372     23  1.900                                                                 
     1      2.4879257     23  1.900                                                                 
     2     -4.0817478      7  1.900                                                                 
  local pseudopotential read in
  partial core-charges read in
  partial kinetic energy density read in
  atomic valenz-charges read in
  non local Contribution for L=           0  read in
    real space projection operators read in
  non local Contribution for L=           0  read in
    real space projection operators read in
  non local Contribution for L=           1  read in
    real space projection operators read in
  non local Contribution for L=           1  read in
    real space projection operators read in
    PAW grid and wavefunctions read in
 
   number of l-projection  operators is LMAX  =           4
   number of lm-projection operators is LMMAX =           8
 
  PAW_PBE Si 05Jan2001                  :
 energy of atom  1       EATOM= -103.0669
 kinetic energy error for atom=    0.0012 (will be added to EATOM!!)
 
 
 POSCAR: Si1
  positions in direct lattice
  velocities in cartesian coordinates
 exchange correlation table for  LEXCH =        8
   RHO(1)=    0.500       N(1)  =     2000
   RHO(2)=  100.500       N(2)  =     4000
 


--------------------------------------------------------------------------------------------------------


 ion  position               nearest neighbor table
   1  0.000  0.000  0.000-
 
  LATTYP: Found a face centered cubic cell.
 ALAT       =     3.8716117039
  
  Lattice vectors:
  
 A1 = (   2.3708689500,   0.0000000000,   1.3688206800)
 A2 = (   0.7902896500,   2.2352764500,   1.3688206800)
 A3 = (   0.0000000000,   0.0000000000,   2.7376433800)


Analysis of symmetry for initial positions (statically):
=====================================================================
 Subroutine PRICEL returns:
 Original cell was already a primitive cell.
 

 Routine SETGRP: Setting up the symmetry group for a 
 face centered cubic supercell.


 Subroutine GETGRP returns: Found 48 space group operations
 (whereof 48 operations were pure point group operations)
 out of a pool of 48 trial point group operations.


The static configuration has the point symmetry O_h .


Analysis of symmetry for dynamics (positions and initial velocities):
=====================================================================
 Subroutine PRICEL returns:
 Original cell was already a primitive cell.
 

 Routine SETGRP: Setting up the symmetry group for a 
 face centered cubic supercell.


 Subroutine GETGRP returns: Found 48 space group operations
 (whereof 48 operations were pure point group operations)
 out of a pool of 48 trial point group operations.


The dynamic configuration has the point symmetry O_h .


 Subroutine INISYM returns: Found 48 space group operations
 (whereof 48 operations are pure point group operations),
 and found     1 'primitive' translations


----------------------------------------------------------------------------------------

                                     Primitive cell                                     

  volume of cell :      14.5083

  direct lattice vectors                    reciprocal lattice vectors
     2.370868950  0.000000000  1.368820680     0.421786282 -0.149123986  0.000000000
     0.790289650  2.235276450  1.368820680     0.000000000  0.447371957  0.000000000
     0.000000000  0.000000000  2.737643380    -0.210892985 -0.149123876  0.365277672

  length of vectors
     2.737643080  2.737642890  2.737643380     0.447371916  0.447371957  0.447371835

  position of ions in fractional coordinates (direct lattice)
     0.000000000  0.000000000  0.000000000

  ion indices of the primitive-cell ions
   primitive index   ion index
                 1           1

----------------------------------------------------------------------------------------

 
 
 KPOINTS: Automatic                               

Automatic generation of k-mesh.
 Grid dimensions read from file:
 generate k-points for:   11   11   11

 Generating k-lattice:

  Cartesian coordinates                     Fractional coordinates (reciprocal lattice)
     0.038344207 -0.013556726  0.000000000     0.090909091 -0.000000000  0.000000000
     0.000000000  0.040670178  0.000000000     0.000000000  0.090909091  0.000000000
    -0.019172090 -0.013556716  0.033207061     0.000000000  0.000000000  0.090909091

  Length of vectors
     0.040670174  0.040670178  0.040670167

  Shift w.r.t. Gamma in fractional coordinates (k-lattice)
     0.000000000  0.000000000  0.000000000

 
 Subroutine IBZKPT returns following result:
 ===========================================
 
 Found     56 irreducible k-points:
 
 Following reciprocal coordinates:
            Coordinates               Weight
  0.000000  0.000000  0.000000      1.000000
  0.090909 -0.000000  0.000000      8.000000
  0.181818 -0.000000  0.000000      8.000000
  0.272727  0.000000  0.000000      8.000000
  0.363636 -0.000000  0.000000      8.000000
  0.454545 -0.000000  0.000000      8.000000
  0.090909  0.090909  0.000000      6.000000
  0.181818  0.090909  0.000000     24.000000
  0.272727  0.090909  0.000000     24.000000
  0.363636  0.090909  0.000000     24.000000
  0.454545  0.090909  0.000000     24.000000
 -0.454545  0.090909  0.000000     24.000000
 -0.363636  0.090909  0.000000     24.000000
 -0.272727  0.090909  0.000000     24.000000
 -0.181818  0.090909  0.000000     24.000000
 -0.090909  0.090909  0.000000     12.000000
  0.181818  0.181818  0.000000      6.000000
  0.272727  0.181818  0.000000     24.000000
  0.363636  0.181818  0.000000     24.000000
  0.454545  0.181818  0.000000     24.000000
 -0.454545  0.181818  0.000000     24.000000
 -0.363636  0.181818  0.000000     24.000000
 -0.272727  0.181818  0.000000     24.000000
 -0.181818  0.181818  0.000000     12.000000
  0.272727  0.272727  0.000000      6.000000
  0.363636  0.272727  0.000000     24.000000
  0.454545  0.272727  0.000000     24.000000
 -0.454545  0.272727  0.000000     24.000000
 -0.363636  0.272727  0.000000     24.000000
 -0.272727  0.272727  0.000000     12.000000
  0.363636  0.363636  0.000000      6.000000
  0.454545  0.363636  0.000000     24.000000
 -0.454545  0.363636  0.000000     24.000000
 -0.363636  0.363636  0.000000     12.000000
  0.454545  0.454545  0.000000      6.000000
 -0.454545  0.454545  0.000000     12.000000
  0.272727  0.181818  0.090909     24.000000
  0.363636  0.181818  0.090909     48.000000
  0.454545  0.181818  0.090909     48.000000
 -0.454545  0.181818  0.090909     48.000000
  0.363636  0.272727  0.090909     24.000000
  0.454545  0.272727  0.090909     48.000000
 -0.454545  0.272727  0.090909     48.000000
 -0.363636  0.272727  0.090909     48.000000
 -0.272727  0.272727  0.090909     48.000000
 -0.181818  0.272727  0.090909     24.000000
  0.454545  0.363636  0.090909     24.000000
 -0.454545  0.363636  0.090909     48.000000
 -0.363636  0.363636  0.090909     48.000000
 -0.272727  0.363636  0.090909     24.000000
 -0.454545  0.454545  0.090909     24.000000
 -0.363636  0.454545  0.090909     24.000000
 -0.454545  0.363636  0.181818     24.000000
 -0.363636  0.363636  0.181818     48.000000
 -0.363636  0.454545  0.181818     24.000000
 -0.272727  0.454545  0.181818     24.000000
 
 Following cartesian coordinates:
            Coordinates               Weight
  0.000000  0.000000  0.000000      1.000000
  0.038728 -0.013692  0.000000      8.000000
  0.077455 -0.027385  0.000000      8.000000
  0.116183 -0.041077  0.000000      8.000000
  0.154911 -0.054769  0.000000      8.000000
  0.193638 -0.068461  0.000000      8.000000
  0.038728  0.027385  0.000000      6.000000
  0.077455  0.013692  0.000000     24.000000
  0.116183  0.000000  0.000000     24.000000
  0.154911 -0.013692  0.000000     24.000000
  0.193638 -0.027385  0.000000     24.000000
 -0.193638  0.109538  0.000000     24.000000
 -0.154911  0.095846  0.000000     24.000000
 -0.116183  0.082154  0.000000     24.000000
 -0.077455  0.068461  0.000000     24.000000
 -0.038728  0.054769  0.000000     12.000000
  0.077455  0.054769  0.000000      6.000000
  0.116183  0.041077  0.000000     24.000000
  0.154911  0.027385  0.000000     24.000000
  0.193638  0.013692  0.000000     24.000000
 -0.193638  0.150615  0.000000     24.000000
 -0.154911  0.136923  0.000000     24.000000
 -0.116183  0.123231  0.000000     24.000000
 -0.077455  0.109538  0.000000     12.000000
  0.116183  0.082154  0.000000      6.000000
  0.154911  0.068461  0.000000     24.000000
  0.193638  0.054769  0.000000     24.000000
 -0.193638  0.191692  0.000000     24.000000
 -0.154911  0.178000  0.000000     24.000000
 -0.116183  0.164308  0.000000     12.000000
  0.154911  0.109538  0.000000      6.000000
  0.193638  0.095846  0.000000     24.000000
 -0.193638  0.232769  0.000000     24.000000
 -0.154911  0.219077  0.000000     12.000000
  0.193638  0.136923  0.000000      6.000000
 -0.193638  0.273846  0.000000     12.000000
  0.096819  0.027385  0.033539     24.000000
  0.135547  0.013692  0.033539     48.000000
  0.174274  0.000000  0.033539     48.000000
 -0.213002  0.136923  0.033539     48.000000
  0.135547  0.054769  0.033539     24.000000
  0.174274  0.041077  0.033539     48.000000
 -0.213002  0.178000  0.033539     48.000000
 -0.174274  0.164308  0.033539     48.000000
 -0.135547  0.150615  0.033539     48.000000
 -0.096819  0.136923  0.033539     24.000000
  0.174274  0.082154  0.033539     24.000000
 -0.213002  0.219077  0.033539     48.000000
 -0.174274  0.205384  0.033539     48.000000
 -0.135547  0.191692  0.033539     24.000000
 -0.213002  0.260154  0.033539     24.000000
 -0.174274  0.246461  0.033539     24.000000
 -0.232366  0.205384  0.067078     24.000000
 -0.193638  0.191692  0.067078     48.000000
 -0.193638  0.232769  0.067078     24.000000
 -0.154911  0.219077  0.067078     24.000000
 


--------------------------------------------------------------------------------------------------------




 Dimension of arrays:
   k-points           NKPTS =     56   k-points in BZ     NKDIM =     56   number of bands    NBANDS=      8
   number of dos      NEDOS =    301   number of ions     NIONS =      1
   non local maximal  LDIM  =      4   non local SUM 2l+1 LMDIM =      8
   total plane-waves  NPLWV =   5832
   max r-space proj   IRMAX =      1   max aug-charges    IRDMAX= 107708
   dimension x,y,z NGX =    18 NGY =   18 NGZ =   18
   dimension x,y,z NGXF=    36 NGYF=   36 NGZF=   36
   support grid    NGXF=    72 NGYF=   72 NGZF=   72
   ions per type =               1
   NGX,Y,Z   is equivalent  to a cutoff of  10.93, 10.93, 10.93 a.u.
   NGXF,Y,Z  is equivalent  to a cutoff of  21.86, 21.86, 21.86 a.u.

 SYSTEM =  unknown system                          
 POSCAR =  Si1                                     

 Startparameter for this run:
   NWRITE =      2    write-flag & timer
   PREC   = accura    normal or accurate (medium, high low for compatibility)
   ISTART =      0    job   : 0-new  1-cont  2-samecut
   ICHARG =      2    charge: 1-file 2-atom 10-const
   ISPIN  =      1    spin polarized calculation?
   LNONCOLLINEAR =      F non collinear calculations
   LSORBIT =      F    spin-orbit coupling
   INIWAV =      1    electr: 0-lowe 1-rand  2-diag
   LASPH  =      T    aspherical Exc in radial PAW
   METAGGA=      F    non-selfconsistent MetaGGA calc.

 Electronic Relaxation 1
   ENCUT  =  400.0 eV  29.40 Ry    5.42 a.u.   4.46  4.46  4.46*2*pi/ulx,y,z
   ENINI  =  400.0     initial cutoff
   ENAUG  =  322.1 eV  augmentation charge cutoff
   NELM   =     90;   NELMIN=  6; NELMDL= -5     # of ELM steps 
   EDIFF  = 0.1E-05   stopping-criterion for ELM
   LREAL  =      F    real-space projection
   NLSPLINE    = F    spline interpolate recip. space projectors
   LCOMPAT=      F    compatible to vasp.4.4
   GGA_COMPAT  = T    GGA compatible to vasp.4.4-vasp.4.6
   LMAXPAW     = -100 max onsite density
   LMAXMIX     =    2 max onsite mixed and CHGCAR
   VOSKOWN=      0    Vosko Wilk Nusair interpolation
   ROPT   =    0.00000
 Ionic relaxation
   EDIFFG = -.2E-02   stopping-criterion for IOM
   NSW    =    100    number of steps for IOM
   NBLOCK =      1;   KBLOCK =    100    inner block; outer block 
   IBRION =      2    ionic relax: 0-MD 1-quasi-New 2-CG
   NFREE  =      1    steps in history (QN), initial steepest desc. (CG)
   ISIF   =      3    stress and relaxation
   IWAVPR =     11    prediction:  0-non 1-charg 2-wave 3-comb
   ISYM   =      2    0-nonsym 1-usesym 2-fastsym
   LCORR  =      T    Harris-Foulkes like correction to forces

   POTIM  = 0.5000    time-step for ionic-motion
   TEIN   =    0.0    initial temperature
   TEBEG  =    0.0;   TEEND  =   0.0 temperature during run
   SMASS  =  -3.00    Nose mass-parameter (am)
   estimated Nose-frequenzy (Omega)   =  0.10E-29 period in steps = 0.13E+47 mass=  -0.171E-27a.u.
   SCALEE = 1.0000    scale energy and forces
   NPACO  =    256;   APACO  = 16.0  distance and # of slots for P.C.
   PSTRESS=    0.0 pullay stress

  Mass of Ions in am
   POMASS =  28.09
  Ionic Valenz
   ZVAL   =   4.00
  Atomic Wigner-Seitz radii
   RWIGS  =  -1.00
  virtual crystal weights 
   VCA    =   1.00
   NELECT =       4.0000    total number of electrons
   NUPDOWN=      -1.0000    fix difference up-down

 DOS related values:
   EMIN   =  10.00;   EMAX   =-10.00  energy-range for DOS
   EFERMI =   0.00
   ISMEAR =     0;   SIGMA  =   0.05  broadening in eV -4-tet -1-fermi 0-gaus

 Electronic relaxation 2 (details)
   IALGO  =     38    algorithm
   LDIAG  =      T    sub-space diagonalisation (order eigenvalues)
   LSUBROT=      F    optimize rotation matrix (better conditioning)
   TURBO    =      0    0=normal 1=particle mesh
   IRESTART =      0    0=no restart 2=restart with 2 vectors
   NREBOOT  =      0    no. of reboots
   NMIN     =      0    reboot dimension
   EREF     =   0.00    reference energy to select bands
   IMIX   =      4    mixing-type and parameters
     AMIX     =   0.40;   BMIX     =  1.00
     AMIX_MAG =   1.60;   BMIX_MAG =  1.00
     AMIN     =   0.10
     WC   =   100.;   INIMIX=   1;  MIXPRE=   1;  MAXMIX= -45

 Intra band minimization:
   WEIMIN = 0.0010     energy-eigenvalue tresh-hold
   EBREAK =  0.31E-07  absolut break condition
   DEPER  =   0.30     relativ break condition  

   TIME   =   0.40     timestep for ELM

  volume/ion in A,a.u.               =      14.51        97.91
  Fermi-wavevector in a.u.,A,eV,Ry     =   1.065507  2.013516 15.446762  1.135305
  Thomas-Fermi vector in A             =   2.201061
 
 Write flags
   LWAVE        =      F    write WAVECAR
   LDOWNSAMPLE  =      F    k-point downsampling of WAVECAR
   LCHARG       =      F    write CHGCAR
   LVTOT        =      F    write LOCPOT, total local potential
   LVHAR        =      F    write LOCPOT, Hartree potential only
   LELF         =      F    write electronic localiz. function (ELF)
   LORBIT       =      0    0 simple, 1 ext, 2 COOP (PROOUT), +10 PAW based schemes


 Dipole corrections
   LMONO  =      F    monopole corrections only (constant potential shift)
   LDIPOL =      F    correct potential (dipole corrections)
   IDIPOL =      0    1-x, 2-y, 3-z, 4-all directions 
   EPSILON=  1.0000000 bulk dielectric constant

 Exchange correlation treatment:
   GGA     =    --    GGA type
   LEXCH   =     8    internal setting for exchange type
   VOSKOWN=      0    Vosko Wilk Nusair interpolation
   LHFCALC =     F    Hartree Fock is set to
   LHFONE  =     F    Hartree Fock one center treatment
   AEXX    =    0.0000 exact exchange contribution

 Linear response parameters
   LEPSILON=     F    determine dielectric tensor
   LRPA    =     F    only Hartree local field effects (RPA)
   LNABLA  =     F    use nabla operator in PAW spheres
   LVEL    =     F    velocity operator in full k-point grid
   LINTERFAST=   F  fast interpolation
   KINTER  =     0    interpolate to denser k-point grid
   CSHIFT  =0.1000    complex shift for real part using Kramers Kronig
   OMEGAMAX=  -1.0    maximum frequency
   DEG_THRESHOLD= 0.2000000E-02 threshold for treating states as degnerate
   RTIME   =   -0.100 relaxation time in fs
  (WPLASMAI=    0.000 imaginary part of plasma frequency in eV, 0.658/RTIME)
   DFIELD  = 0.0000000 0.0000000 0.0000000 field for delta impulse in time
 
 Orbital magnetization related:
   ORBITALMAG=     F  switch on orbital magnetization
   LCHIMAG   =     F  perturbation theory with respect to B field
   DQ        =  0.001000  dq finite difference perturbation B field
   LLRAUG    =     F  two centre corrections for induced B field



--------------------------------------------------------------------------------------------------------


 conjugate gradient relaxation of ions
 charge density and potential will be updated during run
 non-spin polarized calculation
 Variant of blocked Davidson
 Davidson routine will perform the subspace rotation
 perform sub-space diagonalisation
    after iterative eigenvector-optimisation
 modified Broyden-mixing scheme, WC =      100.0
 initial mixing is a Kerker type mixing with AMIX =  0.4000 and BMIX =      1.0000
 Hartree-type preconditioning will be used
 using additional bands            6
 reciprocal scheme for non local part
 use partial core corrections
 calculate Harris-corrections to forces 
   (improved forces if not selfconsistent)
 use gradient corrections 
 use of overlap-Matrix (Vanderbilt PP)
 Gauss-broadening in eV      SIGMA  =   0.05


--------------------------------------------------------------------------------------------------------


  energy-cutoff  :      400.00
  volume of cell :       14.51
      direct lattice vectors                 reciprocal lattice vectors
     2.370868950  0.000000000  1.368820680     0.421786282 -0.149123986  0.000000000
     0.790289650  2.235276450  1.368820680     0.000000000  0.447371957  0.000000000
     0.000000000  0.000000000  2.737643380    -0.210892985 -0.149123876  0.365277672

  length of vectors
     2.737643080  2.737642890  2.737643380     0.447371916  0.447371957  0.447371835


 
 k-points in units of 2pi/SCALE and weight: Automatic                               
   0.00000000  0.00000000  0.00000000       0.001
   0.03872765 -0.01369229  0.00000000       0.006
   0.07745530 -0.02738459  0.00000000       0.006
   0.11618295 -0.04107688  0.00000000       0.006
   0.15491060 -0.05476917  0.00000000       0.006
   0.19363825 -0.06846147  0.00000000       0.006
   0.03872765  0.02738459  0.00000000       0.005
   0.07745530  0.01369229  0.00000000       0.018
   0.11618295  0.00000000  0.00000000       0.018
   0.15491060 -0.01369229  0.00000000       0.018
   0.19363825 -0.02738459  0.00000000       0.018
  -0.19363825  0.10953835  0.00000000       0.018
  -0.15491060  0.09584605  0.00000000       0.018
  -0.11618295  0.08215376  0.00000000       0.018
  -0.07745530  0.06846147  0.00000000       0.018
  -0.03872765  0.05476917  0.00000000       0.009
   0.07745530  0.05476917  0.00000000       0.005
   0.11618295  0.04107688  0.00000000       0.018
   0.15491060  0.02738459  0.00000000       0.018
   0.19363825  0.01369229  0.00000000       0.018
  -0.19363825  0.15061523  0.00000000       0.018
  -0.15491060  0.13692293  0.00000000       0.018
  -0.11618295  0.12323064  0.00000000       0.018
  -0.07745530  0.10953835  0.00000000       0.009
   0.11618295  0.08215376  0.00000000       0.005
   0.15491060  0.06846147  0.00000000       0.018
   0.19363825  0.05476917  0.00000000       0.018
  -0.19363825  0.19169211  0.00000000       0.018
  -0.15491060  0.17799981  0.00000000       0.018
  -0.11618295  0.16430752  0.00000000       0.009
   0.15491060  0.10953835  0.00000000       0.005
   0.19363825  0.09584605  0.00000000       0.018
  -0.19363825  0.23276898  0.00000000       0.018
  -0.15491060  0.21907669  0.00000000       0.009
   0.19363825  0.13692293  0.00000000       0.005
  -0.19363825  0.27384586  0.00000000       0.009
   0.09681914  0.02738460  0.03353913       0.018
   0.13554679  0.01369230  0.03353913       0.036
   0.17427444  0.00000001  0.03353913       0.036
  -0.21300206  0.13692294  0.03353913       0.036
   0.13554679  0.05476918  0.03353913       0.018
   0.17427444  0.04107689  0.03353913       0.036
  -0.21300206  0.17799982  0.03353913       0.036
  -0.17427441  0.16430753  0.03353913       0.036
  -0.13554676  0.15061524  0.03353913       0.036
  -0.09681911  0.13692294  0.03353913       0.018
   0.17427444  0.08215377  0.03353913       0.018
  -0.21300206  0.21907670  0.03353913       0.036
  -0.17427441  0.20538441  0.03353913       0.036
  -0.13554676  0.19169212  0.03353913       0.018
  -0.21300206  0.26015358  0.03353913       0.018
  -0.17427441  0.24646129  0.03353913       0.018
  -0.23236587  0.20538442  0.06707826       0.018
  -0.19363822  0.19169213  0.06707826       0.036
  -0.19363822  0.23276901  0.06707826       0.018
  -0.15491057  0.21907671  0.06707826       0.018
 
 k-points in reciprocal lattice and weights: Automatic                               
   0.00000000  0.00000000  0.00000000       0.001
   0.09090909 -0.00000000  0.00000000       0.006
   0.18181818 -0.00000000  0.00000000       0.006
   0.27272727  0.00000000  0.00000000       0.006
   0.36363636 -0.00000000  0.00000000       0.006
   0.45454545 -0.00000000  0.00000000       0.006
   0.09090909  0.09090909  0.00000000       0.005
   0.18181818  0.09090909  0.00000000       0.018
   0.27272727  0.09090909  0.00000000       0.018
   0.36363636  0.09090909  0.00000000       0.018
   0.45454545  0.09090909  0.00000000       0.018
  -0.45454545  0.09090909  0.00000000       0.018
  -0.36363636  0.09090909  0.00000000       0.018
  -0.27272727  0.09090909  0.00000000       0.018
  -0.18181818  0.09090909  0.00000000       0.018
  -0.09090909  0.09090909  0.00000000       0.009
   0.18181818  0.18181818  0.00000000       0.005
   0.27272727  0.18181818  0.00000000       0.018
   0.36363636  0.18181818  0.00000000       0.018
   0.45454545  0.18181818  0.00000000       0.018
  -0.45454545  0.18181818  0.00000000       0.018
  -0.36363636  0.18181818  0.00000000       0.018
  -0.27272727  0.18181818  0.00000000       0.018
  -0.18181818  0.18181818  0.00000000       0.009
   0.27272727  0.27272727  0.00000000       0.005
   0.36363636  0.27272727  0.00000000       0.018
   0.45454545  0.27272727  0.00000000       0.018
  -0.45454545  0.27272727  0.00000000       0.018
  -0.36363636  0.27272727  0.00000000       0.018
  -0.27272727  0.27272727  0.00000000       0.009
   0.36363636  0.36363636  0.00000000       0.005
   0.45454545  0.36363636  0.00000000       0.018
  -0.45454545  0.36363636  0.00000000       0.018
  -0.36363636  0.36363636  0.00000000       0.009
   0.45454545  0.45454545  0.00000000       0.005
  -0.45454545  0.45454545  0.00000000       0.009
   0.27272727  0.18181818  0.09090909       0.018
   0.36363636  0.18181818  0.09090909       0.036
   0.45454545  0.18181818  0.09090909       0.036
  -0.45454545  0.18181818  0.09090909       0.036
   0.36363636  0.27272727  0.09090909       0.018
   0.45454545  0.27272727  0.09090909       0.036
  -0.45454545  0.27272727  0.09090909       0.036
  -0.36363636  0.27272727  0.09090909       0.036
  -0.27272727  0.27272727  0.09090909       0.036
  -0.18181818  0.27272727  0.09090909       0.018
   0.45454545  0.36363636  0.09090909       0.018
  -0.45454545  0.36363636  0.09090909       0.036
  -0.36363636  0.36363636  0.09090909       0.036
  -0.27272727  0.36363636  0.09090909       0.018
  -0.45454545  0.45454545  0.09090909       0.018
  -0.36363636  0.45454545  0.09090909       0.018
  -0.45454545  0.36363636  0.18181818       0.018
  -0.36363636  0.36363636  0.18181818       0.036
  -0.36363636  0.45454545  0.18181818       0.018
  -0.27272727  0.45454545  0.18181818       0.018
 
 position of ions in fractional coordinates (direct lattice) 
   0.00000000  0.00000000  0.00000000
 
 position of ions in cartesian coordinates  (Angst):
   0.00000000  0.00000000  0.00000000
 


--------------------------------------------------------------------------------------------------------


 k-point   1 :   0.0000 0.0000 0.0000  plane waves:     259
 k-point   2 :   0.0909-0.0000 0.0000  plane waves:     271
 k-point   3 :   0.1818-0.0000 0.0000  plane waves:     274
 k-point   4 :   0.2727 0.0000 0.0000  plane waves:     268
 k-point   5 :   0.3636-0.0000 0.0000  plane waves:     263
 k-point   6 :   0.4545-0.0000 0.0000  plane waves:     266
 k-point   7 :   0.0909 0.0909 0.0000  plane waves:     267
 k-point   8 :   0.1818 0.0909 0.0000  plane waves:     270
 k-point   9 :   0.2727 0.0909 0.0000  plane waves:     275
 k-point  10 :   0.3636 0.0909 0.0000  plane waves:     267
 k-point  11 :   0.4545 0.0909 0.0000  plane waves:     265
 k-point  12 :  -0.4545 0.0909 0.0000  plane waves:     258
 k-point  13 :  -0.3636 0.0909 0.0000  plane waves:     264
 k-point  14 :  -0.2727 0.0909 0.0000  plane waves:     267
 k-point  15 :  -0.1818 0.0909 0.0000  plane waves:     272
 k-point  16 :  -0.0909 0.0909 0.0000  plane waves:     271
 k-point  17 :   0.1818 0.1818 0.0000  plane waves:     274
 k-point  18 :   0.2727 0.1818 0.0000  plane waves:     272
 k-point  19 :   0.3636 0.1818 0.0000  plane waves:     264
 k-point  20 :   0.4545 0.1818 0.0000  plane waves:     267
 k-point  21 :  -0.4545 0.1818 0.0000  plane waves:     259
 k-point  22 :  -0.3636 0.1818 0.0000  plane waves:     260
 k-point  23 :  -0.2727 0.1818 0.0000  plane waves:     264
 k-point  24 :  -0.1818 0.1818 0.0000  plane waves:     269
 k-point  25 :   0.2727 0.2727 0.0000  plane waves:     258
 k-point  26 :   0.3636 0.2727 0.0000  plane waves:     261
 k-point  27 :   0.4545 0.2727 0.0000  plane waves:     257
 k-point  28 :  -0.4545 0.2727 0.0000  plane waves:     257
 k-point  29 :  -0.3636 0.2727 0.0000  plane waves:     261
 k-point  30 :  -0.2727 0.2727 0.0000  plane waves:     256
 k-point  31 :   0.3636 0.3636 0.0000  plane waves:     258
 k-point  32 :   0.4545 0.3636 0.0000  plane waves:     255
 k-point  33 :  -0.4545 0.3636 0.0000  plane waves:     263
 k-point  34 :  -0.3636 0.3636 0.0000  plane waves:     264
 k-point  35 :   0.4545 0.4545 0.0000  plane waves:     254
 k-point  36 :  -0.4545 0.4545 0.0000  plane waves:     260
 k-point  37 :   0.2727 0.1818 0.0909  plane waves:     272
 k-point  38 :   0.3636 0.1818 0.0909  plane waves:     271
 k-point  39 :   0.4545 0.1818 0.0909  plane waves:     265
 k-point  40 :  -0.4545 0.1818 0.0909  plane waves:     255
 k-point  41 :   0.3636 0.2727 0.0909  plane waves:     265
 k-point  42 :   0.4545 0.2727 0.0909  plane waves:     265
 k-point  43 :  -0.4545 0.2727 0.0909  plane waves:     260
 k-point  44 :  -0.3636 0.2727 0.0909  plane waves:     261
 k-point  45 :  -0.2727 0.2727 0.0909  plane waves:     263
 k-point  46 :  -0.1818 0.2727 0.0909  plane waves:     265
 k-point  47 :   0.4545 0.3636 0.0909  plane waves:     262
 k-point  48 :  -0.4545 0.3636 0.0909  plane waves:     258
 k-point  49 :  -0.3636 0.3636 0.0909  plane waves:     262
 k-point  50 :  -0.2727 0.3636 0.0909  plane waves:     267
 k-point  51 :  -0.4545 0.4545 0.0909  plane waves:     261
 k-point  52 :  -0.3636 0.4545 0.0909  plane waves:     262
 k-point  53 :  -0.4545 0.3636 0.1818  plane waves:     260
 k-point  54 :  -0.3636 0.3636 0.1818  plane waves:     263
 k-point  55 :  -0.3636 0.4545 0.1818  plane waves:     258
 k-point  56 :  -0.2727 0.4545 0.1818  plane waves:     262

 maximum and minimum number of plane-waves per node :       275      254

 maximum number of plane-waves:       275
 maximum index in each direction: 
   IXMAX=    4   IYMAX=    4   IZMAX=    4
   IXMIN=   -4   IYMIN=   -4   IZMIN=   -4


 serial   3D FFT for wavefunctions
 parallel 3D FFT for charge:
    minimum data exchange during FFTs selected (reduces bandwidth)


 total amount of memory used by VASP MPI-rank0    34098. kBytes
=======================================================================

   base      :      30000. kBytes
   nonl-proj :        993. kBytes
   fftplans  :       1775. kBytes
   grid      :        819. kBytes
   one-center:          3. kBytes
   wavefun   :        508. kBytes
 
     INWAV:  cpu time    0.0000: real time    0.0007
 Broyden mixing: mesh for mixing (old mesh)
   NGX =  9   NGY =  9   NGZ =  9
  (NGX  = 36   NGY  = 36   NGZ  = 36)
  gives a total of    729 points

 initial charge density was supplied:
 charge density of overlapping atoms calculated
 number of electron       4.0000000 magnetization 
 keeping initial charge density in first step


--------------------------------------------------------------------------------------------------------


 Maximum index for augmentation-charges        26021 (set IRDMAX)


--------------------------------------------------------------------------------------------------------


 First call to EWALD:  gamma=   0.727
 Maximum number of real-space cells 3x 3x 3
 Maximum number of reciprocal cells 3x 3x 3

    FEWALD:  cpu time    0.0030: real time    0.0034


--------------------------------------- Iteration      1(   1)  ---------------------------------------


    POTLOK:  cpu time    0.0120: real time    0.0293
    SETDIJ:  cpu time    0.1670: real time    0.1665
     EDDAV:  cpu time    0.2890: real time    0.2893
       DOS:  cpu time    0.0010: real time    0.0014
    --------------------------------------------
      LOOP:  cpu time    0.4689: real time    0.4868

 eigenvalue-minimisations  :  1008
 total energy-change (2. order) :-0.3280415E+01  (-0.1535920E+03)
 number of electron       4.0000000 magnetization 
 augmentation part        4.0000000 magnetization 

 Free energy of the ion-electron system (eV)
  ---------------------------------------------------
  alpha Z        PSCENC =         2.32027168
  Ewald energy   TEWEN  =      -136.42075534
  -Hartree energ DENC   =        -0.60405697
  -exchange      EXHF   =         0.00000000
  -V(xc)+E(xc)   XCENC  =        -8.81323321
  PAW double counting   =        88.12379961      -70.53051779
  entropy T*S    EENTRO =        -0.00137601
  eigenvalues    EBANDS =        19.57970686
  atomic energy  EATOM  =       103.06574623
  Solvation  Ediel_sol  =         0.00000000
  ---------------------------------------------------
  free energy    TOTEN  =        -3.28041493 eV

  energy without entropy =       -3.27903893  energy(sigma->0) =       -3.27972693


--------------------------------------------------------------------------------------------------------




--------------------------------------- Iteration      1(   2)  ---------------------------------------


     EDDAV:  cpu time    0.3789: real time    0.3895
       DOS:  cpu time    0.0000: real time    0.0012
    --------------------------------------------
      LOOP:  cpu time    0.3799: real time    0.3908

 eigenvalue-minimisations  :  1344
 total energy-change (2. order) :-0.1628802E+01  (-0.1563162E+01)
 number of electron       4.0000000 magnetization 
 augmentation part        4.0000000 magnetization 

 Free energy of the ion-electron system (eV)
  ---------------------------------------------------
  alpha Z        PSCENC =         2.32027168
  Ewald energy   TEWEN  =      -136.42075534
  -Hartree energ DENC   =        -0.60405697
  -exchange      EXHF   =         0.00000000
  -V(xc)+E(xc)   XCENC  =        -8.81323321
  PAW double counting   =        88.12379961      -70.53051779
  entropy T*S    EENTRO =        -0.00092706
  eigenvalues    EBANDS =        17.95045597
  atomic energy  EATOM  =       103.06574623
  Solvation  Ediel_sol  =         0.00000000
  ---------------------------------------------------
  free energy    TOTEN  =        -4.90921687 eV

  energy without entropy =       -4.90828981  energy(sigma->0) =       -4.90875334


--------------------------------------------------------------------------------------------------------




--------------------------------------- Iteration      1(   3)  ---------------------------------------


     EDDAV:  cpu time    0.2890: real time    0.3010
       DOS:  cpu time    0.0010: real time    0.0011
    --------------------------------------------
      LOOP:  cpu time    0.2900: real time    0.3021

 eigenvalue-minimisations  :  1008
 total energy-change (2. order) :-0.8239025E-02  (-0.8234202E-02)
 number of electron       4.0000000 magnetization 
 augmentation part        4.0000000 magnetization 

 Free energy of the ion-electron system (eV)
  ---------------------------------------------------
  alpha Z        PSCENC =         2.32027168
  Ewald energy   TEWEN  =      -136.42075534
  -Hartree energ DENC   =        -0.60405697
  -exchange      EXHF   =         0.00000000
  -V(xc)+E(xc)   XCENC  =        -8.81323321
  PAW double counting   =        88.12379961      -70.53051779
  entropy T*S    EENTRO =        -0.00084073
  eigenvalues    EBANDS =        17.94213062
  atomic energy  EATOM  =       103.06574623
  Solvation  Ediel_sol  =         0.00000000
  ---------------------------------------------------
  free energy    TOTEN  =        -4.91745589 eV

  energy without entropy =       -4.91661516  energy(sigma->0) =       -4.91703553


--------------------------------------------------------------------------------------------------------




--------------------------------------- Iteration      1(   4)  ---------------------------------------


     EDDAV:  cpu time    0.4399: real time    0.4466
       DOS:  cpu time    0.0000: real time    0.0012
    --------------------------------------------
      LOOP:  cpu time    0.4399: real time    0.4478

 eigenvalue-minimisations  :  1552
 total energy-change (2. order) :-0.7720873E-05  (-0.7720051E-05)
 number of electron       4.0000000 magnetization 
 augmentation part        4.0000000 magnetization 

 Free energy of the ion-electron system (eV)
  ---------------------------------------------------
  alpha Z        PSCENC =         2.32027168
  Ewald energy   TEWEN  =      -136.42075534
  -Hartree energ DENC   =        -0.60405697
  -exchange      EXHF   =         0.00000000
  -V(xc)+E(xc)   XCENC  =        -8.81323321
  PAW double counting   =        88.12379961      -70.53051779
  entropy T*S    EENTRO =        -0.00084060
  eigenvalues    EBANDS =        17.94212277
  atomic energy  EATOM  =       103.06574623
  Solvation  Ediel_sol  =         0.00000000
  ---------------------------------------------------
  free energy    TOTEN  =        -4.91746362 eV

  energy without entropy =       -4.91662302  energy(sigma->0) =       -4.91704332


--------------------------------------------------------------------------------------------------------




--------------------------------------- Iteration      1(   5)  ---------------------------------------


     EDDAV:  cpu time    0.2820: real time    0.2925
       DOS:  cpu time    0.0010: real time    0.0012
    CHARGE:  cpu time    0.0250: real time    0.0247
    MIXING:  cpu time    0.0000: real time    0.0010
    --------------------------------------------
      LOOP:  cpu time    0.3070: real time    0.3194

 eigenvalue-minimisations  :   984
 total energy-change (2. order) :-0.1490818E-08  (-0.1344099E-08)
 number of electron       4.0000000 magnetization 
 augmentation part       -0.2420608 magnetization 

 Broyden mixing:
  rms(total) = 0.26287E+00    rms(broyden)= 0.26287E+00
  rms(prec ) = 0.39731E+00
  weight for this iteration     100.00

 Free energy of the ion-electron system (eV)
  ---------------------------------------------------
  alpha Z        PSCENC =         2.32027168
  Ewald energy   TEWEN  =      -136.42075534
  -Hartree energ DENC   =        -0.60405697
  -exchange      EXHF   =         0.00000000
  -V(xc)+E(xc)   XCENC  =        -8.81323321
  PAW double counting   =        88.12379961      -70.53051779
  entropy T*S    EENTRO =        -0.00084060
  eigenvalues    EBANDS =        17.94212277
  atomic energy  EATOM  =       103.06574623
  Solvation  Ediel_sol  =         0.00000000
  ---------------------------------------------------
  free energy    TOTEN  =        -4.91746362 eV

  energy without entropy =       -4.91662302  energy(sigma->0) =       -4.91704332


--------------------------------------------------------------------------------------------------------




--------------------------------------- Iteration      1(   6)  ---------------------------------------


    POTLOK:  cpu time    0.0150: real time    0.0272
    SETDIJ:  cpu time    0.1640: real time    0.1641
     EDDAV:  cpu time    0.2880: real time    0.2886
       DOS:  cpu time    0.0010: real time    0.0013
    CHARGE:  cpu time    0.0230: real time    0.0228
    MIXING:  cpu time    0.0010: real time    0.0010
    --------------------------------------------
      LOOP:  cpu time    0.4919: real time    0.5051

 eigenvalue-minimisations  :  1016
 total energy-change (2. order) : 0.1283362E-01  (-0.3917758E-03)
 number of electron       4.0000000 magnetization 
 augmentation part       -0.2442060 magnetization 

 Broyden mixing:
  rms(total) = 0.14502E+00    rms(broyden)= 0.14502E+00
  rms(prec ) = 0.22967E+00
  weight for this iteration     100.00

 eigenvalues of (default mixing * dielectric matrix)
  average eigenvalue GAMMA=   2.2195
  2.2195

 Free energy of the ion-electron system (eV)
  ---------------------------------------------------
  alpha Z        PSCENC =         2.32027168
  Ewald energy   TEWEN  =      -136.42075534
  -Hartree energ DENC   =        -0.52685595
  -exchange      EXHF   =         0.00000000
  -V(xc)+E(xc)   XCENC  =        -8.79526266
  PAW double counting   =       165.33907384     -147.74410435
  entropy T*S    EENTRO =        -0.00085535
  eigenvalues    EBANDS =        17.85811191
  atomic energy  EATOM  =       103.06574623
  Solvation  Ediel_sol  =         0.00000000
  ---------------------------------------------------
  free energy    TOTEN  =        -4.90463000 eV

  energy without entropy =       -4.90377465  energy(sigma->0) =       -4.90420233


--------------------------------------------------------------------------------------------------------




--------------------------------------- Iteration      1(   7)  ---------------------------------------


    POTLOK:  cpu time    0.0140: real time    0.0224
    SETDIJ:  cpu time    0.1640: real time    0.1639
     EDDAV:  cpu time    0.3030: real time    0.3034
       DOS:  cpu time    0.0010: real time    0.0012
    CHARGE:  cpu time    0.0220: real time    0.0228
    MIXING:  cpu time    0.0010: real time    0.0009
    --------------------------------------------
      LOOP:  cpu time    0.5059: real time    0.5145

 eigenvalue-minimisations  :  1072
 total energy-change (2. order) : 0.7342619E-02  (-0.7893806E-03)
 number of electron       4.0000000 magnetization 
 augmentation part       -0.2473167 magnetization 

 Broyden mixing:
  rms(total) = 0.13018E-01    rms(broyden)= 0.13018E-01
  rms(prec ) = 0.17203E-01
  weight for this iteration     100.00

 eigenvalues of (default mixing * dielectric matrix)
  average eigenvalue GAMMA=   2.3762
  2.3762  2.3762

 Free energy of the ion-electron system (eV)
  ---------------------------------------------------
  alpha Z        PSCENC =         2.32027168
  Ewald energy   TEWEN  =      -136.42075534
  -Hartree energ DENC   =        -0.44504341
  -exchange      EXHF   =         0.00000000
  -V(xc)+E(xc)   XCENC  =        -8.76505896
  PAW double counting   =       310.52408417     -292.93081949
  entropy T*S    EENTRO =        -0.00089068
  eigenvalues    EBANDS =        17.75517842
  atomic energy  EATOM  =       103.06574623
  Solvation  Ediel_sol  =         0.00000000
  ---------------------------------------------------
  free energy    TOTEN  =        -4.89728738 eV

  energy without entropy =       -4.89639670  energy(sigma->0) =       -4.89684204


--------------------------------------------------------------------------------------------------------




--------------------------------------- Iteration      1(   8)  ---------------------------------------


    POTLOK:  cpu time    0.0150: real time    0.0312
    SETDIJ:  cpu time    0.1650: real time    0.1643
     EDDAV:  cpu time    0.3749: real time    0.3761
       DOS:  cpu time    0.0010: real time    0.0011
    CHARGE:  cpu time    0.0230: real time    0.0228
    MIXING:  cpu time    0.0010: real time    0.0009
    --------------------------------------------
      LOOP:  cpu time    0.5789: real time    0.5965

 eigenvalue-minimisations  :  1328
 total energy-change (2. order) : 0.3472752E-04  (-0.2643261E-05)
 number of electron       4.0000000 magnetization 
 augmentation part       -0.2474101 magnetization 

 Broyden mixing:
  rms(total) = 0.15251E-02    rms(broyden)= 0.15250E-02
  rms(prec ) = 0.22638E-02
  weight for this iteration     100.00

 eigenvalues of (default mixing * dielectric matrix)
  average eigenvalue GAMMA=   2.0192
  1.0133  2.4182  2.6260

 Free energy of the ion-electron system (eV)
  ---------------------------------------------------
  alpha Z        PSCENC =         2.32027168
  Ewald energy   TEWEN  =      -136.42075534
  -Hartree energ DENC   =        -0.44621205
  -exchange      EXHF   =         0.00000000
  -V(xc)+E(xc)   XCENC  =        -8.76158575
  PAW double counting   =       296.51297647     -278.92597577
  entropy T*S    EENTRO =        -0.00089350
  eigenvalues    EBANDS =        17.75917539
  atomic energy  EATOM  =       103.06574623
  Solvation  Ediel_sol  =         0.00000000
  ---------------------------------------------------
  free energy    TOTEN  =        -4.89725265 eV

  energy without entropy =       -4.89635915  energy(sigma->0) =       -4.89680590


--------------------------------------------------------------------------------------------------------




--------------------------------------- Iteration      1(   9)  ---------------------------------------


    POTLOK:  cpu time    0.0150: real time    0.0221
    SETDIJ:  cpu time    0.1630: real time    0.1637
     EDDAV:  cpu time    0.3270: real time    0.3273
       DOS:  cpu time    0.0010: real time    0.0012
    --------------------------------------------
      LOOP:  cpu time    0.5059: real time    0.5143

 eigenvalue-minimisations  :  1144
 total energy-change (2. order) :-0.3415344E-06  (-0.3269525E-07)
 number of electron       4.0000000 magnetization 
 augmentation part       -0.2474101 magnetization 

 Free energy of the ion-electron system (eV)
  ---------------------------------------------------
  alpha Z        PSCENC =         2.32027168
  Ewald energy   TEWEN  =      -136.42075534
  -Hartree energ DENC   =        -0.44625130
  -exchange      EXHF   =         0.00000000
  -V(xc)+E(xc)   XCENC  =        -8.76108255
  PAW double counting   =       294.63211279     -277.04580740
  entropy T*S    EENTRO =        -0.00089401
  eigenvalues    EBANDS =        17.75940689
  atomic energy  EATOM  =       103.06574623
  Solvation  Ediel_sol  =         0.00000000
  ---------------------------------------------------
  free energy    TOTEN  =        -4.89725300 eV

  energy without entropy =       -4.89635899  energy(sigma->0) =       -4.89680599


--------------------------------------------------------------------------------------------------------




 average (electrostatic) potential at core
  the test charge radii are     0.9892
  (the norm of the test charge is              1.0000)
       1 -79.9525
 
 
 
 E-fermi :   9.9664     XC(G=0): -11.1851     alpha+bet :-16.5316

 Fermi energy:         9.9664107201

 k-point     1 :       0.0000    0.0000    0.0000
  band No.  band energies     occupation 
      1      -4.2949      2.00000
      2      21.2413      0.00000
      3      21.2414      0.00000
      4      21.2414      0.00000
      5      22.0561      0.00000
      6      22.0561      0.00000
      7      22.0561      0.00000
      8      27.3830      0.00000

 k-point     2 :       0.0909   -0.0000    0.0000
  band No.  band energies     occupation 
      1      -4.0547      2.00000
      2      18.1041      0.00000
      3      20.2901      0.00000
      4      20.2902      0.00000
      5      23.2680      0.00000
      6      23.2854      0.00000
      7      23.2854      0.00000
      8      27.8751      0.00000

 k-point     3 :       0.1818   -0.0000    0.0000
  band No.  band energies     occupation 
      1      -3.3358      2.00000
      2      14.2339      0.00000
      3      19.3876      0.00000
      4      19.3877      0.00000
      5      23.3285      0.00000
      6      24.2768      0.00000
      7      24.2768      0.00000
      8      27.0325      0.00000

 k-point     4 :       0.2727    0.0000    0.0000
  band No.  band energies     occupation 
      1      -2.1438      2.00000
      2      10.5428      0.00000
      3      18.8463      0.00000
      4      18.8463      0.00000
      5      23.1963      0.00000
      6      23.2046      0.00000
      7      23.2046      0.00000
      8      28.4864      0.00000

 k-point     5 :       0.3636   -0.0000    0.0000
  band No.  band energies     occupation 
      1      -0.4890      2.00000
      2       7.1852      2.00000
      3      18.6425      0.00000
      4      18.6425      0.00000
      5      21.9013      0.00000
      6      21.9013      0.00000
      7      23.2143      0.00000
      8      26.9869      0.00000

 k-point     6 :       0.4545   -0.0000    0.0000
  band No.  band energies     occupation 
      1       1.5977      2.00000
      2       4.2391      2.00000
      3      18.6565      0.00000
      4      18.6565      0.00000
      5      21.0915      0.00000
      6      21.0915      0.00000
      7      23.3626      0.00000
      8      26.0497      0.00000

 k-point     7 :       0.0909    0.0909    0.0000
  band No.  band energies     occupation 
      1      -3.9746      2.00000
      2      18.9233      0.00000
      3      18.9233      0.00000
      4      20.5157      0.00000
      5      20.5619      0.00000
      6      24.7705      0.00000
      7      24.7705      0.00000
      8      26.0097      0.00000

 k-point     8 :       0.1818    0.0909    0.0000
  band No.  band energies     occupation 
      1      -3.4154      2.00000
      2      15.6660      0.00000
      3      17.8950      0.00000
      4      19.6221      0.00000
      5      21.4247      0.00000
      6      24.1123      0.00000
      7      25.5712      0.00000
      8      26.1579      0.00000

 k-point     9 :       0.2727    0.0909    0.0000
  band No.  band energies     occupation 
      1      -2.3813      2.00000
      2      11.9256      0.00000
      3      17.2623      0.00000
      4      18.8292      0.00000
      5      21.0534      0.00000
      6      24.4375      0.00000
      7      25.6407      0.00000
      8      26.0106      0.00000

 k-point    10 :       0.3636    0.0909    0.0000
  band No.  band energies     occupation 
      1      -0.8806      2.00000
      2       8.4590      2.00000
      3      17.0340      0.00000
      4      18.0394      0.00000
      5      20.0948      0.00000
      6      24.2571      0.00000
      7      24.8936      0.00000
      8      27.8969      0.00000

 k-point    11 :       0.4545    0.0909    0.0000
  band No.  band energies     occupation 
      1       1.0687      2.00000
      2       5.3701      2.00000
      3      17.1228      0.00000
      4      17.2030      0.00000
      5      19.9381      0.00000
      6      23.0752      0.00000
      7      24.9286      0.00000
      8      28.0821      0.00000

 k-point    12 :      -0.4545    0.0909    0.0000
  band No.  band energies     occupation 
      1       2.5379      2.00000
      2       3.6144      2.00000
      3      16.3508      0.00000
      4      17.7461      0.00000
      5      20.4521      0.00000
      6      22.2883      0.00000
      7      24.7744      0.00000
      8      27.9891      0.00000

 k-point    13 :      -0.3636    0.0909    0.0000
  band No.  band energies     occupation 
      1       0.3713      2.00000
      2       6.3527      2.00000
      3      15.9116      0.00000
      4      18.6014      0.00000
      5      21.4631      0.00000
      6      21.9883      0.00000
      7      24.5199      0.00000
      8      28.6451      0.00000

 k-point    14 :      -0.2727    0.0909    0.0000
  band No.  band energies     occupation 
      1      -1.4320      2.00000
      2       9.5745      2.00000
      3      15.8661      0.00000
      4      19.6218      0.00000
      5      22.2928      0.00000
      6      22.8755      0.00000
      7      24.3670      0.00000
      8      27.8488      0.00000

 k-point    15 :      -0.1818    0.0909    0.0000
  band No.  band energies     occupation 
      1      -2.7784      2.00000
      2      13.1440      0.00000
      3      16.2346      0.00000
      4      20.6051      0.00000
      5      23.1055      0.00000
      6      24.2792      0.00000
      7      24.5050      0.00000
      8      25.5762      0.00000

 k-point    16 :      -0.0909    0.0909    0.0000
  band No.  band energies     occupation 
      1      -3.6549      2.00000
      2      16.7675      0.00000
      3      17.1713      0.00000
      4      21.3203      0.00000
      5      22.6745      0.00000
      6      23.8945      0.00000
      7      25.0175      0.00000
      8      25.9328      0.00000

 k-point    17 :       0.1818    0.1818    0.0000
  band No.  band energies     occupation 
      1      -3.0167      2.00000
      2      16.7321      0.00000
      3      16.7321      0.00000
      4      18.3311      0.00000
      5      18.5896      0.00000
      6      21.6082      0.00000
      7      28.0462      0.00000
      8      28.0462      0.00000

 k-point    18 :       0.2727    0.1818    0.0000
  band No.  band energies     occupation 
      1      -2.1427      2.00000
      2      13.6630      0.00000
      3      15.9675      0.00000
      4      17.1805      0.00000
      5      18.6504      0.00000
      6      21.1369      0.00000
      7      28.4090      0.00000
      8      28.8869      0.00000

 k-point    19 :       0.3636    0.1818    0.0000
  band No.  band energies     occupation 
      1      -0.8002      2.00000
      2      10.1519      0.00000
      3      15.6140      0.00000
      4      15.6401      0.00000
      5      18.3063      0.00000
      6      23.2847      0.00000
      7      27.1761      0.00000
      8      28.9625      0.00000

 k-point    20 :       0.4545    0.1818    0.0000
  band No.  band energies     occupation 
      1       0.9978      2.00000
      2       6.9518      2.00000
      3      14.2472      0.00000
      4      15.6728      0.00000
      5      18.3296      0.00000
      6      25.8307      0.00000
      7      25.9276      0.00000
      8      29.0210      0.00000

 k-point    21 :      -0.4545    0.1818    0.0000
  band No.  band energies     occupation 
      1       3.1631      2.00000
      2       4.2185      2.00000
      3      13.2014      0.00000
      4      16.1394      0.00000
      5      18.8322      0.00000
      6      24.9856      0.00000
      7      27.0418      0.00000
      8      30.3036      0.00000

 k-point    22 :      -0.3636    0.1818    0.0000
  band No.  band energies     occupation 
      1       1.6929      2.00000
      2       5.9691      2.00000
      3      12.5666      0.00000
      4      17.0001      0.00000
      5      19.7871      0.00000
      6      24.4355      0.00000
      7      26.8426      0.00000
      8      30.4194      0.00000

 k-point    23 :      -0.2727    0.1818    0.0000
  band No.  band energies     occupation 
      1      -0.2512      2.00000
      2       9.0245      2.00000
      3      12.3755      0.00000
      4      18.2201      0.00000
      5      21.1571      0.00000
      6      24.3183      0.00000
      7      26.4113      0.00000
      8      27.3261      0.00000

 k-point    24 :      -0.1818    0.1818    0.0000
  band No.  band energies     occupation 
      1      -1.7474      2.00000
      2      12.1314      0.00000
      3      12.9308      0.00000
      4      19.6825      0.00000
      5      22.8530      0.00000
      6      24.5159      0.00000
      7      24.7880      0.00000
      8      25.6557      0.00000

 k-point    25 :       0.2727    0.2727    0.0000
  band No.  band energies     occupation 
      1      -1.4299      2.00000
      2      15.0369      0.00000
      3      15.0659      0.00000
      4      15.0659      0.00000
      5      16.5039      0.00000
      6      18.9115      0.00000
      7      31.2133      0.00000
      8      31.2134      0.00000

 k-point    26 :       0.3636    0.2727    0.0000
  band No.  band energies     occupation 
      1      -0.2486      2.00000
      2      12.1583      0.00000
      3      13.1697      0.00000
      4      14.5761      0.00000
      5      16.8960      0.00000
      6      19.6149      0.00000
      7      30.3392      0.00000
      8      31.9382      0.00000

 k-point    27 :       0.4545    0.2727    0.0000
  band No.  band energies     occupation 
      1       1.3906      2.00000
      2       8.9427      2.00000
      3      11.4952      0.00000
      4      14.5023      0.00000
      5      17.0055      0.00000
      6      22.2850      0.00000
      7      29.1403      0.00000
      8      31.6207      0.00000

 k-point    28 :      -0.4545    0.2727    0.0000
  band No.  band energies     occupation 
      1       3.4588      2.00000
      2       6.0457      2.00000
      3      10.2484      0.00000
      4      14.8437      0.00000
      5      17.4201      0.00000
      6      25.4317      0.00000
      7      28.1246      0.00000
      8      30.8549      0.00000

 k-point    29 :      -0.3636    0.2727    0.0000
  band No.  band energies     occupation 
      1       3.4600      2.00000
      2       6.0251      2.00000
      3       9.4583      2.00000
      4      15.5944      0.00000
      5      18.2643      0.00000
      6      27.4324      0.00000
      7      28.3821      0.00000
      8      29.9820      0.00000

 k-point    30 :      -0.2727    0.2727    0.0000
  band No.  band energies     occupation 
      1       1.3885      2.00000
      2       8.5508      2.00000
      3       9.4785      2.00000
      4      16.7387      0.00000
      5      19.5315      0.00000
      6      26.8993      0.00000
      7      27.5179      0.00000
      8      28.3041      0.00000

 k-point    31 :       0.3636    0.3636    0.0000
  band No.  band energies     occupation 
      1       0.7695      2.00000
      2      10.8511      0.00000
      3      13.9483      0.00000
      4      13.9483      0.00000
      5      15.2522      0.00000
      6      17.6105      0.00000
      7      33.0226      0.00000
      8      33.9734      0.00000

 k-point    32 :       0.4545    0.3636    0.0000
  band No.  band energies     occupation 
      1       2.2438      2.00000
      2       9.0000      2.00000
      3      11.3759      0.00000
      4      13.7373      0.00000
      5      15.9544      0.00000
      6      18.7540      0.00000
      7      32.4171      0.00000
      8      34.3494      0.00000

 k-point    33 :      -0.4545    0.3636    0.0000
  band No.  band energies     occupation 
      1       4.1461      2.00000
      2       7.5216      2.00000
      3       8.4898      2.00000
      4      13.9440      0.00000
      5      16.3843      0.00000
      6      21.7628      0.00000
      7      31.4149      0.00000
      8      33.4493      0.00000

 k-point    34 :      -0.3636    0.3636    0.0000
  band No.  band energies     occupation 
      1       5.6082      2.00000
      2       6.1460      2.00000
      3       7.1592      2.00000
      4      14.5658      0.00000
      5      17.1176      0.00000
      6      25.2389      0.00000
      7      30.2568      0.00000
      8      31.4710      0.00000

 k-point    35 :       0.4545    0.4545    0.0000
  band No.  band energies     occupation 
      1       3.5390      2.00000
      2       7.0086      2.00000
      3      13.3882      0.00000
      4      13.3882      0.00000
      5      14.6214      0.00000
      6      16.9995      0.00000
      7      34.4632      0.00000
      8      35.9764      0.00000

 k-point    36 :      -0.4545    0.4545    0.0000
  band No.  band energies     occupation 
      1       4.9414      2.00000
      2       5.7697      2.00000
      3      11.0691      0.00000
      4      13.4573      0.00000
      5      15.6427      0.00000
      6      18.4666      0.00000
      7      33.8951      0.00000
      8      35.4723      0.00000

 k-point    37 :       0.2727    0.1818    0.0909
  band No.  band energies     occupation 
      1      -2.6987      2.00000
      2      14.4737      0.00000
      3      15.0588      0.00000
      4      19.5703      0.00000
      5      21.1091      0.00000
      6      22.7336      0.00000
      7      26.3439      0.00000
      8      26.9989      0.00000

 k-point    38 :       0.3636    0.1818    0.0909
  band No.  band energies     occupation 
      1      -1.5102      2.00000
      2      11.0975      0.00000
      3      14.3119      0.00000
      4      18.0592      0.00000
      5      21.1885      0.00000
      6      23.8322      0.00000
      7      25.2583      0.00000
      8      27.5624      0.00000

 k-point    39 :       0.4545    0.1818    0.0909
  band No.  band energies     occupation 
      1       0.1398      2.00000
      2       7.7771      2.00000
      3      14.2086      0.00000
      4      16.5958      0.00000
      5      21.0403      0.00000
      6      23.4283      0.00000
      7      26.3993      0.00000
      8      28.2949      0.00000

 k-point    40 :      -0.4545    0.1818    0.0909
  band No.  band energies     occupation 
      1       2.2218      2.00000
      2       4.8456      2.00000
      3      14.4782      0.00000
      4      15.5144      0.00000
      5      21.2084      0.00000
      6      22.4901      0.00000
      7      27.0973      0.00000
      8      30.4172      0.00000

 k-point    41 :       0.3636    0.2727    0.0909
  band No.  band energies     occupation 
      1      -1.1147      2.00000
      2      12.7141      0.00000
      3      13.3430      0.00000
      4      15.5646      0.00000
      5      19.4164      0.00000
      6      20.7782      0.00000
      7      27.9292      0.00000
      8      30.6259      0.00000

 k-point    42 :       0.4545    0.2727    0.0909
  band No.  band energies     occupation 
      1       0.3769      2.00000
      2       9.6076      2.00000
      3      12.7934      0.00000
      4      13.8945      0.00000
      5      19.7650      0.00000
      6      22.8347      0.00000
      7      26.6682      0.00000
      8      31.1081      0.00000

 k-point    43 :      -0.4545    0.2727    0.0909
  band No.  band energies     occupation 
      1       2.3145      2.00000
      2       6.5689      2.00000
      3      12.2504      0.00000
      4      13.2680      0.00000
      5      20.0194      0.00000
      6      24.9343      0.00000
      7      26.3772      0.00000
      8      30.7724      0.00000

 k-point    44 :      -0.3636    0.2727    0.0909
  band No.  band energies     occupation 
      1       3.7853      2.00000
      2       4.8159      2.00000
      3      11.3901      0.00000
      4      13.8268      0.00000
      5      20.6471      0.00000
      6      24.4148      0.00000
      7      28.9060      0.00000
      8      29.4568      0.00000

 k-point    45 :      -0.2727    0.2727    0.0909
  band No.  band energies     occupation 
      1       1.6207      2.00000
      2       7.5234      2.00000
      3      10.9163      0.00000
      4      14.8785      0.00000
      5      21.6314      0.00000
      6      23.9890      0.00000
      7      26.8158      0.00000
      8      30.0407      0.00000

 k-point    46 :      -0.1818    0.2727    0.0909
  band No.  band energies     occupation 
      1      -0.1719      2.00000
      2      10.3466      0.00000
      3      11.2132      0.00000
      4      16.3367      0.00000
      5      22.7716      0.00000
      6      23.4337      0.00000
      7      24.6885      0.00000
      8      29.3086      0.00000

 k-point    47 :       0.4545    0.3636    0.0909
  band No.  band energies     occupation 
      1       1.0807      2.00000
      2      11.0528      0.00000
      3      11.5310      0.00000
      4      12.4432      0.00000
      5      18.2458      0.00000
      6      19.6600      0.00000
      7      29.8877      0.00000
      8      33.7909      0.00000

 k-point    48 :      -0.4545    0.3636    0.0909
  band No.  band energies     occupation 
      1       2.8586      2.00000
      2       8.6522      2.00000
      3       9.6837      2.00000
      4      12.1150      0.00000
      5      18.9074      0.00000
      6      22.1037      0.00000
      7      28.7868      0.00000
      8      33.0857      0.00000

 k-point    49 :      -0.3636    0.3636    0.0909
  band No.  band energies     occupation 
      1       5.0069      2.00000
      2       5.9867      2.00000
      3       8.5695      2.00000
      4      12.5876      0.00000
      5      19.4743      0.00000
      6      25.3257      0.00000
      7      27.9253      0.00000
      8      30.4383      0.00000

 k-point    50 :      -0.2727    0.3636    0.0909
  band No.  band energies     occupation 
      1       3.5449      2.00000
      2       7.3494      2.00000
      3       8.2851      2.00000
      4      13.5204      0.00000
      5      20.4026      0.00000
      6      26.8816      0.00000
      7      27.0450      0.00000
      8      29.3036      0.00000

 k-point    51 :      -0.4545    0.4545    0.0909
  band No.  band energies     occupation 
      1       3.8440      2.00000
      2       7.3000      2.00000
      3      10.9374      0.00000
      4      11.7667      0.00000
      5      17.6533      0.00000
      6      19.1045      0.00000
      7      32.1377      0.00000
      8      34.2358      0.00000

 k-point    52 :      -0.3636    0.4545    0.0909
  band No.  band energies     occupation 
      1       5.5438      2.00000
      2       6.3401      2.00000
      3       8.4853      2.00000
      4      11.8020      0.00000
      5      18.6188      0.00000
      6      21.8486      0.00000
      7      31.2232      0.00000
      8      31.2783      0.00000

 k-point    53 :      -0.4545    0.3636    0.1818
  band No.  band energies     occupation 
      1       2.0106      2.00000
      2       9.1506      2.00000
      3       9.9893      0.51646
      4      12.1912      0.00000
      5      22.3322      0.00000
      6      22.9045      0.00000
      7      25.5479      0.00000
      8      32.5811      0.00000

 k-point    54 :      -0.3636    0.3636    0.1818
  band No.  band energies     occupation 
      1       4.0729      2.00000
      2       6.6206      2.00000
      3       9.9224      1.78690
      4      11.0139      0.00000
      5      22.7931      0.00000
      6      24.0672      0.00000
      7      26.3212      0.00000
      8      29.8527      0.00000

 k-point    55 :      -0.3636    0.4545    0.1818
  band No.  band energies     occupation 
      1       4.7529      2.00000
      2       8.0950      2.00000
      3       8.5512      2.00000
      4       9.6734      2.00000
      5      21.7650      0.00000
      6      22.5989      0.00000
      7      27.7422      0.00000
      8      30.5098      0.00000

 k-point    56 :      -0.2727    0.4545    0.1818
  band No.  band energies     occupation 
      1       6.2074      2.00000
      2       6.7481      2.00000
      3       7.6695      2.00000
      4       9.8709      1.99308
      5      22.7240      0.00000
      6      25.3404      0.00000
      7      26.3639      0.00000
      8      27.9813      0.00000


--------------------------------------------------------------------------------------------------------


 soft charge-density along one line, spin component           1
         0         1         2         3         4         5         6         7         8         9
 total charge-density along one line
 
 pseudopotential strength for first ion, spin component:           1
 17.972  25.072  -0.000  -0.000   0.000  -0.000  -0.000   0.000
 25.072  34.981  -0.000  -0.000   0.000  -0.000  -0.000   0.000
 -0.000  -0.000   4.096  -0.000  -0.000   7.631  -0.000  -0.000
 -0.000  -0.000  -0.000   4.096  -0.000  -0.000   7.631  -0.000
  0.000   0.000  -0.000  -0.000   4.096  -0.000  -0.000   7.631
 -0.000  -0.000   7.631  -0.000  -0.000  14.227  -0.000  -0.000
 -0.000  -0.000  -0.000   7.631  -0.000  -0.000  14.227  -0.000
  0.000   0.000  -0.000  -0.000   7.631  -0.000  -0.000  14.227
 total augmentation occupancy for first ion, spin component:           1
  4.842  -2.032   0.000   0.000   0.000   0.000   0.000   0.000
 -2.032   1.327   0.000   0.000   0.000   0.000   0.000   0.000
  0.000   0.000   2.276  -0.000  -0.000  -0.537   0.000   0.000
  0.000   0.000  -0.000   2.276  -0.000   0.000  -0.537   0.000
  0.000   0.000  -0.000  -0.000   2.276   0.000   0.000  -0.537
  0.000   0.000  -0.537   0.000   0.000   0.140  -0.000  -0.000
  0.000   0.000   0.000  -0.537   0.000  -0.000   0.140  -0.000
  0.000   0.000   0.000   0.000  -0.537  -0.000  -0.000   0.140


------------------------ aborting loop because EDIFF is reached ----------------------------------------


    CHARGE:  cpu time    0.0230: real time    0.0228
    FORLOC:  cpu time    0.0000: real time    0.0006
    FORNL :  cpu time    0.0520: real time    0.0517
    STRESS:  cpu time    0.2790: real time    0.2787
    FORCOR:  cpu time    0.0120: real time    0.0137
    FORHAR:  cpu time    0.0030: real time    0.0027
    MIXING:  cpu time    0.0000: real time    0.0007
    OFIELD:  cpu time    0.0010: real time    0.0002

  FORCE on cell =-STRESS in cart. coord.  units (eV):
  Direction    XX          YY          ZZ          XY          YZ          ZX
  --------------------------------------------------------------------------------------
  Alpha Z     2.32027     2.32027     2.32027
  Ewald     -45.47359   -45.47358   -45.47359     0.00000     0.00001     0.00001
  Hartree     0.14873     0.14873     0.14873     0.00000     0.00000     0.00000
  E(xc)     -12.68538   -12.68538   -12.68538    -0.00000    -0.00000    -0.00000
  Local      -4.99076    -4.99076    -4.99076     0.00000     0.00000     0.00001
  n-local    36.41695    38.68130    40.16007    -0.18331    -0.01016    -0.01175
  augment    -6.30448    -6.30447    -6.30448    -0.00000    -0.00000    -0.00001
  Kinetic    51.33611    26.04863     8.24690    -4.33988     2.82791    -0.34693
  Fock        0.00000     0.00000     0.00000     0.00000     0.00000     0.00000
  -------------------------------------------------------------------------------------
  Total      -0.02189    -0.02189    -0.02189     0.00000     0.00000     0.00000
  in kB      -2.41715    -2.41715    -2.41715     0.00000     0.00000     0.00000
  external pressure =       -2.42 kB  Pullay stress =        0.00 kB


 VOLUME and BASIS-vectors are now :
 -----------------------------------------------------------------------------
  energy-cutoff  :      400.00
  volume of cell :       14.51
      direct lattice vectors                 reciprocal lattice vectors
     2.370868950  0.000000000  1.368820680     0.421786282 -0.149123986  0.000000000
     0.790289650  2.235276450  1.368820680     0.000000000  0.447371957  0.000000000
     0.000000000  0.000000000  2.737643380    -0.210892985 -0.149123876  0.365277672

  length of vectors
     2.737643080  2.737642890  2.737643380     0.447371916  0.447371957  0.447371835


 FORCES acting on ions
    electron-ion (+dipol)            ewald-force                    non-local-force                 convergence-correction
 -----------------------------------------------------------------------------------------------
   0.120E-14 0.207E-15 0.312E-15   0.269E-15 0.112E-15 0.265E-16   0.000E+00 0.000E+00 -.331E-23   -.151E-16 -.822E-17 -.380E-17
 -----------------------------------------------------------------------------------------------
   0.120E-14 0.207E-15 0.312E-15   0.269E-15 0.112E-15 0.265E-16   0.000E+00 0.000E+00 -.331E-23   -.151E-16 -.822E-17 -.380E-17
 
 
 POSITION                                       TOTAL-FORCE (eV/Angst)
 -----------------------------------------------------------------------------------
      0.00000      0.00000      0.00000         0.000000      0.000000      0.000000
 -----------------------------------------------------------------------------------
    total drift:                                0.000000      0.000000      0.000000


--------------------------------------------------------------------------------------------------------



  FREE ENERGIE OF THE ION-ELECTRON SYSTEM (eV)
  ---------------------------------------------------
  free  energy   TOTEN  =        -4.89725300 eV

  energy  without entropy=       -4.89635899  energy(sigma->0) =       -4.89680599
 


--------------------------------------------------------------------------------------------------------


    POTLOK:  cpu time    0.1790: real time    0.1862


--------------------------------------------------------------------------------------------------------




--------------------------------------------------------------------------------------------------------


    WAVPRE:  cpu time    0.0040: real time    0.0117
    FEWALD:  cpu time    0.0010: real time    0.0002
    GENKIN:  cpu time    0.0120: real time    0.0128
    ORTHCH:  cpu time    0.0080: real time    0.0076
     LOOP+:  cpu time    4.7363: real time    4.9215


--------------------------------------- Iteration      2(   1)  ---------------------------------------


    POTLOK:  cpu time    0.0140: real time    0.0172
    SETDIJ:  cpu time    0.1640: real time    0.1643
     EDDAV:  cpu time    0.2830: real time    0.2840
       DOS:  cpu time    0.0010: real time    0.0012
    CHARGE:  cpu time    0.0230: real time    0.0228
    MIXING:  cpu time    0.0000: real time    0.0008
    --------------------------------------------
      LOOP:  cpu time    0.4859: real time    0.4906

 eigenvalue-minimisations  :  1000
 total energy-change (2. order) :-0.4540431E-04  (-0.1079993E-03)
 number of electron       4.0000000 magnetization 
 augmentation part       -0.2471993 magnetization 

 Broyden mixing:
  rms(total) = 0.30878E-02    rms(broyden)= 0.30877E-02
  rms(prec ) = 0.91098E-02
  weight for this iteration     100.00

 Free energy of the ion-electron system (eV)
  ---------------------------------------------------
  alpha Z        PSCENC =         2.32763745
  Ewald energy   TEWEN  =      -136.56496004
  -Hartree energ DENC   =        -0.44666903
  -exchange      EXHF   =         0.00000000
  -V(xc)+E(xc)   XCENC  =        -8.75299552
  PAW double counting   =       294.67945293     -277.09286691
  entropy T*S    EENTRO =        -0.00086000
  eigenvalues    EBANDS =        17.88821684
  atomic energy  EATOM  =       103.06574623
  Solvation  Ediel_sol  =         0.00000000
  ---------------------------------------------------
  free energy    TOTEN  =        -4.89729806 eV

  energy without entropy =       -4.89643806  energy(sigma->0) =       -4.89686806


--------------------------------------------------------------------------------------------------------




--------------------------------------- Iteration      2(   2)  ---------------------------------------


    POTLOK:  cpu time    0.0160: real time    0.0312
    SETDIJ:  cpu time    0.1640: real time    0.1642
     EDDAV:  cpu time    0.3549: real time    0.3555
       DOS:  cpu time    0.0010: real time    0.0012
    CHARGE:  cpu time    0.0230: real time    0.0228
    MIXING:  cpu time    0.0010: real time    0.0008
    --------------------------------------------
      LOOP:  cpu time    0.5589: real time    0.5757

 eigenvalue-minimisations  :  1248
 total energy-change (2. order) : 0.1129226E-04  (-0.6243097E-06)
 number of electron       4.0000000 magnetization 
 augmentation part       -0.2472358 magnetization 

 Broyden mixing:
  rms(total) = 0.17309E-02    rms(broyden)= 0.17309E-02
  rms(prec ) = 0.53735E-02
  weight for this iteration     100.00

 eigenvalues of (default mixing * dielectric matrix)
  average eigenvalue GAMMA=   2.2381
  2.2381

 Free energy of the ion-electron system (eV)
  ---------------------------------------------------
  alpha Z        PSCENC =         2.32763745
  Ewald energy   TEWEN  =      -136.56496004
  -Hartree energ DENC   =        -0.44453740
  -exchange      EXHF   =         0.00000000
  -V(xc)+E(xc)   XCENC  =        -8.75261736
  PAW double counting   =       295.83719797     -278.25069681
  entropy T*S    EENTRO =        -0.00086035
  eigenvalues    EBANDS =        17.88580355
  atomic energy  EATOM  =       103.06574623
  Solvation  Ediel_sol  =         0.00000000
  ---------------------------------------------------
  free energy    TOTEN  =        -4.89728677 eV

  energy without entropy =       -4.89642642  energy(sigma->0) =       -4.89685659


--------------------------------------------------------------------------------------------------------




--------------------------------------- Iteration      2(   3)  ---------------------------------------


    POTLOK:  cpu time    0.0150: real time    0.0223
    SETDIJ:  cpu time    0.1630: real time    0.1641
     EDDAV:  cpu time    0.2820: real time    0.2819
       DOS:  cpu time    0.0010: real time    0.0014
    CHARGE:  cpu time    0.0220: real time    0.0228
    MIXING:  cpu time    0.0010: real time    0.0009
    --------------------------------------------
      LOOP:  cpu time    0.4849: real time    0.4934

 eigenvalue-minimisations  :   992
 total energy-change (2. order) : 0.6154752E-05  (-0.7514828E-06)
 number of electron       4.0000000 magnetization 
 augmentation part       -0.2473316 magnetization 

 Broyden mixing:
  rms(total) = 0.53285E-03    rms(broyden)= 0.53285E-03
  rms(prec ) = 0.53996E-03
  weight for this iteration     100.00

 eigenvalues of (default mixing * dielectric matrix)
  average eigenvalue GAMMA=   1.2678
  2.1697  0.3660

 Free energy of the ion-electron system (eV)
  ---------------------------------------------------
[...]
      1       3.1893      2.00000
      2       4.2402      2.00000
      3      13.2438      0.00000
      4      16.1872      0.00000
      5      18.8769      0.00000
      6      25.0414      0.00000
      7      27.1094      0.00000
      8      30.3698      0.00000

 k-point    22 :      -0.3636    0.1818    0.0000
  band No.  band energies     occupation 
      1       1.7143      2.00000
      2       5.9960      2.00000
      3      12.6075      0.00000
      4      17.0499      0.00000
      5      19.8341      0.00000
      6      24.4899      0.00000
      7      26.9086      0.00000
      8      30.4832      0.00000

 k-point    23 :      -0.2727    0.1818    0.0000
  band No.  band energies     occupation 
      1      -0.2336      2.00000
      2       9.0565      2.00000
      3      12.4163      0.00000
      4      18.2732      0.00000
      5      21.2067      0.00000
      6      24.3717      0.00000
      7      26.4757      0.00000
      8      27.3845      0.00000

 k-point    24 :      -0.1818    0.1818    0.0000
  band No.  band energies     occupation 
      1      -1.7325      2.00000
      2      12.1659      0.00000
      3      12.9755      0.00000
      4      19.7409      0.00000
      5      22.9059      0.00000
      6      24.5653      0.00000
      7      24.8439      0.00000
      8      25.7189      0.00000

 k-point    25 :       0.2727    0.2727    0.0000
  band No.  band energies     occupation 
      1      -1.4145      2.00000
      2      15.0877      0.00000
      3      15.1111      0.00000
      4      15.1111      0.00000
      5      16.5376      0.00000
      6      18.9595      0.00000
      7      31.2853      0.00000
      8      31.2853      0.00000

 k-point    26 :       0.3636    0.2727    0.0000
  band No.  band energies     occupation 
      1      -0.2311      2.00000
      2      12.1982      0.00000
      3      13.2112      0.00000
      4      14.6205      0.00000
      5      16.9348      0.00000
      6      19.6666      0.00000
      7      30.4049      0.00000
      8      32.0112      0.00000

 k-point    27 :       0.4545    0.2727    0.0000
  band No.  band energies     occupation 
      1       1.4111      2.00000
      2       8.9758      2.00000
      3      11.5339      0.00000
      4      14.5468      0.00000
      5      17.0466      0.00000
      6      22.3405      0.00000
      7      29.2038      0.00000
      8      31.6930      0.00000

 k-point    28 :      -0.4545    0.2727    0.0000
  band No.  band energies     occupation 
      1       3.4834      2.00000
      2       6.0728      2.00000
      3      10.2848      0.00000
      4      14.8888      0.00000
      5      17.4627      0.00000
      6      25.4924      0.00000
      7      28.1863      0.00000
      8      30.9252      0.00000

 k-point    29 :      -0.3636    0.2727    0.0000
  band No.  band energies     occupation 
      1       3.4849      2.00000
      2       6.0513      2.00000
      3       9.4938      2.00000
      4      15.6410      0.00000
      5      18.3088      0.00000
      6      27.4932      0.00000
      7      28.4487      0.00000
      8      30.0502      0.00000

 k-point    30 :      -0.2727    0.2727    0.0000
  band No.  band energies     occupation 
      1       1.4091      2.00000
      2       8.5789      2.00000
      3       9.5172      2.00000
      4      16.7878      0.00000
      5      19.5784      0.00000
      6      26.9620      0.00000
      7      27.5730      0.00000
      8      28.3709      0.00000

 k-point    31 :       0.3636    0.3636    0.0000
  band No.  band energies     occupation 
      1       0.7888      2.00000
      2      10.8907      0.00000
      3      13.9917      0.00000
      4      13.9917      0.00000
      5      15.2836      0.00000
      6      17.6608      0.00000
      7      33.0900      0.00000
      8      34.0483      0.00000

 k-point    32 :       0.4545    0.3636    0.0000
  band No.  band energies     occupation 
      1       2.2655      2.00000
      2       9.0363      2.00000
      3      11.4108      0.00000
      4      13.7804      0.00000
      5      15.9924      0.00000
      6      18.8054      0.00000
      7      32.4856      0.00000
      8      34.4242      0.00000

 k-point    33 :      -0.4545    0.3636    0.0000
  band No.  band energies     occupation 
      1       4.1709      2.00000
      2       7.5575      2.00000
      3       8.5175      2.00000
      4      13.9874      0.00000
      5      16.4249      0.00000
      6      21.8176      0.00000
      7      31.4825      0.00000
      8      33.5227      0.00000

 k-point    34 :      -0.3636    0.3636    0.0000
  band No.  band energies     occupation 
      1       5.6395      2.00000
      2       6.1700      2.00000
      3       7.1902      2.00000
      4      14.6104      0.00000
      5      17.1600      0.00000
      6      25.2991      0.00000
      7      30.3245      0.00000
      8      31.5340      0.00000

 k-point    35 :       0.4545    0.4545    0.0000
  band No.  band energies     occupation 
      1       3.5625      2.00000
      2       7.0411      2.00000
      3      13.4307      0.00000
      4      13.4307      0.00000
      5      14.6517      0.00000
      6      17.0500      0.00000
      7      34.5341      0.00000
      8      36.0515      0.00000

 k-point    36 :      -0.4545    0.4545    0.0000
  band No.  band energies     occupation 
      1       4.9635      2.00000
      2       5.8040      2.00000
      3      11.1038      0.00000
      4      13.4999      0.00000
      5      15.6804      0.00000
      6      18.5178      0.00000
      7      33.9664      0.00000
      8      35.5414      0.00000

 k-point    37 :       0.2727    0.1818    0.0909
  band No.  band energies     occupation 
      1      -2.6855      2.00000
      2      14.5128      0.00000
      3      15.1068      0.00000
      4      19.6310      0.00000
      5      21.1560      0.00000
      6      22.7836      0.00000
      7      26.4054      0.00000
      8      27.0618      0.00000

 k-point    38 :       0.3636    0.1818    0.0909
  band No.  band energies     occupation 
      1      -1.4948      2.00000
      2      11.1332      0.00000
      3      14.3562      0.00000
      4      18.1119      0.00000
      5      21.2364      0.00000
      6      23.8901      0.00000
      7      25.3148      0.00000
      8      27.6256      0.00000

 k-point    39 :       0.4545    0.1818    0.0909
  band No.  band energies     occupation 
      1       0.1582      2.00000
      2       7.8074      2.00000
      3      14.2530      0.00000
      4      16.6434      0.00000
      5      21.0902      0.00000
      6      23.4827      0.00000
      7      26.4626      0.00000
      8      28.3576      0.00000

 k-point    40 :      -0.4545    0.1818    0.0909
  band No.  band energies     occupation 
      1       2.2446      2.00000
      2       4.8701      2.00000
      3      14.5250      0.00000
      4      15.5575      0.00000
      5      21.2608      0.00000
      6      22.5408      0.00000
      7      27.1646      0.00000
      8      30.4815      0.00000

 k-point    41 :       0.3636    0.2727    0.0909
  band No.  band energies     occupation 
      1      -1.0987      2.00000
      2      12.7499      0.00000
      3      13.3894      0.00000
      4      15.6100      0.00000
      5      19.4605      0.00000
      6      20.8319      0.00000
      7      27.9919      0.00000
      8      30.6956      0.00000

 k-point    42 :       0.4545    0.2727    0.0909
  band No.  band energies     occupation 
      1       0.3956      2.00000
      2       9.6409      2.00000
      3      12.8374      0.00000
      4      13.9339      0.00000
      5      19.8125      0.00000
      6      22.8914      0.00000
      7      26.7278      0.00000
      8      31.1788      0.00000

 k-point    43 :      -0.4545    0.2727    0.0909
  band No.  band energies     occupation 
      1       2.3369      2.00000
      2       6.5970      2.00000
      3      12.2934      0.00000
      4      13.3058      0.00000
      5      20.0686      0.00000
      6      24.9935      0.00000
      7      26.4366      0.00000
      8      30.8430      0.00000

 k-point    44 :      -0.3636    0.2727    0.0909
  band No.  band energies     occupation 
      1       3.8125      2.00000
      2       4.8386      2.00000
      3      11.4295      0.00000
      4      13.8675      0.00000
      5      20.6981      0.00000
      6      24.4708      0.00000
      7      28.9727      0.00000
      8      29.5234      0.00000

 k-point    45 :      -0.2727    0.2727    0.0909
  band No.  band energies     occupation 
      1       1.6418      2.00000
      2       7.5528      2.00000
      3      10.9548      0.00000
      4      14.9219      0.00000
      5      21.6850      0.00000
      6      24.0430      0.00000
      7      26.8773      0.00000
      8      30.1083      0.00000

 k-point    46 :      -0.1818    0.2727    0.0909
  band No.  band energies     occupation 
      1      -0.1542      2.00000
      2      10.3779      0.00000
      3      11.2552      0.00000
      4      16.3835      0.00000
      5      22.8291      0.00000
      6      23.4853      0.00000
      7      24.7449      0.00000
      8      29.3742      0.00000

 k-point    47 :       0.4545    0.3636    0.0909
  band No.  band energies     occupation 
      1       1.1005      2.00000
      2      11.0955      0.00000
      3      11.5647      0.00000
      4      12.4809      0.00000
      5      18.2880      0.00000
      6      19.7140      0.00000
      7      29.9530      0.00000
      8      33.8652      0.00000

 k-point    48 :      -0.4545    0.3636    0.0909
  band No.  band energies     occupation 
      1       2.8816      2.00000
      2       8.6861      2.00000
      3       9.7178      2.00000
      4      12.1527      0.00000
      5      18.9539      0.00000
      6      22.1595      0.00000
      7      28.8501      0.00000
      8      33.1578      0.00000

 k-point    49 :      -0.3636    0.3636    0.0909
  band No.  band energies     occupation 
      1       5.0352      2.00000
      2       6.0127      2.00000
      3       8.6029      2.00000
      4      12.6266      0.00000
      5      19.5228      0.00000
      6      25.3864      0.00000
      7      27.9865      0.00000
      8      30.5054      0.00000

 k-point    50 :      -0.2727    0.3636    0.0909
  band No.  band energies     occupation 
      1       3.5696      2.00000
      2       7.3755      2.00000
      3       8.3214      2.00000
      4      13.5611      0.00000
      5      20.4532      0.00000
      6      26.9396      0.00000
      7      27.1089      0.00000
      8      29.3695      0.00000

 k-point    51 :      -0.4545    0.4545    0.0909
  band No.  band energies     occupation 
      1       3.8681      2.00000
      2       7.3334      2.00000
      3      10.9700      0.00000
      4      11.8062      0.00000
      5      17.6945      0.00000
      6      19.1582      0.00000
      7      32.2065      0.00000
      8      34.3077      0.00000

 k-point    52 :      -0.3636    0.4545    0.0909
  band No.  band energies     occupation 
      1       5.5669      2.00000
      2       6.3771      2.00000
      3       8.5141      2.00000
      4      11.8398      0.00000
      5      18.6648      0.00000
      6      21.9040      0.00000
      7      31.2892      0.00000
      8      31.3473      0.00000

 k-point    53 :      -0.4545    0.3636    0.1818
  band No.  band energies     occupation 
      1       2.0322      2.00000
      2       9.1798      2.00000
      3      10.0308      0.49663
      4      12.2277      0.00000
      5      22.3821      0.00000
      6      22.9649      0.00000
      7      25.6048      0.00000
      8      32.6523      0.00000

 k-point    54 :      -0.3636    0.3636    0.1818
  band No.  band energies     occupation 
      1       4.0987      2.00000
      2       6.6482      2.00000
      3       9.9619      1.79506
      4      11.0466      0.00000
      5      22.8498      0.00000
      6      24.1218      0.00000
      7      26.3814      0.00000
      8      29.9191      0.00000

 k-point    55 :      -0.3636    0.4545    0.1818
  band No.  band energies     occupation 
      1       4.7790      2.00000
      2       8.1333      2.00000
      3       8.5794      2.00000
      4       9.7054      2.00000
      5      21.8139      0.00000
      6      22.6587      0.00000
      7      27.8032      0.00000
      8      30.5767      0.00000

 k-point    56 :      -0.2727    0.4545    0.1818
  band No.  band energies     occupation 
      1       6.2388      2.00000
      2       6.7732      2.00000
      3       7.7042      2.00000
      4       9.9032      1.99658
      5      22.7791      0.00000
      6      25.4015      0.00000
      7      26.4211      0.00000
      8      28.0445      0.00000


--------------------------------------------------------------------------------------------------------


 soft charge-density along one line, spin component           1
         0         1         2         3         4         5         6         7         8         9
 total charge-density along one line
 
 pseudopotential strength for first ion, spin component:           1
 17.968  25.066   0.000   0.000   0.000   0.000   0.000   0.000
 25.066  34.973   0.000   0.000   0.000   0.000   0.000   0.000
  0.000   0.000   4.096  -0.000  -0.000   7.630  -0.000  -0.000
  0.000   0.000  -0.000   4.096  -0.000  -0.000   7.630  -0.000
  0.000   0.000  -0.000  -0.000   4.096  -0.000  -0.000   7.630
  0.000   0.000   7.630  -0.000  -0.000  14.224  -0.000  -0.000
  0.000   0.000  -0.000   7.630  -0.000  -0.000  14.224  -0.000
  0.000   0.000  -0.000  -0.000   7.630  -0.000  -0.000  14.224
 total augmentation occupancy for first ion, spin component:           1
  4.859  -2.043   0.000   0.000   0.000   0.000   0.000   0.000
 -2.043   1.333   0.000   0.000   0.000   0.000   0.000   0.000
  0.000   0.000   2.285  -0.000  -0.000  -0.540   0.000   0.000
  0.000   0.000  -0.000   2.285  -0.000   0.000  -0.540   0.000
  0.000   0.000  -0.000  -0.000   2.285   0.000   0.000  -0.540
  0.000   0.000  -0.540   0.000   0.000   0.141  -0.000  -0.000
  0.000   0.000   0.000  -0.540   0.000  -0.000   0.141  -0.000
  0.000   0.000   0.000   0.000  -0.540  -0.000  -0.000   0.141


------------------------ aborting loop because EDIFF is reached ----------------------------------------


    CHARGE:  cpu time    0.0220: real time    0.0228
    FORLOC:  cpu time    0.0010: real time    0.0006
    FORNL :  cpu time    0.0510: real time    0.0519
    STRESS:  cpu time    0.2790: real time    0.2790
    FORCOR:  cpu time    0.0140: real time    0.0136
    FORHAR:  cpu time    0.0010: real time    0.0027
    MIXING:  cpu time    0.0000: real time    0.0007
    OFIELD:  cpu time    0.0010: real time    0.0002

  FORCE on cell =-STRESS in cart. coord.  units (eV):
  Direction    XX          YY          ZZ          XY          YZ          ZX
  --------------------------------------------------------------------------------------
  Alpha Z     2.32637     2.32637     2.32637
  Ewald     -45.51340   -45.51340   -45.51340     0.00000     0.00001     0.00001
  Hartree     0.14745     0.14745     0.14745     0.00000     0.00000     0.00000
  E(xc)     -12.69397   -12.69397   -12.69397    -0.00000    -0.00000    -0.00000
  Local      -4.96892    -4.96892    -4.96891     0.00000     0.00000     0.00001
  n-local    36.40160    38.68761    40.17929    -0.18040    -0.01102    -0.01311
  augment    -6.30212    -6.30212    -6.30213    -0.00000    -0.00000    -0.00000
  Kinetic    51.41238    26.07919     8.25356    -4.34485     2.83593    -0.34758
  Fock        0.00000     0.00000     0.00000     0.00000     0.00000     0.00000
  -------------------------------------------------------------------------------------
  Total      -0.00005    -0.00005    -0.00005    -0.00000     0.00000     0.00000
  in kB      -0.00565    -0.00565    -0.00565    -0.00000     0.00000     0.00000
  external pressure =       -0.01 kB  Pullay stress =        0.00 kB


 VOLUME and BASIS-vectors are now :
 -----------------------------------------------------------------------------
  energy-cutoff  :      400.00
  volume of cell :       14.47
      direct lattice vectors                 reciprocal lattice vectors
     2.368794999  0.000000000  1.367623286     0.422155569 -0.149254548 -0.000000000
     0.789598333  2.233321111  1.367623286     0.000000000  0.447763645 -0.000000000
     0.000000001  0.000000001  2.735248588    -0.211077629 -0.149254438  0.365597483

  length of vectors
     2.735248288  2.735248099  2.735248588     0.447763603  0.447763645  0.447763523


 FORCES acting on ions
    electron-ion (+dipol)            ewald-force                    non-local-force                 convergence-correction
 -----------------------------------------------------------------------------------------------
   -.201E-15 0.101E-14 0.103E-14   -.227E-15 -.516E-16 0.167E-15   -.153E-25 -.425E-25 0.103E-24   -.258E-15 0.171E-15 0.219E-16
 -----------------------------------------------------------------------------------------------
   -.201E-15 0.101E-14 0.103E-14   -.227E-15 -.516E-16 0.167E-15   -.153E-25 -.425E-25 0.103E-24   -.258E-15 0.171E-15 0.219E-16
 
 
 POSITION                                       TOTAL-FORCE (eV/Angst)
 -----------------------------------------------------------------------------------
      0.00000      0.00000      0.00000        -0.000000     -0.000000      0.000000
 -----------------------------------------------------------------------------------
    total drift:                               -0.000000      0.000000      0.000000


--------------------------------------------------------------------------------------------------------



  FREE ENERGIE OF THE ION-ELECTRON SYSTEM (eV)
  ---------------------------------------------------
  free  energy   TOTEN  =        -4.89728192 eV

  energy  without entropy=       -4.89641563  energy(sigma->0) =       -4.89684877
 
 d Force = 0.0000000E+00[ 0.000E+00, 0.000E+00]  d Energy = 0.1096313E-05-0.110E-05
 d Force = 0.0000000E+00[ 0.000E+00, 0.000E+00]  d Ewald  =-0.2476422E-01 0.248E-01


--------------------------------------------------------------------------------------------------------


    POTLOK:  cpu time    0.1800: real time    0.1862


--------------------------------------------------------------------------------------------------------




--------------------------------------------------------------------------------------------------------


  
 reached required accuracy - stopping structural energy minimisation
     LOOP+:  cpu time    3.0655: real time    3.2094
    4ORBIT:  cpu time    0.0000: real time    0.0000

 total amount of memory used by VASP MPI-rank0    34098. kBytes
=======================================================================

   base      :      30000. kBytes
   nonl-proj :        993. kBytes
   fftplans  :       1775. kBytes
   grid      :        819. kBytes
   one-center:          3. kBytes
   wavefun   :        508. kBytes
 
  
  
 General timing and accounting informations for this job:
 ========================================================
  
                  Total CPU time used (sec):       11.732
                            User time (sec):       11.400
                          System time (sec):        0.332
                         Elapsed time (sec):       12.927
  
                   Maximum memory used (kb):       56084.
                   Average memory used (kb):          N/A
  
                          Minor page faults:         9673
                          Major page faults:            1
                 Voluntary context switches:        14103
