unknown system                          
           1
     2.370869    0.000000    1.368821
     0.790290    2.235276    1.368821
     0.000000    0.000000    2.737643
   Si
     1
Direct configuration=     1
   0.00000000  0.00000000  0.00000000
unknown system                          
           1
     2.368365    0.000000    1.367375
     0.789455    2.232916    1.367375
     0.000000    0.000000    2.734753
   Si
     1
Direct configuration=     2
   0.00000000  0.00000000  0.00000000
unknown system                          
           1
     2.368795    0.000000    1.367623
     0.789598    2.233321    1.367623
     0.000000    0.000000    2.735249
   Si
     1
Direct configuration=     3
   0.00000000  0.00000000  0.00000000
