   1   1   0   0
  0.1386300E+02  0.2621157E-09  0.2621157E-09  0.2621157E-09  0.5000000E-15
  1.000000000000000E-004
  CAR 
 unknown system                          
     36.23375330     -6.23295306  301      9.95582892      1.00000000
     -6.233  0.0000E+00  0.0000E+00
     -6.091  0.0000E+00  0.0000E+00
     -5.950  0.0000E+00  0.0000E+00
     -5.808  0.0000E+00  0.0000E+00
     -5.667  0.0000E+00  0.0000E+00
     -5.525  0.0000E+00  0.0000E+00
     -5.384  0.0000E+00  0.0000E+00
     -5.242  0.0000E+00  0.0000E+00
     -5.101  0.0000E+00  0.0000E+00
     -4.959  0.0000E+00  0.0000E+00
     -4.817  0.0000E+00  0.0000E+00
     -4.676  0.0000E+00  0.0000E+00
     -4.534  0.1829E-14  0.2590E-15
     -4.393  0.3485E-06  0.4933E-07
     -4.251  0.5938E-04  0.8454E-05
     -4.110  0.4886E-03  0.7762E-04
     -3.968  0.3691E-03  0.1299E-03
     -3.827  0.3459E-03  0.1788E-03
     -3.685  0.1474E-02  0.3874E-03
     -3.543  0.6699E-03  0.4823E-03
     -3.402  0.8069E-03  0.5965E-03
     -3.260  0.9196E-03  0.7267E-03
     -3.119  0.4874E-03  0.7957E-03
     -2.977  0.2904E-02  0.1207E-02
     -2.836  0.4284E-03  0.1267E-02
     -2.694  0.7799E-03  0.1378E-02
     -2.553  0.1725E-02  0.1622E-02
     -2.411  0.1458E-02  0.1828E-02
     -2.269  0.1395E-02  0.2026E-02
     -2.128  0.1042E-02  0.2173E-02
     -1.986  0.1516E-02  0.2388E-02
     -1.845  0.3770E-02  0.2922E-02
     -1.703  0.8016E-05  0.2923E-02
     -1.562  0.2565E-02  0.3286E-02
     -1.420  0.8752E-03  0.3410E-02
     -1.279  0.7958E-03  0.3522E-02
     -1.137  0.2725E-02  0.3908E-02
     -0.995  0.1842E-02  0.4169E-02
     -0.854  0.3630E-02  0.4683E-02
     -0.712  0.1651E-02  0.4916E-02
     -0.571  0.1239E-02  0.5092E-02
     -0.429  0.2810E-02  0.5489E-02
     -0.288  0.1461E-02  0.5696E-02
     -0.146  0.2309E-02  0.6023E-02
     -0.005  0.1027E-02  0.6169E-02
      0.137  0.7314E-03  0.6272E-02
      0.279  0.4997E-02  0.6979E-02
      0.420  0.1469E-02  0.7187E-02
      0.562  0.4380E-02  0.7807E-02
      0.703  0.2850E-02  0.8211E-02
      0.845  0.2228E-02  0.8526E-02
      0.986  0.1431E-02  0.8729E-02
      1.128  0.1098E-04  0.8730E-02
      1.269  0.4352E-02  0.9346E-02
      1.411  0.1940E-02  0.9621E-02
      1.553  0.7222E-03  0.9723E-02
      1.694  0.5706E-02  0.1053E-01
      1.836  0.2913E-02  0.1094E-01
      1.977  0.2428E-02  0.1129E-01
      2.119  0.1734E-02  0.1153E-01
      2.260  0.2207E-02  0.1184E-01
      2.402  0.6937E-02  0.1283E-01
      2.543  0.1501E-02  0.1304E-01
      2.685  0.2591E-02  0.1341E-01
      2.827  0.1308E-02  0.1359E-01
      2.968  0.1187E-02  0.1376E-01
      3.110  0.2801E-02  0.1416E-01
      3.251  0.4427E-02  0.1478E-01
      3.393  0.3991E-02  0.1535E-01
      3.534  0.2752E-02  0.1574E-01
      3.676  0.3687E-02  0.1626E-01
      3.818  0.3596E-02  0.1677E-01
      3.959  0.2934E-02  0.1718E-01
      4.101  0.2981E-02  0.1761E-01
      4.242  0.3762E-02  0.1814E-01
      4.384  0.2673E-02  0.1852E-01
      4.525  0.8921E-03  0.1864E-01
      4.667  0.4761E-02  0.1932E-01
      4.808  0.2801E-02  0.1971E-01
      4.950  0.4374E-02  0.2033E-01
      5.092  0.2492E-02  0.2068E-01
      5.233  0.2433E-02  0.2103E-01
      5.375  0.5470E-02  0.2180E-01
      5.516  0.3328E-02  0.2227E-01
      5.658  0.2929E-02  0.2269E-01
      5.799  0.2166E-02  0.2300E-01
      5.941  0.4277E-02  0.2360E-01
      6.082  0.4862E-02  0.2429E-01
      6.224  0.3033E-02  0.2472E-01
      6.366  0.4803E-02  0.2540E-01
      6.507  0.4206E-02  0.2599E-01
      6.649  0.2900E-02  0.2640E-01
      6.790  0.2335E-02  0.2674E-01
      6.932  0.6300E-02  0.2763E-01
      7.073  0.1333E-02  0.2782E-01
      7.215  0.2863E-02  0.2822E-01
      7.356  0.3466E-02  0.2871E-01
      7.498  0.4224E-02  0.2931E-01
      7.640  0.4452E-02  0.2994E-01
      7.781  0.7088E-02  0.3094E-01
      7.923  0.2578E-02  0.3131E-01
      8.064  0.4010E-02  0.3188E-01
      8.206  0.2196E-02  0.3219E-01
      8.347  0.3053E-02  0.3262E-01
      8.489  0.5187E-02  0.3335E-01
      8.630  0.7546E-02  0.3442E-01
      8.772  0.2970E-02  0.3484E-01
      8.914  0.5575E-02  0.3563E-01
      9.055  0.5303E-02  0.3638E-01
      9.197  0.4105E-02  0.3696E-01
      9.338  0.2185E-02  0.3727E-01
      9.480  0.2361E-02  0.3761E-01
      9.621  0.4485E-02  0.3824E-01
      9.763  0.2832E-02  0.3864E-01
      9.904  0.7215E-02  0.3966E-01
     10.046  0.4149E-02  0.4025E-01
     10.188  0.5521E-02  0.4103E-01
     10.329  0.5088E-02  0.4175E-01
     10.471  0.6577E-02  0.4268E-01
     10.612  0.4135E-02  0.4327E-01
     10.754  0.2998E-02  0.4369E-01
     10.895  0.6090E-02  0.4455E-01
     11.037  0.4540E-02  0.4520E-01
     11.178  0.2645E-02  0.4557E-01
     11.320  0.1255E-02  0.4575E-01
     11.462  0.4541E-02  0.4639E-01
     11.603  0.1112E-01  0.4797E-01
     11.745  0.4568E-03  0.4803E-01
     11.886  0.6889E-02  0.4901E-01
     12.028  0.2087E-02  0.4930E-01
     12.169  0.4081E-03  0.4936E-01
     12.311  0.3302E-02  0.4983E-01
     12.452  0.4658E-02  0.5049E-01
     12.594  0.9644E-02  0.5185E-01
     12.736  0.2282E-02  0.5217E-01
     12.877  0.1942E-02  0.5245E-01
     13.019  0.6327E-02  0.5334E-01
     13.160  0.8000E-02  0.5448E-01
     13.302  0.5479E-02  0.5525E-01
     13.443  0.2201E-02  0.5556E-01
     13.585  0.5016E-02  0.5627E-01
     13.726  0.5513E-02  0.5705E-01
     13.868  0.8232E-02  0.5822E-01
     14.010  0.1987E-02  0.5850E-01
     14.151  0.3350E-02  0.5898E-01
     14.293  0.5799E-02  0.5980E-01
     14.434  0.3870E-02  0.6034E-01
     14.576  0.1935E-02  0.6062E-01
     14.717  0.6640E-02  0.6156E-01
     14.859  0.1044E-01  0.6304E-01
     15.000  0.4029E-02  0.6361E-01
     15.142  0.2966E-02  0.6403E-01
     15.284  0.3904E-02  0.6458E-01
     15.425  0.3625E-02  0.6509E-01
     15.567  0.6701E-02  0.6604E-01
     15.708  0.1921E-02  0.6631E-01
     15.850  0.8757E-02  0.6755E-01
     15.991  0.5583E-02  0.6834E-01
     16.133  0.7461E-02  0.6940E-01
     16.274  0.3001E-02  0.6982E-01
     16.416  0.8498E-02  0.7103E-01
     16.558  0.6968E-02  0.7201E-01
     16.699  0.5465E-02  0.7279E-01
     16.841  0.2678E-02  0.7316E-01
     16.982  0.5154E-02  0.7389E-01
     17.124  0.8167E-02  0.7505E-01
     17.265  0.6762E-02  0.7601E-01
     17.407  0.3874E-02  0.7656E-01
     17.548  0.1699E-02  0.7680E-01
     17.690  0.1183E-01  0.7847E-01
     17.832  0.6912E-02  0.7945E-01
     17.973  0.3949E-02  0.8001E-01
     18.115  0.2652E-02  0.8038E-01
     18.256  0.4646E-02  0.8104E-01
     18.398  0.4732E-02  0.8171E-01
     18.539  0.4907E-02  0.8241E-01
     18.681  0.5958E-02  0.8325E-01
     18.822  0.3904E-02  0.8380E-01
     18.964  0.4948E-02  0.8450E-01
     19.106  0.7973E-03  0.8462E-01
     19.247  0.2491E-02  0.8497E-01
     19.389  0.3187E-02  0.8542E-01
     19.530  0.1035E-01  0.8688E-01
     19.672  0.6984E-02  0.8787E-01
     19.813  0.3221E-02  0.8833E-01
     19.955  0.8091E-02  0.8947E-01
     20.096  0.7907E-02  0.9059E-01
     20.238  0.3750E-02  0.9112E-01
     20.380  0.8511E-04  0.9114E-01
     20.521  0.4546E-02  0.9178E-01
     20.663  0.2690E-02  0.9216E-01
     20.804  0.9030E-02  0.9344E-01
     20.946  0.4620E-02  0.9409E-01
     21.087  0.6263E-02  0.9498E-01
     21.229  0.7518E-02  0.9604E-01
     21.370  0.4634E-02  0.9670E-01
     21.512  0.8599E-02  0.9792E-01
     21.654  0.1544E-01  0.1001E+00
     21.795  0.2925E-02  0.1005E+00
     21.937  0.8888E-02  0.1018E+00
     22.078  0.4216E-02  0.1024E+00
     22.220  0.4603E-02  0.1030E+00
     22.361  0.8275E-02  0.1042E+00
     22.503  0.6080E-02  0.1051E+00
     22.644  0.1020E-01  0.1065E+00
     22.786  0.9332E-02  0.1078E+00
     22.928  0.3374E-02  0.1083E+00
     23.069  0.8649E-02  0.1095E+00
     23.211  0.9254E-03  0.1097E+00
     23.352  0.7080E-02  0.1107E+00
     23.494  0.7927E-02  0.1118E+00
     23.635  0.4141E-02  0.1124E+00
     23.777  0.1834E-02  0.1126E+00
     23.918  0.5491E-02  0.1134E+00
     24.060  0.6704E-02  0.1143E+00
     24.202  0.5090E-02  0.1151E+00
     24.343  0.7609E-02  0.1161E+00
     24.485  0.5751E-02  0.1170E+00
     24.626  0.4609E-02  0.1176E+00
     24.768  0.2731E-02  0.1180E+00
     24.909  0.1908E-02  0.1183E+00
     25.051  0.3929E-02  0.1188E+00
     25.192  0.1068E-01  0.1203E+00
     25.334  0.1284E-01  0.1222E+00
     25.476  0.1065E-01  0.1237E+00
     25.617  0.8174E-02  0.1248E+00
     25.759  0.9825E-02  0.1262E+00
     25.900  0.1719E-02  0.1265E+00
     26.042  0.4011E-02  0.1270E+00
     26.183  0.5049E-02  0.1277E+00
     26.325  0.4836E-02  0.1284E+00
     26.466  0.3751E-02  0.1290E+00
     26.608  0.2500E-02  0.1293E+00
     26.750  0.1108E-01  0.1309E+00
     26.891  0.7330E-02  0.1319E+00
     27.033  0.9243E-02  0.1332E+00
     27.174  0.1325E-02  0.1334E+00
     27.316  0.3260E-02  0.1339E+00
     27.457  0.4231E-02  0.1345E+00
     27.599  0.1352E-02  0.1347E+00
     27.740  0.7861E-02  0.1358E+00
     27.882  0.1312E-01  0.1376E+00
     28.024  0.1066E-01  0.1391E+00
     28.165  0.7517E-02  0.1402E+00
     28.307  0.5252E-02  0.1409E+00
     28.448  0.3797E-02  0.1415E+00
     28.590  0.8601E-02  0.1427E+00
     28.731  0.9282E-02  0.1440E+00
     28.873  0.4305E-02  0.1446E+00
     29.014  0.5172E-02  0.1454E+00
     29.156  0.6963E-02  0.1463E+00
     29.298  0.2489E-02  0.1467E+00
     29.439  0.8515E-02  0.1479E+00
     29.581  0.5938E-02  0.1487E+00
     29.722  0.8824E-02  0.1500E+00
     29.864  0.5918E-02  0.1508E+00
     30.005  0.7827E-02  0.1519E+00
     30.147  0.4575E-02  0.1526E+00
     30.288  0.5534E-02  0.1534E+00
     30.430  0.3804E-02  0.1539E+00
     30.572  0.9076E-02  0.1552E+00
     30.713  0.9523E-02  0.1565E+00
     30.855  0.5607E-02  0.1573E+00
     30.996  0.3354E-03  0.1574E+00
     31.138  0.2230E-02  0.1577E+00
     31.279  0.3398E-02  0.1582E+00
     31.421  0.4037E-03  0.1582E+00
     31.562  0.1740E-02  0.1585E+00
     31.704  0.1859E-02  0.1587E+00
     31.846  0.3589E-03  0.1588E+00
     31.987  0.1443E-02  0.1590E+00
     32.129  0.1274E-03  0.1590E+00
     32.270  0.9264E-05  0.1590E+00
     32.412  0.1439E-02  0.1592E+00
     32.553  0.1731E-02  0.1595E+00
     32.695  0.1933E-02  0.1597E+00
     32.836  0.3166E-04  0.1597E+00
     32.978  0.1105E-04  0.1597E+00
     33.120  0.4911E-03  0.1598E+00
     33.261  0.1228E-04  0.1598E+00
     33.403  0.5617E-12  0.1598E+00
     33.544  0.0000E+00  0.1598E+00
     33.686  0.0000E+00  0.1598E+00
     33.827  0.1189E-08  0.1598E+00
     33.969  0.1168E-03  0.1598E+00
     34.110  0.2958E-03  0.1599E+00
     34.252  0.3943E-03  0.1599E+00
     34.394  0.4765E-03  0.1600E+00
     34.535  0.2788E-05  0.1600E+00
     34.677  0.1464E-13  0.1600E+00
     34.818  0.0000E+00  0.1600E+00
     34.960  0.0000E+00  0.1600E+00
     35.101  0.0000E+00  0.1600E+00
     35.243  0.0000E+00  0.1600E+00
     35.384  0.0000E+00  0.1600E+00
     35.526  0.0000E+00  0.1600E+00
     35.668  0.0000E+00  0.1600E+00
     35.809  0.0000E+00  0.1600E+00
     35.951  0.0000E+00  0.1600E+00
     36.092  0.0000E+00  0.1600E+00
     36.234  0.0000E+00  0.1600E+00
