    1    1  100    1
  0.1386300E+02  0.2621157E-09  0.2621157E-09  0.2621157E-09  0.5000000E-15
  1.000000000000000E-004
  CAR 
 unknown system                          
      4     84      8
 
  0.0000000E+00  0.0000000E+00  0.0000000E+00  0.4551661E-03
    1       -4.302648   1.000000
    2       21.378153   0.000000
    3       21.378153   0.000000
    4       21.378154   0.000000
    5       22.526815   0.000000
    6       22.526815   0.000000
    7       22.526815   0.000000
    8       26.214124   0.000000
 
  0.7692308E-01  0.0000000E+00  0.0000000E+00  0.5461994E-02
    1       -4.121086   1.000000
    2       19.388097   0.000000
    3       20.021006   0.000000
    4       21.122634   0.000000
    5       21.945787   0.000000
    6       23.366408   0.000000
    7       24.180320   0.000000
    8       25.172596   0.000000
 
  0.1538462E+00  0.0000000E+00  0.0000000E+00  0.5461994E-02
    1       -3.577335   1.000000
    2       16.274036   0.000000
    3       18.521804   0.000000
    4       20.458416   0.000000
    5       20.763838   0.000000
    6       22.770565   0.000000
    7       25.464992   0.000000
    8       26.040807   0.000000
 
  0.2307692E+00  0.0000000E+00  0.0000000E+00  0.5461994E-02
    1       -2.674286   1.000000
    2       13.012189   0.000000
    3       17.306569   0.000000
    4       19.582477   0.000000
    5       19.646750   0.000000
    6       21.686981   0.000000
    7       26.535375   0.000000
    8       26.585459   0.000000
 
  0.3076923E+00  0.0000000E+00  0.0000000E+00  0.5461994E-02
    1       -1.416776   1.000000
    2        9.889176   0.970300
    3       16.392867   0.000000
    4       18.622078   0.000000
    5       18.916280   0.000000
    6       20.804335   0.000000
    7       27.443880   0.000000
    8       27.928007   0.000000
 
  0.3846154E+00  0.0000000E+00  0.0000000E+00  0.5461994E-02
    1        0.187910   1.000000
    2        7.011240   1.000000
    3       15.783843   0.000000
    4       17.958495   0.000000
    5       18.387499   0.000000
    6       20.189200   0.000000
    7       28.668994   0.000000
    8       29.392273   0.000000
 
  0.4615385E+00  0.0000000E+00  0.0000000E+00  0.5461994E-02
    1        2.123661   1.000000
    2        4.432791   1.000000
    3       15.479577   0.000000
    4       17.621560   0.000000
    5       18.113159   0.000000
    6       19.875051   0.000000
    7       29.956990   0.000000
    8       30.658836   0.000000
 
  0.7692308E-01  0.7692308E-01  0.0000000E+00  0.1092399E-01
    1       -3.758414   1.000000
    2       17.672174   0.000000
    3       18.221275   0.000000
    4       19.846879   0.000000
    5       22.178041   0.000000
    6       23.605396   0.000000
    7       24.504961   0.000000
    8       25.458622   0.000000
 
  0.1538462E+00  0.7692308E-01  0.1387779E-16  0.2184797E-01
    1       -3.035000   1.000000
    2       14.728650   0.000000
    3       16.617716   0.000000
    4       18.708021   0.000000
    5       21.618512   0.000000
    6       23.011058   0.000000
    7       25.011924   0.000000
    8       26.978553   0.000000
 
  0.2307692E+00  0.7692308E-01 -0.1387779E-16  0.2184797E-01
    1       -1.954667   1.000000
    2       11.543075   0.000000
    3       15.506695   0.000000
    4       17.712867   0.000000
    5       20.784847   0.000000
    6       22.401370   0.000000
    7       25.678904   0.000000
    8       28.502626   0.000000
 
  0.3076923E+00  0.7692308E-01  0.2775558E-16  0.2184797E-01
    1       -0.523331   1.000000
    2        8.541900   1.000000
    3       14.712751   0.000000
    4       16.960005   0.000000
    5       20.076859   0.000000
    6       21.861480   0.000000
    7       26.753238   0.000000
    8       29.859102   0.000000
 
  0.3846154E+00  0.7692308E-01  0.0000000E+00  0.2184797E-01
    1        1.249441   1.000000
    2        5.810164   1.000000
    3       14.234679   0.000000
    4       16.496858   0.000000
    5       19.626921   0.000000
    6       21.492590   0.000000
    7       28.166369   0.000000
    8       30.655259   0.000000
 
  0.4615385E+00  0.7692308E-01  0.0000000E+00  0.1092399E-01
    1        3.175671   1.000000
    2        3.562395   1.000000
    3       14.074939   0.000000
    4       16.340619   0.000000
    5       19.473430   0.000000
    6       21.363466   0.000000
    7       29.562489   0.000000
    8       29.900279   0.000000
 
  0.1538462E+00  0.1538462E+00  0.0000000E+00  0.1092399E-01
    1       -2.134306   1.000000
    2       13.273377   0.000000
    3       13.688579   0.000000
    4       17.561972   0.000000
    5       21.964378   0.000000
    6       22.956479   0.000000
    7       26.075396   0.000000
    8       27.332654   0.000000
 
  0.2307692E+00  0.1538462E+00 -0.2775558E-16  0.2184797E-01
    1       -0.879976   1.000000
    2       10.376251   0.000000
    3       12.518479   0.000000
    4       16.677853   0.000000
    5       21.586086   0.000000
    6       23.301422   0.000000
    7       26.347793   0.000000
    8       29.101390   0.000000
 
  0.3076923E+00  0.1538462E+00 -0.2775558E-16  0.2184797E-01
    1        0.720617   1.000000
    2        7.520369   1.000000
    3       11.851924   0.000000
    4       16.068590   0.000000
    5       21.067420   0.000000
    6       23.816981   0.000000
    7       26.681784   0.000000
    8       30.281889   0.000000
 
  0.3846154E+00  0.1538462E+00  0.2775558E-16  0.2184797E-01
    1        2.651877   1.000000
    2        4.951449   1.000000
    3       11.519402   0.000000
    4       15.759230   0.000000
    5       20.781299   0.000000
    6       23.999330   0.000000
    7       27.740767   0.000000
    8       29.386145   0.000000
 
  0.2307692E+00  0.2307692E+00 -0.1387779E-16  0.1092399E-01
    1        0.543852   1.000000
    2        9.395026   1.000000
    3        9.708176   1.000000
    4       15.934896   0.000000
    5       22.403616   0.000000
    6       23.257308   0.000000
    7       28.472321   0.000000
    8       28.659597   0.000000
 
  0.3076923E+00  0.2307692E+00  0.2775558E-16  0.2184797E-01
    1        2.307331   1.000000
    2        6.832844   1.000000
    3        9.056128   1.000000
    4       15.477216   0.000000
    5       22.352473   0.000000
    6       24.286008   0.000000
    7       27.683676   0.000000
    8       29.647437   0.000000
 
  0.3846154E+00  0.2307692E+00  0.9714451E-16  0.1092399E-01
    1        4.232722   1.000000
    2        4.593287   1.000000
    3        8.883140   1.000000
    4       15.322388   0.000000
    5       22.246600   0.000000
    6       25.229747   0.000000
    7       26.825433   0.000000
    8       29.648287   0.000000
 
  0.3076923E+00  0.3076923E+00  0.0000000E+00  0.1092399E-01
    1        4.218580   1.000000
    2        6.361481   1.000000
    3        6.648823   1.000000
    4       15.174108   0.000000
    5       23.527595   0.000000
    6       24.577081   0.000000
    7       26.229826   0.000000
    8       31.525761   0.000000
 
  0.7692308E-01  0.7692308E-01  0.7692308E-01  0.3641329E-02
    1       -3.215638   1.000000
    2       16.024979   0.000000
    3       16.964633   0.000000
    4       16.964633   0.000000
    5       23.687278   0.000000
    6       23.687278   0.000000
    7       25.746494   0.000000
    8       25.746494   0.000000
 
  0.1538462E+00  0.7692308E-01  0.7692308E-01  0.1092399E-01
    1       -2.314169   1.000000
    2       13.304630   0.000000
    3       15.158178   0.000000
    4       15.772808   0.000000
    5       23.420062   0.000000
    6       23.992766   0.000000
    7       26.424106   0.000000
    8       26.771660   0.000000
 
  0.2307692E+00  0.7692308E-01  0.7692308E-01  0.1092399E-01
    1       -1.058758   1.000000
    2       10.221261   0.000000
    3       14.166250   0.000000
    4       14.825523   0.000000
    5       22.970816   0.000000
    6       23.393993   0.000000
    7       27.759028   0.000000
    8       27.963246   0.000000
 
  0.3076923E+00  0.7692308E-01  0.7692308E-01  0.1092399E-01
    1        0.543301   1.000000
    2        7.353304   1.000000
    3       13.520122   0.000000
    4       14.177749   0.000000
    5       22.561476   0.000000
    6       22.885446   0.000000
    7       28.961153   0.000000
    8       29.531204   0.000000
 
  0.3846154E+00  0.7692308E-01  0.7692308E-01  0.1092399E-01
    1        2.476280   1.000000
    2        4.779845   1.000000
    3       13.197706   0.000000
    4       13.849571   0.000000
    5       22.329149   0.000000
    6       22.615455   0.000000
    7       30.178641   0.000000
    8       30.825657   0.000000
 
 -0.7692308E-01  0.7692308E-01  0.7692308E-01  0.2730997E-02
    1       -3.939677   1.000000
    2       18.901273   0.000000
    3       18.901274   0.000000
    4       20.059762   0.000000
    5       22.878533   0.000000
    6       23.217447   0.000000
    7       24.083708   0.000000
    8       24.083708   0.000000
 
  0.1538462E+00  0.1538462E+00  0.7692308E-01  0.1092399E-01
    1       -1.237554   1.000000
    2       11.988601   0.000000
    3       12.428138   0.000000
    4       14.401313   0.000000
    5       24.197760   0.000000
    6       25.071227   0.000000
    7       26.898631   0.000000
    8       27.856243   0.000000
 
  0.2307692E+00  0.1538462E+00  0.7692308E-01  0.2184797E-01
    1        0.188947   1.000000
    2        9.211118   1.000000
    3       11.398936   0.000000
    4       13.587529   0.000000
    5       24.176718   0.000000
    6       25.332251   0.000000
    7       27.851363   0.000000
    8       29.416329   0.000000
 
  0.3076923E+00  0.1538462E+00  0.7692308E-01  0.2184797E-01
    1        1.955974   1.000000
    2        6.498005   1.000000
    3       10.892543   0.000000
    4       13.098136   0.000000
    5       23.927170   0.000000
    6       25.401620   0.000000
    7       28.941372   0.000000
    8       30.724662   0.000000
 
  0.3846154E+00  0.1538462E+00  0.7692308E-01  0.1092399E-01
    1        3.882161   1.000000
    2        4.252757   1.000000
    3       10.724444   0.000000
    4       12.934290   0.000000
    5       23.820750   0.000000
    6       25.394025   0.000000
    7       29.976425   0.000000
    8       30.547061   0.000000
 
 -0.1538462E+00  0.1538462E+00  0.7692308E-01  0.1092399E-01
    1       -3.396371   1.000000
    2       16.323308   0.000000
    3       17.427420   0.000000
    4       19.411704   0.000000
    5       21.912795   0.000000
    6       22.123653   0.000000
    7       24.466237   0.000000
    8       26.050248   0.000000
 
  0.2307692E+00  0.2307692E+00  0.7692308E-01  0.1092399E-01
    1        1.781137   1.000000
    2        8.390284   1.000000
    3        8.711155   1.000000
    4       12.930326   0.000000
    5       25.086104   0.000000
    6       26.133689   0.000000
    7       29.449516   0.000000
    8       29.587419   0.000000
 
  0.3076923E+00  0.2307692E+00  0.7692308E-01  0.2184797E-01
    1        3.702236   1.000000
    2        5.983473   1.000000
    3        8.223099   1.000000
    4       12.603168   0.000000
    5       25.291522   0.000000
    6       27.002681   0.000000
    7       29.073710   0.000000
    8       30.722002   0.000000
 
 -0.2307692E+00  0.2307692E+00  0.7692308E-01  0.1092399E-01
    1       -2.494083   1.000000
    2       13.146499   0.000000
    3       16.192374   0.000000
    4       18.627159   0.000000
    5       21.005737   0.000000
    6       21.596458   0.000000
    7       24.391587   0.000000
    8       28.750219   0.000000
 
 -0.1538462E+00  0.2307692E+00  0.7692308E-01  0.1092399E-01
    1       -2.674183   1.000000
    2       14.782691   0.000000
    3       15.092194   0.000000
    4       18.827129   0.000000
    5       20.810342   0.000000
    6       21.817907   0.000000
    7       25.649008   0.000000
    8       26.611025   0.000000
 
  0.3076923E+00  0.3076923E+00  0.7692308E-01  0.3641329E-02
    1        5.478068   1.000000
    2        5.972325   1.000000
    3        5.972325   1.000000
    4       12.439546   0.000000
    5       26.113367   0.000000
    6       27.835170   0.000000
    7       27.835170   0.000000
    8       32.572066   0.000000
 
 -0.3076923E+00  0.3076923E+00  0.7692308E-01  0.1092399E-01
    1       -1.237614   1.000000
    2       10.047625   0.004710
    3       15.253150   0.000000
    4       17.821130   0.000000
    5       20.081435   0.000000
    6       21.463535   0.000000
    7       24.747143   0.000000
    8       30.285467   0.000000
 
 -0.2307692E+00  0.3076923E+00  0.7692308E-01  0.2184797E-01
    1       -1.595662   1.000000
    2       11.834264   0.000000
    3       13.833162   0.000000
    4       18.271472   0.000000
    5       20.498496   0.000000
    6       21.348841   0.000000
    7       25.556635   0.000000
    8       28.681323   0.000000
 
 -0.3846154E+00  0.3846154E+00  0.7692308E-01  0.1092399E-01
    1        0.365644   1.000000
    2        7.178922   1.000000
    3       14.623503   0.000000
    4       17.230074   0.000000
    5       19.444921   0.000000
    6       21.230123   0.000000
    7       25.771108   0.000000
    8       30.422181   0.000000
 
 -0.3076923E+00  0.3846154E+00  0.7692308E-01  0.2184797E-01
    1       -0.166860   1.000000
    2        8.867689   1.000000
    3       13.017620   0.000000
    4       17.640092   0.000000
    5       19.938068   0.000000
    6       21.902950   0.000000
    7       25.258645   0.000000
    8       29.797058   0.000000
 
 -0.2307692E+00  0.3846154E+00  0.7692308E-01  0.1092399E-01
    1       -0.344689   1.000000
    2       10.704217   0.000000
    3       11.001306   0.000000
    4       18.212770   0.000000
    5       20.468425   0.000000
    6       20.793644   0.000000
    7       27.753065   0.000000
    8       27.938121   0.000000
 
 -0.4615385E+00  0.4615385E+00  0.7692308E-01  0.1092399E-01
    1        2.299787   1.000000
    2        4.604881   1.000000
    3       14.307788   0.000000
    4       16.924433   0.000000
    5       19.121484   0.000000
    6       21.060108   0.000000
    7       27.260715   0.000000
    8       29.023505   0.000000
 
 -0.3846154E+00  0.4615385E+00  0.7692308E-01  0.2184797E-01
    1        1.602684   1.000000
    2        6.149833   1.000000
    3       12.526996   0.000000
    4       17.214201   0.000000
    5       19.499307   0.000000
    6       22.553723   0.000000
    7       25.528230   0.000000
    8       28.560589   0.000000
 
 -0.3076923E+00  0.4615385E+00  0.7692308E-01  0.2184797E-01
    1        1.251383   1.000000
    2        8.015122   1.000000
    3       10.194139   0.000000
    4       17.879108   0.000000
    5       20.092753   0.000000
    6       21.620256   0.000000
    7       26.665613   0.000000
    8       28.779596   0.000000
 
 -0.4615385E+00 -0.4615385E+00  0.7692308E-01  0.1092399E-01
    1        3.530490   1.000000
    2        3.903293   1.000000
    3       12.363530   0.000000
    4       17.067508   0.000000
    5       19.346842   0.000000
    6       22.773426   0.000000
    7       26.257944   0.000000
    8       27.352155   0.000000
 
 -0.3846154E+00 -0.4615385E+00  0.7692308E-01  0.2184797E-01
    1        3.177129   1.000000
    2        5.463997   1.000000
    3        9.854257   0.997966
    4       17.646771   0.000000
    5       19.797262   0.000000
    6       23.003310   0.000000
    7       25.148357   0.000000
    8       28.586166   0.000000
 
 -0.3076923E+00 -0.4615385E+00  0.7692308E-01  0.1092399E-01
    1        3.007070   1.000000
    2        7.374187   1.000000
    3        7.654394   1.000000
    4       17.759085   0.000000
    5       21.146167   0.000000
    6       21.380737   0.000000
    7       25.066947   0.000000
    8       30.577396   0.000000
 
 -0.3846154E+00 -0.3846154E+00  0.7692308E-01  0.1092399E-01
    1        4.925433   1.000000
    2        5.271829   1.000000
    3        7.356363   1.000000
    4       17.673177   0.000000
    5       21.102688   0.000000
    6       22.734855   0.000000
    7       23.353761   0.000000
    8       31.256480   0.000000
 
  0.1538462E+00  0.1538462E+00  0.1538462E+00  0.3641329E-02
    1        0.011354   1.000000
    2       10.863649   0.000000
    3       11.446915   0.000000
    4       11.446915   0.000000
    5       26.258525   0.000000
    6       26.258525   0.000000
    7       28.308072   0.000000
    8       28.308072   0.000000
 
  0.2307692E+00  0.1538462E+00  0.1538462E+00  0.1092399E-01
    1        1.605219   1.000000
    2        8.364636   1.000000
    3       10.424729   0.000000
    4       10.781320   0.000000
    5       26.665436   0.000000
    6       26.962181   0.000000
    7       29.665020   0.000000
    8       29.670565   0.000000
 
  0.3076923E+00  0.1538462E+00  0.1538462E+00  0.1092399E-01
    1        3.528789   1.000000
    2        5.815674   1.000000
    3       10.077806   0.000280
    4       10.447103   0.000000
    5       26.765452   0.000000
    6       26.960757   0.000000
    7       30.689356   0.000000
    8       31.152883   0.000000
 
 -0.1538462E+00  0.1538462E+00  0.1538462E+00  0.2730997E-02
    1       -2.854434   1.000000
    2       15.939789   0.000000
    3       15.939789   0.000000
    4       17.698310   0.000000
    5       19.692473   0.000000
    6       23.934718   0.000000
    7       25.510928   0.000000
    8       25.510928   0.000000
 
  0.2307692E+00  0.2307692E+00  0.1538462E+00  0.1092399E-01
    1        3.359096   1.000000
    2        7.707773   1.000000
    3        8.037877   1.000000
    4       10.115877   0.000003
    5       27.825099   0.000000
    6       28.647913   0.000000
    7       30.520378   0.000000
    8       30.545125   0.000000
 
  0.3076923E+00  0.2307692E+00  0.1538462E+00  0.1092399E-01
    1        5.268919   1.000000
    2        5.632651   1.000000
    3        7.718373   1.000000
    4        9.944498   0.625703
    5       28.149982   0.000000
    6       29.212318   0.000000
    7       30.554074   0.000000
    8       31.591380   0.000000
 
 -0.2307692E+00  0.2307692E+00  0.1538462E+00  0.1092399E-01
    1       -1.954402   1.000000
    2       13.492492   0.000000
    3       14.685342   0.000000
    4       17.030657   0.000000
    5       18.922017   0.000000
    6       23.418395   0.000000
    7       25.644623   0.000000
    8       27.692926   0.000000
 
 -0.3076923E+00  0.3076923E+00  0.1538462E+00  0.1092399E-01
    1       -0.701209   1.000000
    2       10.511028   0.000000
    3       13.729993   0.000000
    4       16.288756   0.000000
    5       19.515707   0.000000
    6       22.566342   0.000000
    7       25.157969   0.000000
    8       29.309924   0.000000
 
 -0.2307692E+00  0.3076923E+00  0.1538462E+00  0.1092399E-01
    1       -0.879626   1.000000
    2       12.250821   0.000000
    3       12.474634   0.000000
    4       16.786165   0.000000
    5       18.057008   0.000000
    6       23.237579   0.000000
    7       27.316161   0.000000
    8       27.473609   0.000000
 
 -0.3846154E+00  0.3846154E+00  0.1538462E+00  0.1092399E-01
    1        0.897660   1.000000
    2        7.678025   1.000000
    3       13.089615   0.000000
    4       15.678252   0.000000
    5       20.573462   0.000000
    6       21.956169   0.000000
    7       24.684270   0.000000
    8       28.049955   0.000000
 
 -0.3076923E+00  0.3846154E+00  0.1538462E+00  0.2184797E-01
    1        0.543947   1.000000
    2        9.502130   1.000000
    3       11.550534   0.000000
    4       16.432566   0.000000
    5       18.641973   0.000000
    6       22.615224   0.000000
    7       26.000154   0.000000
    8       28.198076   0.000000
 
 -0.4615385E+00  0.4615385E+00  0.1538462E+00  0.1092399E-01
    1        2.826657   1.000000
    2        5.119111   1.000000
    3       12.768231   0.000000
    4       15.359255   0.000000
    5       21.524512   0.000000
    6       21.642721   0.000000
    7       24.425324   0.000000
    8       26.773044   0.000000
 
 -0.3846154E+00  0.4615385E+00  0.1538462E+00  0.2184797E-01
    1        2.306693   1.000000
    2        6.823185   1.000000
    3       11.052611   0.000000
    4       16.014431   0.000000
    5       19.886622   0.000000
    6       22.265828   0.000000
    7       24.233203   0.000000
    8       27.912282   0.000000
 
 -0.3076923E+00  0.4615385E+00  0.1538462E+00  0.1092399E-01
    1        2.132067   1.000000
    2        8.707689   1.000000
    3        8.964080   1.000000
    4       17.226012   0.000000
    5       18.447128   0.000000
    6       22.106524   0.000000
    7       24.366678   0.000000
    8       29.864466   0.000000
 
 -0.4615385E+00 -0.4615385E+00  0.1538462E+00  0.1092399E-01
    1        4.235541   1.000000
    2        4.582726   1.000000
    3       10.886161   0.000000
    4       15.862941   0.000000
    5       20.691794   0.000000
    6       22.658655   0.000000
    7       22.713379   0.000000
    8       27.763953   0.000000
 
 -0.3846154E+00 -0.4615385E+00  0.1538462E+00  0.2184797E-01
    1        4.046831   1.000000
    2        6.309018   1.000000
    3        8.506772   1.000000
    4       17.281366   0.000000
    5       19.531865   0.000000
    6       21.530234   0.000000
    7       22.725858   0.000000
    8       30.514755   0.000000
 
 -0.3846154E+00 -0.3846154E+00  0.1538462E+00  0.3641329E-02
    1        5.836447   1.000000
    2        6.281330   1.000000
    3        6.281330   1.000000
    4       18.087708   0.000000
    5       20.058440   0.000000
    6       20.058440   0.000000
    7       22.328139   0.000000
    8       33.049534   0.000000
 
  0.2307692E+00  0.2307692E+00  0.2307692E+00  0.3641329E-02
    1        5.255182   1.000000
    2        7.254199   1.000000
    3        7.699319   1.000000
    4        7.699319   1.000000
    5       30.195300   0.000000
    6       30.195300   0.000000
    7       31.169234   0.000000
    8       31.169234   0.000000
 
 -0.2307692E+00  0.2307692E+00  0.2307692E+00  0.2730997E-02
    1       -1.058273   1.000000
    2       13.417835   0.000000
    3       13.417835   0.000000
    4       15.417898   0.000000
    5       16.795152   0.000000
    6       25.688436   0.000000
    7       27.168089   0.000000
    8       27.168089   0.000000
 
 -0.3076923E+00  0.3076923E+00  0.2307692E+00  0.1092399E-01
    1        0.189277   1.000000
    2       11.206660   0.000000
    3       12.454295   0.000000
    4       14.888748   0.000000
    5       16.513353   0.000000
    6       25.411911   0.000000
    7       25.727269   0.000000
    8       28.033158   0.000000
 
 -0.3846154E+00  0.3846154E+00  0.2307692E+00  0.1092399E-01
    1        1.780486   1.000000
    2        8.491728   1.000000
    3       11.807959   0.000000
    4       14.341002   0.000000
    5       17.640527   0.000000
    6       23.551139   0.000000
    7       24.850085   0.000000
    8       28.045665   0.000000
 
 -0.3076923E+00  0.3846154E+00  0.2307692E+00  0.1092399E-01
    1        1.604568   1.000000
    2       10.288274   0.000000
    3       10.477386   0.000000
    4       15.000377   0.000000
    5       15.943013   0.000000
    6       23.426549   0.000000
    7       25.673973   0.000000
    8       29.429731   0.000000
 
 -0.4615385E+00  0.4615385E+00  0.2307692E+00  0.1092399E-01
    1        3.699379   1.000000
    2        5.968706   1.000000
    3       11.484252   0.000000
    4       14.022301   0.000000
    5       19.190398   0.000000
    6       21.505050   0.000000
    7       24.550704   0.000000
    8       27.914192   0.000000
 
 -0.3846154E+00  0.4615385E+00  0.2307692E+00  0.2184797E-01
    1        3.355609   1.000000
    2        7.810582   1.000000
    3        9.891060   0.966520
    4       14.863609   0.000000
    5       17.020032   0.000000
    6       21.114003   0.000000
    7       25.317475   0.000000
    8       29.991421   0.000000
 
 -0.4615385E+00 -0.4615385E+00  0.2307692E+00  0.1092399E-01
    1        5.280515   1.000000
    2        5.594105   1.000000
    3        9.722718   1.000000
    4       14.727528   0.000000
    5       18.433342   0.000000
    6       19.383708   0.000000
    7       25.177393   0.000000
    8       30.038636   0.000000
 
 -0.3846154E+00 -0.4615385E+00  0.2307692E+00  0.1092399E-01
    1        5.249148   1.000000
    2        7.360954   1.000000
    3        7.599989   1.000000
    4       16.072515   0.000000
    5       17.069573   0.000000
    6       18.858257   0.000000
    7       25.185987   0.000000
    8       32.359007   0.000000
 
 -0.3076923E+00  0.3076923E+00  0.3076923E+00  0.2730997E-02
    1        1.428411   1.000000
    2       11.485363   0.000000
    3       11.485363   0.000000
    4       13.548914   0.000000
    5       14.603633   0.000000
    6       23.370050   0.000000
    7       28.100111   0.000000
    8       29.286446   0.000000
 
 -0.3846154E+00  0.3846154E+00  0.3076923E+00  0.1092399E-01
    1        3.007458   1.000000
    2        9.545330   1.000000
    3       10.835790   0.000000
    4       13.248450   0.000000
    5       14.775572   0.000000
    6       20.811220   0.000000
    7       28.021372   0.000000
    8       30.069062   0.000000
 
 -0.4615385E+00  0.4615385E+00  0.3076923E+00  0.1092399E-01
    1        4.908289   1.000000
    2        7.134465   1.000000
    3       10.510621   0.000000
    4       12.979749   0.000000
    5       16.307340   0.000000
    6       18.499772   0.000000
    7       27.749859   0.000000
    8       30.291111   0.000000
 
 -0.3846154E+00  0.4615385E+00  0.3076923E+00  0.1092399E-01
    1        4.738760   1.000000
    2        8.959241   1.000000
    3        9.136189   1.000000
    4       13.727739   0.000000
    5       14.521802   0.000000
    6       18.305290   0.000000
    7       28.417289   0.000000
    8       31.937998   0.000000
 
 -0.4615385E+00 -0.4615385E+00  0.3076923E+00  0.1092399E-01
    1        6.642633   1.000000
    2        6.917039   1.000000
    3        8.888689   1.000000
    4       13.842564   0.000000
    5       15.769512   0.000000
    6       16.376300   0.000000
    7       28.361780   0.000000
    8       32.499493   0.000000
 
 -0.3846154E+00  0.3846154E+00  0.3846154E+00  0.2730997E-02
    1        4.566884   1.000000
    2       10.185185   0.000000
    3       10.185185   0.000000
    4       12.232836   0.000000
    5       13.135507   0.000000
    6       18.131164   0.000000
    7       31.057712   0.000000
    8       31.797550   0.000000
 
 -0.4615385E+00  0.4615385E+00  0.3846154E+00  0.1092399E-01
    1        6.431589   1.000000
    2        8.542231   1.000000
    3        9.859258   0.996847
    4       12.212530   0.000000
    5       13.715099   0.000000
    6       15.752143   0.000000
    7       31.113998   0.000000
    8       32.622560   0.000000
 
 -0.4615385E+00 -0.4615385E+00  0.3846154E+00  0.3641329E-02
    1        8.183260   1.000000
    2        8.463508   1.000000
    3        8.463508   1.000000
    4       12.815351   0.000000
    5       13.809834   0.000000
    6       13.809834   0.000000
    7       31.589973   0.000000
    8       34.303448   0.000000
 
 -0.4615385E+00  0.4615385E+00  0.4615385E+00  0.2730997E-02
    1        8.192994   1.000000
    2        9.532754   1.000000
    3        9.532754   1.000000
    4       11.476431   0.000000
    5       12.396181   0.000000
    6       13.439624   0.000000
    7       33.987141   0.000000
    8       34.162736   0.000000
