 running on    4 total cores
 distrk:  each k-point on    4 cores,    1 groups
 distr:  one band on    1 cores,    4 groups
 vasp.6.2.0 18Jan21 (build Aug 12 2022 13:00:08) complex                        
  
 POSCAR found type information on POSCAR Si
 POSCAR found :  1 types and       1 ions
 scaLAPACK will be used
 LDA part: xc-table for Pade appr. of Perdew
 POSCAR, INCAR and KPOINTS ok, starting setup
 FFT: planning ...
 WAVECAR not read
 entering main loop
       N       E                     dE             d eps       ncg     rms          rms(c)
DAV:   1    -0.356682506897E+01   -0.35668E+01   -0.15161E+03  1536   0.280E+02
DAV:   2    -0.489558085889E+01   -0.13288E+01   -0.12553E+01  2104   0.218E+01
DAV:   3    -0.490089093003E+01   -0.53101E-02   -0.53099E-02  1544   0.131E+00
DAV:   4    -0.490089473845E+01   -0.38084E-05   -0.38088E-05  2120   0.336E-02
DAV:   5    -0.490089474055E+01   -0.20956E-08   -0.15524E-08  1536   0.420E-04    0.287E+00
DAV:   6    -0.488946258933E+01    0.11432E-01   -0.36114E-03  1408   0.266E-01    0.159E+00
DAV:   7    -0.488290833869E+01    0.65543E-02   -0.72493E-03  1488   0.378E-01    0.138E-01
DAV:   8    -0.488288772400E+01    0.20615E-04   -0.32552E-05  1872   0.428E-02    0.965E-03
DAV:   9    -0.488288821963E+01   -0.49563E-06   -0.41608E-07  1552   0.360E-03
   1 F= -.48828882E+01 E0= -.48826279E+01  d E =-.488289E+01
 curvature:   0.00 expect dE= 0.000E+00 dE for cont linesearch  0.000E+00
 trial: gam= 0.00000 g(F)=  0.537E-68 g(S)=  0.325E-01 ort = 0.000E+00 (trialstep = 0.100E+01)
 search vector abs. value=  0.325E-01
 bond charge predicted
       N       E                     dE             d eps       ncg     rms          rms(c)
DAV:   1    -0.490130410874E+01   -0.18416E-01   -0.47253E-01  1376   0.272E+00    0.643E-01
DAV:   2    -0.489626769876E+01    0.50364E-02   -0.25118E-03  1528   0.365E-01    0.368E-01
DAV:   3    -0.489329859774E+01    0.29691E-02   -0.32685E-03  1456   0.242E-01    0.112E-01
DAV:   4    -0.489329572259E+01    0.28752E-05   -0.57600E-06  1688   0.209E-02    0.941E-02
DAV:   5    -0.489328415663E+01    0.11566E-04   -0.11296E-06  1632   0.717E-03    0.160E-02
DAV:   6    -0.489328456435E+01   -0.40772E-06   -0.21600E-08   712   0.119E-03
   2 F= -.48932846E+01 E0= -.48930541E+01  d E =-.103963E-01
 trial-energy change:   -0.010396  1 .order   -0.011121   -0.032487    0.010245
 step:   0.7407(harm=  0.7602)  dis= 0.00000  next Energy=    -4.894625 (dE=-0.117E-01)
 bond charge predicted
       N       E                     dE             d eps       ncg     rms          rms(c)
DAV:   1    -0.489514120461E+01   -0.18570E-02   -0.32658E-02  1360   0.728E-01    0.166E-01
DAV:   2    -0.489479331784E+01    0.34789E-03   -0.16884E-04  1544   0.953E-02    0.945E-02
DAV:   3    -0.489459158699E+01    0.20173E-03   -0.22447E-04  1440   0.635E-02    0.315E-02
DAV:   4    -0.489459164358E+01   -0.56590E-07   -0.38764E-07  1608   0.545E-03    0.271E-02
DAV:   5    -0.489459239544E+01   -0.75186E-06   -0.82139E-08   768   0.201E-03    0.517E-03
DAV:   6    -0.489459223081E+01    0.16463E-06   -0.32268E-09   672   0.477E-04
   3 F= -.48945922E+01 E0= -.48943609E+01  d E =-.117040E-01
 curvature:  -0.38 expect dE=-0.674E-07 dE for cont linesearch -0.674E-07
 trial: gam=-0.00234 g(F)=  0.365E-66 g(S)=  0.179E-06 ort = 0.762E-04 (trialstep = 0.948E+00)
 search vector abs. value=  0.101E-09
 reached required accuracy - stopping structural energy minimisation
