unknown system                          
   1.00000000000000     
     2.828939   -0.000000    0.000000
     0.000000    2.828939    0.000000
    -0.000000   -0.000000    2.828939
   Fe
     2
Direct
  0.000000 -0.000000  0.000000
  0.500000  0.500000  0.500000
 
   36   36   36
 0.19173384824E+03 0.18705859695E+03 0.17368112552E+03 0.15339149463E+03 0.12873827680E+03
 0.10252045580E+03 0.77324739627E+02 0.55169348548E+02 0.37320501025E+02 0.24243848341E+02
 0.15684193021E+02 0.10811101957E+02 0.84693008488E+01 0.73662372099E+01 0.66139545695E+01
 0.60917905963E+01 0.57712284153E+01 0.56049445098E+01 0.55532625772E+01 0.56049445098E+01
 0.57712284153E+01 0.60917905963E+01 0.66139545695E+01 0.73662372099E+01 0.84693008488E+01
 0.10811101957E+02 0.15684193021E+02 0.24243848341E+02 0.37320501025E+02 0.55169348548E+02
 0.77324739627E+02 0.10252045580E+03 0.12873827680E+03 0.15339149463E+03 0.17368112552E+03
 0.18705859695E+03 0.18705859695E+03 0.18251344343E+03 0.16950372962E+03 0.14975724994E+03
 0.12574141301E+03 0.10017433534E+03 0.75580403374E+02 0.53939908364E+02 0.36508808586E+02
 0.23750571581E+02 0.15418676891E+02 0.10693459265E+02 0.84302685583E+01 0.73508206538E+01
 0.66042443912E+01 0.60886839992E+01 0.57716502355E+01 0.56080099117E+01 0.55566114824E+01
 0.56080099117E+01 0.57716502355E+01 0.60886839992E+01 0.66042443912E+01 0.73508206538E+01
 0.84302685583E+01 0.10693459265E+02 0.15418676891E+02 0.23750571581E+02 0.36508808586E+02
 0.53939908364E+02 0.75580403374E+02 0.10017433534E+03 0.12574141301E+03 0.14975724994E+03
 0.16950372962E+03 0.18251344343E+03 0.17368112552E+03 0.16950372962E+03 0.15753339506E+03
 0.13932538485E+03 0.11711843605E+03 0.93405589326E+02 0.70537448346E+02 0.50387457686E+02
 0.34164614814E+02 0.22332318068E+02 0.14662821522E+02 0.10362819699E+02 0.83214920114E+01
 0.73041447112E+01 0.65756238335E+01 0.60790802613E+01 0.57728265680E+01 0.56164196965E+01
 0.55662802824E+01 0.56164196965E+01 0.57728265680E+01 0.60790802613E+01 0.65756238335E+01
 0.73041447112E+01 0.83214920114E+01 0.10362819699E+02 0.14662821522E+02 0.22332318068E+02
 0.34164614814E+02 0.50387457686E+02 0.70537448346E+02 0.93405589326E+02 0.11711843605E+03
 0.13932538485E+03 0.15753339506E+03 0.16950372962E+03 0.15339149463E+03 0.14975724994E+03
 0.13932538485E+03 0.12340485835E+03 0.10390629287E+03 0.82994795513E+02 0.62758779736E+02
 0.44902831478E+02 0.30560557855E+02 0.20174015284E+02 0.13532873705E+02 0.98836328928E+01
 0.81620397870E+01 0.72254299702E+01 0.65287571225E+01 0.60628253367E+01 0.57745092476E+01
 0.56291707685E+01 0.55814160108E+01 0.56291707685E+01 0.57745092476E+01 0.60628253367E+01
 0.65287571225E+01 0.72254299702E+01 0.81620397870E+01 0.98836328928E+01 0.13532873705E+02
 0.20174015284E+02 0.30560557855E+02 0.44902831478E+02 0.62758779736E+02 0.82994795513E+02
 0.10390629287E+03 0.12340485835E+03 0.13932538485E+03 0.14975724994E+03 0.12873827680E+03
 0.12574141301E+03 0.11711843605E+03 0.10390629287E+03 0.87643257319E+02 0.70120714885E+02
 0.53113727760E+02 0.38115349545E+02 0.26133509702E+02 0.17568445754E+02 0.12208613683E+02
 0.93452660296E+01 0.79714055974E+01 0.71126329019E+01 0.64667793315E+01 0.60391475205E+01
 0.57766610214E+01 0.56436203570E+01 0.56007586746E+01 0.56436203570E+01 0.57766610214E+01
 0.60391475205E+01 0.64667793315E+01 0.71126329019E+01 0.79714055974E+01 0.93452660296E+01
 0.12208613683E+02 0.17568445754E+02 0.26133509702E+02 0.38115349545E+02 0.53113727760E+02
 0.70120714885E+02 0.87643257319E+02 0.10390629287E+03 0.11711843605E+03 0.12574141301E+03
 0.10252045580E+03 0.10017433534E+03 0.93405589326E+02 0.82994795513E+02 0.70120714885E+02
 0.56203012419E+02 0.42683658627E+02 0.30813290895E+02 0.21438784538E+02 0.14878142771E+02
 0.10897212330E+02 0.88336287922E+01 0.77547583662E+01 0.69689745695E+01 0.63924563620E+01
 0.60089465071E+01 0.57784163298E+01 0.56581841878E+01 0.56221205771E+01 0.56581841878E+01
 0.57784163298E+01 0.60089465071E+01 0.63924563620E+01 0.69689745695E+01 0.77547583662E+01
 0.88336287922E+01 0.10897212330E+02 0.14878142771E+02 0.21438784538E+02 0.30813290895E+02
 0.42683658627E+02 0.56203012419E+02 0.70120714885E+02 0.82994795513E+02 0.93405589326E+02
 0.10017433534E+03 0.77324739627E+02 0.75580403374E+02 0.70537448346E+02 0.62758779736E+02
 0.53113727760E+02 0.42683658627E+02 0.32594572505E+02 0.23835415396E+02 0.17053771230E+02
 0.12458887185E+02 0.97803189734E+01 0.83883562235E+01 0.75044169910E+01 0.68056167507E+01
 0.63082171525E+01 0.59750621444E+01 0.57773472993E+01 0.56717536105E+01 0.56415697426E+01
 0.56717536105E+01 0.57773472993E+01 0.59750621444E+01 0.63082171525E+01 0.68056167507E+01
 0.75044169910E+01 0.83883562235E+01 0.97803189734E+01 0.12458887185E+02 0.17053771230E+02
 0.23835415396E+02 0.32594572505E+02 0.42683658627E+02 0.53113727760E+02 0.62758779736E+02
 0.70537448346E+02 0.75580403374E+02 0.55169348548E+02 0.53939908364E+02 0.50387457686E+02
 0.44902831478E+02 0.38115349545E+02 0.30813290895E+02 0.23835415396E+02 0.17897129003E+02
 0.13453458080E+02 0.10567822254E+02 0.89419362938E+01 0.79818114776E+01 0.72236889789E+01
 0.66366557873E+01 0.62168804079E+01 0.59405850508E+01 0.57715975831E+01 0.56839692723E+01
 0.56560020194E+01 0.56839692723E+01 0.57715975831E+01 0.59405850508E+01 0.62168804079E+01
 0.66366557873E+01 0.72236889789E+01 0.79818114776E+01 0.89419362938E+01 0.10567822254E+02
 0.13453458080E+02 0.17897129003E+02 0.23835415396E+02 0.30813290895E+02 0.38115349545E+02
 0.44902831478E+02 0.50387457686E+02 0.53939908364E+02 0.37320501025E+02 0.36508808586E+02
 0.34164614814E+02 0.30560557855E+02 0.26133509702E+02 0.21438784538E+02 0.17053771230E+02
 0.13453458080E+02 0.10878209344E+02 0.92807094513E+01 0.83174127234E+01 0.75664523215E+01
 0.69416636268E+01 0.64672663656E+01 0.61283320335E+01 0.59030586385E+01 0.57635425832E+01
 0.56895681164E+01 0.56661205702E+01 0.56895681164E+01 0.57635425832E+01 0.59030586385E+01
 0.61283320335E+01 0.64672663656E+01 0.69416636268E+01 0.75664523215E+01 0.83174127234E+01
 0.92807094513E+01 0.10878209344E+02 0.13453458080E+02 0.17053771230E+02 0.21438784538E+02
 0.26133509702E+02 0.30560557855E+02 0.34164614814E+02 0.36508808586E+02 0.24243848341E+02
 0.23750571581E+02 0.22332318068E+02 0.20174015284E+02 0.17568445754E+02 0.14878142771E+02
 0.12458887185E+02 0.10567822254E+02 0.92807094513E+01 0.84396553802E+01 0.77596790862E+01
 0.71602919897E+01 0.66768712786E+01 0.63080559523E+01 0.60443944258E+01 0.58646529155E+01
 0.57518340385E+01 0.56895229656E+01 0.56702454907E+01 0.56895229656E+01 0.57518340385E+01
 0.58646529155E+01 0.60443944258E+01 0.63080559523E+01 0.66768712786E+01 0.71602919897E+01
 0.77596790862E+01 0.84396553802E+01 0.92807094513E+01 0.10567822254E+02 0.12458887185E+02
 0.14878142771E+02 0.17568445754E+02 0.20174015284E+02 0.22332318068E+02 0.23750571581E+02
 0.15684193021E+02 0.15418676891E+02 0.14662821522E+02 0.13532873705E+02 0.12208613683E+02
 0.10897212330E+02 0.97803189734E+01 0.89419362938E+01 0.83174127234E+01 0.77596790862E+01
 0.72399618096E+01 0.67970936761E+01 0.64391874060E+01 0.61665484016E+01 0.59666802429E+01
 0.58270676779E+01 0.57349410044E+01 0.56831711043E+01 0.56661205702E+01 0.56831711043E+01
 0.57349410044E+01 0.58270676779E+01 0.59666802429E+01 0.61665484016E+01 0.64391874060E+01
 0.67970936761E+01 0.72399618096E+01 0.77596790862E+01 0.83174127234E+01 0.89419362938E+01
 0.97803189734E+01 0.10897212330E+02 0.12208613683E+02 0.13532873705E+02 0.14662821522E+02
 0.15418676891E+02 0.10811101957E+02 0.10693459265E+02 0.10362819699E+02 0.98836328928E+01
 0.93452660296E+01 0.88336287922E+01 0.83883562235E+01 0.79818114776E+01 0.75664523215E+01
 0.71602919897E+01 0.67970936761E+01 0.64874007163E+01 0.62380418433E+01 0.60433654946E+01
 0.58957536801E+01 0.57873996318E+01 0.57135618263E+01 0.56701521813E+01 0.56560020194E+01
 0.56701521813E+01 0.57135618263E+01 0.57873996318E+01 0.58957536801E+01 0.60433654946E+01
 0.62380418433E+01 0.64874007163E+01 0.67970936761E+01 0.71602919897E+01 0.75664523215E+01
 0.79818114776E+01 0.83883562235E+01 0.88336287922E+01 0.93452660296E+01 0.98836328928E+01
 0.10362819699E+02 0.10693459265E+02 0.84693008488E+01 0.84302685583E+01 0.83214920114E+01
 0.81620397870E+01 0.79714055974E+01 0.77547583662E+01 0.75044169910E+01 0.72236889789E+01
 0.69416636268E+01 0.66768712786E+01 0.64391874060E+01 0.62380418433E+01 0.60719520500E+01
 0.59372303943E+01 0.58303411068E+01 0.57486620095E+01 0.56897023966E+01 0.56538061738E+01
 0.56415697426E+01 0.56538061738E+01 0.56897023966E+01 0.57486620095E+01 0.58303411068E+01
 0.59372303943E+01 0.60719520500E+01 0.62380418433E+01 0.64391874060E+01 0.66768712786E+01
 0.69416636268E+01 0.72236889789E+01 0.75044169910E+01 0.77547583662E+01 0.79714055974E+01
 0.81620397870E+01 0.83214920114E+01 0.84302685583E+01 0.73662372099E+01 0.73508206538E+01
 0.73041447112E+01 0.72254299702E+01 0.71126329019E+01 0.69689745695E+01 0.68056167507E+01
 0.66366557873E+01 0.64672663656E+01 0.63080559523E+01 0.61665484016E+01 0.60433654946E+01
 0.59372303943E+01 0.58470502730E+01 0.57719024653E+01 0.57097884369E+01 0.56624680412E+01
 0.56323468328E+01 0.56221205771E+01 0.56323468328E+01 0.56624680412E+01 0.57097884369E+01
 0.57719024653E+01 0.58470502730E+01 0.59372303943E+01 0.60433654946E+01 0.61665484016E+01
 0.63080559523E+01 0.64672663656E+01 0.66366557873E+01 0.68056167507E+01 0.69689745695E+01
 0.71126329019E+01 0.72254299702E+01 0.73041447112E+01 0.73508206538E+01 0.66139545695E+01
 0.66042443912E+01 0.65756238335E+01 0.65287571225E+01 0.64667793315E+01 0.63924563620E+01
 0.63082171525E+01 0.62168804079E+01 0.61283320335E+01 0.60443944258E+01 0.59666802429E+01
 0.58957536801E+01 0.58303411068E+01 0.57719024653E+01 0.57181127265E+01 0.56709088340E+01
 0.56332851143E+01 0.56092233521E+01 0.56007586746E+01 0.56092233521E+01 0.56332851143E+01
 0.56709088340E+01 0.57181127265E+01 0.57719024653E+01 0.58303411068E+01 0.58957536801E+01
 0.59666802429E+01 0.60443944258E+01 0.61283320335E+01 0.62168804079E+01 0.63082171525E+01
 0.63924563620E+01 0.64667793315E+01 0.65287571225E+01 0.65756238335E+01 0.66042443912E+01
 0.60917905963E+01 0.60886839992E+01 0.60790802613E+01 0.60628253367E+01 0.60391475205E+01
 0.60089465071E+01 0.59750621444E+01 0.59405850508E+01 0.59030586385E+01 0.58646529155E+01
 0.58270676779E+01 0.57873996318E+01 0.57486620095E+01 0.57097884369E+01 0.56709088340E+01
 0.56350884428E+01 0.56064287970E+01 0.55877991447E+01 0.55814160108E+01 0.55877991447E+01
 0.56064287970E+01 0.56350884428E+01 0.56709088340E+01 0.57097884369E+01 0.57486620095E+01
 0.57873996318E+01 0.58270676779E+01 0.58646529155E+01 0.59030586385E+01 0.59405850508E+01
 0.59750621444E+01 0.60089465071E+01 0.60391475205E+01 0.60628253367E+01 0.60790802613E+01
 0.60886839992E+01 0.57712284153E+01 0.57716502355E+01 0.57728265680E+01 0.57745092476E+01
 0.57766610214E+01 0.57784163298E+01 0.57773472993E+01 0.57715975831E+01 0.57635425832E+01
 0.57518340385E+01 0.57349410044E+01 0.57135618263E+01 0.56897023966E+01 0.56624680412E+01
 0.56332851143E+01 0.56064287970E+01 0.55849069397E+01 0.55711043311E+01 0.55662802824E+01
 0.55711043311E+01 0.55849069397E+01 0.56064287970E+01 0.56332851143E+01 0.56624680412E+01
 0.56897023966E+01 0.57135618263E+01 0.57349410044E+01 0.57518340385E+01 0.57635425832E+01
 0.57715975831E+01 0.57773472993E+01 0.57784163298E+01 0.57766610214E+01 0.57745092476E+01
 0.57728265680E+01 0.57716502355E+01 0.56049445098E+01 0.56080099117E+01 0.56164196965E+01
 0.56291707685E+01 0.56436203570E+01 0.56581841878E+01 0.56717536105E+01 0.56839692723E+01
 0.56895681164E+01 0.56895229656E+01 0.56831711043E+01 0.56701521813E+01 0.56538061738E+01
 0.56323468328E+01 0.56092233521E+01 0.55877991447E+01 0.55711043311E+01 0.55602480936E+01
 0.55566114824E+01 0.55602480936E+01 0.55711043311E+01 0.55877991447E+01 0.56092233521E+01
 0.56323468328E+01 0.56538061738E+01 0.56701521813E+01 0.56831711043E+01 0.56895229656E+01
 0.56895681164E+01 0.56839692723E+01 0.56717536105E+01 0.56581841878E+01 0.56436203570E+01
 0.56291707685E+01 0.56164196965E+01 0.56080099117E+01 0.55532625772E+01 0.55566114824E+01
 0.55662802824E+01 0.55814160108E+01 0.56007586746E+01 0.56221205771E+01 0.56415697426E+01
 0.56560020194E+01 0.56661205702E+01 0.56702454907E+01 0.56661205702E+01 0.56560020194E+01
 0.56415697426E+01 0.56221205771E+01 0.56007586746E+01 0.55814160108E+01 0.55662802824E+01
 0.55566114824E+01 0.55532625772E+01 0.55566114824E+01 0.55662802824E+01 0.55814160108E+01
 0.56007586746E+01 0.56221205771E+01 0.56415697426E+01 0.56560020194E+01 0.56661205702E+01
 0.56702454907E+01 0.56661205702E+01 0.56560020194E+01 0.56415697426E+01 0.56221205771E+01
 0.56007586746E+01 0.55814160108E+01 0.55662802824E+01 0.55566114824E+01 0.56049445098E+01
 0.56080099117E+01 0.56164196965E+01 0.56291707685E+01 0.56436203570E+01 0.56581841878E+01
 0.56717536105E+01 0.56839692723E+01 0.56895681164E+01 0.56895229656E+01 0.56831711043E+01
 0.56701521813E+01 0.56538061738E+01 0.56323468328E+01 0.56092233521E+01 0.55877991447E+01
 0.55711043311E+01 0.55602480936E+01 0.55566114824E+01 0.55602480936E+01 0.55711043311E+01
 0.55877991447E+01 0.56092233521E+01 0.56323468328E+01 0.56538061738E+01 0.56701521813E+01
 0.56831711043E+01 0.56895229656E+01 0.56895681164E+01 0.56839692723E+01 0.56717536105E+01
 0.56581841878E+01 0.56436203570E+01 0.56291707685E+01 0.56164196965E+01 0.56080099117E+01
 0.57712284153E+01 0.57716502355E+01 0.57728265680E+01 0.57745092476E+01 0.57766610214E+01
 0.57784163298E+01 0.57773472993E+01 0.57715975831E+01 0.57635425832E+01 0.57518340385E+01
 0.57349410044E+01 0.57135618263E+01 0.56897023966E+01 0.56624680412E+01 0.56332851143E+01
 0.56064287970E+01 0.55849069397E+01 0.55711043311E+01 0.55662802824E+01 0.55711043311E+01
 0.55849069397E+01 0.56064287970E+01 0.56332851143E+01 0.56624680412E+01 0.56897023966E+01
 0.57135618263E+01 0.57349410044E+01 0.57518340385E+01 0.57635425832E+01 0.57715975831E+01
 0.57773472993E+01 0.57784163298E+01 0.57766610214E+01 0.57745092476E+01 0.57728265680E+01
 0.57716502355E+01 0.60917905963E+01 0.60886839992E+01 0.60790802613E+01 0.60628253367E+01
 0.60391475205E+01 0.60089465071E+01 0.59750621444E+01 0.59405850508E+01 0.59030586385E+01
 0.58646529155E+01 0.58270676779E+01 0.57873996318E+01 0.57486620095E+01 0.57097884369E+01
 0.56709088340E+01 0.56350884428E+01 0.56064287970E+01 0.55877991447E+01 0.55814160108E+01
 0.55877991447E+01 0.56064287970E+01 0.56350884428E+01 0.56709088340E+01 0.57097884369E+01
 0.57486620095E+01 0.57873996318E+01 0.58270676779E+01 0.58646529155E+01 0.59030586385E+01
 0.59405850508E+01 0.59750621444E+01 0.60089465071E+01 0.60391475205E+01 0.60628253367E+01
 0.60790802613E+01 0.60886839992E+01 0.66139545695E+01 0.66042443912E+01 0.65756238335E+01
 0.65287571225E+01 0.64667793315E+01 0.63924563620E+01 0.63082171525E+01 0.62168804079E+01
 0.61283320335E+01 0.60443944258E+01 0.59666802429E+01 0.58957536801E+01 0.58303411068E+01
 0.57719024653E+01 0.57181127265E+01 0.56709088340E+01 0.56332851143E+01 0.56092233521E+01
 0.56007586746E+01 0.56092233521E+01 0.56332851143E+01 0.56709088340E+01 0.57181127265E+01
 0.57719024653E+01 0.58303411068E+01 0.58957536801E+01 0.59666802429E+01 0.60443944258E+01
 0.61283320335E+01 0.62168804079E+01 0.63082171525E+01 0.63924563620E+01 0.64667793315E+01
 0.65287571225E+01 0.65756238335E+01 0.66042443912E+01 0.73662372099E+01 0.73508206538E+01
 0.73041447112E+01 0.72254299702E+01 0.71126329019E+01 0.69689745695E+01 0.68056167507E+01
 0.66366557873E+01 0.64672663656E+01 0.63080559523E+01 0.61665484016E+01 0.60433654946E+01
 0.59372303943E+01 0.58470502730E+01 0.57719024653E+01 0.57097884369E+01 0.56624680412E+01
 0.56323468328E+01 0.56221205771E+01 0.56323468328E+01 0.56624680412E+01 0.57097884369E+01
 0.57719024653E+01 0.58470502730E+01 0.59372303943E+01 0.60433654946E+01 0.61665484016E+01
 0.63080559523E+01 0.64672663656E+01 0.66366557873E+01 0.68056167507E+01 0.69689745695E+01
 0.71126329019E+01 0.72254299702E+01 0.73041447112E+01 0.73508206538E+01 0.84693008488E+01
 0.84302685583E+01 0.83214920114E+01 0.81620397870E+01 0.79714055974E+01 0.77547583662E+01
 0.75044169910E+01 0.72236889789E+01 0.69416636268E+01 0.66768712786E+01 0.64391874060E+01
 0.62380418433E+01 0.60719520500E+01 0.59372303943E+01 0.58303411068E+01 0.57486620095E+01
 0.56897023966E+01 0.56538061738E+01 0.56415697426E+01 0.56538061738E+01 0.56897023966E+01
 0.57486620095E+01 0.58303411068E+01 0.59372303943E+01 0.60719520500E+01 0.62380418433E+01
 0.64391874060E+01 0.66768712786E+01 0.69416636268E+01 0.72236889789E+01 0.75044169910E+01
 0.77547583662E+01 0.79714055974E+01 0.81620397870E+01 0.83214920114E+01 0.84302685583E+01
 0.10811101957E+02 0.10693459265E+02 0.10362819699E+02 0.98836328928E+01 0.93452660296E+01
 0.88336287922E+01 0.83883562235E+01 0.79818114776E+01 0.75664523215E+01 0.71602919897E+01
 0.67970936761E+01 0.64874007163E+01 0.62380418433E+01 0.60433654946E+01 0.58957536801E+01
 0.57873996318E+01 0.57135618263E+01 0.56701521813E+01 0.56560020194E+01 0.56701521813E+01
 0.57135618263E+01 0.57873996318E+01 0.58957536801E+01 0.60433654946E+01 0.62380418433E+01
 0.64874007163E+01 0.67970936761E+01 0.71602919897E+01 0.75664523215E+01 0.79818114776E+01
 0.83883562235E+01 0.88336287922E+01 0.93452660296E+01 0.98836328928E+01 0.10362819699E+02
 0.10693459265E+02 0.15684193021E+02 0.15418676891E+02 0.14662821522E+02 0.13532873705E+02
 0.12208613683E+02 0.10897212330E+02 0.97803189734E+01 0.89419362938E+01 0.83174127234E+01
 0.77596790862E+01 0.72399618096E+01 0.67970936761E+01 0.64391874060E+01 0.61665484016E+01
 0.59666802429E+01 0.58270676779E+01 0.57349410044E+01 0.56831711043E+01 0.56661205702E+01
 0.56831711043E+01 0.57349410044E+01 0.58270676779E+01 0.59666802429E+01 0.61665484016E+01
 0.64391874060E+01 0.67970936761E+01 0.72399618096E+01 0.77596790862E+01 0.83174127234E+01
 0.89419362938E+01 0.97803189734E+01 0.10897212330E+02 0.12208613683E+02 0.13532873705E+02
 0.14662821522E+02 0.15418676891E+02 0.24243848341E+02 0.23750571581E+02 0.22332318068E+02
 0.20174015284E+02 0.17568445754E+02 0.14878142771E+02 0.12458887185E+02 0.10567822254E+02
 0.92807094513E+01 0.84396553802E+01 0.77596790862E+01 0.71602919897E+01 0.66768712786E+01
 0.63080559523E+01 0.60443944258E+01 0.58646529155E+01 0.57518340385E+01 0.56895229656E+01
 0.56702454907E+01 0.56895229656E+01 0.57518340385E+01 0.58646529155E+01 0.60443944258E+01
 0.63080559523E+01 0.66768712786E+01 0.71602919897E+01 0.77596790862E+01 0.84396553802E+01
 0.92807094513E+01 0.10567822254E+02 0.12458887185E+02 0.14878142771E+02 0.17568445754E+02
 0.20174015284E+02 0.22332318068E+02 0.23750571581E+02 0.37320501025E+02 0.36508808586E+02
 0.34164614814E+02 0.30560557855E+02 0.26133509702E+02 0.21438784538E+02 0.17053771230E+02
 0.13453458080E+02 0.10878209344E+02 0.92807094513E+01 0.83174127234E+01 0.75664523215E+01
 0.69416636268E+01 0.64672663656E+01 0.61283320335E+01 0.59030586385E+01 0.57635425832E+01
 0.56895681164E+01 0.56661205702E+01 0.56895681164E+01 0.57635425832E+01 0.59030586385E+01
 0.61283320335E+01 0.64672663656E+01 0.69416636268E+01 0.75664523215E+01 0.83174127234E+01
 0.92807094513E+01 0.10878209344E+02 0.13453458080E+02 0.17053771230E+02 0.21438784538E+02
 0.26133509702E+02 0.30560557855E+02 0.34164614814E+02 0.36508808586E+02 0.55169348548E+02
 0.53939908364E+02 0.50387457686E+02 0.44902831478E+02 0.38115349545E+02 0.30813290895E+02
 0.23835415396E+02 0.17897129003E+02 0.13453458080E+02 0.10567822254E+02 0.89419362938E+01
 0.79818114776E+01 0.72236889789E+01 0.66366557873E+01 0.62168804079E+01 0.59405850508E+01
 0.57715975831E+01 0.56839692723E+01 0.56560020194E+01 0.56839692723E+01 0.57715975831E+01
 0.59405850508E+01 0.62168804079E+01 0.66366557873E+01 0.72236889789E+01 0.79818114776E+01
 0.89419362938E+01 0.10567822254E+02 0.13453458080E+02 0.17897129003E+02 0.23835415396E+02
 0.30813290895E+02 0.38115349545E+02 0.44902831478E+02 0.50387457686E+02 0.53939908364E+02
 0.77324739627E+02 0.75580403374E+02 0.70537448346E+02 0.62758779736E+02 0.53113727760E+02
 0.42683658627E+02 0.32594572505E+02 0.23835415396E+02 0.17053771230E+02 0.12458887185E+02
 0.97803189734E+01 0.83883562235E+01 0.75044169910E+01 0.68056167507E+01 0.63082171525E+01
 0.59750621444E+01 0.57773472993E+01 0.56717536105E+01 0.56415697426E+01 0.56717536105E+01
 0.57773472993E+01 0.59750621444E+01 0.63082171525E+01 0.68056167507E+01 0.75044169910E+01
 0.83883562235E+01 0.97803189734E+01 0.12458887185E+02 0.17053771230E+02 0.23835415396E+02
 0.32594572505E+02 0.42683658627E+02 0.53113727760E+02 0.62758779736E+02 0.70537448346E+02
 0.75580403374E+02 0.10252045580E+03 0.10017433534E+03 0.93405589326E+02 0.82994795513E+02
 0.70120714885E+02 0.56203012419E+02 0.42683658627E+02 0.30813290895E+02 0.21438784538E+02
 0.14878142771E+02 0.10897212330E+02 0.88336287922E+01 0.77547583662E+01 0.69689745695E+01
 0.63924563620E+01 0.60089465071E+01 0.57784163298E+01 0.56581841878E+01 0.56221205771E+01
 0.56581841878E+01 0.57784163298E+01 0.60089465071E+01 0.63924563620E+01 0.69689745695E+01
 0.77547583662E+01 0.88336287922E+01 0.10897212330E+02 0.14878142771E+02 0.21438784538E+02
 0.30813290895E+02 0.42683658627E+02 0.56203012419E+02 0.70120714885E+02 0.82994795513E+02
 0.93405589326E+02 0.10017433534E+03 0.12873827680E+03 0.12574141301E+03 0.11711843605E+03
 0.10390629287E+03 0.87643257319E+02 0.70120714885E+02 0.53113727760E+02 0.38115349545E+02
 0.26133509702E+02 0.17568445754E+02 0.12208613683E+02 0.93452660296E+01 0.79714055974E+01
 0.71126329019E+01 0.64667793315E+01 0.60391475205E+01 0.57766610214E+01 0.56436203570E+01
 0.56007586746E+01 0.56436203570E+01 0.57766610214E+01 0.60391475205E+01 0.64667793315E+01
 0.71126329019E+01 0.79714055974E+01 0.93452660296E+01 0.12208613683E+02 0.17568445754E+02
 0.26133509702E+02 0.38115349545E+02 0.53113727760E+02 0.70120714885E+02 0.87643257319E+02
 0.10390629287E+03 0.11711843605E+03 0.12574141301E+03 0.15339149463E+03 0.14975724994E+03
 0.13932538485E+03 0.12340485835E+03 0.10390629287E+03 0.82994795513E+02 0.62758779736E+02
 0.44902831478E+02 0.30560557855E+02 0.20174015284E+02 0.13532873705E+02 0.98836328928E+01
 0.81620397870E+01 0.72254299702E+01 0.65287571225E+01 0.60628253367E+01 0.57745092476E+01
 0.56291707685E+01 0.55814160108E+01 0.56291707685E+01 0.57745092476E+01 0.60628253367E+01
 0.65287571225E+01 0.72254299702E+01 0.81620397870E+01 0.98836328928E+01 0.13532873705E+02
 0.20174015284E+02 0.30560557855E+02 0.44902831478E+02 0.62758779736E+02 0.82994795513E+02
 0.10390629287E+03 0.12340485835E+03 0.13932538485E+03 0.14975724994E+03 0.17368112552E+03
 0.16950372962E+03 0.15753339506E+03 0.13932538485E+03 0.11711843605E+03 0.93405589326E+02
 0.70537448346E+02 0.50387457686E+02 0.34164614814E+02 0.22332318068E+02 0.14662821522E+02
 0.10362819699E+02 0.83214920114E+01 0.73041447112E+01 0.65756238335E+01 0.60790802613E+01
 0.57728265680E+01 0.56164196965E+01 0.55662802824E+01 0.56164196965E+01 0.57728265680E+01
 0.60790802613E+01 0.65756238335E+01 0.73041447112E+01 0.83214920114E+01 0.10362819699E+02
 0.14662821522E+02 0.22332318068E+02 0.34164614814E+02 0.50387457686E+02 0.70537448346E+02
 0.93405589326E+02 0.11711843605E+03 0.13932538485E+03 0.15753339506E+03 0.16950372962E+03
 0.18705859695E+03 0.18251344343E+03 0.16950372962E+03 0.14975724994E+03 0.12574141301E+03
 0.10017433534E+03 0.75580403374E+02 0.53939908364E+02 0.36508808586E+02 0.23750571581E+02
 0.15418676891E+02 0.10693459265E+02 0.84302685583E+01 0.73508206538E+01 0.66042443912E+01
 0.60886839992E+01 0.57716502355E+01 0.56080099117E+01 0.55566114824E+01 0.56080099117E+01
 0.57716502355E+01 0.60886839992E+01 0.66042443912E+01 0.73508206538E+01 0.84302685583E+01
 0.10693459265E+02 0.15418676891E+02 0.23750571581E+02 0.36508808586E+02 0.53939908364E+02
 0.75580403374E+02 0.10017433534E+03 0.12574141301E+03 0.14975724994E+03 0.16950372962E+03
 0.18251344343E+03 0.18705859695E+03 0.18251344343E+03 0.16950372962E+03 0.14975724994E+03
 0.12574141301E+03 0.10017433534E+03 0.75580403374E+02 0.53939908364E+02 0.36508808586E+02
 0.23750571581E+02 0.15418676891E+02 0.10693459265E+02 0.84302685583E+01 0.73508206538E+01
 0.66042443912E+01 0.60886839992E+01 0.57716502355E+01 0.56080099117E+01 0.55566114824E+01
 0.56080099117E+01 0.57716502355E+01 0.60886839992E+01 0.66042443912E+01 0.73508206538E+01
 0.84302685583E+01 0.10693459265E+02 0.15418676891E+02 0.23750571581E+02 0.36508808586E+02
 0.53939908364E+02 0.75580403374E+02 0.10017433534E+03 0.12574141301E+03 0.14975724994E+03
 0.16950372962E+03 0.18251344343E+03 0.18251344343E+03 0.17809383560E+03 0.16543917759E+03
 0.14621773558E+03 0.12281901323E+03 0.97883175487E+02 0.73874560726E+02 0.52736941484E+02
 0.35715135519E+02 0.23269266488E+02 0.15161020606E+02 0.10580512720E+02 0.83932602873E+01
 0.73359688797E+01 0.65951870101E+01 0.60860440294E+01 0.57724536585E+01 0.56113418087E+01
 0.55602480936E+01 0.56113418087E+01 0.57724536585E+01 0.60860440294E+01 0.65951870101E+01
 0.73359688797E+01 0.83932602873E+01 0.10580512720E+02 0.15161020606E+02 0.23269266488E+02
 0.35715135519E+02 0.52736941484E+02 0.73874560726E+02 0.97883175487E+02 0.12281901323E+03
 0.14621773558E+03 0.16543917759E+03 0.17809383560E+03 0.16950372962E+03 0.16543917759E+03
 0.15378830039E+03 0.13605445314E+03 0.11440759157E+03 0.91271947153E+02 0.68943333405E+02
 0.49261759869E+02 0.33423679370E+02 0.21886334837E+02 0.14428189529E+02 0.10263241515E+02
 0.82902973078E+01 0.72908814847E+01 0.65681711648E+01 0.60777842497E+01 0.57749703790E+01
 0.56208696266E+01 0.55711043311E+01 0.56208696266E+01 0.57749703790E+01 0.60777842497E+01
 0.65681711648E+01 0.72908814847E+01 0.82902973078E+01 0.10263241515E+02 0.14428189529E+02
 0.21886334837E+02 0.33423679370E+02 0.49261759869E+02 0.68943333405E+02 0.91271947153E+02
 0.11440759157E+03 0.13605445314E+03 0.15378830039E+03 0.16543917759E+03 0.14975724994E+03
 0.14621773558E+03 0.13605445314E+03 0.12053526116E+03 0.10151464044E+03 0.81101344142E+02
 0.61337351849E+02 0.43899096868E+02 0.29903475806E+02 0.19784288258E+02 0.13334324598E+02
 0.98042839483E+01 0.81384391835E+01 0.72143429473E+01 0.65240625689E+01 0.60634679770E+01
 0.57785382572E+01 0.56349780034E+01 0.55877991447E+01 0.56349780034E+01 0.57785382572E+01
 0.60634679770E+01 0.65240625689E+01 0.72143429473E+01 0.81384391835E+01 0.98042839483E+01
 0.13334324598E+02 0.19784288258E+02 0.29903475806E+02 0.43899096868E+02 0.61337351849E+02
 0.81101344142E+02 0.10151464044E+03 0.12053526116E+03 0.13605445314E+03 0.14621773558E+03
 0.12574141301E+03 0.12281901323E+03 0.11440759157E+03 0.10151464044E+03 0.85636303935E+02
 0.68521929667E+02 0.51909515390E+02 0.37267884062E+02 0.25584425301E+02 0.17251535904E+02
 0.12055203749E+02 0.92896033788E+01 0.79552009062E+01 0.71042462603E+01 0.64653100439E+01
 0.60421761293E+01 0.57830989166E+01 0.56513070780E+01 0.56092233521E+01 0.56513070780E+01
 0.57830989166E+01 0.60421761293E+01 0.64653100439E+01 0.71042462603E+01 0.79552009062E+01
 0.92896033788E+01 0.12055203749E+02 0.17251535904E+02 0.25584425301E+02 0.37267884062E+02
 0.51909515390E+02 0.68521929667E+02 0.85636303935E+02 0.10151464044E+03 0.11440759157E+03
 0.12281901323E+03 0.10017433534E+03 0.97883175487E+02 0.91271947153E+02 0.81101344142E+02
 0.68521929667E+02 0.54923411031E+02 0.41721108971E+02 0.30141905282E+02 0.21012538906E+02
 0.14643029667E+02 0.10792124059E+02 0.88004462100E+01 0.77437699190E+01 0.69643046206E+01
 0.63944222511E+01 0.60147908732E+01 0.57870352158E+01 0.56678193989E+01 0.56323468328E+01
 0.56678193989E+01 0.57870352158E+01 0.60147908732E+01 0.63944222511E+01 0.69643046206E+01
 0.77437699190E+01 0.88004462100E+01 0.10792124059E+02 0.14643029667E+02 0.21012538906E+02
 0.30141905282E+02 0.41721108971E+02 0.54923411031E+02 0.68521929667E+02 0.81101344142E+02
 0.91271947153E+02 0.97883175487E+02 0.75580403374E+02 0.73874560726E+02 0.68943333405E+02
 0.61337351849E+02 0.51909515390E+02 0.41721108971E+02 0.31876895155E+02 0.23342913912E+02
 0.16753510881E+02 0.12304301434E+02 0.97198304410E+01 0.83711407950E+01 0.74972287815E+01
 0.68054020535E+01 0.63132830999E+01 0.59839805885E+01 0.57882615403E+01 0.56838420414E+01
 0.56538061738E+01 0.56838420414E+01 0.57882615403E+01 0.59839805885E+01 0.63132830999E+01
 0.68054020535E+01 0.74972287815E+01 0.83711407950E+01 0.97198304410E+01 0.12304301434E+02
 0.16753510881E+02 0.23342913912E+02 0.31876895155E+02 0.41721108971E+02 0.51909515390E+02
 0.61337351849E+02 0.68943333405E+02 0.73874560726E+02 0.53939908364E+02 0.52736941484E+02
 0.49261759869E+02 0.43899096868E+02 0.37267884062E+02 0.30141905282E+02 0.23342913912E+02
 0.17571839026E+02 0.13267815935E+02 0.10482417784E+02 0.89143000996E+01 0.79724442915E+01
 0.72210156086E+01 0.66407907921E+01 0.62256088718E+01 0.59523469114E+01 0.57848047281E+01
 0.56979977643E+01 0.56701521813E+01 0.56979977643E+01 0.57848047281E+01 0.59523469114E+01
 0.62256088718E+01 0.66407907921E+01 0.72210156086E+01 0.79724442915E+01 0.89143000996E+01
 0.10482417784E+02 0.13267815935E+02 0.17571839026E+02 0.23342913912E+02 0.30141905282E+02
 0.37267884062E+02 0.43899096868E+02 0.49261759869E+02 0.52736941484E+02 0.36508808586E+02
 0.35715135519E+02 0.33423679370E+02 0.29903475806E+02 0.25584425301E+02 0.21012538906E+02
 0.16753510881E+02 0.13267815935E+02 0.10782837500E+02 0.92448619988E+01 0.83056690507E+01
 0.75619575216E+01 0.69445199897E+01 0.64754611873E+01 0.61404928599E+01 0.59176591184E+01
 0.57797375450E+01 0.57063446668E+01 0.56831711043E+01 0.57063446668E+01 0.57797375450E+01
 0.59176591184E+01 0.61404928599E+01 0.64754611873E+01 0.69445199897E+01 0.75619575216E+01
 0.83056690507E+01 0.92448619988E+01 0.10782837500E+02 0.13267815935E+02 0.16753510881E+02
 0.21012538906E+02 0.25584425301E+02 0.29903475806E+02 0.33423679370E+02 0.35715135519E+02
 0.23750571581E+02 0.23269266488E+02 0.21886334837E+02 0.19784288258E+02 0.17251535904E+02
 0.14643029667E+02 0.12304301434E+02 0.10482417784E+02 0.92448619988E+01 0.84267809803E+01