   2   2   1   0
  0.1173411E+02  0.2863036E-09  0.2863036E-09  0.2863036E-09  0.5000000E-15
  1.000000000000000E-004
  CAR 
 unknown system                          
     44.38496830     -4.83560297  301      5.85460189      1.00000000
     -4.836  0.0000E+00  0.0000E+00  0.0000E+00  0.0000E+00
     -4.672  0.0000E+00  0.0000E+00  0.0000E+00  0.0000E+00
     -4.507  0.0000E+00  0.0000E+00  0.0000E+00  0.0000E+00
     -4.343 -0.9717E-37  0.0000E+00 -0.1594E-37  0.0000E+00
     -4.179 -0.7407E-31 -0.3784E-37 -0.1215E-31 -0.6208E-38
     -4.015 -0.1454E-25 -0.3155E-31 -0.2385E-26 -0.5176E-32
     -3.851 -0.7328E-21 -0.6774E-26 -0.1202E-21 -0.1111E-26
     -3.687 -0.9139E-17 -0.3736E-21 -0.1500E-17 -0.6130E-22
     -3.523 -0.2961E-13 -0.5101E-17 -0.4860E-14 -0.8369E-18
     -3.359 -0.2402E-10 -0.1811E-13 -0.3945E-11 -0.2972E-14
     -3.195 -0.4784E-08 -0.1610E-10 -0.7889E-09 -0.2645E-11
     -3.031 -0.2271E-06 -0.3521E-08 -0.3804E-07 -0.5803E-09
     -2.867 -0.2435E-05 -0.1837E-06 -0.4375E-06 -0.3071E-07
     -2.703 -0.2833E-05 -0.2170E-05 -0.9023E-06 -0.3867E-06
     -2.539  0.4787E-04 -0.3338E-05  0.6952E-05 -0.9344E-06
     -2.375  0.2354E-03  0.4060E-04  0.4558E-04  0.5727E-05
     -2.211  0.4485E-03  0.2166E-03  0.1192E-03  0.4126E-04
     -2.046  0.3943E-03  0.4373E-03  0.1839E-03  0.1130E-03
     -1.882  0.3723E-03  0.4052E-03  0.2449E-03  0.1795E-03
     -1.718  0.8804E-03  0.3419E-03  0.3894E-03  0.2356E-03
     -1.554  0.1015E-02  0.8032E-03  0.5558E-03  0.3674E-03
     -1.390  0.3941E-03  0.1051E-02  0.6205E-03  0.5397E-03
     -1.226  0.5576E-03  0.4509E-03  0.7120E-03  0.6137E-03
     -1.062  0.1250E-02  0.4217E-03  0.9171E-03  0.6829E-03
     -0.898  0.1312E-02  0.1119E-02  0.1132E-02  0.8665E-03
     -0.734  0.9666E-03  0.1305E-02  0.1291E-02  0.1081E-02
     -0.570  0.1115E-02  0.1034E-02  0.1474E-02  0.1250E-02
     -0.406  0.1722E-02  0.8033E-03  0.1757E-02  0.1382E-02
     -0.242  0.7924E-03  0.1505E-02  0.1887E-02  0.1629E-02
     -0.078  0.1085E-02  0.1377E-02  0.2065E-02  0.1855E-02
      0.086  0.2629E-02  0.3850E-03  0.2496E-02  0.1918E-02
      0.251  0.2208E-02  0.1562E-02  0.2858E-02  0.2174E-02
      0.415  0.1923E-02  0.2309E-02  0.3174E-02  0.2553E-02
      0.579  0.2113E-02  0.1672E-02  0.3520E-02  0.2827E-02
      0.743  0.2805E-02  0.1855E-02  0.3980E-02  0.3132E-02
      0.907  0.4217E-02  0.1535E-02  0.4672E-02  0.3384E-02
      1.071  0.9729E-02  0.1304E-02  0.6268E-02  0.3598E-02
      1.235  0.1136E-01  0.2496E-02  0.8132E-02  0.4007E-02
      1.399  0.1180E-01  0.2360E-02  0.1007E-01  0.4394E-02
      1.563  0.1682E-01  0.2436E-02  0.1283E-01  0.4794E-02
      1.727  0.1843E-01  0.4092E-02  0.1585E-01  0.5466E-02
      1.891  0.1601E-01  0.3099E-02  0.1848E-01  0.5974E-02
      2.055  0.1254E-01  0.3355E-02  0.2054E-01  0.6524E-02
      2.219  0.7819E-02  0.5068E-02  0.2182E-01  0.7356E-02
      2.383  0.1056E-01  0.6532E-02  0.2355E-01  0.8428E-02
      2.547  0.2606E-01  0.8203E-02  0.2783E-01  0.9774E-02
      2.712  0.2907E-01  0.7699E-02  0.3260E-01  0.1104E-01
      2.876  0.2148E-01  0.6836E-02  0.3612E-01  0.1216E-01
      3.040  0.2055E-01  0.9249E-02  0.3949E-01  0.1368E-01
      3.204  0.2367E-01  0.1318E-01  0.4337E-01  0.1584E-01
      3.368  0.2980E-01  0.1280E-01  0.4826E-01  0.1794E-01
      3.532  0.2460E-01  0.9635E-02  0.5230E-01  0.1952E-01
      3.696  0.1369E-01  0.8418E-02  0.5454E-01  0.2090E-01
      3.860  0.8702E-02  0.5520E-02  0.5597E-01  0.2181E-01
      4.024  0.7904E-02  0.1046E-01  0.5727E-01  0.2352E-01
      4.188  0.9106E-02  0.2469E-01  0.5876E-01  0.2757E-01
      4.352  0.1412E-01  0.2556E-01  0.6108E-01  0.3177E-01
      4.516  0.2126E-01  0.2344E-01  0.6457E-01  0.3561E-01
      4.680  0.3163E-01  0.2384E-01  0.6976E-01  0.3952E-01
      4.844  0.4502E-01  0.2181E-01  0.7714E-01  0.4310E-01
      5.009  0.5028E-01  0.2509E-01  0.8539E-01  0.4722E-01
      5.173  0.3217E-01  0.2274E-01  0.9067E-01  0.5095E-01
      5.337  0.2044E-01  0.1801E-01  0.9403E-01  0.5390E-01
      5.501  0.1340E-01  0.1359E-01  0.9622E-01  0.5613E-01
      5.665  0.1369E-01  0.7250E-02  0.9847E-01  0.5732E-01
      5.829  0.1801E-01  0.4296E-02  0.1014E+00  0.5803E-01
      5.993  0.1536E-01  0.3998E-02  0.1039E+00  0.5868E-01
      6.157  0.8532E-02  0.6402E-02  0.1053E+00  0.5973E-01
      6.321  0.4116E-02  0.6611E-02  0.1060E+00  0.6082E-01
      6.485  0.3286E-02  0.7085E-02  0.1066E+00  0.6198E-01
      6.649  0.1950E-02  0.1199E-01  0.1069E+00  0.6395E-01
      6.813  0.2690E-02  0.1525E-01  0.1073E+00  0.6645E-01
      6.977  0.2969E-02  0.1701E-01  0.1078E+00  0.6924E-01
      7.141  0.3870E-02  0.2117E-01  0.1084E+00  0.7271E-01
      7.305  0.5173E-02  0.2736E-01  0.1093E+00  0.7720E-01
      7.470  0.1350E-02  0.2504E-01  0.1095E+00  0.8131E-01
      7.634  0.1265E-02  0.2858E-01  0.1097E+00  0.8600E-01
      7.798  0.3750E-02  0.4703E-01  0.1103E+00  0.9372E-01
      7.962  0.4174E-02  0.3859E-01  0.1110E+00  0.1000E+00
      8.126  0.1571E-02  0.1819E-01  0.1113E+00  0.1030E+00
      8.290  0.8096E-03  0.1363E-01  0.1114E+00  0.1053E+00
      8.454  0.2777E-02  0.7967E-02  0.1119E+00  0.1066E+00
      8.618  0.2646E-02  0.3032E-02  0.1123E+00  0.1071E+00
      8.782  0.1436E-02  0.3543E-02  0.1125E+00  0.1077E+00
      8.946  0.5425E-02  0.5659E-02  0.1134E+00  0.1086E+00
      9.110  0.4575E-02  0.4907E-02  0.1142E+00  0.1094E+00
      9.274  0.1517E-02  0.3145E-02  0.1144E+00  0.1099E+00
      9.438  0.1885E-02  0.3620E-02  0.1147E+00  0.1105E+00
      9.602  0.8610E-03  0.3015E-02  0.1149E+00  0.1110E+00
      9.766  0.3965E-03  0.2328E-02  0.1149E+00  0.1114E+00
      9.931  0.1240E-02  0.2581E-02  0.1151E+00  0.1118E+00
     10.095  0.3387E-02  0.3048E-02  0.1157E+00  0.1123E+00
     10.259  0.3020E-02  0.4057E-02  0.1162E+00  0.1130E+00
     10.423  0.1651E-02  0.5453E-02  0.1165E+00  0.1139E+00
     10.587  0.1701E-02  0.3065E-02  0.1167E+00  0.1144E+00
     10.751  0.1308E-02  0.1519E-02  0.1170E+00  0.1146E+00
     10.915  0.1802E-02  0.1187E-02  0.1173E+00  0.1148E+00
     11.079  0.2479E-02  0.1073E-02  0.1177E+00  0.1150E+00
     11.243  0.1938E-02  0.1555E-02  0.1180E+00  0.1152E+00
     11.407  0.1448E-02  0.3820E-02  0.1182E+00  0.1159E+00
     11.571  0.1117E-02  0.4043E-02  0.1184E+00  0.1165E+00
     11.735  0.1192E-02  0.1847E-02  0.1186E+00  0.1168E+00
     11.899  0.4271E-03  0.1339E-02  0.1187E+00  0.1170E+00
     12.063  0.6117E-03  0.1555E-02  0.1188E+00  0.1173E+00
     12.228  0.3204E-03  0.1992E-02  0.1188E+00  0.1176E+00
     12.392  0.3376E-04  0.1990E-02  0.1188E+00  0.1180E+00
     12.556  0.6118E-03  0.1619E-02  0.1189E+00  0.1182E+00
     12.720  0.1626E-02  0.1319E-02  0.1192E+00  0.1184E+00
     12.884  0.2297E-02  0.1143E-02  0.1196E+00  0.1186E+00
     13.048  0.1262E-02  0.6717E-03  0.1198E+00  0.1187E+00
     13.212  0.4921E-03  0.6022E-03  0.1199E+00  0.1188E+00
     13.376  0.2586E-02  0.5287E-03  0.1203E+00  0.1189E+00
     13.540  0.3540E-02  0.1164E-02  0.1209E+00  0.1191E+00
     13.704  0.3973E-02  0.1426E-02  0.1215E+00  0.1193E+00
     13.868  0.5376E-02  0.1875E-02  0.1224E+00  0.1197E+00
     14.032  0.4086E-02  0.9117E-03  0.1231E+00  0.1198E+00
     14.196  0.4111E-02 -0.3540E-04  0.1237E+00  0.1198E+00
     14.360  0.6390E-02 -0.2767E-03  0.1248E+00  0.1198E+00
     14.524  0.3439E-02  0.9710E-03  0.1254E+00  0.1199E+00
     14.689  0.6366E-03  0.5526E-02  0.1255E+00  0.1208E+00
     14.853  0.2454E-02  0.5174E-02  0.1259E+00  0.1217E+00
     15.017  0.3936E-02  0.3083E-02  0.1265E+00  0.1222E+00
     15.181  0.3057E-02  0.6522E-02  0.1270E+00  0.1232E+00
     15.345  0.3011E-02  0.8216E-02  0.1275E+00  0.1246E+00
     15.509  0.3966E-02  0.5143E-02  0.1282E+00  0.1254E+00
     15.673  0.3556E-02  0.1920E-02  0.1287E+00  0.1258E+00
     15.837  0.5130E-02  0.3094E-02  0.1296E+00  0.1263E+00
     16.001  0.4039E-02  0.2029E-02  0.1302E+00  0.1266E+00
     16.165  0.4601E-02  0.1762E-02  0.1310E+00  0.1269E+00
     16.329  0.3889E-02  0.4450E-02  0.1316E+00  0.1276E+00
     16.493  0.2121E-02  0.5966E-02  0.1320E+00  0.1286E+00
     16.657  0.1002E-02  0.5501E-02  0.1321E+00  0.1295E+00
     16.821  0.2344E-02  0.4998E-02  0.1325E+00  0.1303E+00
     16.986  0.5185E-02  0.4272E-02  0.1334E+00  0.1310E+00
     17.150  0.5468E-02  0.4449E-02  0.1343E+00  0.1317E+00
     17.314  0.5536E-02  0.2135E-02  0.1352E+00  0.1321E+00
     17.478  0.6156E-02  0.1001E-02  0.1362E+00  0.1323E+00
     17.642  0.4422E-02  0.2291E-02  0.1369E+00  0.1326E+00
     17.806  0.2248E-02  0.5462E-02  0.1373E+00  0.1335E+00
     17.970  0.1137E-02  0.6427E-02  0.1375E+00  0.1346E+00
     18.134  0.9185E-03  0.6153E-02  0.1376E+00  0.1356E+00
     18.298  0.2746E-02  0.4085E-02  0.1381E+00  0.1363E+00
     18.462  0.4335E-02  0.4462E-02  0.1388E+00  0.1370E+00
     18.626  0.4920E-02  0.3237E-02  0.1396E+00  0.1375E+00
     18.790  0.5492E-02  0.6419E-03  0.1405E+00  0.1376E+00
     18.954  0.2888E-02  0.1889E-02  0.1410E+00  0.1379E+00
     19.118  0.4448E-02  0.4322E-02  0.1417E+00  0.1387E+00
     19.282  0.4787E-02  0.4865E-02  0.1425E+00  0.1394E+00
     19.447  0.3432E-02  0.4482E-02  0.1431E+00  0.1402E+00
     19.611  0.2169E-02  0.3374E-02  0.1434E+00  0.1407E+00
     19.775  0.2071E-02  0.3652E-02  0.1437E+00  0.1413E+00
     19.939  0.3564E-02  0.5632E-02  0.1443E+00  0.1423E+00
     20.103  0.3844E-02  0.5239E-02  0.1450E+00  0.1431E+00
     20.267  0.2603E-02  0.1944E-02  0.1454E+00  0.1434E+00
     20.431  0.2810E-02  0.1620E-02  0.1459E+00  0.1437E+00
     20.595  0.3471E-02  0.3489E-02  0.1464E+00  0.1443E+00
     20.759  0.3102E-02  0.4649E-02  0.1469E+00  0.1450E+00
     20.923  0.5267E-02  0.2967E-02  0.1478E+00  0.1455E+00
     21.087  0.4915E-02  0.2645E-02  0.1486E+00  0.1460E+00
     21.251  0.2626E-02  0.3402E-02  0.1490E+00  0.1465E+00
     21.415  0.2336E-02  0.3641E-02  0.1494E+00  0.1471E+00
     21.579  0.2288E-02  0.4752E-02  0.1498E+00  0.1479E+00
     21.744  0.3168E-02  0.4964E-02  0.1503E+00  0.1487E+00
     21.908  0.5403E-02  0.2865E-02  0.1512E+00  0.1492E+00
     22.072  0.4559E-02  0.2059E-02  0.1519E+00  0.1495E+00
     22.236  0.3656E-02  0.2555E-02  0.1525E+00  0.1499E+00
     22.400  0.1638E-02  0.5060E-02  0.1528E+00  0.1508E+00
     22.564  0.2215E-02  0.4592E-02  0.1532E+00  0.1515E+00
     22.728  0.3998E-02  0.3134E-02  0.1538E+00  0.1520E+00
     22.892  0.5148E-02  0.2615E-02  0.1547E+00  0.1525E+00
     23.056  0.6077E-02  0.2457E-02  0.1557E+00  0.1529E+00
     23.220  0.5584E-02  0.2976E-02  0.1566E+00  0.1534E+00
     23.384  0.5635E-02  0.4621E-02  0.1575E+00  0.1541E+00
     23.548  0.3216E-02  0.7197E-02  0.1580E+00  0.1553E+00
     23.712  0.2725E-02  0.5171E-02  0.1585E+00  0.1561E+00
     23.876  0.4279E-02  0.5155E-02  0.1592E+00  0.1570E+00
     24.040  0.7281E-02  0.4708E-02  0.1604E+00  0.1578E+00
     24.205  0.8106E-02  0.3878E-02  0.1617E+00  0.1584E+00
     24.369  0.2954E-02  0.6274E-02  0.1622E+00  0.1594E+00
     24.533  0.2546E-02  0.7867E-02  0.1626E+00  0.1607E+00
     24.697  0.4558E-02  0.5451E-02  0.1634E+00  0.1616E+00
     24.861  0.3852E-02  0.3358E-02  0.1640E+00  0.1622E+00
     25.025  0.4911E-02  0.2492E-02  0.1648E+00  0.1626E+00
     25.189  0.6502E-02  0.4849E-02  0.1659E+00  0.1634E+00
     25.353  0.7676E-02  0.6003E-02  0.1671E+00  0.1644E+00
     25.517  0.4713E-02  0.3503E-02  0.1679E+00  0.1649E+00
     25.681  0.4196E-02  0.4792E-02  0.1686E+00  0.1657E+00
     25.845  0.4559E-02  0.7624E-02  0.1693E+00  0.1670E+00
     26.009  0.6074E-02  0.7135E-02  0.1703E+00  0.1681E+00
     26.173  0.7150E-02  0.5175E-02  0.1715E+00  0.1690E+00
     26.337  0.6462E-02  0.4211E-02  0.1726E+00  0.1697E+00
     26.501  0.2700E-02  0.5253E-02  0.1730E+00  0.1705E+00
     26.666  0.1677E-02  0.7431E-02  0.1733E+00  0.1718E+00
     26.830  0.3453E-02  0.6071E-02  0.1739E+00  0.1728E+00
     26.994  0.5267E-02  0.2861E-02  0.1747E+00  0.1732E+00
     27.158  0.5359E-02  0.2179E-02  0.1756E+00  0.1736E+00
     27.322  0.4457E-02  0.4550E-02  0.1763E+00  0.1743E+00
     27.486  0.5666E-02  0.4654E-02  0.1773E+00  0.1751E+00
     27.650  0.2953E-02  0.3532E-02  0.1777E+00  0.1757E+00
     27.814  0.2395E-02  0.4088E-02  0.1781E+00  0.1763E+00
     27.978  0.5228E-02  0.5781E-02  0.1790E+00  0.1773E+00
     28.142  0.4042E-02  0.4400E-02  0.1797E+00  0.1780E+00
     28.306  0.1763E-02  0.3138E-02  0.1799E+00  0.1785E+00
     28.470  0.2428E-02  0.3205E-02  0.1803E+00  0.1790E+00
     28.634  0.5477E-02  0.3345E-02  0.1812E+00  0.1796E+00
     28.798  0.4107E-02  0.3240E-02  0.1819E+00  0.1801E+00
     28.963  0.2500E-02  0.5109E-02  0.1823E+00  0.1810E+00
     29.127  0.1022E-02  0.4756E-02  0.1825E+00  0.1817E+00
     29.291  0.6824E-03  0.2707E-02  0.1826E+00  0.1822E+00
     29.455  0.3504E-02  0.2090E-02  0.1832E+00  0.1825E+00
     29.619  0.4119E-02  0.8129E-03  0.1839E+00  0.1827E+00
     29.783  0.2749E-02  0.2809E-03  0.1843E+00  0.1827E+00
     29.947  0.3206E-02  0.2738E-02  0.1848E+00  0.1832E+00
     30.111  0.3562E-02  0.4986E-02  0.1854E+00  0.1840E+00
     30.275  0.5045E-02  0.4744E-02  0.1862E+00  0.1848E+00
     30.439  0.5019E-02  0.3094E-02  0.1871E+00  0.1853E+00
     30.603  0.3815E-02  0.3855E-02  0.1877E+00  0.1859E+00
     30.767  0.9122E-02  0.5006E-02  0.1892E+00  0.1867E+00
     30.931  0.8435E-02  0.4875E-02  0.1906E+00  0.1875E+00
     31.095  0.3542E-02  0.8395E-02  0.1912E+00  0.1889E+00
     31.259  0.4963E-02  0.1022E-01  0.1920E+00  0.1906E+00
     31.424  0.5146E-02  0.5363E-02  0.1928E+00  0.1915E+00
     31.588  0.3390E-02  0.2382E-02  0.1934E+00  0.1918E+00
     31.752  0.3660E-02  0.3954E-02  0.1940E+00  0.1925E+00
     31.916  0.4533E-02  0.4331E-02  0.1947E+00  0.1932E+00
     32.080  0.2365E-02  0.5066E-02  0.1951E+00  0.1940E+00
     32.244  0.4476E-03  0.4031E-02  0.1952E+00  0.1947E+00
     32.408  0.7771E-03  0.9682E-03  0.1953E+00  0.1949E+00
     32.572  0.1864E-02  0.1443E-02  0.1956E+00  0.1951E+00
     32.736  0.3923E-02  0.1390E-02  0.1963E+00  0.1953E+00
     32.900  0.2987E-02  0.3408E-02  0.1967E+00  0.1959E+00
     33.064  0.8043E-03  0.4608E-02  0.1969E+00  0.1966E+00
     33.228  0.1200E-02  0.1601E-02  0.1971E+00  0.1969E+00
     33.392  0.1975E-02  0.1067E-02  0.1974E+00  0.1971E+00
     33.556  0.1219E-02  0.1339E-02  0.1976E+00  0.1973E+00
     33.721  0.1373E-04  0.1293E-02  0.1976E+00  0.1975E+00
     33.885  0.6520E-06  0.5103E-03  0.1976E+00  0.1976E+00
     34.049  0.5734E-03  0.3826E-03  0.1977E+00  0.1977E+00
     34.213  0.4417E-03  0.6324E-03  0.1978E+00  0.1978E+00
     34.377  0.2276E-03  0.7271E-04  0.1978E+00  0.1978E+00
     34.541  0.1283E-02  0.4720E-03  0.1980E+00  0.1978E+00
     34.705  0.8028E-03  0.1388E-02  0.1981E+00  0.1981E+00
     34.869 -0.3060E-04  0.4581E-03  0.1981E+00  0.1981E+00
     35.033 -0.4803E-04 -0.6690E-04  0.1981E+00  0.1981E+00
     35.197 -0.3343E-04 -0.6492E-04  0.1981E+00  0.1981E+00
     35.361  0.4464E-03 -0.1194E-04  0.1982E+00  0.1981E+00
     35.525  0.1770E-02  0.1386E-02  0.1985E+00  0.1984E+00
     35.689  0.2002E-02  0.2468E-02  0.1988E+00  0.1988E+00
     35.853  0.2874E-03  0.6870E-03  0.1989E+00  0.1989E+00
     36.017  0.2431E-03  0.1653E-03  0.1989E+00  0.1989E+00
     36.182  0.9510E-03  0.7452E-03  0.1991E+00  0.1990E+00
     36.346  0.5769E-03  0.6390E-03  0.1992E+00  0.1991E+00
     36.510  0.3051E-04  0.2301E-03  0.1992E+00  0.1992E+00
     36.674 -0.2384E-04 -0.1703E-04  0.1992E+00  0.1992E+00
     36.838 -0.1220E-04 -0.1541E-04  0.1992E+00  0.1992E+00
     37.002 -0.2649E-04 -0.3254E-04  0.1992E+00  0.1992E+00
     37.166  0.3188E-03  0.2130E-03  0.1992E+00  0.1992E+00
     37.330  0.6850E-03  0.6949E-03  0.1993E+00  0.1993E+00
     37.494  0.1694E-03  0.2686E-03  0.1993E+00  0.1993E+00
     37.658 -0.3216E-04 -0.3137E-04  0.1993E+00  0.1993E+00
     37.822 -0.1063E-04 -0.2686E-04  0.1993E+00  0.1993E+00
     37.986 -0.3237E-04  0.8240E-05  0.1993E+00  0.1993E+00
     38.150  0.1916E-03  0.4930E-03  0.1994E+00  0.1994E+00
     38.314  0.6904E-03  0.5889E-03  0.1995E+00  0.1995E+00
     38.478  0.2763E-03  0.3458E-04  0.1995E+00  0.1995E+00
     38.643 -0.3363E-04 -0.1116E-04  0.1995E+00  0.1995E+00
     38.807  0.4379E-03  0.5047E-03  0.1996E+00  0.1996E+00
     38.971  0.6175E-03  0.5567E-03  0.1997E+00  0.1997E+00
     39.135  0.4767E-04  0.6829E-04  0.1997E+00  0.1997E+00
     39.299  0.1804E-03  0.5050E-03  0.1997E+00  0.1998E+00
     39.463  0.6916E-03  0.5569E-03  0.1998E+00  0.1999E+00
     39.627  0.2742E-03  0.3587E-04  0.1999E+00  0.1999E+00
     39.791 -0.2997E-04 -0.2275E-04  0.1999E+00  0.1999E+00
     39.955 -0.8426E-05 -0.1643E-05  0.1999E+00  0.1999E+00
     40.119 -0.2641E-06 -0.2234E-07  0.1999E+00  0.1999E+00
     40.283 -0.1789E-08 -0.7047E-10  0.1999E+00  0.1999E+00
     40.447 -0.2907E-11 -0.5455E-13  0.1999E+00  0.1999E+00
     40.611 -0.1174E-14 -0.1074E-16  0.1999E+00  0.1999E+00
     40.775 -0.2440E-18 -0.1902E-21  0.1999E+00  0.1999E+00
     40.940 -0.1774E-18 -0.4086E-17  0.1999E+00  0.1999E+00
     41.104 -0.1519E-14 -0.2279E-13  0.1999E+00  0.1999E+00
     41.268 -0.3374E-11 -0.3197E-10  0.1999E+00  0.1999E+00
     41.432 -0.1859E-08 -0.1102E-07  0.1999E+00  0.1999E+00
     41.596 -0.2447E-06 -0.8867E-06  0.1999E+00  0.1999E+00
     41.760 -0.6852E-05 -0.1376E-04  0.1999E+00  0.1999E+00
     41.924 -0.1742E-04  0.1391E-04  0.1999E+00  0.1999E+00
     42.088  0.2147E-03  0.3508E-03  0.1999E+00  0.1999E+00
     42.252  0.4560E-03  0.3742E-03  0.2000E+00  0.2000E+00
     42.416  0.1111E-03  0.2483E-04  0.2000E+00  0.2000E+00
     42.580 -0.2131E-04 -0.1528E-04  0.2000E+00  0.2000E+00
     42.744 -0.3269E-05 -0.1115E-05  0.2000E+00  0.2000E+00
     42.908 -0.7482E-07 -0.1526E-07  0.2000E+00  0.2000E+00
     43.072 -0.3823E-09 -0.4849E-10  0.2000E+00  0.2000E+00
     43.236 -0.4732E-12 -0.3780E-13  0.2000E+00  0.2000E+00
     43.401 -0.1461E-15 -0.7402E-17  0.2000E+00  0.2000E+00
     43.565  0.0000E+00  0.0000E+00  0.2000E+00  0.2000E+00
     43.729  0.0000E+00  0.0000E+00  0.2000E+00  0.2000E+00
     43.893  0.0000E+00  0.0000E+00  0.2000E+00  0.2000E+00
     44.057  0.0000E+00  0.0000E+00  0.2000E+00  0.2000E+00
     44.221  0.0000E+00  0.0000E+00  0.2000E+00  0.2000E+00
     44.385  0.0000E+00  0.0000E+00  0.2000E+00  0.2000E+00
     44.38496830     -4.83560297  301      5.85460189      1.00000000
     -4.836  0.0000E+00  0.0000E+00  0.0000E+00  0.0000E+00  0.0000E+00  0.0000E+00  0.0000E+00  0.0000E+00  0.0000E+00  0.0000E+00  0.0000E+00  0.0000E+00  0.0000E+00  0.0000E+00  0.0000E+00  0.0000E+00  0.0000E+00  0.0000E+00
     -4.672  0.0000E+00  0.0000E+00  0.0000E+00  0.0000E+00  0.0000E+00  0.0000E+00  0.0000E+00  0.0000E+00  0.0000E+00  0.0000E+00  0.0000E+00  0.0000E+00  0.0000E+00  0.0000E+00  0.0000E+00  0.0000E+00  0.0000E+00  0.0000E+00
     -4.507  0.0000E+00  0.0000E+00  0.0000E+00  0.0000E+00  0.0000E+00  0.0000E+00  0.0000E+00  0.0000E+00  0.0000E+00  0.0000E+00  0.0000E+00  0.0000E+00  0.0000E+00  0.0000E+00  0.0000E+00  0.0000E+00  0.0000E+00  0.0000E+00
     -4.343 -0.3569E-35  0.0000E+00 -0.3159E-65  0.0000E+00 -0.3159E-65  0.0000E+00 -0.3159E-65  0.0000E+00 -0.6178E-48  0.0000E+00 -0.6178E-48  0.0000E+00 -0.2803E-51  0.0000E+00 -0.6178E-48  0.0000E+00 -0.2803E-51  0.0000E+00
     -4.179 -0.2720E-29 -0.1389E-35 -0.6084E-37  0.0000E+00 -0.6084E-37  0.0000E+00 -0.6084E-37  0.0000E+00 -0.4709E-42 -0.9125E-49 -0.4709E-42 -0.9125E-49 -0.1273E-38 -0.1737E-48 -0.4709E-42 -0.9125E-49 -0.1273E-38 -0.1737E-48
     -4.015 -0.5339E-24 -0.1158E-29 -0.4944E-31  0.0000E+00 -0.4944E-31  0.0000E+00 -0.4944E-31  0.0000E+00 -0.9689E-37 -0.7608E-43 -0.9689E-37 -0.7608E-43 -0.1034E-32 -0.1448E-42 -0.9689E-37 -0.7608E-43 -0.1034E-32 -0.1448E-42
     -3.851 -0.2692E-19 -0.2487E-24 -0.1035E-25 -0.1974E-31 -0.1035E-25 -0.1974E-31 -0.1035E-25 -0.1974E-31 -0.8445E-32 -0.1633E-37 -0.8445E-32 -0.1633E-37 -0.2165E-27 -0.2888E-33 -0.8445E-32 -0.1633E-37 -0.2165E-27 -0.2888E-33
     -3.687 -0.3357E-15 -0.1372E-19 -0.5561E-21 -0.4549E-26 -0.5561E-21 -0.4549E-26 -0.5561E-21 -0.4549E-26 -0.8855E-27 -0.1869E-32 -0.8855E-27 -0.1869E-32 -0.1164E-22 -0.6655E-28 -0.8855E-27 -0.1869E-32 -0.1164E-22 -0.6655E-28
     -3.523 -0.1087E-11 -0.1873E-15 -0.7399E-17 -0.2693E-21 -0.7399E-17 -0.2693E-21 -0.7399E-17 -0.2693E-21 -0.4664E-22 -0.2476E-27 -0.4664E-22 -0.2476E-27 -0.1548E-18 -0.3940E-23 -0.4664E-22 -0.2476E-27 -0.1548E-18 -0.3940E-23
     -3.359 -0.8820E-09 -0.6648E-12 -0.2558E-13 -0.3950E-17 -0.2558E-13 -0.3950E-17 -0.2558E-13 -0.3950E-17 -0.6459E-18 -0.1474E-22 -0.6459E-18 -0.1474E-22 -0.5350E-15 -0.5779E-19 -0.6459E-18 -0.1474E-22 -0.5350E-15 -0.5779E-19
     -3.195 -0.1756E-06 -0.5912E-09 -0.2213E-10 -0.1506E-13 -0.2213E-10 -0.1506E-13 -0.2213E-10 -0.1506E-13 -0.2333E-14 -0.2276E-18 -0.2333E-14 -0.2276E-18 -0.4624E-12 -0.2203E-15 -0.2333E-14 -0.2276E-18 -0.4624E-12 -0.2203E-15
     -3.031 -0.8326E-05 -0.1292E-06 -0.4691E-08 -0.1439E-10 -0.4691E-08 -0.1439E-10 -0.4691E-08 -0.1439E-10 -0.2108E-11 -0.9153E-15 -0.2108E-11 -0.9153E-15 -0.9750E-10 -0.2102E-12 -0.2108E-11 -0.9153E-15 -0.9750E-10 -0.2102E-12
     -2.867 -0.8873E-04 -0.6733E-05 -0.2332E-06 -0.3373E-08 -0.2332E-06 -0.3373E-08 -0.2332E-06 -0.3373E-08 -0.4652E-09 -0.9225E-12 -0.4652E-09 -0.9225E-12 -0.4732E-08 -0.4904E-10 -0.4652E-09 -0.9225E-12 -0.4732E-08 -0.4904E-10
     -2.703 -0.9688E-04 -0.7912E-04 -0.2388E-05 -0.1860E-06 -0.2388E-05 -0.1860E-06 -0.2388E-05 -0.1860E-06 -0.2365E-07 -0.2276E-09 -0.2365E-07 -0.2276E-09 -0.4249E-07 -0.2648E-08 -0.2365E-07 -0.2276E-09 -0.4249E-07 -0.2648E-08
     -2.539  0.1757E-02 -0.1161E-03  0.4615E-06 -0.2144E-05  0.4615E-06 -0.2144E-05  0.4615E-06 -0.2144E-05 -0.2224E-06 -0.1302E-07 -0.2224E-06 -0.1302E-07  0.8088E-07 -0.2715E-07 -0.2224E-06 -0.1302E-07  0.8088E-07 -0.2715E-07
     -2.375  0.8486E-02  0.1493E-02  0.5359E-04 -0.6040E-06  0.5359E-04 -0.6040E-06  0.5359E-04 -0.6040E-06  0.4230E-06 -0.1424E-06  0.4230E-06 -0.1424E-06  0.9527E-06  0.3770E-07  0.4230E-06 -0.1424E-06  0.9527E-06  0.3770E-07
     -2.211  0.1597E-01  0.7811E-02  0.1657E-03  0.4681E-04  0.1657E-03  0.4681E-04  0.1657E-03  0.4681E-04  0.5083E-05  0.1794E-06  0.5083E-05  0.1794E-06  0.1136E-05  0.6104E-06  0.5083E-05  0.1794E-06  0.1136E-05  0.6104E-06
     -2.046  0.1389E-01  0.1557E-01  0.1927E-03  0.1585E-03  0.1927E-03  0.1585E-03  0.1927E-03  0.1585E-03  0.7508E-05  0.3271E-05  0.7508E-05  0.3271E-05  0.8246E-06  0.8720E-06  0.7508E-05  0.3271E-05  0.8246E-06  0.8720E-06
     -1.882  0.1278E-01  0.1428E-01  0.2862E-03  0.1952E-03  0.2862E-03  0.1952E-03  0.2862E-03  0.1952E-03  0.7342E-05  0.5597E-05  0.7342E-05  0.5597E-05  0.1853E-04  0.3726E-06  0.7342E-05  0.5597E-05  0.1853E-04  0.3726E-06
     -1.718  0.2958E-01  0.1178E-01  0.8606E-03  0.2518E-03  0.8606E-03  0.2518E-03  0.8606E-03  0.2518E-03  0.4898E-04  0.4149E-05  0.4898E-04  0.4149E-05  0.5562E-04  0.1014E-04  0.4898E-04  0.4149E-05  0.5562E-04  0.1014E-04
     -1.554  0.3378E-01  0.2703E-01  0.1082E-02  0.7820E-03  0.1082E-02  0.7820E-03  0.1082E-02  0.7820E-03  0.8717E-04  0.2812E-04  0.8717E-04  0.2812E-04  0.5194E-04  0.3435E-04  0.8717E-04  0.2812E-04  0.5194E-04  0.3435E-04
     -1.390  0.1297E-01  0.3501E-01  0.4570E-03  0.1126E-02  0.4570E-03  0.1126E-02  0.4570E-03  0.1126E-02  0.5228E-04  0.6023E-04  0.5228E-04  0.6023E-04  0.1715E-04  0.3663E-04  0.5228E-04  0.6023E-04  0.1715E-04  0.3663E-04
     -1.226  0.1753E-01  0.1491E-01  0.8480E-03  0.5166E-03  0.8480E-03  0.5166E-03  0.8480E-03  0.5166E-03  0.1458E-03  0.3547E-04  0.1458E-03  0.3547E-04  0.5585E-04  0.1239E-04  0.1458E-03  0.3547E-04  0.5585E-04  0.1239E-04
     -1.062  0.3879E-01  0.1334E-01  0.2047E-02  0.6443E-03  0.2047E-02  0.6443E-03  0.2047E-02  0.6443E-03  0.2794E-03  0.7277E-04  0.2794E-03  0.7277E-04  0.2369E-03  0.2309E-04  0.2794E-03  0.7277E-04  0.2369E-03  0.2309E-04
     -0.898  0.3989E-01  0.3498E-01  0.2349E-02  0.1840E-02  0.2349E-02  0.1840E-02  0.2349E-02  0.1840E-02  0.2487E-03  0.1747E-03  0.2487E-03  0.1747E-03  0.4419E-03  0.1106E-03  0.2487E-03  0.1747E-03  0.4419E-03  0.1106E-03
     -0.734  0.2876E-01  0.4008E-01  0.1860E-02  0.2337E-02  0.1860E-02  0.2337E-02  0.1860E-02  0.2337E-02  0.2786E-03  0.1631E-03  0.2786E-03  0.1631E-03  0.3320E-03  0.2519E-03  0.2786E-03  0.1631E-03  0.3320E-03  0.2519E-03
     -0.570  0.3174E-01  0.3117E-01  0.2316E-02  0.2005E-02  0.2316E-02  0.2005E-02  0.2316E-02  0.2005E-02  0.7120E-03  0.1573E-03  0.7120E-03  0.1573E-03  0.3897E-03  0.2330E-03  0.7120E-03  0.1573E-03  0.3897E-03  0.2330E-03
     -0.406  0.4805E-01  0.2356E-01  0.3723E-02  0.1688E-02  0.3723E-02  0.1688E-02  0.3723E-02  0.1688E-02  0.1299E-02  0.2617E-03  0.1299E-02  0.2617E-03  0.6457E-03  0.1452E-03  0.1299E-02  0.2617E-03  0.6457E-03  0.1452E-03
     -0.242  0.2206E-01  0.4283E-01  0.1754E-02  0.3410E-02  0.1754E-02  0.3410E-02  0.1754E-02  0.3410E-02  0.5425E-03  0.6809E-03  0.5425E-03  0.6809E-03  0.3227E-03  0.3306E-03  0.5425E-03  0.6809E-03  0.3227E-03  0.3306E-03
     -0.078  0.2751E-01  0.3898E-01  0.2849E-02  0.3179E-02  0.2849E-02  0.3179E-02  0.2849E-02  0.3179E-02  0.7764E-03  0.6542E-03  0.7764E-03  0.6542E-03  0.1205E-02  0.2825E-03  0.7764E-03  0.6542E-03  0.1205E-02  0.2825E-03
      0.086  0.6547E-01  0.1054E-01  0.6761E-02  0.9958E-03  0.6761E-02  0.9958E-03  0.6761E-02  0.9958E-03  0.2642E-02  0.1153E-03  0.2642E-02  0.1153E-03  0.2790E-02  0.1856E-03  0.2642E-02  0.1153E-03  0.2790E-02  0.1856E-03
      0.251  0.5248E-01  0.4076E-01  0.5617E-02  0.4381E-02  0.5617E-02  0.4381E-02  0.5617E-02  0.4381E-02  0.3004E-02  0.7283E-03  0.3004E-02  0.7283E-03  0.2835E-02  0.9440E-03  0.3004E-02  0.7283E-03  0.2835E-02  0.9440E-03
      0.415  0.4307E-01  0.5952E-01  0.5017E-02  0.6441E-02  0.5017E-02  0.6441E-02  0.5017E-02  0.6441E-02  0.3233E-02  0.1442E-02  0.3233E-02  0.1442E-02  0.2958E-02  0.1399E-02  0.3233E-02  0.1442E-02  0.2958E-02  0.1399E-02
      0.579  0.4432E-01  0.4156E-01  0.5276E-02  0.4741E-02  0.5276E-02  0.4741E-02  0.5276E-02  0.4741E-02  0.5337E-02  0.1458E-02  0.5337E-02  0.1458E-02  0.2947E-02  0.1177E-02  0.5337E-02  0.1458E-02  0.2947E-02  0.1177E-02
      0.743  0.5451E-01  0.4434E-01  0.6731E-02  0.5564E-02  0.6731E-02  0.5564E-02  0.6731E-02  0.5564E-02  0.8706E-02  0.1804E-02  0.8706E-02  0.1804E-02  0.4696E-02  0.1547E-02  0.8706E-02  0.1804E-02  0.4696E-02  0.1547E-02
      0.907  0.6283E-01  0.3636E-01  0.8150E-02  0.4775E-02  0.8150E-02  0.4775E-02  0.8150E-02  0.4775E-02  0.1648E-01  0.1699E-02  0.1648E-01  0.1699E-02  0.1723E-01  0.8770E-03  0.1648E-01  0.1699E-02  0.1723E-01  0.8770E-03
      1.071  0.1073E+00  0.2889E-01  0.1344E-01  0.3969E-02  0.1344E-01  0.3969E-02  0.1344E-01  0.3969E-02  0.4723E-01  0.2299E-02  0.4723E-01  0.2299E-02  0.5893E-01  0.8853E-03  0.4723E-01  0.2299E-02  0.5893E-01  0.8853E-03
      1.235  0.1020E+00  0.5237E-01  0.1288E-01  0.7555E-02  0.1288E-01  0.7555E-02  0.1288E-01  0.7555E-02  0.5462E-01  0.4645E-02  0.5462E-01  0.4645E-02  0.8857E-01  0.3098E-02  0.5462E-01  0.4645E-02  0.8857E-01  0.3098E-02
      1.399  0.6748E-01  0.4821E-01  0.1055E-01  0.7824E-02  0.1055E-01  0.7824E-02  0.1055E-01  0.7824E-02  0.5571E-01  0.3041E-02  0.5571E-01  0.3041E-02  0.1220E+00  0.4334E-02  0.5571E-01  0.3041E-02  0.1220E+00  0.4334E-02
      1.563  0.8542E-01  0.4658E-01  0.1900E-01  0.8430E-02  0.1900E-01  0.8430E-02  0.1900E-01  0.8430E-02  0.6820E-01  0.3824E-02  0.6820E-01  0.3824E-02  0.1899E+00  0.4740E-02  0.6820E-01  0.3824E-02  0.1899E+00  0.4740E-02
      1.727  0.7100E-01  0.7419E-01  0.2198E-01  0.1302E-01  0.2198E-01  0.1302E-01  0.2198E-01  0.1302E-01  0.5812E-01  0.9960E-02  0.5812E-01  0.9960E-02  0.2435E+00  0.7455E-02  0.5812E-01  0.9960E-02  0.2435E+00  0.7455E-02
      1.891  0.5291E-01  0.5235E-01  0.1834E-01  0.8863E-02  0.1834E-01  0.8863E-02  0.1834E-01  0.8863E-02  0.7840E-01  0.9307E-02  0.7840E-01  0.9307E-02  0.1797E+00  0.7191E-02  0.7840E-01  0.9307E-02  0.1797E+00  0.7191E-02
      2.055  0.3213E-01  0.4846E-01  0.1273E-01  0.7704E-02  0.1273E-01  0.7704E-02  0.1273E-01  0.7704E-02  0.7459E-01  0.1451E-01  0.7459E-01  0.1451E-01  0.1312E+00  0.9796E-02  0.7459E-01  0.1451E-01  0.1312E+00  0.9796E-02
      2.219  0.1149E-01  0.6558E-01  0.6642E-02  0.1011E-01  0.6642E-02  0.1011E-01  0.6642E-02  0.1011E-01  0.4424E-01  0.2633E-01  0.4424E-01  0.2633E-01  0.9285E-01  0.1585E-01  0.4424E-01  0.2633E-01  0.9285E-01  0.1585E-01
      2.383  0.4997E-02  0.7526E-01  0.1081E-01  0.1340E-01  0.1081E-01  0.1340E-01  0.1081E-01  0.1340E-01  0.8740E-01  0.3246E-01  0.8740E-01  0.3246E-01  0.9042E-01  0.2721E-01  0.8740E-01  0.3246E-01  0.9042E-01  0.2721E-01
      2.547  0.3706E-02  0.8414E-01  0.2109E-01  0.1644E-01  0.2109E-01  0.1644E-01  0.2109E-01  0.1644E-01  0.2819E+00  0.4094E-01  0.2819E+00  0.4094E-01  0.1462E+00  0.4070E-01  0.2819E+00  0.4094E-01  0.1462E+00  0.4070E-01
      2.712  0.5220E-02  0.7297E-01  0.1975E-01  0.1454E-01  0.1975E-01  0.1454E-01  0.1975E-01  0.1454E-01  0.3270E+00  0.4449E-01  0.3270E+00  0.4449E-01  0.1528E+00  0.3504E-01  0.3270E+00  0.4449E-01  0.1528E+00  0.3504E-01
      2.876  0.6451E-02  0.5408E-01  0.1625E-01  0.1205E-01  0.1625E-01  0.1205E-01  0.1625E-01  0.1205E-01  0.2368E+00  0.4036E-01  0.2368E+00  0.4036E-01  0.1165E+00  0.3779E-01  0.2368E+00  0.4036E-01  0.1165E+00  0.3779E-01
      3.040  0.1021E-01  0.4990E-01  0.1980E-01  0.1568E-01  0.1980E-01  0.1568E-01  0.1980E-01  0.1568E-01  0.2290E+00  0.3888E-01  0.2290E+00  0.3888E-01  0.9834E-01  0.8749E-01  0.2290E+00  0.3888E-01  0.9834E-01  0.8749E-01
      3.204  0.1381E-01  0.5239E-01  0.2823E-01  0.2132E-01  0.2823E-01  0.2132E-01  0.2823E-01  0.2132E-01  0.2613E+00  0.5216E-01  0.2613E+00  0.5216E-01  0.1066E+00  0.1422E+00  0.2613E+00  0.5216E-01  0.1066E+00  0.1422E+00
      3.368  0.2025E-01  0.3933E-01  0.3654E-01  0.1862E-01  0.3654E-01  0.1862E-01  0.3654E-01  0.1862E-01  0.3197E+00  0.5034E-01  0.3197E+00  0.5034E-01  0.1458E+00  0.1492E+00  0.3197E+00  0.5034E-01  0.1458E+00  0.1492E+00