unknown system                          
   1.00000000000000     
     2.832873    0.000000    0.000000
     0.000000    2.832873    0.000000
    -0.000000    0.000000    2.832873
   Fe
     2
Direct
  0.000000  0.000000  0.000000
  0.500000  0.500000  0.500000
 
   48   48   48
 0.19261217723E+03 0.18994844420E+03 0.18216574116E+03 0.16986375722E+03 0.15396027683E+03
 0.13558295196E+03 0.11594377376E+03 0.96216077491E+02 0.77431478665E+02 0.60407831651E+02
 0.45711265387E+02 0.33648464837E+02 0.24281797447E+02 0.17459904908E+02 0.12858475875E+02
 0.10027907732E+02 0.84451697578E+01 0.75666853700E+01 0.69335933760E+01 0.64397356947E+01
 0.60785069935E+01 0.58303509055E+01 0.56727213274E+01 0.55864580426E+01 0.55591273024E+01
 0.55864580426E+01 0.56727213274E+01 0.58303509055E+01 0.60785069935E+01 0.64397356947E+01
 0.69335933760E+01 0.75666853700E+01 0.84451697578E+01 0.10027907732E+02 0.12858475875E+02
 0.17459904908E+02 0.24281797447E+02 0.33648464837E+02 0.45711265387E+02 0.60407831651E+02
 0.77431478665E+02 0.96216077491E+02 0.11594377376E+03 0.13558295196E+03 0.15396027683E+03
 0.16986375722E+03 0.18216574116E+03 0.18994844420E+03 0.18994844420E+03 0.18732647519E+03
 0.17966502539E+03 0.16755231721E+03 0.15188906158E+03 0.13378285207E+03 0.11442554018E+03
 0.94972825568E+02 0.76442961957E+02 0.59645387151E+02 0.45142379408E+02 0.33240223057E+02
 0.24002947293E+02 0.17281718372E+02 0.12754877635E+02 0.99753742956E+01 0.84227693373E+01
 0.75564118511E+01 0.69262900593E+01 0.64352220917E+01 0.60762175712E+01 0.58296096607E+01
 0.56729324419E+01 0.55871645522E+01 0.55599849217E+01 0.55871645522E+01 0.56729324419E+01
 0.58296096607E+01 0.60762175712E+01 0.64352220917E+01 0.69262900593E+01 0.75564118511E+01
 0.84227693373E+01 0.99753742956E+01 0.12754877635E+02 0.17281718372E+02 0.24002947293E+02
 0.33240223057E+02 0.45142379408E+02 0.59645387151E+02 0.76442961957E+02 0.94972825568E+02
 0.11442554018E+03 0.13378285207E+03 0.15188906158E+03 0.16755231721E+03 0.17966502539E+03
 0.18732647519E+03 0.18216574116E+03 0.17966502539E+03 0.17235567962E+03 0.16079283938E+03
 0.14582793091E+03 0.12851063717E+03 0.10997461297E+03 0.91324498813E+02 0.73539688319E+02
 0.57404888760E+02 0.43470697355E+02 0.32041601593E+02 0.23185817167E+02 0.16761327850E+02
 0.12453872610E+02 0.98237563095E+01 0.83582557034E+01 0.75255899398E+01 0.69044088852E+01
 0.64217677963E+01 0.60694240740E+01 0.58274299277E+01 0.56735824538E+01 0.55892838880E+01
 0.55625520457E+01 0.55892838880E+01 0.56735824538E+01 0.58274299277E+01 0.60694240740E+01
 0.64217677963E+01 0.69044088852E+01 0.75255899398E+01 0.83582557034E+01 0.98237563095E+01
 0.12453872610E+02 0.16761327850E+02 0.23185817167E+02 0.32041601593E+02 0.43470697355E+02
 0.57404888760E+02 0.73539688319E+02 0.91324498813E+02 0.10997461297E+03 0.12851063717E+03
 0.14582793091E+03 0.16079283938E+03 0.17235567962E+03 0.17966502539E+03 0.16986375722E+03
 0.16755231721E+03 0.16079283938E+03 0.15008945189E+03 0.13621759407E+03 0.12013757990E+03
 0.10289307896E+03 0.85509440692E+02 0.68905145935E+02 0.53825299363E+02 0.40800623620E+02
 0.30130782051E+02 0.21888530475E+02 0.15940890340E+02 0.11984238497E+02 0.95902662646E+01
 0.82589550752E+01 0.74738556622E+01 0.68681059686E+01 0.63996533053E+01 0.60583490838E+01
 0.58239329405E+01 0.56747077201E+01 0.55928012301E+01 0.55667971956E+01 0.55928012301E+01
 0.56747077201E+01 0.58239329405E+01 0.60583490838E+01 0.63996533053E+01 0.68681059686E+01
 0.74738556622E+01 0.82589550752E+01 0.95902662646E+01 0.11984238497E+02 0.15940890340E+02
 0.21888530475E+02 0.30130782051E+02 0.40800623620E+02 0.53825299363E+02 0.68905145935E+02
 0.85509440692E+02 0.10289307896E+03 0.12013757990E+03 0.13621759407E+03 0.15008945189E+03
 0.16079283938E+03 0.16755231721E+03 0.15396027683E+03 0.15188906158E+03 0.14582793091E+03
 0.13621759407E+03 0.12373893623E+03 0.10924087764E+03 0.93654511433E+02 0.77905240155E+02
 0.62833580295E+02 0.49132261708E+02 0.37303444555E+02 0.27636695571E+02 0.20206665591E+02
 0.14888861005E+02 0.11391568740E+02 0.93009465367E+01 0.81345772646E+01 0.74009601322E+01
 0.68178449097E+01 0.63694039566E+01 0.60433552017E+01 0.58192869131E+01 0.56763275223E+01
 0.55976494482E+01 0.55726255756E+01 0.55976494482E+01 0.56763275223E+01 0.58192869131E+01
 0.60433552017E+01 0.63694039566E+01 0.68178449097E+01 0.74009601322E+01 0.81345772646E+01
 0.93009465367E+01 0.11391568740E+02 0.14888861005E+02 0.20206665591E+02 0.27636695571E+02
 0.37303444555E+02 0.49132261708E+02 0.62833580295E+02 0.77905240155E+02 0.93654511433E+02
 0.10924087764E+03 0.12373893623E+03 0.13621759407E+03 0.14582793091E+03 0.15188906158E+03
 0.13558295196E+03 0.13378285207E+03 0.12851063717E+03 0.12013757990E+03 0.10924087764E+03
 0.96546897955E+02 0.82862094261E+02 0.68999885068E+02 0.55711438532E+02 0.43626741796E+02
 0.33210292821E+02 0.24734008181E+02 0.18268813168E+02 0.13695445919E+02 0.10733589182E+02
 0.89861982735E+01 0.79934239880E+01 0.73074741182E+01 0.67546106221E+01 0.63318398223E+01
 0.60249249845E+01 0.58136631872E+01 0.56783954871E+01 0.56036614398E+01 0.55798322346E+01
 0.56036614398E+01 0.56783954871E+01 0.58136631872E+01 0.60249249845E+01 0.63318398223E+01
 0.67546106221E+01 0.73074741182E+01 0.79934239880E+01 0.89861982735E+01 0.10733589182E+02
 0.13695445919E+02 0.18268813168E+02 0.24734008181E+02 0.33210292821E+02 0.43626741796E+02
 0.55711438532E+02 0.68999885068E+02 0.82862094261E+02 0.96546897955E+02 0.10924087764E+03
 0.12013757990E+03 0.12851063717E+03 0.13378285207E+03 0.11594377376E+03 0.11442554018E+03
 0.10997461297E+03 0.10289307896E+03 0.93654511433E+02 0.82862094261E+02 0.71195709471E+02
 0.59352998501E+02 0.47989834098E+02 0.37665541590E+02 0.28797798627E+02 0.21631696168E+02
 0.16226676065E+02 0.12463657062E+02 0.10072171228E+02 0.86740687798E+01 0.78373094422E+01
 0.71951874490E+01 0.66800616674E+01 0.62880883331E+01 0.60036229984E+01 0.58071877242E+01
 0.56807544125E+01 0.56105301043E+01 0.55880641711E+01 0.56105301043E+01 0.56807544125E+01
 0.58071877242E+01 0.60036229984E+01 0.62880883331E+01 0.66800616674E+01 0.71951874490E+01
 0.78373094422E+01 0.86740687798E+01 0.10072171228E+02 0.12463657062E+02 0.16226676065E+02
 0.21631696168E+02 0.28797798627E+02 0.37665541590E+02 0.47989834098E+02 0.59352998501E+02
 0.71195709471E+02 0.82862094261E+02 0.93654511433E+02 0.10289307896E+03 0.10997461297E+03
 0.11442554018E+03 0.96216077491E+02 0.94972825568E+02 0.91324498813E+02 0.85509440692E+02
 0.77905240155E+02 0.68999885068E+02 0.59352998501E+02 0.49549371581E+02 0.40148197333E+02
 0.31632566768E+02 0.24364803025E+02 0.18553625370E+02 0.14238622841E+02 0.11295490530E+02
 0.94621477949E+01 0.83818354703E+01 0.76596466585E+01 0.70673124569E+01 0.65965435845E+01
 0.62395341136E+01 0.59800397792E+01 0.57998987648E+01 0.56831095392E+01 0.56177923282E+01
 0.55968080285E+01 0.56177923282E+01 0.56831095392E+01 0.57998987648E+01 0.59800397792E+01
 0.62395341136E+01 0.65965435845E+01 0.70673124569E+01 0.76596466585E+01 0.83818354703E+01
 0.94621477949E+01 0.11295490530E+02 0.14238622841E+02 0.18553625370E+02 0.24364803025E+02
 0.31632566768E+02 0.40148197333E+02 0.49549371581E+02 0.59352998501E+02 0.68999885068E+02
 0.77905240155E+02 0.85509440692E+02 0.91324498813E+02 0.94972825568E+02 0.77431478665E+02
 0.76442961957E+02 0.73539688319E+02 0.68905145935E+02 0.62833580295E+02 0.55711438532E+02
 0.47989834098E+02 0.40148197333E+02 0.32651037067E+02 0.25901950584E+02 0.20200926315E+02
 0.15712010235E+02 0.12447774950E+02 0.10274557834E+02 0.89384137657E+01 0.81073713901E+01
 0.74623885511E+01 0.69283395894E+01 0.65069328908E+01 0.61877034267E+01 0.59547257867E+01
 0.57917217063E+01 0.56850313416E+01 0.56248474120E+01 0.56054135020E+01 0.56248474120E+01
 0.56850313416E+01 0.57917217063E+01 0.59547257867E+01 0.61877034267E+01 0.65069328908E+01
 0.69283395894E+01 0.74623885511E+01 0.81073713901E+01 0.89384137657E+01 0.10274557834E+02
 0.12447774950E+02 0.15712010235E+02 0.20200926315E+02 0.25901950584E+02 0.32651037067E+02
 0.40148197333E+02 0.47989834098E+02 0.55711438532E+02 0.62833580295E+02 0.68905145935E+02
 0.73539688319E+02 0.76442961957E+02 0.60407831651E+02 0.59645387151E+02 0.57404888760E+02
 0.53825299363E+02 0.49132261708E+02 0.43626741796E+02 0.37665541590E+02 0.31632566768E+02
 0.25901950584E+02 0.20796924691E+02 0.16550785733E+02 0.13277431376E+02 0.10958142493E+02
 0.94483816806E+01 0.85040804792E+01 0.78273315547E+01 0.72534967783E+01 0.67835670578E+01
 0.64143399081E+01 0.61341061700E+01 0.59281307939E+01 0.57824701991E+01 0.56859922407E+01
 0.56310116110E+01 0.56131532193E+01 0.56310116110E+01 0.56859922407E+01 0.57824701991E+01
 0.59281307939E+01 0.61341061700E+01 0.64143399081E+01 0.67835670578E+01 0.72534967783E+01
 0.78273315547E+01 0.85040804792E+01 0.94483816806E+01 0.10958142493E+02 0.13277431376E+02
 0.16550785733E+02 0.20796924691E+02 0.25901950584E+02 0.31632566768E+02 0.37665541590E+02
 0.43626741796E+02 0.49132261708E+02 0.53825299363E+02 0.57404888760E+02 0.59645387151E+02
 0.45711265387E+02 0.45142379408E+02 0.43470697355E+02 0.40800623620E+02 0.37303444555E+02
 0.33210292821E+02 0.28797798627E+02 0.24364803025E+02 0.20200926315E+02 0.16550785733E+02
 0.13580149856E+02 0.11351339314E+02 0.98140552308E+01 0.88147071094E+01 0.81231083212E+01
 0.75380465871E+01 0.70417727062E+01 0.66384283487E+01 0.63217459986E+01 0.60800759194E+01
 0.59005666045E+01 0.57718777662E+01 0.56854337455E+01 0.56356012549E+01 0.56193103086E+01
 0.56356012549E+01 0.56854337455E+01 0.57718777662E+01 0.59005666045E+01 0.60800759194E+01
 0.63217459986E+01 0.66384283487E+01 0.70417727062E+01 0.75380465871E+01 0.81231083212E+01
 0.88147071094E+01 0.98140552308E+01 0.11351339314E+02 0.13580149856E+02 0.16550785733E+02
 0.20200926315E+02 0.24364803025E+02 0.28797798627E+02 0.33210292821E+02 0.37303444555E+02
 0.40800623620E+02 0.43470697355E+02 0.45142379408E+02 0.33648464837E+02 0.33240223057E+02
 0.32041601593E+02 0.30130782051E+02 0.27636695571E+02 0.24734008181E+02 0.21631696168E+02
 0.18553625370E+02 0.15712010235E+02 0.13277431376E+02 0.11351339314E+02 0.99476104103E+01
 0.89883501451E+01 0.83159976966E+01 0.77494514242E+01 0.72526088019E+01 0.68355952669E+01
 0.64977972777E+01 0.62316702617E+01 0.60266511647E+01 0.58722066591E+01 0.57596574054E+01
 0.56828530417E+01 0.56380294376E+01 0.56232774511E+01 0.56380294376E+01 0.56828530417E+01
 0.57596574054E+01 0.58722066591E+01 0.60266511647E+01 0.62316702617E+01 0.64977972777E+01
 0.68355952669E+01 0.72526088019E+01 0.77494514242E+01 0.83159976966E+01 0.89883501451E+01
 0.99476104103E+01 0.11351339314E+02 0.13277431376E+02 0.15712010235E+02 0.18553625370E+02
 0.21631696168E+02 0.24734008181E+02 0.27636695571E+02 0.30130782051E+02 0.32041601593E+02
 0.33240223057E+02 0.24281797447E+02 0.24002947293E+02 0.23185817167E+02 0.21888530475E+02
 0.20206665591E+02 0.18268813168E+02 0.16226676065E+02 0.14238622841E+02 0.12447774950E+02
 0.10958142493E+02 0.98140552308E+01 0.89883501451E+01 0.83832190005E+01 0.78621695494E+01
 0.73907195915E+01 0.69825330746E+01 0.66418278167E+01 0.63654442242E+01 0.61459476289E+01
 0.59745283997E+01 0.58431261565E+01 0.57455792081E+01 0.56778926315E+01 0.56378971700E+01
 0.56246475934E+01 0.56378971700E+01 0.56778926315E+01 0.57455792081E+01 0.58431261565E+01
 0.59745283997E+01 0.61459476289E+01 0.63654442242E+01 0.66418278167E+01 0.69825330746E+01
 0.73907195915E+01 0.78621695494E+01 0.83832190005E+01 0.89883501451E+01 0.98140552308E+01
 0.10958142493E+02 0.12447774950E+02 0.14238622841E+02 0.16226676065E+02 0.18268813168E+02
 0.20206665591E+02 0.21888530475E+02 0.23185817167E+02 0.24002947293E+02 0.17459904908E+02
 0.17281718372E+02 0.16761327850E+02 0.15940890340E+02 0.14888861005E+02 0.13695445919E+02
 0.12463657062E+02 0.11295490530E+02 0.10274557834E+02 0.94483816806E+01 0.88147071094E+01
 0.83159976966E+01 0.78621695494E+01 0.74388025938E+01 0.70609990609E+01 0.67362088789E+01
 0.64651360100E+01 0.62437584423E+01 0.60656629538E+01 0.59240959037E+01 0.58133744055E+01
 0.57295502620E+01 0.56704146761E+01 0.56350601270E+01 0.56232774511E+01 0.56350601270E+01
 0.56704146761E+01 0.57295502620E+01 0.58133744055E+01 0.59240959037E+01 0.60656629538E+01
 0.62437584423E+01 0.64651360100E+01 0.67362088789E+01 0.70609990609E+01 0.74388025938E+01
 0.78621695494E+01 0.83159976966E+01 0.88147071094E+01 0.94483816806E+01 0.10274557834E+02
 0.11295490530E+02 0.12463657062E+02 0.13695445919E+02 0.14888861005E+02 0.15940890340E+02
 0.16761327850E+02 0.17281718372E+02 0.12858475875E+02 0.12754877635E+02 0.12453872610E+02
 0.11984238497E+02 0.11391568740E+02 0.10733589182E+02 0.10072171228E+02 0.94621477949E+01
 0.89384137657E+01 0.85040804792E+01 0.81231083212E+01 0.77494514242E+01 0.73907195915E+01
 0.70609990609E+01 0.67690634193E+01 0.65183246977E+01 0.63078185965E+01 0.61337673373E+01
 0.59912400487E+01 0.58755342562E+01 0.57830613846E+01 0.57116788978E+01 0.56605439115E+01
 0.56296567254E+01 0.56193103086E+01 0.56296567254E+01 0.56605439115E+01 0.57116788978E+01
 0.57830613846E+01 0.58755342562E+01 0.59912400487E+01 0.61337673373E+01 0.63078185965E+01
 0.65183246977E+01 0.67690634193E+01 0.70609990609E+01 0.73907195915E+01 0.77494514242E+01
 0.81231083212E+01 0.85040804792E+01 0.89384137657E+01 0.94621477949E+01 0.10072171228E+02
 0.10733589182E+02 0.11391568740E+02 0.11984238497E+02 0.12453872610E+02 0.12754877635E+02
 0.10027907732E+02 0.99753742956E+01 0.98237563095E+01 0.95902662646E+01 0.93009465367E+01
 0.89861982735E+01 0.86740687798E+01 0.83818354703E+01 0.81073713901E+01 0.78273315547E+01
 0.75380465871E+01 0.72526088019E+01 0.69825330746E+01 0.67362088789E+01 0.65183246977E+01
 0.63300986156E+01 0.61701068470E+01 0.60354056434E+01 0.59226462032E+01 0.58289530517E+01
 0.57524359572E+01 0.56923076187E+01 0.56486691037E+01 0.56220912904E+01 0.56131532193E+01
 0.56220912904E+01 0.56486691037E+01 0.56923076187E+01 0.57524359572E+01 0.58289530517E+01
 0.59226462032E+01 0.60354056434E+01 0.61701068470E+01 0.63300986156E+01 0.65183246977E+01
 0.67362088789E+01 0.69825330746E+01 0.72526088019E+01 0.75380465871E+01 0.78273315547E+01
 0.81073713901E+01 0.83818354703E+01 0.86740687798E+01 0.89861982735E+01 0.93009465367E+01
 0.95902662646E+01 0.98237563095E+01 0.99753742956E+01 0.84451697578E+01 0.84227693373E+01
 0.83582557034E+01 0.82589550752E+01 0.81345772646E+01 0.79934239880E+01 0.78373094422E+01
 0.76596466585E+01 0.74623885511E+01 0.72534967783E+01 0.70417727062E+01 0.68355952669E+01
 0.66418278167E+01 0.64651360100E+01 0.63078185965E+01 0.61701068470E+01 0.60507844692E+01
 0.59479370366E+01 0.58596508773E+01 0.57845267170E+01 0.57219350406E+01 0.56720054905E+01
 0.56354017020E+01 0.56129756503E+01 0.56054135020E+01 0.56129756503E+01 0.56354017020E+01
 0.56720054905E+01 0.57219350406E+01 0.57845267170E+01 0.58596508773E+01 0.59479370366E+01
 0.60507844692E+01 0.61701068470E+01 0.63078185965E+01 0.64651360100E+01 0.66418278167E+01
 0.68355952669E+01 0.70417727062E+01 0.72534967783E+01 0.74623885511E+01 0.76596466585E+01
 0.78373094422E+01 0.79934239880E+01 0.81345772646E+01 0.82589550752E+01 0.83582557034E+01
 0.84227693373E+01 0.75666853700E+01 0.75564118511E+01 0.75255899398E+01 0.74738556622E+01
 0.74009601322E+01 0.73074741182E+01 0.71951874490E+01 0.70673124569E+01 0.69283395894E+01
 0.67835670578E+01 0.66384283487E+01 0.64977972777E+01 0.63654442242E+01 0.62437584423E+01
 0.61337673373E+01 0.60354056434E+01 0.59479370366E+01 0.58704140711E+01 0.58020737914E+01
 0.57425960660E+01 0.56921906723E+01 0.56515200257E+01 0.56214997061E+01 0.56030413662E+01
 0.55968080285E+01 0.56030413662E+01 0.56214997061E+01 0.56515200257E+01 0.56921906723E+01
 0.57425960660E+01 0.58020737914E+01 0.58704140711E+01 0.59479370366E+01 0.60354056434E+01
 0.61337673373E+01 0.62437584423E+01 0.63654442242E+01 0.64977972777E+01 0.66384283487E+01
 0.67835670578E+01 0.69283395894E+01 0.70673124569E+01 0.71951874490E+01 0.73074741182E+01
 0.74009601322E+01 0.74738556622E+01 0.75255899398E+01 0.75564118511E+01 0.69335933760E+01
 0.69262900593E+01 0.69044088852E+01 0.68681059686E+01 0.68178449097E+01 0.67546106221E+01
 0.66800616674E+01 0.65965435845E+01 0.65069328908E+01 0.64143399081E+01 0.63217459986E+01
 0.62316702617E+01 0.61459476289E+01 0.60656629538E+01 0.59912400487E+01 0.59226462032E+01
 0.58596508773E+01 0.58020737914E+01 0.57499691677E+01 0.57037139961E+01 0.56639932577E+01
 0.56316984664E+01 0.56077725702E+01 0.55930408604E+01 0.55880641711E+01 0.55930408604E+01
 0.56077725702E+01 0.56316984664E+01 0.56639932577E+01 0.57037139961E+01 0.57499691677E+01
 0.58020737914E+01 0.58596508773E+01 0.59226462032E+01 0.59912400487E+01 0.60656629538E+01
 0.61459476289E+01 0.62316702617E+01 0.63217459986E+01 0.64143399081E+01 0.65069328908E+01
 0.65965435845E+01 0.66800616674E+01 0.67546106221E+01 0.68178449097E+01 0.68681059686E+01
 0.69044088852E+01 0.69262900593E+01 0.64397356947E+01 0.64352220917E+01 0.64217677963E+01
 0.63996533053E+01 0.63694039566E+01 0.63318398223E+01 0.62880883331E+01 0.62395341136E+01
 0.61877034267E+01 0.61341061700E+01 0.60800759194E+01 0.60266511647E+01 0.59745283997E+01
 0.59240959037E+01 0.58755342562E+01 0.58289530517E+01 0.57845267170E+01 0.57425960660E+01
 0.57037139961E+01 0.56686296670E+01 0.56382210024E+01 0.56133960688E+01 0.55949871659E+01
 0.55836575092E+01 0.55798322346E+01 0.55836575092E+01 0.55949871659E+01 0.56133960688E+01
 0.56382210024E+01 0.56686296670E+01 0.57037139961E+01 0.57425960660E+01 0.57845267170E+01
 0.58289530517E+01 0.58755342562E+01 0.59240959037E+01 0.59745283997E+01 0.60266511647E+01
 0.60800759194E+01 0.61341061700E+01 0.61877034267E+01 0.62395341136E+01 0.62880883331E+01
 0.63318398223E+01 0.63694039566E+01 0.63996533053E+01 0.64217677963E+01 0.64352220917E+01
 0.60785069935E+01 0.60762175712E+01 0.60694240740E+01 0.60583490838E+01 0.60433552017E+01
 0.60249249845E+01 0.60036229984E+01 0.59800397792E+01 0.59547257867E+01 0.59281307939E+01
 0.59005666045E+01 0.58722066591E+01 0.58431261565E+01 0.58133744055E+01 0.57830613846E+01
 0.57524359572E+01 0.57219350406E+01 0.56921906723E+01 0.56639932577E+01 0.56382210024E+01
 0.56157538099E+01 0.55973918412E+01 0.55837939607E+01 0.55754418096E+01 0.55726255756E+01
 0.55754418096E+01 0.55837939607E+01 0.55973918412E+01 0.56157538099E+01 0.56382210024E+01
 0.56639932577E+01 0.56921906723E+01 0.57219350406E+01 0.57524359572E+01 0.57830613846E+01
 0.58133744055E+01 0.58431261565E+01 0.58722066591E+01 0.59005666045E+01 0.59281307939E+01
 0.59547257867E+01 0.59800397792E+01 0.60036229984E+01 0.60249249845E+01 0.60433552017E+01
 0.60583490838E+01 0.60694240740E+01 0.60762175712E+01 0.58303509055E+01 0.58296096607E+01
 0.58274299277E+01 0.58239329405E+01 0.58192869131E+01 0.58136631872E+01 0.58071877242E+01
 0.57998987648E+01 0.57917217063E+01 0.57824701991E+01 0.57718777662E+01 0.57596574054E+01
 0.57455792081E+01 0.57295502620E+01 0.57116788978E+01 0.56923076187E+01 0.56720054905E+01
 0.56515200257E+01 0.56316984664E+01 0.56133960688E+01 0.55973918412E+01 0.55843287389E+01
 0.55746864276E+01 0.55687835479E+01 0.55667971956E+01 0.55687835479E+01 0.55746864276E+01
 0.55843287389E+01 0.55973918412E+01 0.56133960688E+01 0.56316984664E+01 0.56515200257E+01
 0.56720054905E+01 0.56923076187E+01 0.57116788978E+01 0.57295502620E+01 0.57455792081E+01
 0.57596574054E+01 0.57718777662E+01 0.57824701991E+01 0.57917217063E+01 0.57998987648E+01
 0.58071877242E+01 0.58136631872E+01 0.58192869131E+01 0.58239329405E+01 0.58274299277E+01
 0.58296096607E+01 0.56727213274E+01 0.56729324419E+01 0.56735824538E+01 0.56747077201E+01
 0.56763275223E+01 0.56783954871E+01 0.56807544125E+01 0.56831095392E+01 0.56850313416E+01
 0.56859922407E+01 0.56854337455E+01 0.56828530417E+01 0.56778926315E+01 0.56704146761E+01
 0.56605439115E+01 0.56486691037E+01 0.56354017020E+01 0.56214997061E+01 0.56077725702E+01
 0.55949871659E+01 0.55837939607E+01 0.55746864276E+01 0.55679967511E+01 0.55639201391E+01
 0.55625520457E+01 0.55639201391E+01 0.55679967511E+01 0.55746864276E+01 0.55837939607E+01
 0.55949871659E+01 0.56077725702E+01 0.56214997061E+01 0.56354017020E+01 0.56486691037E+01
 0.56605439115E+01 0.56704146761E+01 0.56778926315E+01 0.56828530417E+01 0.56854337455E+01
 0.56859922407E+01 0.56850313416E+01 0.56831095392E+01 0.56807544125E+01 0.56783954871E+01
 0.56763275223E+01 0.56747077201E+01 0.56735824538E+01 0.56729324419E+01 0.55864580426E+01
 0.55871645522E+01 0.55892838880E+01 0.55928012301E+01 0.55976494482E+01 0.56036614398E+01
 0.56105301043E+01 0.56177923282E+01 0.56248474120E+01 0.56310116110E+01 0.56356012549E+01
 0.56380294376E+01 0.56378971700E+01 0.56350601270E+01 0.56296567254E+01 0.56220912904E+01
 0.56129756503E+01 0.56030413662E+01 0.55930408604E+01 0.55836575092E+01 0.55754418096E+01
 0.55687835479E+01 0.55639201391E+01 0.55609715046E+01 0.55599849217E+01 0.55609715046E+01
 0.55639201391E+01 0.55687835479E+01 0.55754418096E+01 0.55836575092E+01 0.55930408604E+01
 0.56030413662E+01 0.56129756503E+01 0.56220912904E+01 0.56296567254E+01 0.56350601270E+01
 0.56378971700E+01 0.56380294376E+01 0.56356012549E+01 0.56310116110E+01 0.56248474120E+01
 0.56177923282E+01 0.56105301043E+01 0.56036614398E+01 0.55976494482E+01 0.55928012301E+01
 0.55892838880E+01 0.55871645522E+01 0.55591273024E+01 0.55599849217E+01 0.55625520457E+01
 0.55667971956E+01 0.55726255756E+01 0.55798322346E+01 0.55880641711E+01 0.55968080285E+01
 0.56054135020E+01 0.56131532193E+01 0.56193103086E+01 0.56232774511E+01 0.56246475934E+01
 0.56232774511E+01 0.56193103086E+01 0.56131532193E+01 0.56054135020E+01 0.55968080285E+01
 0.55880641711E+01 0.55798322346E+01 0.55726255756E+01 0.55667971956E+01 0.55625520457E+01
 0.55599849217E+01 0.55591273024E+01 0.55599849217E+01 0.55625520457E+01 0.55667971956E+01
 0.55726255756E+01 0.55798322346E+01 0.55880641711E+01 0.55968080285E+01 0.56054135020E+01
 0.56131532193E+01 0.56193103086E+01 0.56232774511E+01 0.56246475934E+01 0.56232774511E+01
 0.56193103086E+01 0.56131532193E+01 0.56054135020E+01 0.55968080285E+01 0.55880641711E+01
 0.55798322346E+01 0.55726255756E+01 0.55667971956E+01 0.55625520457E+01 0.55599849217E+01
 0.55864580426E+01 0.55871645522E+01 0.55892838880E+01 0.55928012301E+01 0.55976494482E+01
 0.56036614398E+01 0.56105301043E+01 0.56177923282E+01 0.56248474120E+01 0.56310116110E+01
 0.56356012549E+01 0.56380294376E+01 0.56378971700E+01 0.56350601270E+01 0.56296567254E+01
 0.56220912904E+01 0.56129756503E+01 0.56030413662E+01 0.55930408604E+01 0.55836575092E+01
 0.55754418096E+01 0.55687835479E+01 0.55639201391E+01 0.55609715046E+01 0.55599849217E+01
 0.55609715046E+01 0.55639201391E+01 0.55687835479E+01 0.55754418096E+01 0.55836575092E+01
 0.55930408604E+01 0.56030413662E+01 0.56129756503E+01 0.56220912904E+01 0.56296567254E+01
 0.56350601270E+01 0.56378971700E+01 0.56380294376E+01 0.56356012549E+01 0.56310116110E+01
 0.56248474120E+01 0.56177923282E+01 0.56105301043E+01 0.56036614398E+01 0.55976494482E+01
 0.55928012301E+01 0.55892838880E+01 0.55871645522E+01 0.56727213274E+01 0.56729324419E+01
 0.56735824538E+01 0.56747077201E+01 0.56763275223E+01 0.56783954871E+01 0.56807544125E+01
 0.56831095392E+01 0.56850313416E+01 0.56859922407E+01 0.56854337455E+01 0.56828530417E+01
 0.56778926315E+01 0.56704146761E+01 0.56605439115E+01 0.56486691037E+01 0.56354017020E+01
 0.56214997061E+01 0.56077725702E+01 0.55949871659E+01 0.55837939607E+01 0.55746864276E+01
 0.55679967511E+01 0.55639201391E+01 0.55625520457E+01 0.55639201391E+01 0.55679967511E+01
 0.55746864276E+01 0.55837939607E+01 0.55949871659E+01 0.56077725702E+01 0.56214997061E+01
 0.56354017020E+01 0.56486691037E+01 0.56605439115E+01 0.56704146761E+01 0.56778926315E+01
 0.56828530417E+01 0.56854337455E+01 0.56859922407E+01 0.56850313416E+01 0.56831095392E+01
 0.56807544125E+01 0.56783954871E+01 0.56763275223E+01 0.56747077201E+01 0.56735824538E+01
 0.56729324419E+01 0.58303509055E+01 0.58296096607E+01 0.58274299277E+01 0.58239329405E+01
 0.58192869131E+01 0.58136631872E+01 0.58071877242E+01 0.57998987648E+01 0.57917217063E+01
 0.57824701991E+01 0.57718777662E+01 0.57596574054E+01 0.57455792081E+01 0.57295502620E+01
 0.57116788978E+01 0.56923076187E+01 0.56720054905E+01 0.56515200257E+01 0.56316984664E+01
 0.56133960688E+01 0.55973918412E+01 0.55843287389E+01 0.55746864276E+01 0.55687835479E+01
 0.55667971956E+01 0.55687835479E+01 0.55746864276E+01 0.55843287389E+01 0.55973918412E+01
 0.56133960688E+01 0.56316984664E+01 0.56515200257E+01 0.56720054905E+01 0.56923076187E+01
 0.57116788978E+01 0.57295502620E+01 0.57455792081E+01 0.57596574054E+01 0.57718777662E+01
 0.57824701991E+01 0.57917217063E+01 0.57998987648E+01 0.58071877242E+01 0.58136631872E+01
 0.58192869131E+01 0.58239329405E+01 0.58274299277E+01 0.58296096607E+01 0.60785069935E+01
 0.60762175712E+01 0.60694240740E+01 0.60583490838E+01 0.60433552017E+01 0.60249249845E+01
 0.60036229984E+01 0.59800397792E+01 0.59547257867E+01 0.59281307939E+01 0.59005666045E+01
 0.58722066591E+01 0.58431261565E+01 0.58133744055E+01 0.57830613846E+01 0.57524359572E+01
 0.57219350406E+01 0.56921906723E+01 0.56639932577E+01 0.56382210024E+01 0.56157538099E+01
 0.55973918412E+01 0.55837939607E+01 0.55754418096E+01 0.55726255756E+01 0.55754418096E+01
 0.55837939607E+01 0.55973918412E+01 0.56157538099E+01 0.56382210024E+01 0.56639932577E+01
 0.56921906723E+01 0.57219350406E+01 0.57524359572E+01 0.57830613846E+01 0.58133744055E+01
 0.58431261565E+01 0.58722066591E+01 0.59005666045E+01 0.59281307939E+01 0.59547257867E+01
 0.59800397792E+01 0.60036229984E+01 0.60249249845E+01 0.60433552017E+01 0.60583490838E+01
 0.60694240740E+01 0.60762175712E+01 0.64397356947E+01 0.64352220917E+01 0.64217677963E+01
 0.63996533053E+01 0.63694039566E+01 0.63318398223E+01 0.62880883331E+01 0.62395341136E+01
 0.61877034267E+01 0.61341061700E+01 0.60800759194E+01 0.60266511647E+01 0.59745283997E+01
 0.59240959037E+01 0.58755342562E+01 0.58289530517E+01 0.57845267170E+01 0.57425960660E+01
 0.57037139961E+01 0.56686296670E+01 0.56382210024E+01 0.56133960688E+01 0.55949871659E+01
 0.55836575092E+01 0.55798322346E+01 0.55836575092E+01 0.55949871659E+01 0.56133960688E+01
 0.56382210024E+01 0.56686296670E+01 0.57037139961E+01 0.57425960660E+01 0.57845267170E+01
 0.58289530517E+01 0.58755342562E+01 0.59240959037E+01 0.59745283997E+01 0.60266511647E+01
 0.60800759194E+01 0.61341061700E+01 0.61877034267E+01 0.62395341136E+01 0.62880883331E+01
 0.63318398223E+01 0.63694039566E+01 0.63996533053E+01 0.64217677963E+01 0.64352220917E+01
 0.69335933760E+01 0.69262900593E+01 0.69044088852E+01 0.68681059686E+01 0.68178449097E+01
 0.67546106221E+01 0.66800616674E+01 0.65965435845E+01 0.65069328908E+01 0.64143399081E+01
 0.63217459986E+01 0.62316702617E+01 0.61459476289E+01 0.60656629538E+01 0.59912400487E+01
 0.59226462032E+01 0.58596508773E+01 0.58020737914E+01 0.57499691677E+01 0.57037139961E+01
 0.56639932577E+01 0.56316984664E+01 0.56077725702E+01 0.55930408604E+01 0.55880641711E+01
 0.55930408604E+01 0.56077725702E+01 0.56316984664E+01 0.56639932577E+01 0.57037139961E+01
 0.57499691677E+01 0.58020737914E+01 0.58596508773E+01 0.59226462032E+01 0.59912400487E+01
 0.60656629538E+01 0.61459476289E+01 0.62316702617E+01 0.63217459986E+01 0.64143399081E+01
 0.65069328908E+01 0.65965435845E+01 0.66800616674E+01 0.67546106221E+01 0.68178449097E+01
 0.68681059686E+01 0.69044088852E+01 0.69262900593E+01 0.75666853700E+01 0.75564118511E+01
 0.75255899398E+01 0.74738556622E+01 0.74009601322E+01 0.73074741182E+01 0.71951874490E+01
 0.70673124569E+01 0.69283395894E+01 0.67835670578E+01 0.66384283487E+01 0.64977972777E+01
 0.63654442242E+01 0.62437584423E+01 0.61337673373E+01 0.60354056434E+01 0.59479370366E+01
 0.58704140711E+01 0.58020737914E+01 0.57425960660E+01 0.56921906723E+01 0.56515200257E+01
 0.56214997061E+01 0.56030413662E+01 0.55968080285E+01 0.56030413662E+01 0.56214997061E+01
 0.56515200257E+01 0.56921906723E+01 0.57425960660E+01 0.58020737914E+01 0.58704140711E+01
 0.59479370366E+01 0.60354056434E+01 0.61337673373E+01 0.62437584423E+01 0.63654442242E+01
 0.64977972777E+01 0.66384283487E+01 0.67835670578E+01 0.69283395894E+01 0.70673124569E+01
 0.71951874490E+01 0.73074741182E+01 0.74009601322E+01 0.74738556622E+01 0.75255899398E+01
 0.75564118511E+01 0.84451697578E+01 0.84227693373E+01 0.83582557034E+01 0.82589550752E+01
 0.81345772646E+01 0.79934239880E+01 0.78373094422E+01 0.76596466585E+01 0.74623885511E+01
 0.72534967783E+01 0.70417727062E+01 0.68355952669E+01 0.66418278167E+01 0.64651360100E+01
 0.63078185965E+01 0.61701068470E+01 0.60507844692E+01 0.59479370366E+01 0.58596508773E+01
 0.57845267170E+01 0.57219350406E+01 0.56720054905E+01 0.56354017020E+01 0.56129756503E+01
 0.56054135020E+01 0.56129756503E+01 0.56354017020E+01 0.56720054905E+01 0.57219350406E+01
 0.57845267170E+01 0.58596508773E+01 0.59479370366E+01 0.60507844692E+01 0.61701068470E+01
 0.63078185965E+01 0.64651360100E+01 0.66418278167E+01 0.68355952669E+01 0.70417727062E+01
 0.72534967783E+01 0.74623885511E+01 0.76596466585E+01 0.78373094422E+01 0.79934239880E+01
 0.81345772646E+01 0.82589550752E+01 0.83582557034E+01 0.84227693373E+01 0.10027907732E+02
 0.99753742956E+01 0.98237563095E+01 0.95902662646E+01 0.93009465367E+01 0.89861982735E+01
 0.86740687798E+01 0.83818354703E+01 0.81073713901E+01 0.78273315547E+01 0.75380465871E+01
 0.72526088019E+01 0.69825330746E+01 0.67362088789E+01 0.65183246977E+01 0.63300986156E+01
 0.61701068470E+01 0.60354056434E+01 0.59226462032E+01 0.58289530517E+01 0.57524359572E+01
 0.56923076187E+01 0.56486691037E+01 0.56220912904E+01 0.56131532193E+01 0.56220912904E+01
 0.56486691037E+01 0.56923076187E+01 0.57524359572E+01 0.58289530517E+01 0.59226462032E+01
 0.60354056434E+01 0.61701068470E+01 0.63300986156E+01 0.65183246977E+01 0.67362088789E+01
 0.69825330746E+01 0.72526088019E+01 0.75380465871E+01 0.78273315547E+01 0.81073713901E+01
 0.83818354703E+01 0.86740687798E+01 0.89861982735E+01 0.93009465367E+01 0.95902662646E+01