   2   2   1   0
  0.1136426E+02  0.2832634E-09  0.2832634E-09  0.2832634E-09  0.5000000E-15
  1.000000000000000E-004
  CAR 
 unknown system                          
     27.10041951     -4.38642354  301      5.80651873      1.00000000
     -4.386  0.0000E+00  0.0000E+00
     -4.281  0.0000E+00  0.0000E+00
     -4.177  0.0000E+00  0.0000E+00
     -4.072 -0.5218E-31 -0.5477E-32
     -3.967 -0.2573E-27 -0.2701E-28
     -3.862 -0.7283E-24 -0.7647E-25
     -3.757 -0.1182E-20 -0.1242E-21
     -3.652 -0.1100E-17 -0.1155E-18
     -3.547 -0.5689E-15 -0.5982E-16
     -3.442 -0.1718E-12 -0.1809E-13
     -3.337 -0.2955E-10 -0.3119E-11
     -3.232 -0.2879E-08 -0.3053E-09
     -3.127 -0.1578E-06 -0.1687E-07
     -3.022 -0.4812E-05 -0.5219E-06
     -2.917 -0.7989E-04 -0.8907E-05
     -2.812 -0.6901E-03 -0.8134E-04
     -2.707 -0.2728E-02 -0.3677E-03
     -2.602 -0.2012E-02 -0.5788E-03
     -2.497  0.1711E-01  0.1217E-02
     -2.392  0.5466E-01  0.6954E-02
     -2.287  0.7932E-01  0.1528E-01
     -2.182  0.7809E-01  0.2347E-01
     -2.077  0.4867E-01  0.2858E-01
     -1.972  0.1515E-01  0.3017E-01
     -1.867  0.5650E-01  0.3610E-01
     -1.763  0.1659E+00  0.5351E-01
     -1.658  0.2320E+00  0.7786E-01
     -1.553  0.2291E+00  0.1019E+00
     -1.448  0.1601E+00  0.1187E+00
     -1.343  0.7561E-01  0.1266E+00
     -1.238  0.1058E+00  0.1378E+00
     -1.133  0.1905E+00  0.1577E+00
     -1.028  0.2152E+00  0.1803E+00
     -0.923  0.1972E+00  0.2010E+00
     -0.818  0.1395E+00  0.2157E+00
     -0.713  0.1384E+00  0.2302E+00
     -0.608  0.2229E+00  0.2536E+00
     -0.503  0.2449E+00  0.2793E+00
     -0.398  0.2516E+00  0.3057E+00
     -0.293  0.3298E+00  0.3403E+00
     -0.188  0.4070E+00  0.3830E+00
     -0.083  0.3551E+00  0.4203E+00
      0.022  0.2512E+00  0.4467E+00
      0.127  0.3231E+00  0.4806E+00
      0.232  0.4098E+00  0.5236E+00
      0.337  0.3471E+00  0.5600E+00
      0.442  0.2775E+00  0.5892E+00
      0.547  0.2840E+00  0.6190E+00
      0.651  0.3337E+00  0.6540E+00
      0.756  0.3926E+00  0.6952E+00
      0.861  0.6903E+00  0.7676E+00
      0.966  0.1266E+01  0.9005E+00
      1.071  0.1411E+01  0.1049E+01
      1.176  0.1019E+01  0.1156E+01
      1.281  0.9670E+00  0.1257E+01
      1.386  0.1541E+01  0.1419E+01
      1.491  0.2104E+01  0.1640E+01
      1.596  0.2224E+01  0.1873E+01
      1.701  0.2020E+01  0.2085E+01
      1.806  0.1848E+01  0.2279E+01
      1.911  0.1939E+01  0.2483E+01
      2.016  0.1857E+01  0.2677E+01
      2.121  0.1437E+01  0.2828E+01
      2.226  0.1230E+01  0.2957E+01
      2.331  0.1703E+01  0.3136E+01
      2.436  0.2863E+01  0.3437E+01
      2.541  0.3839E+01  0.3840E+01
      2.646  0.4009E+01  0.4260E+01
      2.751  0.3481E+01  0.4626E+01
      2.856  0.2846E+01  0.4924E+01
      2.961  0.2766E+01  0.5215E+01
      3.065  0.3130E+01  0.5543E+01
      3.170  0.3669E+01  0.5928E+01
      3.275  0.4339E+01  0.6384E+01
      3.380  0.4473E+01  0.6853E+01
      3.485  0.3439E+01  0.7214E+01
      3.590  0.1989E+01  0.7423E+01
      3.695  0.1243E+01  0.7553E+01
      3.800  0.1505E+01  0.7711E+01
      3.905  0.2166E+01  0.7939E+01
      4.010  0.2360E+01  0.8186E+01
      4.115  0.2379E+01  0.8436E+01
      4.220  0.3032E+01  0.8754E+01
      4.325  0.4091E+01  0.9184E+01
      4.430  0.4890E+01  0.9697E+01
      4.535  0.5077E+01  0.1023E+02
      4.640  0.4977E+01  0.1075E+02
      4.745  0.5429E+01  0.1132E+02
      4.850  0.6174E+01  0.1197E+02
      4.955  0.6703E+01  0.1267E+02
      5.060  0.7084E+01  0.1342E+02
      5.165  0.6544E+01  0.1410E+02
      5.270  0.4989E+01  0.1463E+02
      5.374  0.3688E+01  0.1501E+02
      5.479  0.2908E+01  0.1532E+02
      5.584  0.2145E+01  0.1555E+02
      5.689  0.1811E+01  0.1574E+02
      5.794  0.2235E+01  0.1597E+02
      5.899  0.2405E+01  0.1622E+02
      6.004  0.1719E+01  0.1640E+02
      6.109  0.1044E+01  0.1651E+02
      6.214  0.9251E+00  0.1661E+02
      6.319  0.1052E+01  0.1672E+02
      6.424  0.1064E+01  0.1683E+02
      6.529  0.1120E+01  0.1695E+02
      6.634  0.1401E+01  0.1710E+02
      6.739  0.1598E+01  0.1726E+02
      6.844  0.1759E+01  0.1745E+02
      6.949  0.2028E+01  0.1766E+02
      7.054  0.2341E+01  0.1791E+02
      7.159  0.2857E+01  0.1821E+02
      7.264  0.3225E+01  0.1855E+02
      7.369  0.3285E+01  0.1889E+02
      7.474  0.3385E+01  0.1925E+02
      7.579  0.3827E+01  0.1965E+02
      7.684  0.4852E+01  0.2016E+02
      7.788  0.5058E+01  0.2069E+02
      7.893  0.3166E+01  0.2102E+02
      7.998  0.1507E+01  0.2118E+02
      8.103  0.1936E+01  0.2138E+02
      8.208  0.2485E+01  0.2164E+02
      8.313  0.1706E+01  0.2182E+02
      8.418  0.7363E+00  0.2190E+02
      8.523  0.4338E+00  0.2194E+02
      8.628  0.3424E+00  0.2198E+02
      8.733  0.1865E+00  0.2200E+02
      8.838  0.3010E+00  0.2203E+02
      8.943  0.7209E+00  0.2211E+02
      9.048  0.1117E+01  0.2222E+02
      9.153  0.1268E+01  0.2236E+02
      9.258  0.1057E+01  0.2247E+02
      9.363  0.6657E+00  0.2254E+02
      9.468  0.3025E+00  0.2257E+02
      9.573  0.7809E-01  0.2258E+02
      9.678  0.1992E+00  0.2260E+02
      9.783  0.6107E+00  0.2266E+02
      9.888  0.8794E+00  0.2275E+02
      9.993  0.7107E+00  0.2283E+02
     10.098  0.3280E+00  0.2286E+02
     10.202  0.1902E+00  0.2288E+02
     10.307  0.4020E+00  0.2293E+02
     10.412  0.7000E+00  0.2300E+02
     10.517  0.7374E+00  0.2308E+02
     10.622  0.5417E+00  0.2313E+02
     10.727  0.4041E+00  0.2318E+02
     10.832  0.3874E+00  0.2322E+02
     10.937  0.4074E+00  0.2326E+02
     11.042  0.4716E+00  0.2331E+02
     11.147  0.5859E+00  0.2337E+02
     11.252  0.5194E+00  0.2342E+02
     11.357  0.2920E+00  0.2346E+02
     11.462  0.1097E+00  0.2347E+02
     11.567  0.6936E-01  0.2347E+02
     11.672  0.1781E+00  0.2349E+02
     11.777  0.2704E+00  0.2352E+02
     11.882  0.2819E+00  0.2355E+02
     11.987  0.2905E+00  0.2358E+02
     12.092  0.2598E+00  0.2361E+02
     12.197  0.1949E+00  0.2363E+02
     12.302  0.2016E+00  0.2365E+02
     12.407  0.2809E+00  0.2368E+02
     12.512  0.3870E+00  0.2372E+02
     12.616  0.4207E+00  0.2376E+02
     12.721  0.2730E+00  0.2379E+02
     12.826  0.9054E-01  0.2380E+02
     12.931  0.2120E-01  0.2381E+02
     13.036  0.3827E-01  0.2381E+02
     13.141  0.2104E+00  0.2383E+02
     13.246  0.5276E+00  0.2389E+02
     13.351  0.7888E+00  0.2397E+02
     13.456  0.9151E+00  0.2407E+02
     13.561  0.8336E+00  0.2415E+02
     13.666  0.5200E+00  0.2421E+02
     13.771  0.2047E+00  0.2423E+02
     13.876  0.4354E-01  0.2423E+02
     13.981  0.5329E-01  0.2424E+02
     14.086  0.2193E+00  0.2426E+02
     14.191  0.4647E+00  0.2431E+02
     14.296  0.6836E+00  0.2438E+02
     14.401  0.7561E+00  0.2446E+02
     14.506  0.8903E+00  0.2456E+02
     14.611  0.1257E+01  0.2469E+02
     14.716  0.1299E+01  0.2482E+02
     14.821  0.7753E+00  0.2490E+02
     14.926  0.3107E+00  0.2494E+02
     15.030  0.3260E+00  0.2497E+02
     15.135  0.6464E+00  0.2504E+02
     15.240  0.8363E+00  0.2513E+02
     15.345  0.7778E+00  0.2521E+02
     15.450  0.7769E+00  0.2529E+02
     15.555  0.8820E+00  0.2538E+02
     15.660  0.9155E+00  0.2548E+02
     15.765  0.7809E+00  0.2556E+02
     15.870  0.5287E+00  0.2562E+02
     15.975  0.4390E+00  0.2566E+02
     16.080  0.7297E+00  0.2574E+02
     16.185  0.1178E+01  0.2586E+02
     16.290  0.1256E+01  0.2599E+02
     16.395  0.8353E+00  0.2608E+02
     16.500  0.4533E+00  0.2613E+02
     16.605  0.4787E+00  0.2618E+02
     16.710  0.5169E+00  0.2623E+02
     16.815  0.5071E+00  0.2629E+02
     16.920  0.9307E+00  0.2639E+02
     17.025  0.1449E+01  0.2654E+02
     17.130  0.1323E+01  0.2668E+02
     17.235  0.8512E+00  0.2677E+02
     17.339  0.6066E+00  0.2683E+02
     17.444  0.5283E+00  0.2688E+02
     17.549  0.5048E+00  0.2694E+02
     17.654  0.5192E+00  0.2699E+02
     17.759  0.6255E+00  0.2706E+02
     17.864  0.9493E+00  0.2716E+02
     17.969  0.1241E+01  0.2729E+02
     18.074  0.1020E+01  0.2740E+02
     18.179  0.4547E+00  0.2744E+02
     18.284  0.1931E+00  0.2746E+02
     18.389  0.4483E+00  0.2751E+02
     18.494  0.7239E+00  0.2759E+02
     18.599  0.6593E+00  0.2766E+02
     18.704  0.5562E+00  0.2771E+02
     18.809  0.5796E+00  0.2777E+02
     18.914  0.6298E+00  0.2784E+02
     19.019  0.7471E+00  0.2792E+02
     19.124  0.1099E+01  0.2803E+02
     19.229  0.1360E+01  0.2818E+02
     19.334  0.9303E+00  0.2827E+02
     19.439  0.2906E+00  0.2831E+02
     19.544  0.2867E+00  0.2834E+02
     19.649  0.6244E+00  0.2840E+02
     19.753  0.6134E+00  0.2847E+02
     19.858  0.4530E+00  0.2851E+02
     19.963  0.6254E+00  0.2858E+02
     20.068  0.9496E+00  0.2868E+02
     20.173  0.9459E+00  0.2878E+02
     20.278  0.6397E+00  0.2884E+02
     20.383  0.4964E+00  0.2890E+02
     20.488  0.5945E+00  0.2896E+02
     20.593  0.5628E+00  0.2902E+02
     20.698  0.4327E+00  0.2906E+02
     20.803  0.5190E+00  0.2912E+02
     20.908  0.7302E+00  0.2919E+02
     21.013  0.7716E+00  0.2928E+02
     21.118  0.6479E+00  0.2934E+02
     21.223  0.5376E+00  0.2940E+02
     21.328  0.4329E+00  0.2945E+02
     21.433  0.2741E+00  0.2947E+02
     21.538  0.2787E+00  0.2950E+02
     21.643  0.6652E+00  0.2957E+02
     21.748  0.1138E+01  0.2969E+02
     21.853  0.1098E+01  0.2981E+02
     21.958  0.4957E+00  0.2986E+02
     22.063 -0.8383E-02  0.2986E+02
     22.167 -0.1075E-01  0.2986E+02
     22.272  0.5138E+00  0.2991E+02
     22.377  0.1214E+01  0.3004E+02
     22.482  0.1321E+01  0.3018E+02
     22.587  0.8020E+00  0.3026E+02
     22.692  0.3250E+00  0.3030E+02
     22.797  0.1708E+00  0.3031E+02
     22.902  0.3410E+00  0.3035E+02
     23.007  0.6613E+00  0.3042E+02
     23.112  0.9561E+00  0.3052E+02
     23.217  0.1169E+01  0.3064E+02
     23.322  0.1066E+01  0.3075E+02
     23.427  0.6599E+00  0.3082E+02
     23.532  0.3653E+00  0.3086E+02
     23.637  0.5177E+00  0.3092E+02
     23.742  0.8851E+00  0.3101E+02
     23.847  0.1013E+01  0.3112E+02
     23.952  0.1087E+01  0.3123E+02
     24.057  0.1317E+01  0.3137E+02
     24.162  0.1082E+01  0.3148E+02
     24.267  0.3557E+00  0.3152E+02
     24.372  0.1660E-01  0.3152E+02
     24.477  0.3883E+00  0.3156E+02
     24.581  0.1001E+01  0.3167E+02
     24.686  0.1045E+01  0.3178E+02
     24.791  0.5141E+00  0.3183E+02
     24.896  0.2866E+00  0.3186E+02
     25.001  0.5244E+00  0.3191E+02
     25.106  0.5711E+00  0.3197E+02
     25.211  0.2632E+00  0.3200E+02
     25.316  0.1667E-01  0.3200E+02
     25.421 -0.2788E-01  0.3200E+02
     25.526 -0.1033E-01  0.3200E+02
     25.631 -0.1602E-02  0.3200E+02
     25.736 -0.1287E-03  0.3200E+02
     25.841 -0.5684E-05  0.3200E+02
     25.946 -0.1416E-06  0.3200E+02
     26.051 -0.2015E-08  0.3200E+02
     26.156 -0.1650E-10  0.3200E+02
     26.261 -0.7814E-13  0.3200E+02
     26.366 -0.1777E-15  0.3200E+02
     26.471  0.0000E+00  0.3200E+02
     26.576  0.0000E+00  0.3200E+02
     26.681  0.0000E+00  0.3200E+02
     26.786  0.0000E+00  0.3200E+02
     26.891  0.0000E+00  0.3200E+02
     26.995  0.0000E+00  0.3200E+02
     27.100  0.0000E+00  0.3200E+02
     27.10041951     -4.38642354  301      5.80651873      1.00000000
     -4.386  0.0000E+00  0.0000E+00  0.0000E+00  0.0000E+00  0.0000E+00  0.0000E+00  0.0000E+00  0.0000E+00  0.0000E+00  0.0000E+00  0.0000E+00  0.0000E+00  0.0000E+00  0.0000E+00  0.0000E+00  0.0000E+00  0.0000E+00  0.0000E+00  0.0000E+00  0.0000E+00  0.0000E+00  0.0000E+00  0.0000E+00  0.0000E+00  0.0000E+00  0.0000E+00  0.0000E+00  0.0000E+00  0.0000E+00  0.0000E+00  0.0000E+00  0.0000E+00  0.0000E+00  0.0000E+00  0.0000E+00  0.0000E+00
     -4.281  0.0000E+00  0.0000E+00  0.0000E+00  0.0000E+00  0.0000E+00  0.0000E+00  0.0000E+00  0.0000E+00  0.0000E+00  0.0000E+00  0.0000E+00  0.0000E+00  0.0000E+00  0.0000E+00  0.0000E+00  0.0000E+00  0.0000E+00  0.0000E+00  0.0000E+00  0.0000E+00  0.0000E+00  0.0000E+00  0.0000E+00  0.0000E+00  0.0000E+00  0.0000E+00  0.0000E+00  0.0000E+00  0.0000E+00  0.0000E+00  0.0000E+00  0.0000E+00  0.0000E+00  0.0000E+00  0.0000E+00  0.0000E+00
     -4.177  0.0000E+00  0.0000E+00  0.0000E+00  0.0000E+00  0.0000E+00  0.0000E+00  0.0000E+00  0.0000E+00  0.0000E+00  0.0000E+00  0.0000E+00  0.0000E+00  0.0000E+00  0.0000E+00  0.0000E+00  0.0000E+00  0.0000E+00  0.0000E+00  0.0000E+00  0.0000E+00  0.0000E+00  0.0000E+00  0.0000E+00  0.0000E+00  0.0000E+00  0.0000E+00  0.0000E+00  0.0000E+00  0.0000E+00  0.0000E+00  0.0000E+00  0.0000E+00  0.0000E+00  0.0000E+00  0.0000E+00  0.0000E+00
     -4.072 -0.1862E-31 -0.2050E-38 -0.2412E-39 -0.1862E-31 -0.1483E-33  0.2141E-39  0.8260E-40 -0.1483E-33 -0.1483E-33 -0.8237E-40  0.1759E-39 -0.1483E-33 -0.1483E-33 -0.1126E-39 -0.2292E-39 -0.1483E-33 -0.3885E-35  0.1285E-40  0.2237E-41 -0.3885E-35 -0.3886E-35  0.5924E-41  0.8842E-41 -0.3885E-35 -0.1620E-39 -0.7944E-44 -0.1842E-43 -0.4882E-40 -0.3885E-35 -0.7186E-41  0.5646E-41 -0.3885E-35 -0.1295E-39  0.8224E-44  0.9653E-44  0.5925E-40
     -3.967 -0.9181E-28 -0.1011E-34 -0.1189E-35 -0.9181E-28 -0.7314E-30  0.1056E-35  0.4072E-36 -0.7314E-30 -0.7314E-30 -0.4062E-36  0.8673E-36 -0.7314E-30 -0.7314E-30 -0.5555E-36 -0.1130E-35 -0.7314E-30 -0.1916E-31  0.6337E-37  0.1103E-37 -0.1916E-31 -0.1916E-31  0.2921E-37  0.4360E-37 -0.1916E-31 -0.7986E-36 -0.3917E-40 -0.9079E-40 -0.2408E-36 -0.1916E-31 -0.3544E-37  0.2784E-37 -0.1916E-31 -0.6387E-36  0.4055E-40  0.4759E-40  0.2922E-36
     -3.862 -0.2598E-24 -0.2861E-31 -0.3367E-32 -0.2598E-24 -0.2070E-26  0.2989E-32  0.1152E-32 -0.2070E-26 -0.2070E-26 -0.1150E-32  0.2455E-32 -0.2070E-26 -0.2070E-26 -0.1572E-32 -0.3198E-32 -0.2070E-26 -0.5423E-28  0.1794E-33  0.3122E-34 -0.5423E-28 -0.5423E-28  0.8268E-34  0.1234E-33 -0.5423E-28 -0.2260E-32 -0.1109E-36 -0.2569E-36 -0.6815E-33 -0.5423E-28 -0.1003E-33  0.7880E-34 -0.5423E-28 -0.1808E-32  0.1148E-36  0.1347E-36  0.8270E-33
     -3.757 -0.4218E-21 -0.4644E-28 -0.5465E-29 -0.4218E-21 -0.3360E-23  0.4852E-29  0.1869E-29 -0.3360E-23 -0.3360E-23 -0.1866E-29  0.3985E-29 -0.3360E-23 -0.3360E-23 -0.2552E-29 -0.5190E-29 -0.3360E-23 -0.8803E-25  0.2912E-30  0.5068E-31 -0.8803E-25 -0.8803E-25  0.1342E-30  0.2003E-30 -0.8803E-25 -0.3669E-29 -0.1800E-33 -0.4169E-33 -0.1106E-29 -0.8803E-25 -0.1628E-30  0.1279E-30 -0.8803E-25 -0.2934E-29  0.1863E-33  0.2186E-33  0.1342E-29
     -3.652 -0.3923E-18 -0.4320E-25 -0.5083E-26 -0.3923E-18 -0.3126E-20  0.4513E-26  0.1738E-26 -0.3126E-20 -0.3126E-20 -0.1736E-26  0.3707E-26 -0.3126E-20 -0.3126E-20 -0.2374E-26 -0.4827E-26 -0.3126E-20 -0.8188E-22  0.2708E-27  0.4714E-28 -0.8188E-22 -0.8188E-22  0.1248E-27  0.1863E-27 -0.8188E-22 -0.3413E-26 -0.1674E-30 -0.3876E-30 -0.1029E-26 -0.8188E-22 -0.1514E-27  0.1190E-27 -0.8188E-22 -0.2729E-26  0.1733E-30  0.2033E-30  0.1249E-26
     -3.547 -0.2030E-15 -0.2235E-22 -0.2630E-23 -0.2030E-15 -0.1617E-17  0.2335E-23  0.8990E-24 -0.1617E-17 -0.1617E-17 -0.8980E-24  0.1917E-23 -0.1617E-17 -0.1617E-17 -0.1228E-23 -0.2497E-23 -0.1617E-17 -0.4236E-19  0.1401E-24  0.2439E-25 -0.4236E-19 -0.4236E-19  0.6458E-25  0.9639E-25 -0.4236E-19 -0.1766E-23 -0.8660E-28 -0.2005E-27 -0.5323E-24 -0.4236E-19 -0.7834E-25  0.6155E-25 -0.4236E-19 -0.1412E-23  0.8966E-28  0.1051E-27  0.6459E-24
     -3.442 -0.6129E-13 -0.6749E-20 -0.7941E-21 -0.6129E-13 -0.4883E-15  0.7050E-21  0.2714E-21 -0.4883E-15 -0.4883E-15 -0.2712E-21  0.5790E-21 -0.4883E-15 -0.4883E-15 -0.3708E-21 -0.7539E-21 -0.4883E-15 -0.1279E-16  0.4231E-22  0.7365E-23 -0.1279E-16 -0.1279E-16  0.1950E-22  0.2911E-22 -0.1279E-16 -0.5332E-21 -0.2615E-25 -0.6053E-25 -0.1607E-21 -0.1279E-16 -0.2366E-22  0.1859E-22 -0.1279E-16 -0.4264E-21  0.2707E-25  0.3174E-25  0.1951E-21
     -3.337 -0.1054E-10 -0.1161E-17 -0.1366E-18 -0.1054E-10 -0.8399E-13  0.1213E-18  0.4666E-19 -0.8398E-13 -0.8399E-13 -0.4664E-19  0.9960E-19 -0.8398E-13 -0.8399E-13 -0.6378E-19 -0.1296E-18 -0.8398E-13 -0.2200E-14  0.7277E-20  0.1267E-20 -0.2200E-14 -0.2200E-14  0.3354E-20  0.5006E-20 -0.2200E-14 -0.9170E-19 -0.4498E-23 -0.1041E-22 -0.2765E-19 -0.2200E-14 -0.4069E-20  0.3197E-20 -0.2200E-14 -0.7334E-19  0.4656E-23  0.5459E-23  0.3355E-19
     -3.232 -0.1027E-08 -0.1131E-15 -0.1330E-16 -0.1027E-08 -0.8183E-11  0.1181E-16  0.4545E-17 -0.8182E-11 -0.8183E-11 -0.4544E-17  0.9705E-17 -0.8182E-11 -0.8183E-11 -0.6214E-17 -0.1263E-16 -0.8182E-11 -0.2144E-12  0.7090E-18  0.1234E-18 -0.2143E-12 -0.2144E-12  0.3269E-18  0.4877E-18 -0.2143E-12 -0.8935E-17 -0.4382E-21 -0.1014E-20 -0.2694E-17 -0.2144E-12 -0.3965E-18  0.3114E-18 -0.2143E-12 -0.7146E-17  0.4536E-21  0.5317E-21  0.3268E-17
     -3.127 -0.5631E-07 -0.6199E-14 -0.7290E-15 -0.5628E-07 -0.4486E-09  0.6476E-15  0.2491E-15 -0.4484E-09 -0.4486E-09 -0.2490E-15  0.5321E-15 -0.4484E-09 -0.4486E-09 -0.3405E-15 -0.6920E-15 -0.4484E-09 -0.1175E-10  0.3887E-16  0.6768E-17 -0.1175E-10 -0.1175E-10  0.1792E-16  0.2673E-16 -0.1175E-10 -0.4898E-15 -0.2402E-19 -0.5556E-19 -0.1477E-15 -0.1175E-10 -0.2173E-16  0.1706E-16 -0.1175E-10 -0.3917E-15  0.2485E-19  0.2914E-19  0.1791E-15
     -3.022 -0.1717E-05 -0.1890E-12 -0.2219E-13 -0.1714E-05 -0.1368E-07  0.1974E-13  0.7600E-14 -0.1366E-07 -0.1368E-07 -0.7585E-14  0.1623E-13 -0.1366E-07 -0.1368E-07 -0.1037E-13 -0.2108E-13 -0.1366E-07 -0.3582E-09  0.1185E-14  0.2065E-15 -0.3579E-09 -0.3583E-09  0.5469E-15  0.8139E-15 -0.3579E-09 -0.1493E-13 -0.7318E-18 -0.1694E-17 -0.4501E-14 -0.3582E-09 -0.6626E-15  0.5189E-15 -0.3579E-09 -0.1194E-13  0.7562E-18  0.8876E-18  0.5455E-14
     -2.917 -0.2850E-04 -0.3134E-11 -0.3663E-12 -0.2837E-04 -0.2271E-06  0.3273E-12  0.1265E-12 -0.2260E-06 -0.2271E-06 -0.1255E-12  0.2699E-12 -0.2260E-06 -0.2271E-06 -0.1714E-12 -0.3487E-12 -0.2260E-06 -0.5945E-08  0.1966E-13  0.3438E-14 -0.5926E-08 -0.5945E-08  0.9104E-14  0.1346E-13 -0.5926E-08 -0.2477E-12 -0.1212E-16 -0.2816E-16 -0.7468E-13 -0.5945E-08 -0.1100E-13  0.8545E-14 -0.5925E-08 -0.1982E-12  0.1247E-16  0.1470E-16  0.9020E-13
     -2.812 -0.2462E-03 -0.2697E-10 -0.3100E-11 -0.2424E-03 -0.1962E-05  0.2815E-11  0.1103E-11 -0.1931E-05 -0.1962E-05 -0.1071E-11  0.2343E-11 -0.1931E-05 -0.1962E-05 -0.1459E-11 -0.2977E-11 -0.1931E-05 -0.5127E-07  0.1694E-12  0.2997E-13 -0.5070E-07 -0.5127E-07  0.7938E-13  0.1146E-12 -0.5070E-07 -0.2135E-11 -0.1038E-15 -0.2443E-15 -0.6440E-12 -0.5127E-07 -0.9485E-13  0.7167E-13 -0.5070E-07 -0.1711E-11  0.1052E-15  0.1260E-15  0.7679E-12
     -2.707 -0.9734E-03 -0.1048E-09 -0.1115E-10 -0.9107E-03 -0.7756E-05  0.1091E-10  0.4541E-11 -0.7254E-05 -0.7756E-05 -0.4007E-11  0.9468E-11 -0.7254E-05 -0.7756E-05 -0.5383E-11 -0.1117E-10 -0.7253E-05 -0.2013E-06  0.6622E-12  0.1232E-12 -0.1919E-06 -0.2013E-06  0.3265E-12  0.4245E-12 -0.1919E-06 -0.8427E-11 -0.3951E-15 -0.9854E-15 -0.2599E-11 -0.2013E-06 -0.3726E-12  0.2465E-12 -0.1919E-06 -0.6817E-11  0.3729E-15  0.4820E-15  0.2770E-11
     -2.602 -0.7179E-03 -0.5914E-10  0.2899E-11 -0.1938E-03 -0.5731E-05  0.5900E-11  0.5196E-11 -0.1532E-05 -0.5731E-05 -0.6669E-12  0.9057E-11 -0.1532E-05 -0.5731E-05 -0.1121E-12 -0.2236E-11 -0.1532E-05 -0.1341E-06  0.4138E-12  0.1387E-12 -0.5621E-07 -0.1341E-06  0.3683E-12  0.2529E-13 -0.5621E-07 -0.1290E-10 -0.1491E-15 -0.9265E-15 -0.9255E-11 -0.1341E-06 -0.2510E-12 -0.1897E-12 -0.5621E-07 -0.1236E-10 -0.1305E-15  0.1997E-15 -0.7449E-11
     -2.497  0.6103E-02  0.7459E-09  0.1243E-09  0.8048E-02  0.4857E-04 -0.7894E-10 -0.1941E-10  0.6415E-04  0.4857E-04  0.3632E-10 -0.4923E-10  0.6415E-04  0.4857E-04  0.5264E-10  0.9941E-10  0.6415E-04  0.1332E-05 -0.4517E-11 -0.5392E-12  0.1621E-05  0.1332E-05 -0.1423E-11 -0.4069E-11  0.1621E-05 -0.3485E-09  0.2565E-14  0.5265E-14 -0.3881E-09  0.1332E-05  0.2453E-11 -0.3364E-11  0.1621E-05 -0.3618E-09 -0.2746E-14 -0.3391E-14 -0.4323E-09
     -2.392  0.1950E-01  0.2174E-08  0.2686E-09  0.2017E-01  0.1552E-03 -0.2271E-09 -0.8343E-10  0.1606E-03  0.1552E-03  0.8958E-10 -0.1815E-09  0.1606E-03  0.1552E-03  0.1238E-09  0.2484E-09  0.1606E-03  0.4082E-05 -0.1358E-10 -0.2287E-11  0.4182E-05  0.4083E-05 -0.6037E-11 -0.9667E-11  0.4182E-05 -0.1173E-07 -0.1112E-13  0.2116E-13 -0.1184E-07  0.4082E-05  0.7571E-11 -0.6449E-11  0.4182E-05 -0.1176E-07  0.4159E-13  0.2282E-14 -0.1195E-07
     -2.287  0.2831E-01  0.2556E-08  0.1927E-10  0.1319E-01  0.2238E-03 -0.2531E-09 -0.1827E-09  0.1027E-03  0.2238E-03  0.5402E-10 -0.3356E-09  0.1027E-03  0.2238E-03  0.5587E-10  0.1640E-09  0.1027E-03  0.5323E-05 -0.1745E-10 -0.5082E-11  0.3076E-05  0.5323E-05 -0.1319E-10 -0.4367E-11  0.3076E-05 -0.1895E-06 -0.3069E-12  0.7012E-13 -0.1891E-06  0.5323E-05  0.1033E-10  0.2979E-11  0.3076E-05 -0.1895E-06  0.8100E-12  0.1904E-12 -0.1892E-06
     -2.182  0.2792E-01  0.1652E-08 -0.5422E-09 -0.1252E-01  0.2064E-03 -0.1032E-09 -0.2724E-09 -0.1173E-03  0.2064E-03 -0.6049E-10 -0.4603E-09 -0.1173E-03  0.2064E-03 -0.1029E-09 -0.1155E-09 -0.1173E-03  0.3536E-05 -0.1519E-10 -0.8786E-11 -0.2462E-05  0.3536E-05 -0.2088E-10  0.1084E-10 -0.2462E-05 -0.1563E-05 -0.2612E-11  0.3462E-12 -0.1549E-05  0.3536E-05  0.9998E-11  0.2142E-10 -0.2462E-05 -0.1563E-05  0.6643E-11  0.1617E-11 -0.1549E-05
     -2.077  0.1757E-01  0.7862E-09 -0.5867E-09 -0.2329E-01  0.7824E-04  0.1046E-09 -0.2096E-09 -0.2452E-03  0.7824E-04 -0.8563E-10 -0.4161E-09 -0.2452E-03  0.7824E-04 -0.3176E-10 -0.1228E-09 -0.2452E-03 -0.1520E-05 -0.1389E-10 -0.1139E-10 -0.7428E-05 -0.1521E-05 -0.2110E-10  0.1546E-10 -0.7428E-05 -0.5756E-05 -0.9988E-11  0.1252E-11 -0.5516E-05 -0.1520E-05  0.8928E-11  0.2129E-10 -0.7428E-05 -0.5755E-05  0.2358E-10  0.5460E-11 -0.5516E-05
     -1.972  0.5507E-02  0.4666E-10 -0.2175E-09 -0.8976E-02  0.1254E-04 -0.4740E-10 -0.9284E-10 -0.7130E-04  0.1254E-04 -0.6287E-10 -0.9882E-10 -0.7130E-04  0.1254E-04 -0.9784E-10 -0.9962E-10 -0.7130E-04 -0.9632E-06 -0.4660E-11 -0.5213E-11 -0.1748E-05 -0.9632E-06 -0.9250E-11  0.7079E-11 -0.1748E-05 -0.2449E-05 -0.8094E-11  0.1633E-11 -0.4388E-06 -0.9632E-06 -0.6491E-12  0.1324E-10 -0.1748E-05 -0.2449E-05  0.1668E-11 -0.2826E-11 -0.4388E-06
     -1.867  0.1881E-01 -0.1455E-08 -0.6415E-09  0.2469E-01  0.5722E-03 -0.1608E-08 -0.3627E-09  0.7394E-03  0.5722E-03 -0.2712E-09  0.5939E-09  0.7394E-03  0.5721E-03 -0.1668E-08 -0.1223E-08  0.7394E-03  0.3235E-04  0.4565E-10  0.3100E-10  0.3832E-04  0.3235E-04  0.2035E-10 -0.4621E-12  0.3832E-04  0.4101E-04  0.5259E-10 -0.3323E-11  0.4851E-04  0.3235E-04 -0.4075E-10  0.5459E-10  0.3832E-04  0.4101E-04 -0.2082E-09 -0.6371E-10  0.4851E-04
     -1.763  0.5526E-01 -0.2536E-08 -0.1961E-08  0.5924E-01  0.1672E-02 -0.3508E-08 -0.8504E-09  0.1747E-02  0.1672E-02 -0.5072E-09  0.1137E-08  0.1747E-02  0.1672E-02 -0.3845E-08 -0.2982E-08  0.1747E-02  0.9058E-04  0.1247E-09  0.9394E-10  0.9303E-04  0.9058E-04  0.6882E-10 -0.7453E-11  0.9303E-04  0.1149E-03  0.1843E-09 -0.1969E-10  0.1177E-03  0.9058E-04 -0.7724E-10  0.1058E-09  0.9303E-04  0.1149E-03 -0.5032E-09 -0.1290E-09  0.1177E-03
     -1.658  0.7739E-01  0.1809E-08 -0.3112E-08  0.3592E-01  0.2317E-02 -0.1015E-08 -0.5221E-09  0.1055E-02  0.2317E-02  0.1777E-09 -0.3566E-09  0.1055E-02  0.2317E-02 -0.2093E-08 -0.2303E-08  0.1055E-02  0.1116E-03  0.1447E-09  0.1415E-09  0.6599E-04  0.1116E-03  0.1240E-09 -0.2643E-10  0.6600E-04  0.1438E-03  0.3561E-09 -0.5795E-10  0.8573E-04  0.1116E-03  0.2609E-10 -0.2422E-10  0.6599E-04  0.1438E-03 -0.3598E-09  0.6656E-11  0.8573E-04
     -1.553  0.7657E-01  0.1031E-07 -0.3660E-08 -0.3654E-01  0.2271E-02  0.5124E-08  0.5591E-09 -0.1137E-02  0.2271E-02  0.1520E-08 -0.3359E-08 -0.1137E-02  0.2271E-02  0.2963E-08  0.6256E-09 -0.1137E-02  0.8103E-04  0.9175E-10  0.1612E-09 -0.4192E-04  0.8103E-04  0.1658E-09 -0.4909E-10 -0.4192E-04  0.1172E-03  0.5193E-09 -0.9787E-10 -0.3912E-04  0.8103E-04  0.2327E-09 -0.3073E-09 -0.4192E-04  0.1172E-03  0.1864E-09  0.3121E-09 -0.3911E-04
     -1.448  0.5371E-01  0.1164E-07 -0.2845E-08 -0.6138E-01  0.1553E-02  0.6669E-08  0.9406E-09 -0.1907E-02  0.1553E-02  0.1653E-08 -0.3777E-08 -0.1907E-02  0.1553E-02  0.4383E-08  0.1861E-08 -0.1907E-02  0.3008E-04  0.2966E-10  0.1273E-09 -0.9327E-04  0.3008E-04  0.1276E-09 -0.4169E-10 -0.9327E-04  0.6833E-04  0.4580E-09 -0.7399E-10 -0.9044E-04  0.3008E-04  0.2599E-09 -0.3718E-09 -0.9327E-04  0.6833E-04  0.4108E-09  0.3860E-09 -0.9044E-04
     -1.343  0.2485E-01  0.3898E-08 -0.1316E-08 -0.1804E-01  0.8518E-03  0.2611E-08  0.1076E-09 -0.3909E-03  0.8518E-03  0.1359E-08 -0.1722E-08 -0.3909E-03  0.8518E-03  0.2496E-08  0.7673E-09 -0.3909E-03  0.7523E-04  0.1135E-09  0.3998E-10  0.4083E-04  0.7524E-04  0.6011E-10 -0.6513E-10  0.4083E-04  0.4269E-04  0.1669E-09 -0.8814E-10 -0.1537E-04  0.7523E-04  0.1474E-09 -0.6479E-10  0.4083E-04  0.4269E-04  0.8399E-10  0.5039E-10 -0.1537E-04
     -1.238  0.3265E-01 -0.4249E-08 -0.1516E-08  0.3977E-01  0.1683E-02 -0.1149E-08 -0.1325E-08  0.2028E-02  0.1683E-02  0.3147E-08 -0.1160E-08  0.2028E-02  0.1683E-02  0.3237E-08 -0.5904E-09  0.2028E-02  0.3541E-03  0.4903E-09 -0.3045E-10  0.3943E-03  0.3542E-03  0.1335E-09 -0.2179E-09  0.3943E-03  0.1075E-03 -0.5353E-10 -0.3358E-09  0.1204E-03  0.3541E-03  0.1978E-09  0.4378E-09  0.3943E-03  0.1075E-03 -0.5125E-09 -0.5197E-09  0.1204E-03
     -1.133  0.5881E-01 -0.8392E-08 -0.2719E-08  0.5894E-01  0.3048E-02 -0.3451E-08 -0.1644E-08  0.2932E-02  0.3048E-02  0.3899E-08 -0.2246E-08  0.2932E-02  0.3048E-02  0.5207E-08 -0.1633E-08  0.2931E-02  0.6137E-03  0.6260E-09 -0.4797E-10  0.5840E-03  0.6137E-03  0.4264E-09 -0.2539E-09  0.5840E-03  0.1829E-03 -0.1786E-09 -0.6435E-09  0.1802E-03  0.6137E-03  0.2509E-09  0.7332E-09  0.5840E-03  0.1829E-03 -0.9107E-09 -0.7908E-09  0.1802E-03
     -1.028  0.6683E-01 -0.9791E-08 -0.3211E-08  0.7820E-02  0.3419E-02 -0.7267E-08  0.8876E-09  0.3135E-03  0.3419E-02 -0.1436E-08 -0.3601E-08  0.3135E-03  0.3419E-02  0.4432E-08 -0.3248E-08  0.3135E-03  0.5755E-03 -0.2052E-09 -0.2175E-10  0.1822E-03  0.5755E-03  0.1095E-08  0.1813E-09  0.1822E-03  0.1535E-03 -0.4221E-09 -0.8594E-09  0.4037E-04  0.5755E-03 -0.5345E-10  0.5450E-09  0.1822E-03  0.1535E-03 -0.8513E-09 -0.2984E-09  0.4036E-04
     -0.923  0.6168E-01 -0.1023E-07 -0.3264E-08 -0.5457E-01  0.3114E-02 -0.1099E-07  0.3729E-08 -0.2936E-02  0.3114E-02 -0.7600E-08 -0.4545E-08 -0.2936E-02  0.3114E-02  0.2591E-08 -0.4790E-08 -0.2936E-02  0.4138E-03 -0.1203E-08 -0.1081E-11 -0.3452E-03  0.4138E-03  0.1687E-08  0.6629E-09 -0.3452E-03  0.6339E-04 -0.6651E-09 -0.1022E-08 -0.1567E-03  0.4138E-03 -0.4522E-09  0.2282E-09 -0.3452E-03  0.6340E-04 -0.6464E-09  0.3445E-09 -0.1567E-03
     -0.818  0.4333E-01 -0.6629E-08 -0.1758E-08 -0.4581E-01  0.2285E-02 -0.7580E-08  0.3288E-08 -0.2322E-02  0.2285E-02 -0.6756E-08 -0.2925E-08 -0.2322E-02  0.2285E-02  0.1237E-08 -0.3192E-08 -0.2322E-02  0.2758E-03 -0.9208E-09  0.4965E-10 -0.3052E-03  0.2758E-03  0.1313E-08  0.5969E-09 -0.3052E-03  0.1073E-03 -0.4402E-09 -0.4874E-09 -0.5031E-04  0.2758E-03 -0.2885E-09  0.1008E-09 -0.3052E-03  0.1073E-03 -0.3895E-09  0.3209E-09 -0.5030E-04
     -0.713  0.4017E-01 -0.9745E-10  0.2499E-08  0.2203E-01  0.2835E-02  0.2099E-08  0.1775E-08  0.2029E-02  0.2835E-02 -0.3564E-08  0.1055E-08  0.2029E-02  0.2835E-02  0.1981E-09  0.1563E-08  0.2029E-02  0.3834E-03  0.5321E-09  0.3138E-09  0.2664E-03  0.3834E-03  0.7727E-09  0.4792E-09  0.2664E-03  0.6329E-03  0.2313E-09  0.1377E-08  0.6522E-03  0.3834E-03  0.7097E-09  0.2066E-09  0.2664E-03  0.6329E-03 -0.1422E-09 -0.2814E-09  0.6522E-03
     -0.608  0.6312E-01  0.3903E-08  0.6372E-08  0.7338E-01  0.4906E-02  0.9223E-08  0.1761E-08  0.5578E-02  0.4906E-02 -0.3522E-08  0.3704E-08  0.5578E-02  0.4906E-02 -0.1111E-09  0.5492E-08  0.5578E-02  0.6692E-03  0.1675E-08  0.6238E-09  0.7374E-03  0.6693E-03  0.8907E-09  0.6760E-09  0.7376E-03  0.1291E-02  0.6428E-09  0.3107E-08  0.1365E-02  0.6692E-03  0.1759E-08  0.4027E-09  0.7374E-03  0.1291E-02 -0.3070E-10 -0.7347E-09  0.1365E-02
     -0.503  0.6998E-01  0.6696E-08  0.4171E-08  0.3966E-01  0.5394E-02  0.9258E-08  0.1803E-08  0.2919E-02  0.5394E-02 -0.4473E-08  0.1939E-08  0.2919E-02  0.5394E-02  0.3646E-09  0.7016E-08  0.2919E-02  0.5789E-03  0.1122E-08  0.4261E-09  0.3725E-03  0.5789E-03  0.9073E-09  0.6058E-09  0.3725E-03  0.1217E-02 -0.2811E-09  0.1926E-08  0.8096E-03  0.5789E-03  0.1553E-08  0.3013E-09  0.3725E-03  0.1217E-02  0.4141E-09 -0.5030E-10  0.8096E-03
     -0.398  0.7246E-01  0.1158E-07 -0.2674E-08 -0.4388E-01  0.5606E-02  0.6864E-08  0.4586E-09 -0.3511E-02  0.5606E-02 -0.5667E-08 -0.2355E-08 -0.3511E-02  0.5606E-02  0.1039E-08  0.8564E-08 -0.3511E-02  0.4482E-03 -0.3275E-09 -0.2201E-09 -0.3370E-03  0.4483E-03  0.7725E-09  0.1650E-09 -0.3370E-03  0.9379E-03 -0.2307E-08 -0.1098E-08 -0.4771E-03  0.4482E-03  0.3108E-09 -0.1218E-09 -0.3370E-03  0.9379E-03  0.1487E-08  0.1639E-08 -0.4771E-03
     -0.293  0.9178E-01  0.1026E-07 -0.7009E-08 -0.4719E-01  0.7518E-02  0.3995E-08 -0.5473E-08 -0.3315E-02  0.7518E-02 -0.5065E-08 -0.3860E-08 -0.3315E-02  0.7518E-02  0.2940E-09  0.6282E-08 -0.3315E-02  0.1519E-02 -0.3075E-09 -0.8912E-09  0.6112E-03  0.1519E-02  0.1062E-08 -0.4941E-09  0.6115E-03  0.1554E-02 -0.2775E-08 -0.1588E-08 -0.1188E-03  0.1519E-02 -0.1539E-08 -0.6803E-09  0.6112E-03  0.1554E-02  0.2412E-08  0.2623E-08 -0.1189E-03
     -0.188  0.1073E+00 -0.7014E-09 -0.7477E-08  0.4771E-01  0.9460E-02 -0.1288E-08 -0.1609E-07  0.4957E-02  0.9460E-02 -0.8325E-09 -0.1626E-08  0.4957E-02  0.9460E-02 -0.2114E-08 -0.2425E-08  0.4957E-02  0.3624E-02  0.1309E-08 -0.1480E-08  0.3362E-02  0.3625E-02  0.1635E-08 -0.1360E-08  0.3362E-02  0.2773E-02 -0.9376E-09  0.8954E-09  0.2092E-02  0.3624E-02 -0.3878E-08 -0.1311E-08  0.3362E-02  0.2773E-02  0.2696E-08  0.2385E-08  0.2091E-02
     -0.083  0.9080E-01 -0.7817E-08 -0.5541E-08  0.9239E-01  0.8349E-02 -0.3973E-08 -0.1800E-07  0.8581E-02  0.8349E-02  0.1461E-08 -0.3604E-10  0.8581E-02  0.8349E-02 -0.2937E-08 -0.7263E-08  0.8581E-02  0.3969E-02  0.2052E-08 -0.1470E-08  0.4077E-02  0.3970E-02  0.1551E-08 -0.1493E-08  0.4078E-02  0.2826E-02  0.4587E-09  0.2307E-08  0.2873E-02  0.3969E-02 -0.4306E-08 -0.1322E-08  0.4077E-02  0.2826E-02  0.2137E-08  0.1533E-08  0.2872E-02