 running on   16 total cores
 distrk:  each k-point on   16 cores,    1 groups
 distr:  one band on    4 cores,    4 groups
 using from now: INCAR     
 vasp.5.4.4.18Apr17-6-g9f103f2a35 (build Jan 04 2020 13:53:51) complex          
  
 POSCAR found type information on POSCAR  Fe
 POSCAR found :  1 types and       2 ions
 scaLAPACK will be used
 LDA part: xc-table for Pade appr. of Perdew
 WARNING: stress and forces are not correct
 POSCAR, INCAR and KPOINTS ok, starting setup
 FFT: planning ...
 WAVECAR not read
 charge-density read from file: unknown                                 
 magnetization density read from file 1
 entering main loop
       N       E                     dE             d eps       ncg     rms          rms(c)
DAV:   1     0.105959046490E+03    0.10596E+03   -0.66112E+03 34336   0.129E+03
DAV:   2    -0.959322095563E+01   -0.11555E+03   -0.10522E+03 32944   0.264E+02
DAV:   3    -0.163635231755E+02   -0.67703E+01   -0.61317E+01 37312   0.864E+01
DAV:   4    -0.164554427510E+02   -0.91920E-01   -0.91758E-01 36288   0.111E+01
DAV:   5    -0.164564170632E+02   -0.97431E-03   -0.97429E-03 37840   0.870E-01
DAV:   6    -0.164564421882E+02   -0.25125E-04   -0.25125E-04 36576   0.139E-01
DAV:   7    -0.164564429666E+02   -0.77841E-06   -0.77812E-06 38256   0.220E-02
   1 F= -.16456443E+02 E0= -.16454177E+02  d E =-.679867E-02  mag=     0.0000     0.0000     4.4211
