   2   2   0   0
  0.2016476E+02  0.3849278E-09  0.3849279E-09  0.3849278E-09  0.5000000E-15
  1.000000000000000E-004
  CAR 
 unknown system                          
     16.25472155     -7.26553054  301      5.82863480      1.00000000
     -7.266  0.0000E+00  0.0000E+00
     -7.187  0.0000E+00  0.0000E+00
     -7.109  0.0000E+00  0.0000E+00
     -7.030  0.0000E+00  0.0000E+00
     -6.952  0.0000E+00  0.0000E+00
     -6.874  0.0000E+00  0.0000E+00
     -6.795  0.0000E+00  0.0000E+00
     -6.717  0.0000E+00  0.0000E+00
     -6.638  0.0000E+00  0.0000E+00
     -6.560  0.0000E+00  0.0000E+00
     -6.482  0.7447E-19  0.5839E-20
     -6.403  0.4821E-12  0.3779E-13
     -6.325  0.2730E-07  0.2141E-08
     -6.246  0.1514E-04  0.1189E-05
     -6.168  0.1582E-03  0.1359E-04
     -6.090  0.9777E-03  0.9024E-04
     -6.011  0.1584E-02  0.2144E-03
     -5.933  0.8222E-03  0.2789E-03
     -5.854  0.1971E-02  0.4334E-03
     -5.776  0.4165E-02  0.7599E-03
     -5.698  0.1624E-02  0.8872E-03
     -5.619  0.7510E-03  0.9461E-03
     -5.541  0.2742E-02  0.1161E-02
     -5.462  0.5944E-02  0.1627E-02
     -5.384  0.2159E-02  0.1796E-02
     -5.306  0.3594E-02  0.2078E-02
     -5.227  0.4514E-02  0.2432E-02
     -5.149  0.1493E-02  0.2549E-02
     -5.070  0.1705E-02  0.2683E-02
     -4.992  0.6326E-02  0.3179E-02
     -4.914  0.8418E-02  0.3839E-02
     -4.835  0.1760E-02  0.3977E-02
     -4.757  0.5380E-02  0.4398E-02
     -4.678  0.5585E-02  0.4836E-02
     -4.600  0.2833E-02  0.5058E-02
     -4.522  0.1294E-02  0.5160E-02
     -4.443  0.7051E-02  0.5713E-02
     -4.365  0.8536E-02  0.6382E-02
     -4.286  0.9444E-02  0.7122E-02
     -4.208  0.5682E-02  0.7568E-02
     -4.129  0.5880E-02  0.8029E-02
     -4.051  0.4840E-02  0.8408E-02
     -3.973  0.5462E-02  0.8836E-02
     -3.894  0.2927E-02  0.9066E-02
     -3.816  0.1284E-01  0.1007E-01
     -3.737  0.1864E-01  0.1153E-01
     -3.659  0.5596E-02  0.1197E-01
     -3.581  0.3971E-02  0.1228E-01
     -3.502  0.1277E-01  0.1329E-01
     -3.424  0.1971E-02  0.1344E-01
     -3.345  0.3500E-02  0.1371E-01
     -3.267  0.8236E-02  0.1436E-01
     -3.189  0.1425E-01  0.1548E-01
     -3.110  0.8892E-02  0.1617E-01
     -3.032  0.1708E-02  0.1631E-01
     -2.953  0.3871E-02  0.1661E-01
     -2.875  0.5092E-02  0.1701E-01
     -2.797  0.1549E-02  0.1713E-01
     -2.718  0.1134E-01  0.1802E-01
     -2.640  0.8015E-02  0.1865E-01
     -2.561  0.2438E-02  0.1884E-01
     -2.483  0.3066E-02  0.1908E-01
     -2.405  0.4574E-03  0.1912E-01
     -2.326  0.3091E-02  0.1936E-01
     -2.248  0.2619E-02  0.1956E-01
     -2.169  0.3944E-02  0.1987E-01
     -2.091  0.1808E-02  0.2002E-01
     -2.013  0.1737E-02  0.2015E-01
     -1.934  0.4080E-03  0.2018E-01
     -1.856  0.2053E-02  0.2034E-01
     -1.777  0.2422E-02  0.2053E-01
     -1.699  0.1344E-03  0.2055E-01
     -1.621  0.2153E-02  0.2071E-01
     -1.542  0.2363E-02  0.2090E-01
     -1.464  0.3044E-02  0.2114E-01
     -1.385  0.1176E-01  0.2206E-01
     -1.307  0.9180E-02  0.2278E-01
     -1.229  0.2976E-02  0.2301E-01
     -1.150  0.4767E-02  0.2339E-01
     -1.072  0.1651E-01  0.2468E-01
     -0.993  0.1513E-01  0.2587E-01
     -0.915  0.1316E-01  0.2690E-01
     -0.837  0.7503E-02  0.2749E-01
     -0.758  0.9584E-02  0.2824E-01
     -0.680  0.1327E-01  0.2928E-01
     -0.601  0.3892E-02  0.2958E-01
     -0.523  0.1471E-03  0.2960E-01
     -0.445  0.4683E-02  0.2996E-01
     -0.366  0.1501E-01  0.3114E-01
     -0.288  0.3941E-02  0.3145E-01
     -0.209  0.4585E-02  0.3181E-01
     -0.131  0.1780E-02  0.3195E-01
     -0.053  0.3526E-02  0.3222E-01
      0.026  0.1009E-01  0.3302E-01
      0.104  0.2053E-02  0.3318E-01
      0.183  0.6856E-03  0.3323E-01
      0.261  0.4284E-02  0.3357E-01
      0.339  0.5432E-02  0.3399E-01
      0.418  0.6376E-02  0.3449E-01
      0.496  0.2271E-02  0.3467E-01
      0.575  0.2374E-02  0.3486E-01
      0.653  0.2129E-02  0.3502E-01
      0.731  0.1037E-02  0.3510E-01
      0.810  0.5694E-02  0.3555E-01
      0.888  0.6224E-02  0.3604E-01
      0.967  0.8865E-03  0.3611E-01
      1.045  0.3683E-05  0.3611E-01
      1.123  0.1084E-08  0.3611E-01
      1.202  0.1393E-04  0.3611E-01
      1.280  0.2555E-02  0.3631E-01
      1.359  0.1233E-01  0.3728E-01
      1.437  0.6373E-02  0.3778E-01
      1.515  0.7485E-02  0.3836E-01
      1.594  0.1203E-01  0.3931E-01
      1.672  0.1081E-01  0.4015E-01
      1.751  0.4193E-02  0.4048E-01
      1.829  0.9505E-02  0.4123E-01
      1.907  0.1703E-01  0.4256E-01
      1.986  0.1828E-01  0.4400E-01
      2.064  0.8971E-02  0.4470E-01
      2.143  0.4183E-02  0.4503E-01
      2.221  0.1130E-01  0.4591E-01
      2.299  0.8972E-02  0.4662E-01
      2.378  0.9320E-02  0.4735E-01
      2.456  0.1133E-01  0.4824E-01
      2.535  0.1114E-01  0.4911E-01
      2.613  0.2079E-01  0.5074E-01
      2.691  0.1275E-01  0.5174E-01
      2.770  0.7645E-02  0.5234E-01
      2.848  0.7236E-02  0.5291E-01
      2.927  0.1854E-01  0.5436E-01
      3.005  0.2097E-01  0.5600E-01
      3.083  0.2294E-01  0.5780E-01
      3.162  0.1175E-01  0.5872E-01
      3.240  0.3166E-02  0.5897E-01
      3.319  0.1446E-01  0.6010E-01
      3.397  0.1961E-01  0.6164E-01
      3.475  0.1843E-01  0.6309E-01
      3.554  0.1169E-01  0.6400E-01
      3.632  0.3696E-02  0.6429E-01
      3.711  0.1087E-01  0.6515E-01
      3.789  0.2045E-01  0.6675E-01
      3.867  0.1868E-01  0.6821E-01
      3.946  0.1512E-01  0.6940E-01
      4.024  0.1008E-01  0.7019E-01
      4.103  0.5865E-02  0.7065E-01
      4.181  0.1868E-01  0.7211E-01
      4.259  0.1345E-01  0.7317E-01
      4.338  0.6985E-02  0.7372E-01
      4.416  0.3521E-02  0.7399E-01
      4.495  0.1060E-01  0.7482E-01
      4.573  0.1681E-01  0.7614E-01
      4.651  0.6604E-02  0.7666E-01
      4.730  0.3139E-02  0.7691E-01
      4.808  0.7827E-02  0.7752E-01
      4.887  0.8734E-02  0.7820E-01
      4.965  0.5713E-02  0.7865E-01
      5.043  0.1321E-02  0.7876E-01
      5.122  0.2109E-02  0.7892E-01
      5.200  0.4851E-02  0.7930E-01
      5.279  0.2853E-02  0.7952E-01
      5.357  0.1290E-03  0.7953E-01
      5.435  0.9631E-03  0.7961E-01
      5.514  0.3784E-02  0.7991E-01
      5.592  0.7172E-03  0.7996E-01
      5.671  0.4173E-03  0.8000E-01
      5.749  0.5339E-04  0.8000E-01
      5.827  0.1152E-06  0.8000E-01
      5.906  0.2458E-11  0.8000E-01
      5.984  0.4022E-17  0.8000E-01
      6.063  0.1363E-10  0.8000E-01
      6.141  0.4454E-06  0.8000E-01
      6.219  0.1598E-03  0.8001E-01
      6.298  0.1408E-02  0.8012E-01
      6.376  0.7947E-03  0.8019E-01
      6.455  0.1796E-02  0.8033E-01
      6.533  0.4128E-02  0.8065E-01
      6.611  0.2128E-02  0.8082E-01
      6.690  0.4073E-02  0.8114E-01
      6.768  0.3337E-02  0.8140E-01
      6.847  0.2750E-02  0.8161E-01
      6.925  0.1214E-02  0.8171E-01
      7.003  0.8807E-02  0.8240E-01
      7.082  0.8635E-02  0.8308E-01
      7.160  0.5546E-02  0.8351E-01
      7.239  0.4613E-02  0.8387E-01
      7.317  0.1370E-01  0.8495E-01
      7.395  0.1269E-01  0.8594E-01
      7.474  0.1068E-01  0.8678E-01
      7.552  0.7508E-02  0.8737E-01
      7.631  0.1136E-01  0.8826E-01
      7.709  0.1244E-01  0.8923E-01
      7.787  0.1258E-01  0.9022E-01
      7.866  0.1419E-01  0.9133E-01
      7.944  0.2239E-01  0.9309E-01
      8.023  0.1488E-01  0.9425E-01
      8.101  0.7244E-02  0.9482E-01
      8.179  0.9601E-02  0.9557E-01
      8.258  0.1636E-01  0.9686E-01
      8.336  0.2078E-01  0.9849E-01
      8.415  0.4052E-02  0.9880E-01
      8.493  0.1558E-01  0.1000E+00
      8.571  0.1055E-01  0.1009E+00
      8.650  0.7027E-02  0.1014E+00
      8.728  0.1190E-01  0.1023E+00
      8.807  0.1266E-01  0.1033E+00
      8.885  0.2359E-01  0.1052E+00
      8.963  0.3144E-01  0.1076E+00
      9.042  0.1828E-01  0.1091E+00
      9.120  0.1484E-01  0.1102E+00
      9.199  0.2147E-01  0.1119E+00
      9.277  0.1198E-01  0.1129E+00
      9.355  0.2096E-01  0.1145E+00
      9.434  0.2253E-01  0.1163E+00
      9.512  0.1131E-01  0.1172E+00
      9.591  0.5821E-02  0.1176E+00
      9.669  0.1136E-01  0.1185E+00
      9.747  0.7887E-02  0.1191E+00
      9.826  0.7643E-02  0.1197E+00
      9.904  0.1907E-01  0.1212E+00
      9.983  0.1312E-01  0.1222E+00
     10.061  0.6921E-02  0.1228E+00
     10.139  0.4279E-02  0.1231E+00
     10.218  0.8842E-02  0.1238E+00
     10.296  0.3238E-01  0.1264E+00
     10.375  0.2535E-01  0.1283E+00
     10.453  0.1486E-01  0.1295E+00
     10.531  0.1535E-01  0.1307E+00
     10.610  0.1004E-01  0.1315E+00
     10.688  0.1620E-01  0.1328E+00
     10.767  0.1154E-01  0.1337E+00
     10.845  0.6901E-02  0.1342E+00
     10.923  0.7840E-02  0.1348E+00
     11.002  0.1016E-01  0.1356E+00
     11.080  0.2070E-02  0.1358E+00
     11.159  0.9927E-02  0.1366E+00
     11.237  0.8773E-02  0.1373E+00
     11.315  0.1356E-01  0.1383E+00
     11.394  0.1974E-01  0.1399E+00
     11.472  0.8264E-02  0.1405E+00
     11.551  0.2296E-02  0.1407E+00
     11.629  0.1076E-01  0.1415E+00
     11.707  0.9300E-02  0.1423E+00
     11.786  0.1536E-01  0.1435E+00
     11.864  0.1394E-01  0.1446E+00
     11.943  0.1520E-01  0.1458E+00
     12.021  0.1882E-01  0.1472E+00
     12.099  0.6130E-02  0.1477E+00
     12.178  0.2579E-02  0.1479E+00
     12.256  0.6087E-02  0.1484E+00
     12.335  0.1259E-01  0.1494E+00
     12.413  0.6578E-02  0.1499E+00
     12.491  0.5280E-02  0.1503E+00
     12.570  0.8004E-02  0.1509E+00
     12.648  0.6680E-03  0.1510E+00
     12.727  0.2896E-02  0.1512E+00
     12.805  0.1221E-01  0.1522E+00
     12.883  0.8675E-02  0.1529E+00
     12.962  0.6599E-02  0.1534E+00
     13.040  0.5058E-02  0.1538E+00
     13.119  0.5746E-03  0.1538E+00
     13.197  0.2029E-02  0.1540E+00
     13.275  0.1037E-01  0.1548E+00
     13.354  0.1274E-01  0.1558E+00
     13.432  0.9135E-02  0.1565E+00
     13.511  0.6051E-02  0.1570E+00
     13.589  0.3885E-02  0.1573E+00
     13.667  0.9214E-02  0.1580E+00
     13.746  0.1330E-01  0.1590E+00
     13.824  0.7213E-03  0.1591E+00
     13.903  0.6262E-06  0.1591E+00
     13.981  0.5448E-11  0.1591E+00
     14.059  0.0000E+00  0.1591E+00
     14.138  0.0000E+00  0.1591E+00
     14.216  0.0000E+00  0.1591E+00
     14.295  0.0000E+00  0.1591E+00
     14.373  0.0000E+00  0.1591E+00
     14.452  0.0000E+00  0.1591E+00
     14.530  0.0000E+00  0.1591E+00
     14.608  0.1461E-12  0.1591E+00
     14.687  0.3627E-07  0.1591E+00
     14.765  0.8211E-04  0.1591E+00
     14.844  0.2435E-02  0.1593E+00
     14.922  0.2448E-02  0.1595E+00
     15.000  0.2221E-02  0.1597E+00
     15.079  0.1849E-02  0.1598E+00
     15.157  0.6478E-03  0.1599E+00
     15.236  0.1635E-02  0.1600E+00
     15.314  0.1816E-03  0.1600E+00
     15.392  0.3276E-06  0.1600E+00
     15.471  0.5785E-11  0.1600E+00
     15.549  0.1021E-17  0.1600E+00
     15.628  0.0000E+00  0.1600E+00
     15.706  0.0000E+00  0.1600E+00
     15.784  0.0000E+00  0.1600E+00
     15.863  0.0000E+00  0.1600E+00
     15.941  0.0000E+00  0.1600E+00
     16.020  0.0000E+00  0.1600E+00
     16.098  0.0000E+00  0.1600E+00
     16.176  0.0000E+00  0.1600E+00
     16.255  0.0000E+00  0.1600E+00
