    2    2  100    1
  0.2016476E+02  0.3849278E-09  0.3849279E-09  0.3849278E-09  0.5000000E-15
  1.000000000000000E-004
  CAR 
 unknown system                          
      8     56      8
 
  0.0000000E+00  0.0000000E+00  0.0000000E+00  0.7513148E-03
    1       -6.196428   1.000000
    2        5.623860   1.000000
    3        5.623860   1.000000
    4        5.623863   1.000000
    5        8.181505   0.000000
    6        8.181512   0.000000
    7        8.181513   0.000000
    8        8.764552   0.000000
 
  0.9090909E-01  0.6938894E-17  0.0000000E+00  0.6010518E-02
    1       -6.090034   1.000000
    2        4.638825   1.000000
    3        5.459844   1.000000
    4        5.459846   1.000000
    5        8.173202   0.000000
    6        8.423938   0.000000
    7        8.423945   0.000000
    8        9.585370   0.000000
 
  0.1818182E+00  0.1387779E-16  0.0000000E+00  0.6010518E-02
    1       -5.775038   1.000000
    2        2.977640   1.000000
    3        5.124585   1.000000
    4        5.124587   1.000000
    5        7.852059   0.000000
    6        8.891418   0.000000
    7        8.891425   0.000000
    8       11.181483   0.000000
 
  0.2727273E+00  0.0000000E+00  0.0000000E+00  0.6010518E-02
    1       -5.268096   1.000000
    2        1.339899   1.000000
    3        4.805048   1.000000
    4        4.805050   1.000000
    5        7.504974   0.000000
    6        9.144535   0.000000
    7        9.144543   0.000000
    8       12.748382   0.000000
 
  0.3636364E+00  0.4163336E-16  0.0000000E+00  0.6010518E-02
    1       -4.620451   1.000000
    2       -0.093695   1.000000
    3        4.575939   1.000000
    4        4.575942   1.000000
    5        7.245489   0.000000
    6        9.093883   0.000000
    7        9.093892   0.000000
    8       13.469642   0.000000
 
  0.4545455E+00  0.0000000E+00  0.0000000E+00  0.6010518E-02
    1       -4.024429   1.000000
    2       -1.089899   1.000000
    3        4.458977   1.000000
    4        4.458980   1.000000
    5        7.110622   0.000000
    6        8.991332   0.000000
    7        8.991340   0.000000
    8       13.352637   0.000000
 
  0.9090909E-01  0.9090909E-01  0.0000000E+00  0.4507889E-02
    1       -6.054363   1.000000
    2        4.805322   1.000000
    3        5.141056   1.000000
    4        5.141057   1.000000
    5        7.867331   0.000000
    6        8.839786   0.000000
    7        8.839791   0.000000
    8        9.513805   0.000000
 
  0.1818182E+00  0.9090909E-01  0.0000000E+00  0.1803156E-01
    1       -5.808121   1.000000
    2        3.464484   1.000000
    3        4.750640   1.000000
    4        4.924302   1.000000
    5        7.900273   0.000000
    6        8.866768   0.000000
    7        9.424290   0.000000
    8       10.495836   0.000000
 
  0.2727273E+00  0.9090909E-01  0.0000000E+00  0.1803156E-01
    1       -5.362587   1.000000
    2        1.865285   1.000000
    3        4.435591   1.000000
    4        4.555493   1.000000
    5        8.006063   0.000000
    6        8.873373   0.000000
    7        9.776356   0.000000
    8       10.955596   0.000000
 
  0.3636364E+00  0.9090909E-01  0.0000000E+00  0.1803156E-01
    1       -4.752074   1.000000
    2        0.379639   1.000000
    3        4.178341   1.000000
    4        4.250471   1.000000
    5        7.842289   0.000000
    6        8.928325   0.000000
    7        9.717195   0.000000
    8       11.721040   0.000000
 
  0.4545455E+00  0.9090909E-01  0.0000000E+00  0.1803156E-01
    1       -4.096741   1.000000
    2       -0.792347   1.000000
    3        3.884521   1.000000
    4        4.209525   1.000000
    5        7.698686   0.000000
    6        8.896243   0.000000
    7        9.487904   0.000000
    8       12.949702   0.000000
 
 -0.4545455E+00  0.9090909E-01  0.0000000E+00  0.1803156E-01
    1       -3.834166   1.000000
    2       -1.184860   1.000000
    3        3.710156   1.000000
    4        4.308650   1.000000
    5        7.669942   0.000000
    6        8.954295   0.000000
    7        9.306234   0.000000
    8       13.657096   0.000000
 
 -0.3636364E+00  0.9090909E-01  0.0000000E+00  0.1803156E-01
    1       -4.305354   1.000000
    2       -0.451478   1.000000
    3        3.676115   1.000000
    4        4.531986   1.000000
    5        7.768344   0.000000
    6        9.142546   0.000000
    7        9.227284   0.000000
    8       13.332128   0.000000
 
 -0.2727273E+00  0.9090909E-01  0.0000000E+00  0.1803156E-01
    1       -4.971312   1.000000
    2        0.854859   1.000000
    3        3.797857   1.000000
    4        4.851194   1.000000
    5        7.983364   0.000000
    6        9.155656   0.000000
    7        9.348563   0.000000
    8       12.270931   0.000000
 
 -0.1818182E+00  0.9090909E-01  0.0000000E+00  0.1803156E-01
    1       -5.533000   1.000000
    2        2.382774   1.000000
    3        4.093349   1.000000
    4        5.210314   1.000000
    5        8.280213   0.000000
    6        8.871945   0.000000
    7        9.218107   0.000000
    8       11.377012   0.000000
 
 -0.9090909E-01  0.9090909E-01  0.0000000E+00  0.9015778E-02
    1       -5.913801   1.000000
    2        3.835518   1.000000
    3        4.652344   1.000000
    4        5.481728   1.000000
    5        8.474286   0.000000
    6        8.513342   0.000000
    7        8.636265   0.000000
    8       10.475779   0.000000
 
  0.1818182E+00  0.1818182E+00  0.0000000E+00  0.4507889E-02
    1       -5.630811   1.000000
    2        3.307482   1.000000
    3        4.324069   1.000000
    4        4.324070   1.000000
    5        7.229492   0.000000
    6        9.700828   0.000000
    7       10.171171   0.000000
    8       10.171173   0.000000
 
  0.2727273E+00  0.1818182E+00  0.0000000E+00  0.1803156E-01
    1       -5.250196   1.000000
    2        2.165735   1.000000
    3        3.908829   1.000000
    4        3.985703   1.000000
    5        7.280951   0.000000
    6        9.305682   0.000000
    7       10.454424   0.000000
    8       10.750076   0.000000
 
  0.3636364E+00  0.1818182E+00  0.0000000E+00  0.1803156E-01
    1       -4.689141   1.000000
    2        0.815717   1.000000
    3        3.382348   1.000000
    4        3.791240   1.000000
    5        7.514417   0.000000
    6        9.663202   0.000000
    7       10.252781   0.000000
    8       10.835291   0.000000
 
  0.4545455E+00  0.1818182E+00  0.0000000E+00  0.1803156E-01
    1       -4.022306   1.000000
    2       -0.400356   1.000000
    3        2.911756   1.000000
    4        3.758622   1.000000
    5        7.552803   0.000000
    6       10.021727   0.000000
    7       10.589291   0.000000
    8       10.869322   0.000000
 
 -0.4545455E+00  0.1818182E+00  0.0000000E+00  0.1803156E-01
    1       -3.551437   1.000000
    2       -1.094916   1.000000
    3        2.581546   1.000000
    4        3.886837   1.000000
    5        7.648449   0.000000
    6        9.897076   0.000000
    7       10.303559   0.000000
    8       12.477770   0.000000
 
 -0.3636364E+00  0.1818182E+00  0.0000000E+00  0.1803156E-01
    1       -3.829638   1.000000
    2       -0.692457   1.000000
    3        2.432539   1.000000
    4        4.159979   1.000000
    5        7.892764   0.000000
    6        9.890689   0.000000
    7       10.081093   0.000000
    8       13.285553   0.000000
 
 -0.2727273E+00  0.1818182E+00  0.0000000E+00  0.1803156E-01
    1       -4.487529   1.000000
    2        0.403392   1.000000
    3        2.516711   1.000000
    4        4.540608   1.000000
    5        8.248943   0.000000
    6        9.835535   0.000000
    7        9.945113   0.000000
    8       11.901598   0.000000
 
 -0.1818182E+00  0.1818182E+00  0.0000000E+00  0.9015778E-02
    1       -5.092970   1.000000
    2        1.576675   1.000000
    3        2.996170   1.000000
    4        4.947505   1.000000
    5        8.564422   0.000000
    6        9.348495   0.000000
    7        9.638070   0.000000
    8       11.231394   0.000000
 
  0.2727273E+00  0.2727273E+00  0.0000000E+00  0.4507889E-02
    1       -4.934200   1.000000
    2        1.701904   1.000000
    3        3.613618   1.000000
    4        3.613620   1.000000
    5        6.647650   0.000000
    6        8.433958   0.000000
    7       11.715738   0.000000
    8       11.715738   0.000000
 
  0.3636364E+00  0.2727273E+00  0.0000000E+00  0.1803156E-01
    1       -4.429332   1.000000
    2        0.760262   1.000000
    3        3.085807   1.000000
    4        3.385193   1.000000
    5        6.779091   0.000000
    6        8.148439   0.000000
    7       11.993948   0.000000
    8       12.180192   0.000000
 
  0.4545455E+00  0.2727273E+00  0.0000000E+00  0.1803156E-01
    1       -3.781701   1.000000
    2       -0.252279   1.000000
    3        2.371484   1.000000
    4        3.324269   1.000000
    5        6.978777   0.000000
    6        8.888979   0.000000
    7       11.830368   0.000000
    8       12.051557   0.000000
 
 -0.4545455E+00  0.2727273E+00  0.0000000E+00  0.1803156E-01
    1       -3.180837   1.000000
    2       -1.038149   1.000000
    3        1.808117   1.000000
    4        3.434654   1.000000
    5        7.111308   0.000000
    6       10.352055   0.000000
    7       11.661774   0.000000
    8       11.730258   0.000000
 
 -0.3636364E+00  0.2727273E+00  0.0000000E+00  0.1803156E-01
    1       -3.236561   1.000000
    2       -0.959666   1.000000
    3        1.529132   1.000000
    4        3.704459   1.000000
    5        7.395043   0.000000
    6       11.381217   0.000000
    7       11.398931   0.000000
    8       12.283576   0.000000
 
 -0.2727273E+00  0.2727273E+00  0.0000000E+00  0.9015778E-02
    1       -3.858424   1.000000
    2       -0.213315   1.000000
    3        1.688663   1.000000
    4        4.099813   1.000000
    5        7.829513   0.000000
    6       10.786105   0.000000
    7       11.126959   0.000000
    8       11.951202   0.000000
 
  0.3636364E+00  0.3636364E+00  0.0000000E+00  0.4507889E-02
    1       -3.980141   1.000000
    2        0.105639   1.000000
    3        3.114400   1.000000
    4        3.114403   1.000000
    5        6.297247   0.000000
    6        7.313620   0.000000
    7       13.357589   0.000000
    8       13.357590   0.000000
 
  0.4545455E+00  0.3636364E+00  0.0000000E+00  0.1803156E-01
    1       -3.368727   1.000000
    2       -0.697380   1.000000
    3        2.591447   1.000000
    4        3.010693   1.000000
    5        6.504768   0.000000
    6        7.324399   0.000000
    7       13.677734   0.000000
    8       13.687529   0.000000
 
 -0.4545455E+00  0.3636364E+00  0.0000000E+00  0.1803156E-01
    1       -2.707519   1.000000
    2       -1.403191   1.000000
    3        1.829924   1.000000
    4        3.082431   1.000000
    5        6.673904   0.000000
    6        8.491081   0.000000
    7       13.409296   0.000000
    8       13.543000   0.000000
 
 -0.3636364E+00  0.3636364E+00  0.0000000E+00  0.9015778E-02
    1       -2.647426   1.000000
    2       -1.432379   1.000000
    3        1.354826   1.000000
    4        3.322660   1.000000
    5        6.946914   0.000000
    6       10.194638   0.000000
    7       12.736855   0.000000
    8       13.263456   0.000000
 
  0.4545455E+00  0.4545455E+00  0.0000000E+00  0.4507889E-02
    1       -2.794046   1.000000
    2       -1.414282   1.000000
    3        2.859272   1.000000
    4        2.859275   1.000000
    5        6.259992   0.000000
    6        6.586949   0.000000
    7       15.027251   0.000000
    8       15.027254   0.000000
 
 -0.4545455E+00  0.4545455E+00  0.0000000E+00  0.9015778E-02
    1       -2.160045   1.000000
    2       -2.048104   1.000000
    3        2.428467   1.000000
    4        2.883963   1.000000
    5        6.440759   0.000000
    6        7.015373   0.000000
    7       14.954697   0.000000
    8       15.185619   0.000000
 
  0.2727273E+00  0.1818182E+00  0.9090909E-01  0.1803156E-01
    1       -5.495178   1.000000
    2        2.608058   1.000000
    3        3.826868   1.000000
    4        4.813135   1.000000
    5        7.959152   0.000000
    6        9.181678   0.000000
    7        9.967451   0.000000
    8       10.385926   0.000000
 
  0.3636364E+00  0.1818182E+00  0.9090909E-01  0.3606311E-01
    1       -4.991042   1.000000
    2        1.307411   1.000000
    3        3.269651   1.000000
    4        4.499887   1.000000
    5        8.263055   0.000000
    6        9.144421   0.000000
    7       10.295528   0.000000
    8       10.502540   0.000000
 
  0.4545455E+00  0.1818182E+00  0.9090909E-01  0.3606311E-01
    1       -4.344881   1.000000
    2       -0.013269   1.000000
    3        3.012409   1.000000
    4        4.162825   1.000000
    5        8.286897   0.000000
    6        8.964649   0.000000
    7       10.390666   0.000000
    8       11.334053   0.000000
 
 -0.4545455E+00  0.1818182E+00  0.9090909E-01  0.3606311E-01
    1       -3.744075   1.000000
    2       -0.975514   1.000000
    3        2.911991   1.000000
    4        3.956742   1.000000
    5        8.255587   0.000000
    6        8.774586   0.000000
    7       10.326913   0.000000
    8       12.782002   0.000000
 
  0.3636364E+00  0.2727273E+00  0.9090909E-01  0.1803156E-01
    1       -4.808534   1.000000
    2        1.326789   1.000000
    3        3.122527   1.000000
    4        3.825439   1.000000
    5        7.405661   0.000000
    6        8.924952   0.000000
    7       10.563561   0.000000
    8       11.600052   0.000000
 
  0.4545455E+00  0.2727273E+00  0.9090909E-01  0.3606311E-01
    1       -4.201742   1.000000
    2        0.263180   1.000000
    3        2.554692   1.000000
    4        3.518878   1.000000
    5        7.763522   0.000000
    6        9.334156   0.000000
    7       10.251412   0.000000
    8       11.987337   0.000000
 
 -0.4545455E+00  0.2727273E+00  0.9090909E-01  0.3606311E-01
    1       -3.542220   1.000000
    2       -0.726926   1.000000
    3        2.172981   1.000000
    4        3.366893   1.000000
    5        7.895613   0.000000
    6        9.869245   0.000000
    7       10.679174   0.000000
    8       11.943522   0.000000
 
 -0.3636364E+00  0.2727273E+00  0.9090909E-01  0.3606311E-01
    1       -3.282237   1.000000
    2       -1.067987   1.000000
    3        1.946965   1.000000
    4        3.454645   1.000000
    5        8.104483   0.000000
    6        9.607309   0.000000
    7       11.830886   0.000000
    8       12.347683   0.000000
 
 -0.2727273E+00  0.2727273E+00  0.9090909E-01  0.3606311E-01
    1       -3.777276   1.000000
    2       -0.393435   1.000000
    3        1.939492   1.000000
    4        3.744248   1.000000
    5        8.458335   0.000000
    6        9.420604   0.000000
    7       11.131887   0.000000
    8       11.764410   0.000000
 
 -0.1818182E+00  0.2727273E+00  0.9090909E-01  0.1803156E-01
    1       -4.440074   1.000000
    2        0.572147   1.000000
    3        2.313613   1.000000
    4        4.150624   1.000000
    5        8.884294   0.000000
    6        9.007464   0.000000
    7       10.259615   0.000000
    8       11.310927   0.000000
 
  0.4545455E+00  0.3636364E+00  0.9090909E-01  0.1803156E-01
    1       -3.873177   1.000000
    2       -0.029341   1.000000
    3        2.654626   1.000000
    4        3.039950   1.000000
    5        7.054671   0.000000
    6        7.906131   0.000000
    7       11.928363   0.000000
    8       13.323750   0.000000
 
 -0.4545455E+00  0.3636364E+00  0.9090909E-01  0.3606311E-01
    1       -3.204922   1.000000
    2       -0.839937   1.000000
    3        2.024719   1.000000
    4        2.865324   1.000000
    5        7.398012   0.000000
    6        8.708015   0.000000
    7       11.581820   0.000000
    8       13.682863   0.000000
 
 -0.3636364E+00  0.3636364E+00  0.9090909E-01  0.3606311E-01
    1       -2.746554   1.000000
    2       -1.328810   1.000000
    3        1.513783   1.000000
    4        2.979150   1.000000
    5        7.609727   0.000000
    6       10.262699   0.000000
    7       11.283540   0.000000
    8       12.869089   0.000000
 
 -0.2727273E+00  0.3636364E+00  0.9090909E-01  0.1803156E-01
    1       -3.126016   1.000000
    2       -0.933964   1.000000
    3        1.411467   1.000000
    4        3.296494   1.000000
    5        7.974980   0.000000
    6       10.671048   0.000000
    7       11.393821   0.000000
    8       12.279988   0.000000
 
 -0.4545455E+00  0.4545455E+00  0.9090909E-01  0.1803156E-01
    1       -2.722605   1.000000
    2       -1.412681   1.000000
    3        2.466579   1.000000
    4        2.586667   1.000000
    5        6.988531   0.000000
    6        7.259288   0.000000
    7       13.446368   0.000000
    8       14.839357   0.000000
 
 -0.3636364E+00  0.4545455E+00  0.9090909E-01  0.1803156E-01
    1       -2.228509   1.000000
    2       -1.851952   1.000000
    3        1.821580   1.000000
    4        2.657668   1.000000
    5        7.267617   0.000000
    6        8.502104   0.000000
    7       12.998302   0.000000
    8       13.226906   0.000000
 
 -0.4545455E+00  0.3636364E+00  0.1818182E+00  0.1803156E-01
    1       -3.569248   1.000000
    2       -0.416442   1.000000
    3        1.912391   1.000000
    4        3.064122   1.000000
    5        8.691940   0.000000
    6        9.341682   0.000000
    7        9.880452   0.000000
    8       13.224133   0.000000
 
 -0.3636364E+00  0.3636364E+00  0.1818182E+00  0.3606311E-01
    1       -2.946978   1.000000
    2       -1.105940   1.000000
    3        1.636506   1.000000
    4        2.750528   1.000000
    5        9.065679   0.000000
    6        9.411831   0.000000
    7       10.669990   0.000000
    8       12.517067   0.000000
 
 -0.3636364E+00  0.4545455E+00  0.1818182E+00  0.1803156E-01
    1       -2.541792   1.000000
    2       -1.457173   1.000000
    3        1.865081   1.000000
    4        2.241689   1.000000
    5        8.612740   0.000000
    6        8.821805   0.000000
    7       11.177546   0.000000
    8       12.752337   0.000000
 
 -0.2727273E+00  0.4545455E+00  0.1818182E+00  0.1803156E-01
    1       -2.346920   1.000000
    2       -1.618880   1.000000
    3        1.591962   1.000000
    4        2.277267   1.000000
    5        8.959845   0.000000
    6       10.235394   0.000000
    7       10.947970   0.000000
    8       10.955969   0.000000
