       N       E                     dE             d eps       ncg     rms          rms(c)
DAV:   1     0.208442461857E+01    0.20844E+01   -0.25763E+03   896   0.585E+02
DAV:   2    -0.108643927438E+02   -0.12949E+02   -0.12609E+02  1368   0.671E+01
DAV:   3    -0.110205401250E+02   -0.15615E+00   -0.15615E+00  1128   0.951E+00
DAV:   4    -0.110212316849E+02   -0.69156E-03   -0.69156E-03  1416   0.673E-01
DAV:   5    -0.110212339547E+02   -0.22698E-05   -0.22698E-05  1160   0.231E-02    0.486E+00
DAV:   6    -0.108996735029E+02    0.12156E+00   -0.80033E-02  1080   0.147E+00    0.297E+00
DAV:   7    -0.108440856480E+02    0.55588E-01   -0.15211E-01  1120   0.216E+00    0.186E-01
DAV:   8    -0.108451498253E+02   -0.10642E-02   -0.38716E-03  1008   0.465E-01    0.738E-02
DAV:   9    -0.108453421735E+02   -0.19235E-03   -0.19011E-04  1352   0.107E-01    0.571E-02
DAV:  10    -0.108453681770E+02   -0.26004E-04   -0.31404E-05   992   0.417E-02    0.104E-02
DAV:  11    -0.108453677910E+02    0.38597E-06   -0.53250E-07  1264   0.512E-03
   1 F= -.10845368E+02 E0= -.10845368E+02  d E =-.108454E+02
       N       E                     dE             d eps       ncg     rms          rms(c)
DAV:   1    -0.108491408688E+02   -0.37727E-02   -0.10406E-01  1072   0.181E+00    0.302E-01
DAV:   2    -0.108473785937E+02    0.17623E-02   -0.14821E-03  1216   0.257E-01    0.183E-01
DAV:   3    -0.108464494049E+02    0.92919E-03   -0.19208E-03  1056   0.221E-01    0.607E-02
DAV:   4    -0.108464493170E+02    0.87907E-07   -0.19427E-05  1240   0.394E-02    0.541E-02
DAV:   5    -0.108464431665E+02    0.61505E-05   -0.50416E-06  1088   0.163E-02    0.125E-02
DAV:   6    -0.108464432812E+02   -0.11477E-06   -0.51866E-08   568   0.212E-03
   2 F= -.10846443E+02 E0= -.10846443E+02  d E =-.107549E-02
       N       E                     dE             d eps       ncg     rms          rms(c)
DAV:   1    -0.108477780083E+02   -0.13348E-02   -0.17487E-02  1056   0.747E-01    0.126E-01
DAV:   2    -0.108474874201E+02    0.29059E-03   -0.24644E-04  1232   0.105E-01    0.761E-02
DAV:   3    -0.108473400770E+02    0.14734E-03   -0.32063E-04  1064   0.905E-02    0.253E-02
DAV:   4    -0.108473407127E+02   -0.63567E-06   -0.31877E-06  1144   0.160E-02    0.226E-02
DAV:   5    -0.108473424106E+02   -0.16980E-05   -0.82510E-07   960   0.667E-03    0.546E-03
DAV:   6    -0.108473423719E+02    0.38718E-07   -0.99499E-09   448   0.934E-04
   3 F= -.10847342E+02 E0= -.10847342E+02  d E =-.197458E-02
