 vasp.6.2.0 18Jan21 (build Aug 12 2022 13:00:08) complex                        
  
 executed on             LinuxIFC date 2024.11.03  21:55:00
 running on    4 total cores
 distrk:  each k-point on    4 cores,    1 groups
 distr:  one band on NCORE=   1 cores,    4 groups


--------------------------------------------------------------------------------------------------------


 INCAR:
   ISTART = 0            (Read existing wavefunction, if there)
   ISPIN = 1            (Non-Spin polarised DFT)
   LREAL = .FALSE.       (Projection operators: automatic)
   LWAVE = .FALSE.        (Write WAVECAR or not)
   LCHARG = .FALSE.        (Write CHGCAR or not)
   ADDGRID = .TRUE.        (Increase grid, helps GGA convergence)
   LASPH = .TRUE.        (Give more accurate total energies and band structure calculations)
   PREC = Accurate      (Accurate strictly avoids any aliasing or wrap around errors)
   ENCUT = 350          (Cut-off energy for plane wave basis set, in eV)
   ISMEAR = 0            (Gaussian smearing, metals:1)
   SIGMA = 0.05         (Smearing value in eV, metals:0.2)
   NELM = 90           (Max electronic SCF steps)
   NELMIN = 6            (Min electronic SCF steps)
   EDIFF = 1E-06        (SCF energy convergence, in eV)
   NSW = 100          (Max ionic steps)
   IBRION = 2            (Algorithm: 0-MD, 1-Quasi-New, 2-CG)
   ISIF = 3            (Stress/relaxation: 2-Ions, 3-Shape/Ions/V, 4-Shape/Ions)
   EDIFFG = -2E-03        (Ionic convergence, eV/AA)
   ISYM = 2              (Symmetry: 0\=none, 2\=GGA, 3\=hybrids)

 POTCAR:    PAW_PBE Si 05Jan2001                  
 POTCAR:    PAW_PBE Si 05Jan2001                  
   VRHFIN =Si: s2p2                                                                                 
   LEXCH  = PE                                                                                      
   EATOM  =   103.0669 eV,    7.5752 Ry                                                             
                                                                                                    
   TITEL  = PAW_PBE Si 05Jan2001                                                                    
   LULTRA =        F    use ultrasoft PP ?                                                          
   IUNSCR =        1    unscreen: 0-lin 1-nonlin 2-no                                               
   RPACOR =    1.500    partial core radius                                                         
   POMASS =   28.085; ZVAL   =    4.000    mass and valenz                                          
   RCORE  =    1.900    outmost cutoff radius                                                       
   RWIGS  =    2.480; RWIGS  =    1.312    wigner-seitz radius (au A)                               
   ENMAX  =  245.345; ENMIN  =  184.009 eV                                                          
   ICORE  =        2    local potential                                                             
   LCOR   =        T    correct aug charges                                                         
   LPAW   =        T    paw PP                                                                      
   EAUG   =  322.069                                                                                
   DEXC   =    0.000                                                                                
   RMAX   =    1.950    core radius for proj-oper                                                   
   RAUG   =    1.300    factor for augmentation sphere                                              
   RDEP   =    1.993    radius for radial grids                                                     
   RDEPT  =    1.837    core radius for aug-charge                                                  
                                                                                                    
   Atomic configuration                                                                             
    6 entries                                                                                       
     n  l   j            E        occ.                                                              
     1  0  0.50     -1785.8828   2.0000                                                             
     2  0  0.50      -139.4969   2.0000                                                             
     2  1  1.50       -95.5546   6.0000                                                             
     3  0  0.50       -10.8127   2.0000                                                             
     3  1  0.50        -4.0811   2.0000                                                             
     3  2  1.50        -4.0817   0.0000                                                             
   Description                                                                                      
     l       E           TYP  RCUT    TYP  RCUT                                                     
     0    -10.8127223     23  1.900                                                                 
     0     -7.6451159     23  1.900                                                                 
     1     -4.0811372     23  1.900                                                                 
     1      2.4879257     23  1.900                                                                 
     2     -4.0817478      7  1.900                                                                 
  local pseudopotential read in
  partial core-charges read in
  partial kinetic energy density read in
  atomic valenz-charges read in
  non local Contribution for L=           0  read in
    real space projection operators read in
  non local Contribution for L=           0  read in
    real space projection operators read in
  non local Contribution for L=           1  read in
    real space projection operators read in
  non local Contribution for L=           1  read in
    real space projection operators read in
    PAW grid and wavefunctions read in
 
   number of l-projection  operators is LMAX  =           4
   number of lm-projection operators is LMMAX =           8
 
  PAW_PBE Si 05Jan2001                  :
 energy of atom  1       EATOM= -103.0669
 kinetic energy error for atom=    0.0013 (will be added to EATOM!!)
 
 
 POSCAR: Si2
  positions in direct lattice
  No initial velocities read in
 exchange correlation table for  LEXCH =        8
   RHO(1)=    0.500       N(1)  =     2000
   RHO(2)=  100.500       N(2)  =     4000
 


--------------------------------------------------------------------------------------------------------


 ion  position               nearest neighbor table
   1  0.875  0.875  0.875-   2 2.36   2 2.36   2 2.36   2 2.36
   2  0.125  0.125  0.125-   1 2.36   1 2.36   1 2.36   1 2.36
 
  LATTYP: Found a face centered cubic cell.
 ALAT       =     5.4437031493
  
  Lattice vectors:
  
 A1 = (   3.3335730000,   0.0000000000,   1.9246390000)
 A2 = (   1.1111910000,   3.1429240000,   1.9246390000)
 A3 = (   0.0000000000,   0.0000000000,   3.8492780000)


Analysis of symmetry for initial positions (statically):
=====================================================================
 Subroutine PRICEL returns:
 Original cell was already a primitive cell.
 

 Routine SETGRP: Setting up the symmetry group for a 
 face centered cubic supercell.


 Subroutine GETGRP returns: Found 48 space group operations
 (whereof 12 operations were pure point group operations)
 out of a pool of 48 trial point group operations.


The static configuration has the point symmetry D_3d.
 The point group associated with its full space group is O_h .


Analysis of symmetry for dynamics (positions and initial velocities):
=====================================================================
 Subroutine PRICEL returns:
 Original cell was already a primitive cell.
 

 Routine SETGRP: Setting up the symmetry group for a 
 face centered cubic supercell.


 Subroutine GETGRP returns: Found 48 space group operations
 (whereof 12 operations were pure point group operations)
 out of a pool of 48 trial point group operations.


The dynamic configuration has the point symmetry D_3d.
 The point group associated with its full space group is O_h .


 Subroutine INISYM returns: Found 48 space group operations
 (whereof 12 operations are pure point group operations),
 and found     1 'primitive' translations


----------------------------------------------------------------------------------------

                                     Primitive cell                                     

  volume of cell :      40.3295

  direct lattice vectors                    reciprocal lattice vectors
     3.333573000  0.000000000  1.924639000     0.299978432 -0.106058350  0.000000000
     1.111191000  3.142924000  1.924639000     0.000000000  0.318175050  0.000000000
     0.000000000  0.000000000  3.849278000    -0.149989216 -0.106058350  0.259788979

  length of vectors
     3.849278403  3.849279412  3.849278000     0.318175161  0.318175050  0.318175190

  position of ions in fractional coordinates (direct lattice)
     0.875000000  0.875000000  0.875000000
     0.125000000  0.125000000  0.125000000

  ion indices of the primitive-cell ions
   primitive index   ion index
                 1           1
                 2           2

----------------------------------------------------------------------------------------

 
 
 KPOINTS: Automatic                               

Automatic generation of k-mesh.
 Grid dimensions read from file:
 generate k-points for:   11   11   11

 Generating k-lattice:

  Cartesian coordinates                     Fractional coordinates (reciprocal lattice)
     0.027270767 -0.009641668  0.000000000     0.090909091  0.000000000  0.000000000
     0.000000000  0.028925005  0.000000000     0.000000000  0.090909091  0.000000000
    -0.013635383 -0.009641668  0.023617180     0.000000000  0.000000000  0.090909091

  Length of vectors
     0.028925015  0.028925005  0.028925017

  Shift w.r.t. Gamma in fractional coordinates (k-lattice)
     0.000000000  0.000000000  0.000000000

 
 Subroutine IBZKPT returns following result:
 ===========================================
 
 Found     56 irreducible k-points:
 
 Following reciprocal coordinates:
            Coordinates               Weight
  0.000000  0.000000  0.000000      1.000000
  0.090909  0.000000  0.000000      8.000000
  0.181818  0.000000  0.000000      8.000000
  0.272727  0.000000  0.000000      8.000000
  0.363636  0.000000  0.000000      8.000000
  0.454545  0.000000  0.000000      8.000000
  0.090909  0.090909  0.000000      6.000000
  0.181818  0.090909  0.000000     24.000000
  0.272727  0.090909  0.000000     24.000000
  0.363636  0.090909  0.000000     24.000000
  0.454545  0.090909  0.000000     24.000000
 -0.454545  0.090909  0.000000     24.000000
 -0.363636  0.090909  0.000000     24.000000
 -0.272727  0.090909  0.000000     24.000000
 -0.181818  0.090909  0.000000     24.000000
 -0.090909  0.090909  0.000000     12.000000
  0.181818  0.181818  0.000000      6.000000
  0.272727  0.181818  0.000000     24.000000
  0.363636  0.181818  0.000000     24.000000
  0.454545  0.181818  0.000000     24.000000
 -0.454545  0.181818  0.000000     24.000000
 -0.363636  0.181818  0.000000     24.000000
 -0.272727  0.181818  0.000000     24.000000
 -0.181818  0.181818  0.000000     12.000000
  0.272727  0.272727  0.000000      6.000000
  0.363636  0.272727  0.000000     24.000000
  0.454545  0.272727  0.000000     24.000000
 -0.454545  0.272727  0.000000     24.000000
 -0.363636  0.272727  0.000000     24.000000
 -0.272727  0.272727  0.000000     12.000000
  0.363636  0.363636  0.000000      6.000000
  0.454545  0.363636  0.000000     24.000000
 -0.454545  0.363636  0.000000     24.000000
 -0.363636  0.363636  0.000000     12.000000
  0.454545  0.454545  0.000000      6.000000
 -0.454545  0.454545  0.000000     12.000000
  0.272727  0.181818  0.090909     24.000000
  0.363636  0.181818  0.090909     48.000000
  0.454545  0.181818  0.090909     48.000000
 -0.454545  0.181818  0.090909     48.000000
  0.363636  0.272727  0.090909     24.000000
  0.454545  0.272727  0.090909     48.000000
 -0.454545  0.272727  0.090909     48.000000
 -0.363636  0.272727  0.090909     48.000000
 -0.272727  0.272727  0.090909     48.000000
 -0.181818  0.272727  0.090909     24.000000
  0.454545  0.363636  0.090909     24.000000
 -0.454545  0.363636  0.090909     48.000000
 -0.363636  0.363636  0.090909     48.000000
 -0.272727  0.363636  0.090909     24.000000
 -0.454545  0.454545  0.090909     24.000000
 -0.363636  0.454545  0.090909     24.000000
 -0.454545  0.363636  0.181818     24.000000
 -0.363636  0.363636  0.181818     48.000000
 -0.363636  0.454545  0.181818     24.000000
 -0.272727  0.454545  0.181818     24.000000
 
 Following cartesian coordinates:
            Coordinates               Weight
  0.000000  0.000000  0.000000      1.000000
  0.027271 -0.009642  0.000000      8.000000
  0.054542 -0.019283  0.000000      8.000000
  0.081812 -0.028925  0.000000      8.000000
  0.109083 -0.038567  0.000000      8.000000
  0.136354 -0.048208  0.000000      8.000000
  0.027271  0.019283  0.000000      6.000000
  0.054542  0.009642  0.000000     24.000000
  0.081812  0.000000  0.000000     24.000000
  0.109083 -0.009642  0.000000     24.000000
  0.136354 -0.019283  0.000000     24.000000
 -0.136354  0.077133  0.000000     24.000000
 -0.109083  0.067492  0.000000     24.000000
 -0.081812  0.057850  0.000000     24.000000
 -0.054542  0.048208  0.000000     24.000000
 -0.027271  0.038567  0.000000     12.000000
  0.054542  0.038567  0.000000      6.000000
  0.081812  0.028925  0.000000     24.000000
  0.109083  0.019283  0.000000     24.000000
  0.136354  0.009642  0.000000     24.000000
 -0.136354  0.106058  0.000000     24.000000
 -0.109083  0.096417  0.000000     24.000000
 -0.081812  0.086775  0.000000     24.000000
 -0.054542  0.077133  0.000000     12.000000
  0.081812  0.057850  0.000000      6.000000
  0.109083  0.048208  0.000000     24.000000
  0.136354  0.038567  0.000000     24.000000
 -0.136354  0.134983  0.000000     24.000000
 -0.109083  0.125342  0.000000     24.000000
 -0.081812  0.115700  0.000000     12.000000
  0.109083  0.077133  0.000000      6.000000
  0.136354  0.067492  0.000000     24.000000
 -0.136354  0.163908  0.000000     24.000000
 -0.109083  0.154267  0.000000     12.000000
  0.136354  0.096417  0.000000      6.000000
 -0.136354  0.192833  0.000000     12.000000
  0.068177  0.019283  0.023617     24.000000
  0.095448  0.009642  0.023617     48.000000
  0.122718 -0.000000  0.023617     48.000000
 -0.149989  0.096417  0.023617     48.000000
  0.095448  0.038567  0.023617     24.000000
  0.122718  0.028925  0.023617     48.000000
 -0.149989  0.125342  0.023617     48.000000
 -0.122718  0.115700  0.023617     48.000000
 -0.095448  0.106058  0.023617     48.000000
 -0.068177  0.096417  0.023617     24.000000
  0.122718  0.057850  0.023617     24.000000
 -0.149989  0.154267  0.023617     48.000000
 -0.122718  0.144625  0.023617     48.000000
 -0.095448  0.134983  0.023617     24.000000
 -0.149989  0.183192  0.023617     24.000000
 -0.122718  0.173550  0.023617     24.000000
 -0.163625  0.144625  0.047234     24.000000
 -0.136354  0.134983  0.047234     48.000000
 -0.136354  0.163908  0.047234     24.000000
 -0.109083  0.154267  0.047234     24.000000
 


--------------------------------------------------------------------------------------------------------




 Dimension of arrays:
   k-points           NKPTS =     56   k-points in BZ     NKDIM =     56   number of bands    NBANDS=      8
   number of dos      NEDOS =    301   number of ions     NIONS =      2
   non local maximal  LDIM  =      4   non local SUM 2l+1 LMDIM =      8
   total plane-waves  NPLWV =  13824
   max r-space proj   IRMAX =      1   max aug-charges    IRDMAX=  91874
   dimension x,y,z NGX =    24 NGY =   24 NGZ =   24
   dimension x,y,z NGXF=    48 NGYF=   48 NGZF=   48
   support grid    NGXF=    96 NGYF=   96 NGZF=   96
   ions per type =               2
   NGX,Y,Z   is equivalent  to a cutoff of  10.37, 10.37, 10.37 a.u.
   NGXF,Y,Z  is equivalent  to a cutoff of  20.73, 20.73, 20.73 a.u.

 SYSTEM =  unknown system                          
 POSCAR =  Si2                                     

 Startparameter for this run:
   NWRITE =      2    write-flag & timer
   PREC   = accura    normal or accurate (medium, high low for compatibility)
   ISTART =      0    job   : 0-new  1-cont  2-samecut
   ICHARG =      2    charge: 1-file 2-atom 10-const
   ISPIN  =      1    spin polarized calculation?
   LNONCOLLINEAR =      F non collinear calculations
   LSORBIT =      F    spin-orbit coupling
   INIWAV =      1    electr: 0-lowe 1-rand  2-diag
   LASPH  =      T    aspherical Exc in radial PAW
   METAGGA=      F    non-selfconsistent MetaGGA calc.

 Electronic Relaxation 1
   ENCUT  =  350.0 eV  25.72 Ry    5.07 a.u.   5.87  5.87  5.87*2*pi/ulx,y,z
   ENINI  =  350.0     initial cutoff
   ENAUG  =  322.1 eV  augmentation charge cutoff
   NELM   =     90;   NELMIN=  6; NELMDL= -5     # of ELM steps 
   EDIFF  = 0.1E-05   stopping-criterion for ELM
   LREAL  =      F    real-space projection
   NLSPLINE    = F    spline interpolate recip. space projectors
   LCOMPAT=      F    compatible to vasp.4.4
   GGA_COMPAT  = T    GGA compatible to vasp.4.4-vasp.4.6
   LMAXPAW     = -100 max onsite density
   LMAXMIX     =    2 max onsite mixed and CHGCAR
   VOSKOWN=      0    Vosko Wilk Nusair interpolation
   ROPT   =    0.00000
 Ionic relaxation
   EDIFFG = -.2E-02   stopping-criterion for IOM
   NSW    =    100    number of steps for IOM
   NBLOCK =      1;   KBLOCK =    100    inner block; outer block 
   IBRION =      2    ionic relax: 0-MD 1-quasi-New 2-CG
   NFREE  =      1    steps in history (QN), initial steepest desc. (CG)
   ISIF   =      3    stress and relaxation
   IWAVPR =     11    prediction:  0-non 1-charg 2-wave 3-comb
   ISYM   =      2    0-nonsym 1-usesym 2-fastsym
   LCORR  =      T    Harris-Foulkes like correction to forces

   POTIM  = 0.5000    time-step for ionic-motion
   TEIN   =    0.0    initial temperature
   TEBEG  =    0.0;   TEEND  =   0.0 temperature during run
   SMASS  =  -3.00    Nose mass-parameter (am)
   estimated Nose-frequenzy (Omega)   =  0.10E-29 period in steps = 0.13E+47 mass=  -0.339E-27a.u.
   SCALEE = 1.0000    scale energy and forces
   NPACO  =    256;   APACO  = 16.0  distance and # of slots for P.C.
   PSTRESS=    0.0 pullay stress

  Mass of Ions in am
   POMASS =  28.09
  Ionic Valenz
   ZVAL   =   4.00
  Atomic Wigner-Seitz radii
   RWIGS  =  -1.00
  virtual crystal weights 
   VCA    =   1.00
   NELECT =       8.0000    total number of electrons
   NUPDOWN=      -1.0000    fix difference up-down

 DOS related values:
   EMIN   =  10.00;   EMAX   =-10.00  energy-range for DOS
   EFERMI =   0.00
   ISMEAR =     0;   SIGMA  =   0.05  broadening in eV -4-tet -1-fermi 0-gaus

 Electronic relaxation 2 (details)
   IALGO  =     38    algorithm
   LDIAG  =      T    sub-space diagonalisation (order eigenvalues)
   LSUBROT=      F    optimize rotation matrix (better conditioning)
   TURBO    =      0    0=normal 1=particle mesh
   IRESTART =      0    0=no restart 2=restart with 2 vectors
   NREBOOT  =      0    no. of reboots
   NMIN     =      0    reboot dimension
   EREF     =   0.00    reference energy to select bands
   IMIX   =      4    mixing-type and parameters
     AMIX     =   0.40;   BMIX     =  1.00
     AMIX_MAG =   1.60;   BMIX_MAG =  1.00
     AMIN     =   0.10
     WC   =   100.;   INIMIX=   1;  MIXPRE=   1;  MAXMIX= -45

 Intra band minimization:
   WEIMIN = 0.0010     energy-eigenvalue tresh-hold
   EBREAK =  0.31E-07  absolut break condition
   DEPER  =   0.30     relativ break condition  

   TIME   =   0.40     timestep for ELM

  volume/ion in A,a.u.               =      20.16       136.08
  Fermi-wavevector in a.u.,A,eV,Ry     =   0.954766  1.804247 12.402783  0.911579
  Thomas-Fermi vector in A             =   2.083543
 
 Write flags
   LWAVE        =      F    write WAVECAR
   LDOWNSAMPLE  =      F    k-point downsampling of WAVECAR
   LCHARG       =      F    write CHGCAR
   LVTOT        =      F    write LOCPOT, total local potential
   LVHAR        =      F    write LOCPOT, Hartree potential only
   LELF         =      F    write electronic localiz. function (ELF)
   LORBIT       =      0    0 simple, 1 ext, 2 COOP (PROOUT), +10 PAW based schemes


 Dipole corrections
   LMONO  =      F    monopole corrections only (constant potential shift)
   LDIPOL =      F    correct potential (dipole corrections)
   IDIPOL =      0    1-x, 2-y, 3-z, 4-all directions 
   EPSILON=  1.0000000 bulk dielectric constant

 Exchange correlation treatment:
   GGA     =    --    GGA type
   LEXCH   =     8    internal setting for exchange type
   VOSKOWN=      0    Vosko Wilk Nusair interpolation
   LHFCALC =     F    Hartree Fock is set to
   LHFONE  =     F    Hartree Fock one center treatment
   AEXX    =    0.0000 exact exchange contribution

 Linear response parameters
   LEPSILON=     F    determine dielectric tensor
   LRPA    =     F    only Hartree local field effects (RPA)
   LNABLA  =     F    use nabla operator in PAW spheres
   LVEL    =     F    velocity operator in full k-point grid
   LINTERFAST=   F  fast interpolation
   KINTER  =     0    interpolate to denser k-point grid
   CSHIFT  =0.1000    complex shift for real part using Kramers Kronig
   OMEGAMAX=  -1.0    maximum frequency
   DEG_THRESHOLD= 0.2000000E-02 threshold for treating states as degnerate
   RTIME   =   -0.100 relaxation time in fs
  (WPLASMAI=    0.000 imaginary part of plasma frequency in eV, 0.658/RTIME)
   DFIELD  = 0.0000000 0.0000000 0.0000000 field for delta impulse in time
 
 Orbital magnetization related:
   ORBITALMAG=     F  switch on orbital magnetization
   LCHIMAG   =     F  perturbation theory with respect to B field
   DQ        =  0.001000  dq finite difference perturbation B field
   LLRAUG    =     F  two centre corrections for induced B field



--------------------------------------------------------------------------------------------------------


 conjugate gradient relaxation of ions
 charge density and potential will be updated during run
 non-spin polarized calculation
 Variant of blocked Davidson
 Davidson routine will perform the subspace rotation
 perform sub-space diagonalisation
    after iterative eigenvector-optimisation
 modified Broyden-mixing scheme, WC =      100.0
 initial mixing is a Kerker type mixing with AMIX =  0.4000 and BMIX =      1.0000
 Hartree-type preconditioning will be used
 using additional bands            4
 reciprocal scheme for non local part
 use partial core corrections
 calculate Harris-corrections to forces 
   (improved forces if not selfconsistent)
 use gradient corrections 
 use of overlap-Matrix (Vanderbilt PP)
 Gauss-broadening in eV      SIGMA  =   0.05


--------------------------------------------------------------------------------------------------------


  energy-cutoff  :      350.00
  volume of cell :       40.33
      direct lattice vectors                 reciprocal lattice vectors
     3.333573000  0.000000000  1.924639000     0.299978432 -0.106058350  0.000000000
     1.111191000  3.142924000  1.924639000     0.000000000  0.318175050  0.000000000
     0.000000000  0.000000000  3.849278000    -0.149989216 -0.106058350  0.259788979

  length of vectors
     3.849278403  3.849279412  3.849278000     0.318175161  0.318175050  0.318175190


 
 k-points in units of 2pi/SCALE and weight: Automatic                               
   0.00000000  0.00000000  0.00000000       0.001
   0.02727077 -0.00964167  0.00000000       0.006
   0.05454153 -0.01928334  0.00000000       0.006
   0.08181230 -0.02892500  0.00000000       0.006
   0.10908307 -0.03856667  0.00000000       0.006
   0.13635383 -0.04820834  0.00000000       0.006
   0.02727077  0.01928334  0.00000000       0.005
   0.05454153  0.00964167  0.00000000       0.018
   0.08181230  0.00000000  0.00000000       0.018
   0.10908307 -0.00964167  0.00000000       0.018
   0.13635383 -0.01928334  0.00000000       0.018
  -0.13635383  0.07713335  0.00000000       0.018
  -0.10908307  0.06749168  0.00000000       0.018
  -0.08181230  0.05785001  0.00000000       0.018
  -0.05454153  0.04820834  0.00000000       0.018
  -0.02727077  0.03856667  0.00000000       0.009
   0.05454153  0.03856667  0.00000000       0.005
   0.08181230  0.02892500  0.00000000       0.018
   0.10908307  0.01928334  0.00000000       0.018
   0.13635383  0.00964167  0.00000000       0.018
  -0.13635383  0.10605835  0.00000000       0.018
  -0.10908307  0.09641668  0.00000000       0.018
  -0.08181230  0.08677501  0.00000000       0.018
  -0.05454153  0.07713335  0.00000000       0.009
   0.08181230  0.05785001  0.00000000       0.005
   0.10908307  0.04820834  0.00000000       0.018
   0.13635383  0.03856667  0.00000000       0.018
  -0.13635383  0.13498335  0.00000000       0.018
  -0.10908307  0.12534169  0.00000000       0.018
  -0.08181230  0.11570002  0.00000000       0.009
   0.10908307  0.07713335  0.00000000       0.005
   0.13635383  0.06749168  0.00000000       0.018
  -0.13635383  0.16390836  0.00000000       0.018
  -0.10908307  0.15426669  0.00000000       0.009
   0.13635383  0.09641668  0.00000000       0.005
  -0.13635383  0.19283336  0.00000000       0.009
   0.06817692  0.01928334  0.02361718       0.018
   0.09544768  0.00964167  0.02361718       0.036
   0.12271845 -0.00000000  0.02361718       0.036
  -0.14998922  0.09641668  0.02361718       0.036
   0.09544768  0.03856667  0.02361718       0.018
   0.12271845  0.02892500  0.02361718       0.036
  -0.14998922  0.12534169  0.02361718       0.036
  -0.12271845  0.11570002  0.02361718       0.036
  -0.09544768  0.10605835  0.02361718       0.036
  -0.06817692  0.09641668  0.02361718       0.018
   0.12271845  0.05785001  0.02361718       0.018
  -0.14998922  0.15426669  0.02361718       0.036
  -0.12271845  0.14462502  0.02361718       0.036
  -0.09544768  0.13498335  0.02361718       0.018
  -0.14998922  0.18319170  0.02361718       0.018
  -0.12271845  0.17355003  0.02361718       0.018
  -0.16362460  0.14462502  0.04723436       0.018
  -0.13635383  0.13498335  0.04723436       0.036
  -0.13635383  0.16390836  0.04723436       0.018
  -0.10908307  0.15426669  0.04723436       0.018
 
 k-points in reciprocal lattice and weights: Automatic                               
   0.00000000  0.00000000  0.00000000       0.001
   0.09090909  0.00000000  0.00000000       0.006
   0.18181818  0.00000000  0.00000000       0.006
   0.27272727  0.00000000  0.00000000       0.006
   0.36363636  0.00000000  0.00000000       0.006
   0.45454545  0.00000000  0.00000000       0.006
   0.09090909  0.09090909  0.00000000       0.005
   0.18181818  0.09090909  0.00000000       0.018
   0.27272727  0.09090909  0.00000000       0.018
   0.36363636  0.09090909  0.00000000       0.018
   0.45454545  0.09090909  0.00000000       0.018
  -0.45454545  0.09090909  0.00000000       0.018
  -0.36363636  0.09090909  0.00000000       0.018
  -0.27272727  0.09090909  0.00000000       0.018
  -0.18181818  0.09090909  0.00000000       0.018
  -0.09090909  0.09090909  0.00000000       0.009
   0.18181818  0.18181818  0.00000000       0.005
   0.27272727  0.18181818  0.00000000       0.018
   0.36363636  0.18181818  0.00000000       0.018
   0.45454545  0.18181818  0.00000000       0.018
  -0.45454545  0.18181818  0.00000000       0.018
  -0.36363636  0.18181818  0.00000000       0.018
  -0.27272727  0.18181818  0.00000000       0.018
  -0.18181818  0.18181818  0.00000000       0.009
   0.27272727  0.27272727  0.00000000       0.005
   0.36363636  0.27272727  0.00000000       0.018
   0.45454545  0.27272727  0.00000000       0.018
  -0.45454545  0.27272727  0.00000000       0.018
  -0.36363636  0.27272727  0.00000000       0.018
  -0.27272727  0.27272727  0.00000000       0.009
   0.36363636  0.36363636  0.00000000       0.005
   0.45454545  0.36363636  0.00000000       0.018
  -0.45454545  0.36363636  0.00000000       0.018
  -0.36363636  0.36363636  0.00000000       0.009
   0.45454545  0.45454545  0.00000000       0.005
  -0.45454545  0.45454545  0.00000000       0.009
   0.27272727  0.18181818  0.09090909       0.018
   0.36363636  0.18181818  0.09090909       0.036
   0.45454545  0.18181818  0.09090909       0.036
  -0.45454545  0.18181818  0.09090909       0.036
   0.36363636  0.27272727  0.09090909       0.018
   0.45454545  0.27272727  0.09090909       0.036
  -0.45454545  0.27272727  0.09090909       0.036
  -0.36363636  0.27272727  0.09090909       0.036
  -0.27272727  0.27272727  0.09090909       0.036
  -0.18181818  0.27272727  0.09090909       0.018
   0.45454545  0.36363636  0.09090909       0.018
  -0.45454545  0.36363636  0.09090909       0.036
  -0.36363636  0.36363636  0.09090909       0.036
  -0.27272727  0.36363636  0.09090909       0.018
  -0.45454545  0.45454545  0.09090909       0.018
  -0.36363636  0.45454545  0.09090909       0.018
  -0.45454545  0.36363636  0.18181818       0.018
  -0.36363636  0.36363636  0.18181818       0.036
  -0.36363636  0.45454545  0.18181818       0.018
  -0.27272727  0.45454545  0.18181818       0.018
 
 position of ions in fractional coordinates (direct lattice) 
   0.87500000  0.87500000  0.87500000
   0.12500000  0.12500000  0.12500000
 
 position of ions in cartesian coordinates  (Angst):
   3.88916850  2.75005850  6.73623650
   0.55559550  0.39286550  0.96231950
 


--------------------------------------------------------------------------------------------------------


 k-point   1 :   0.0000 0.0000 0.0000  plane waves:     609
 k-point   2 :   0.0909 0.0000 0.0000  plane waves:     585
 k-point   3 :   0.1818 0.0000 0.0000  plane waves:     585
 k-point   4 :   0.2727 0.0000 0.0000  plane waves:     598
 k-point   5 :   0.3636 0.0000 0.0000  plane waves:     601
 k-point   6 :   0.4545 0.0000 0.0000  plane waves:     595
 k-point   7 :   0.0909 0.0909 0.0000  plane waves:     589
 k-point   8 :   0.1818 0.0909 0.0000  plane waves:     587
 k-point   9 :   0.2727 0.0909 0.0000  plane waves:     598
 k-point  10 :   0.3636 0.0909 0.0000  plane waves:     603
 k-point  11 :   0.4545 0.0909 0.0000  plane waves:     600
 k-point  12 :  -0.4545 0.0909 0.0000  plane waves:     595
 k-point  13 :  -0.3636 0.0909 0.0000  plane waves:     599
 k-point  14 :  -0.2727 0.0909 0.0000  plane waves:     598
 k-point  15 :  -0.1818 0.0909 0.0000  plane waves:     596
 k-point  16 :  -0.0909 0.0909 0.0000  plane waves:     594
 k-point  17 :   0.1818 0.1818 0.0000  plane waves:     584
 k-point  18 :   0.2727 0.1818 0.0000  plane waves:     591
 k-point  19 :   0.3636 0.1818 0.0000  plane waves:     600
 k-point  20 :   0.4545 0.1818 0.0000  plane waves:     601
 k-point  21 :  -0.4545 0.1818 0.0000  plane waves:     602
 k-point  22 :  -0.3636 0.1818 0.0000  plane waves:     597
 k-point  23 :  -0.2727 0.1818 0.0000  plane waves:     602
 k-point  24 :  -0.1818 0.1818 0.0000  plane waves:     596
 k-point  25 :   0.2727 0.2727 0.0000  plane waves:     592
 k-point  26 :   0.3636 0.2727 0.0000  plane waves:     599
 k-point  27 :   0.4545 0.2727 0.0000  plane waves:     602
 k-point  28 :  -0.4545 0.2727 0.0000  plane waves:     597
 k-point  29 :  -0.3636 0.2727 0.0000  plane waves:     591
 k-point  30 :  -0.2727 0.2727 0.0000  plane waves:     602
 k-point  31 :   0.3636 0.3636 0.0000  plane waves:     608
 k-point  32 :   0.4545 0.3636 0.0000  plane waves:     604
 k-point  33 :  -0.4545 0.3636 0.0000  plane waves:     606
 k-point  34 :  -0.3636 0.3636 0.0000  plane waves:     602
 k-point  35 :   0.4545 0.4545 0.0000  plane waves:     612
 k-point  36 :  -0.4545 0.4545 0.0000  plane waves:     608
 k-point  37 :   0.2727 0.1818 0.0909  plane waves:     591
 k-point  38 :   0.3636 0.1818 0.0909  plane waves:     602
 k-point  39 :   0.4545 0.1818 0.0909  plane waves:     602
 k-point  40 :  -0.4545 0.1818 0.0909  plane waves:     596
 k-point  41 :   0.3636 0.2727 0.0909  plane waves:     596
 k-point  42 :   0.4545 0.2727 0.0909  plane waves:     602
 k-point  43 :  -0.4545 0.2727 0.0909  plane waves:     601
 k-point  44 :  -0.3636 0.2727 0.0909  plane waves:     599
 k-point  45 :  -0.2727 0.2727 0.0909  plane waves:     600
 k-point  46 :  -0.1818 0.2727 0.0909  plane waves:     603
 k-point  47 :   0.4545 0.3636 0.0909  plane waves:     604
 k-point  48 :  -0.4545 0.3636 0.0909  plane waves:     597
 k-point  49 :  -0.3636 0.3636 0.0909  plane waves:     606
 k-point  50 :  -0.2727 0.3636 0.0909  plane waves:     602
 k-point  51 :  -0.4545 0.4545 0.0909  plane waves:     606
 k-point  52 :  -0.3636 0.4545 0.0909  plane waves:     606
 k-point  53 :  -0.4545 0.3636 0.1818  plane waves:     592
 k-point  54 :  -0.3636 0.3636 0.1818  plane waves:     605
 k-point  55 :  -0.3636 0.4545 0.1818  plane waves:     601
 k-point  56 :  -0.2727 0.4545 0.1818  plane waves:     609

 maximum and minimum number of plane-waves per node :       612      584

 maximum number of plane-waves:       612
 maximum index in each direction: 
   IXMAX=    6   IYMAX=    5   IZMAX=    5
   IXMIN=   -6   IYMIN=   -6   IZMIN=   -6


 serial   3D FFT for wavefunctions
 parallel 3D FFT for charge:
    minimum data exchange during FFTs selected (reduces bandwidth)


 total amount of memory used by VASP MPI-rank0    39446. kBytes
=======================================================================

   base      :      30000. kBytes
   nonl-proj :       2212. kBytes
   fftplans  :       4177. kBytes
   grid      :       1926. kBytes
   one-center:          6. kBytes
   wavefun   :       1125. kBytes
 
     INWAV:  cpu time    0.0000: real time    0.0007
 Broyden mixing: mesh for mixing (old mesh)
   NGX = 11   NGY = 11   NGZ = 11
  (NGX  = 48   NGY  = 48   NGZ  = 48)
  gives a total of   1331 points

 initial charge density was supplied:
 charge density of overlapping atoms calculated
 number of electron       8.0000000 magnetization 
 keeping initial charge density in first step


--------------------------------------------------------------------------------------------------------


 Maximum index for augmentation-charges        22271 (set IRDMAX)


--------------------------------------------------------------------------------------------------------


 First call to EWALD:  gamma=   0.517
 Maximum number of real-space cells 3x 3x 3
 Maximum number of reciprocal cells 3x 3x 3

    FEWALD:  cpu time    0.0040: real time    0.0042


--------------------------------------- Iteration      1(   1)  ---------------------------------------


    POTLOK:  cpu time    0.0440: real time    0.0471
    SETDIJ:  cpu time    0.1880: real time    0.1874
     EDDAV:  cpu time    0.4529: real time    0.4543
       DOS:  cpu time    0.0010: real time    0.0017
    --------------------------------------------
      LOOP:  cpu time    0.6869: real time    0.6909

 eigenvalue-minimisations  :   896
 total energy-change (2. order) : 0.2084425E+01  (-0.2576348E+03)
 number of electron       8.0000000 magnetization 
 augmentation part        8.0000000 magnetization 

 Free energy of the ion-electron system (eV)
  ---------------------------------------------------
  alpha Z        PSCENC =         3.33880741
  Ewald energy   TEWEN  =      -227.98820643
  -Hartree energ DENC   =       -11.11484531
  -exchange      EXHF   =         0.00000000
  -V(xc)+E(xc)   XCENC  =       -18.63153637
  PAW double counting   =       176.24759923     -141.06103558
  entropy T*S    EENTRO =        -0.00129016
  eigenvalues    EBANDS =        15.16367770
  atomic energy  EATOM  =       206.13125414
  Solvation  Ediel_sol  =         0.00000000
  ---------------------------------------------------
  free energy    TOTEN  =         2.08442462 eV

  energy without entropy =        2.08571478  energy(sigma->0) =        2.08506970


--------------------------------------------------------------------------------------------------------




--------------------------------------- Iteration      1(   2)  ---------------------------------------


     EDDAV:  cpu time    0.6529: real time    0.6663
       DOS:  cpu time    0.0000: real time    0.0010
    --------------------------------------------
      LOOP:  cpu time    0.6529: real time    0.6673

 eigenvalue-minimisations  :  1368
 total energy-change (2. order) :-0.1294882E+02  (-0.1260852E+02)
 number of electron       8.0000000 magnetization 
 augmentation part        8.0000000 magnetization 

 Free energy of the ion-electron system (eV)
  ---------------------------------------------------
  alpha Z        PSCENC =         3.33880741
  Ewald energy   TEWEN  =      -227.98820643
  -Hartree energ DENC   =       -11.11484531
  -exchange      EXHF   =         0.00000000
  -V(xc)+E(xc)   XCENC  =       -18.63153637
  PAW double counting   =       176.24759923     -141.06103558
  entropy T*S    EENTRO =        -0.00000000
  eigenvalues    EBANDS =         2.21357017
  atomic energy  EATOM  =       206.13125414
  Solvation  Ediel_sol  =         0.00000000
  ---------------------------------------------------
  free energy    TOTEN  =       -10.86439274 eV

  energy without entropy =      -10.86439274  energy(sigma->0) =      -10.86439274


--------------------------------------------------------------------------------------------------------




--------------------------------------- Iteration      1(   3)  ---------------------------------------


     EDDAV:  cpu time    0.5479: real time    0.5622
       DOS:  cpu time    0.0010: real time    0.0011
    --------------------------------------------
      LOOP:  cpu time    0.5489: real time    0.5633

 eigenvalue-minimisations  :  1128
 total energy-change (2. order) :-0.1561474E+00  (-0.1561474E+00)
 number of electron       8.0000000 magnetization 
 augmentation part        8.0000000 magnetization 

 Free energy of the ion-electron system (eV)
  ---------------------------------------------------
  alpha Z        PSCENC =         3.33880741
  Ewald energy   TEWEN  =      -227.98820643
  -Hartree energ DENC   =       -11.11484531
  -exchange      EXHF   =         0.00000000
  -V(xc)+E(xc)   XCENC  =       -18.63153637
  PAW double counting   =       176.24759923     -141.06103558
  entropy T*S    EENTRO =        -0.00000000
  eigenvalues    EBANDS =         2.05742279
  atomic energy  EATOM  =       206.13125414
  Solvation  Ediel_sol  =         0.00000000
  ---------------------------------------------------
  free energy    TOTEN  =       -11.02054012 eV

  energy without entropy =      -11.02054012  energy(sigma->0) =      -11.02054012


--------------------------------------------------------------------------------------------------------




--------------------------------------- Iteration      1(   4)  ---------------------------------------


     EDDAV:  cpu time    0.6699: real time    0.6814
       DOS:  cpu time    0.0000: real time    0.0011
    --------------------------------------------
      LOOP:  cpu time    0.6699: real time    0.6825

 eigenvalue-minimisations  :  1416
 total energy-change (2. order) :-0.6915599E-03  (-0.6915600E-03)
 number of electron       8.0000000 magnetization 
 augmentation part        8.0000000 magnetization 

 Free energy of the ion-electron system (eV)
  ---------------------------------------------------
  alpha Z        PSCENC =         3.33880741
  Ewald energy   TEWEN  =      -227.98820643
  -Hartree energ DENC   =       -11.11484531
  -exchange      EXHF   =         0.00000000
  -V(xc)+E(xc)   XCENC  =       -18.63153637
  PAW double counting   =       176.24759923     -141.06103558
  entropy T*S    EENTRO =        -0.00000000
  eigenvalues    EBANDS =         2.05673123
  atomic energy  EATOM  =       206.13125414
  Solvation  Ediel_sol  =         0.00000000
  ---------------------------------------------------
  free energy    TOTEN  =       -11.02123168 eV

  energy without entropy =      -11.02123168  energy(sigma->0) =      -11.02123168


--------------------------------------------------------------------------------------------------------




--------------------------------------- Iteration      1(   5)  ---------------------------------------


     EDDAV:  cpu time    0.5629: real time    0.5731
       DOS:  cpu time    0.0000: real time    0.0009
    CHARGE:  cpu time    0.0540: real time    0.0539
    MIXING:  cpu time    0.0010: real time    0.0015
    --------------------------------------------
      LOOP:  cpu time    0.6179: real time    0.6295

 eigenvalue-minimisations  :  1160
 total energy-change (2. order) :-0.2269824E-05  (-0.2269823E-05)
 number of electron       8.0000000 magnetization 
 augmentation part       -0.4703626 magnetization 

 Broyden mixing:
  rms(total) = 0.48592E+00    rms(broyden)= 0.48591E+00
  rms(prec ) = 0.94673E+00
  weight for this iteration     100.00

 Free energy of the ion-electron system (eV)
  ---------------------------------------------------
  alpha Z        PSCENC =         3.33880741
  Ewald energy   TEWEN  =      -227.98820643
  -Hartree energ DENC   =       -11.11484531
  -exchange      EXHF   =         0.00000000
  -V(xc)+E(xc)   XCENC  =       -18.63153637
  PAW double counting   =       176.24759923     -141.06103558
  entropy T*S    EENTRO =        -0.00000000
  eigenvalues    EBANDS =         2.05672896
  atomic energy  EATOM  =       206.13125414
  Solvation  Ediel_sol  =         0.00000000
  ---------------------------------------------------
  free energy    TOTEN  =       -11.02123395 eV

  energy without entropy =      -11.02123395  energy(sigma->0) =      -11.02123395


--------------------------------------------------------------------------------------------------------




--------------------------------------- Iteration      1(   6)  ---------------------------------------


    POTLOK:  cpu time    0.0330: real time    0.0433
    SETDIJ:  cpu time    0.1760: real time    0.1763
     EDDAV:  cpu time    0.5339: real time    0.5354
       DOS:  cpu time    0.0010: real time    0.0011
    CHARGE:  cpu time    0.0470: real time    0.0482
    MIXING:  cpu time    0.0020: real time    0.0016
    --------------------------------------------
      LOOP:  cpu time    0.7929: real time    0.8058

 eigenvalue-minimisations  :  1080
 total energy-change (2. order) : 0.1215605E+00  (-0.8003315E-02)
 number of electron       8.0000000 magnetization 
 augmentation part       -0.4646008 magnetization 

 Broyden mixing:
  rms(total) = 0.29730E+00    rms(broyden)= 0.29730E+00
  rms(prec ) = 0.56312E+00
  weight for this iteration     100.00

 eigenvalues of (default mixing * dielectric matrix)
  average eigenvalue GAMMA=   2.5668
  2.5668

 Free energy of the ion-electron system (eV)
  ---------------------------------------------------
  alpha Z        PSCENC =         3.33880741
  Ewald energy   TEWEN  =      -227.98820643
  -Hartree energ DENC   =       -12.60038503
  -exchange      EXHF   =         0.00000000
  -V(xc)+E(xc)   XCENC  =       -18.39626193
  PAW double counting   =       378.74121153     -343.66270836
  entropy T*S    EENTRO =        -0.00000000
  eigenvalues    EBANDS =         3.53661516
  atomic energy  EATOM  =       206.13125414
  Solvation  Ediel_sol  =         0.00000000
  ---------------------------------------------------
  free energy    TOTEN  =       -10.89967350 eV

  energy without entropy =      -10.89967350  energy(sigma->0) =      -10.89967350


--------------------------------------------------------------------------------------------------------




--------------------------------------- Iteration      1(   7)  ---------------------------------------


    POTLOK:  cpu time    0.0330: real time    0.0425
    SETDIJ:  cpu time    0.1720: real time    0.1729
     EDDAV:  cpu time    0.5469: real time    0.5483
       DOS:  cpu time    0.0010: real time    0.0011
    CHARGE:  cpu time    0.0480: real time    0.0485
    MIXING:  cpu time    0.0020: real time    0.0015
    --------------------------------------------
      LOOP:  cpu time    0.8019: real time    0.8148

 eigenvalue-minimisations  :  1120
 total energy-change (2. order) : 0.5558785E-01  (-0.1521129E-01)
 number of electron       8.0000000 magnetization 
 augmentation part       -0.4575875 magnetization 

 Broyden mixing:
  rms(total) = 0.18604E-01    rms(broyden)= 0.18604E-01
  rms(prec ) = 0.41287E-01
  weight for this iteration     100.00

 eigenvalues of (default mixing * dielectric matrix)
  average eigenvalue GAMMA=   2.0687
  1.7547  2.3827

 Free energy of the ion-electron system (eV)
  ---------------------------------------------------
  alpha Z        PSCENC =         3.33880741
  Ewald energy   TEWEN  =      -227.98820643
  -Hartree energ DENC   =       -15.02873884
  -exchange      EXHF   =         0.00000000
  -V(xc)+E(xc)   XCENC  =       -18.00410739
  PAW double counting   =       863.02660016     -828.08789396
  entropy T*S    EENTRO =        -0.00000000
  eigenvalues    EBANDS =         5.76819926
  atomic energy  EATOM  =       206.13125414
  Solvation  Ediel_sol  =         0.00000000
  ---------------------------------------------------
  free energy    TOTEN  =       -10.84408565 eV

  energy without entropy =      -10.84408565  energy(sigma->0) =      -10.84408565


--------------------------------------------------------------------------------------------------------




--------------------------------------- Iteration      1(   8)  ---------------------------------------


    POTLOK:  cpu time    0.0330: real time    0.0436
    SETDIJ:  cpu time    0.1730: real time    0.1728
     EDDAV:  cpu time    0.5039: real time    0.5050
       DOS:  cpu time    0.0010: real time    0.0011
    CHARGE:  cpu time    0.0520: real time    0.0521
    MIXING:  cpu time    0.0010: real time    0.0016
    --------------------------------------------
      LOOP:  cpu time    0.7649: real time    0.7761

 eigenvalue-minimisations  :  1008
 total energy-change (2. order) :-0.1064177E-02  (-0.3871639E-03)
 number of electron       8.0000000 magnetization 
 augmentation part       -0.4585583 magnetization 

 Broyden mixing:
  rms(total) = 0.73828E-02    rms(broyden)= 0.73826E-02
  rms(prec ) = 0.13139E-01
  weight for this iteration     100.00

 eigenvalues of (default mixing * dielectric matrix)
  average eigenvalue GAMMA=   2.2578
  2.8480  1.9626  1.9626

 Free energy of the ion-electron system (eV)
  ---------------------------------------------------
  alpha Z        PSCENC =         3.33880741
  Ewald energy   TEWEN  =      -227.98820643
  -Hartree energ DENC   =       -14.95630263
  -exchange      EXHF   =         0.00000000
  -V(xc)+E(xc)   XCENC  =       -18.00420034
  PAW double counting   =       872.75288454     -837.78735714
  entropy T*S    EENTRO =        -0.00000000
  eigenvalues    EBANDS =         5.66797062
  atomic energy  EATOM  =       206.13125414
  Solvation  Ediel_sol  =         0.00000000
  ---------------------------------------------------
  free energy    TOTEN  =       -10.84514983 eV

  energy without entropy =      -10.84514983  energy(sigma->0) =      -10.84514983


--------------------------------------------------------------------------------------------------------




--------------------------------------- Iteration      1(   9)  ---------------------------------------


    POTLOK:  cpu time    0.0330: real time    0.0423
    SETDIJ:  cpu time    0.1750: real time    0.1756
     EDDAV:  cpu time    0.6919: real time    0.6926
       DOS:  cpu time    0.0010: real time    0.0011
    CHARGE:  cpu time    0.0470: real time    0.0477
    MIXING:  cpu time    0.0020: real time    0.0015
    --------------------------------------------
      LOOP:  cpu time    0.9489: real time    0.9608

 eigenvalue-minimisations  :  1352
 total energy-change (2. order) :-0.1923481E-03  (-0.1901148E-04)
 number of electron       8.0000000 magnetization 
 augmentation part       -0.4586729 magnetization 

 Broyden mixing:
  rms(total) = 0.57136E-02    rms(broyden)= 0.57136E-02
  rms(prec ) = 0.65946E-02
  weight for this iteration     100.00

 eigenvalues of (default mixing * dielectric matrix)
  average eigenvalue GAMMA=   2.1185
  0.9431  2.5867  2.5867  2.3576

 Free energy of the ion-electron system (eV)
  ---------------------------------------------------
  alpha Z        PSCENC =         3.33880741
  Ewald energy   TEWEN  =      -227.98820643
  -Hartree energ DENC   =       -14.99985021
  -exchange      EXHF   =         0.00000000
  -V(xc)+E(xc)   XCENC  =       -17.99573354
  PAW double counting   =       875.07254529     -840.10475528
  entropy T*S    EENTRO =        -0.00000000
  eigenvalues    EBANDS =         5.70059645
  atomic energy  EATOM  =       206.13125414
  Solvation  Ediel_sol  =         0.00000000
  ---------------------------------------------------
  free energy    TOTEN  =       -10.84534217 eV

  energy without entropy =      -10.84534217  energy(sigma->0) =      -10.84534217


--------------------------------------------------------------------------------------------------------




--------------------------------------- Iteration      1(  10)  ---------------------------------------


    POTLOK:  cpu time    0.0310: real time    0.0426
    SETDIJ:  cpu time    0.1740: real time    0.1735
     EDDAV:  cpu time    0.4929: real time    0.4946
       DOS:  cpu time    0.0020: real time    0.0011
    CHARGE:  cpu time    0.0470: real time    0.0473
    MIXING:  cpu time    0.0010: real time    0.0015
    --------------------------------------------
      LOOP:  cpu time    0.7479: real time    0.7606

 eigenvalue-minimisations  :   992
 total energy-change (2. order) :-0.2600355E-04  (-0.3140362E-05)
 number of electron       8.0000000 magnetization 
 augmentation part       -0.4586511 magnetization 

 Broyden mixing:
  rms(total) = 0.10362E-02    rms(broyden)= 0.10362E-02
  rms(prec ) = 0.11116E-02
  weight for this iteration     100.00

 eigenvalues of (default mixing * dielectric matrix)
  average eigenvalue GAMMA=   1.9078
  2.8972  2.4378  2.0708  1.0667  1.0667

 Free energy of the ion-electron system (eV)
  ---------------------------------------------------
  alpha Z        PSCENC =         3.33880741
  Ewald energy   TEWEN  =      -227.98820643
  -Hartree energ DENC   =       -15.00728555
  -exchange      EXHF   =         0.00000000
  -V(xc)+E(xc)   XCENC  =       -17.99548156
  PAW double counting   =       863.27445014     -828.30648560
  entropy T*S    EENTRO =        -0.00000000
  eigenvalues    EBANDS =         5.70757927
  atomic energy  EATOM  =       206.13125414
  Solvation  Ediel_sol  =         0.00000000
  ---------------------------------------------------
  free energy    TOTEN  =       -10.84536818 eV

  energy without entropy =      -10.84536818  energy(sigma->0) =      -10.84536818


--------------------------------------------------------------------------------------------------------




--------------------------------------- Iteration      1(  11)  ---------------------------------------


    POTLOK:  cpu time    0.0310: real time    0.0401
    SETDIJ:  cpu time    0.1740: real time    0.1732
     EDDAV:  cpu time    0.6099: real time    0.6117
       DOS:  cpu time    0.0010: real time    0.0011
    --------------------------------------------
      LOOP:  cpu time    0.8169: real time    0.8260

 eigenvalue-minimisations  :  1264
 total energy-change (2. order) : 0.3859680E-06  (-0.5324954E-07)
 number of electron       8.0000000 magnetization 
 augmentation part       -0.4586511 magnetization 

 Free energy of the ion-electron system (eV)
  ---------------------------------------------------
  alpha Z        PSCENC =         3.33880741
  Ewald energy   TEWEN  =      -227.98820643
  -Hartree energ DENC   =       -15.00595373
  -exchange      EXHF   =         0.00000000
  -V(xc)+E(xc)   XCENC  =       -17.99551558
  PAW double counting   =       864.82114753     -829.85274176
  entropy T*S    EENTRO =        -0.00000000
  eigenvalues    EBANDS =         5.70584062
  atomic energy  EATOM  =       206.13125414
  Solvation  Ediel_sol  =         0.00000000
  ---------------------------------------------------
  free energy    TOTEN  =       -10.84536779 eV

  energy without entropy =      -10.84536779  energy(sigma->0) =      -10.84536779


--------------------------------------------------------------------------------------------------------




 average (electrostatic) potential at core
  the test charge radii are     0.9892
  (the norm of the test charge is              1.0000)
       1 -83.3295       2 -83.3295
 
 
 
 E-fermi :   5.9821     XC(G=0):  -9.3815     alpha+bet :-11.8943

 Fermi energy:         5.9821346448

 k-point     1 :       0.0000    0.0000    0.0000
  band No.  band energies     occupation 
      1      -6.1549      2.00000
      2       5.7541      2.00000
      3       5.7541      2.00000
      4       5.7541      2.00000
      5       8.3175      0.00000
      6       8.3175      0.00000
      7       8.3175      0.00000
      8       9.0442      0.00000

 k-point     2 :       0.0909    0.0000    0.0000
  band No.  band energies     occupation 
      1      -6.0473      2.00000
      2       4.7689      2.00000
      3       5.5878      2.00000
      4       5.5878      2.00000
      5       8.3356      0.00000
      6       8.5632      0.00000
      7       8.5632      0.00000
      8       9.8359      0.00000

 k-point     3 :       0.1818    0.0000    0.0000
  band No.  band energies     occupation 
      1      -5.7287      2.00000
      2       3.0962      2.00000
      3       5.2488      2.00000
      4       5.2488      2.00000
      5       8.0261      0.00000
      6       9.0348      0.00000
      7       9.0348      0.00000
      8      11.4230      0.00000

 k-point     4 :       0.2727    0.0000    0.0000
  band No.  band energies     occupation 
      1      -5.2155      2.00000
      2       1.4429      2.00000
      3       4.9264      2.00000
      4       4.9264      2.00000
      5       7.6808      0.00000
      6       9.2837      0.00000
      7       9.2838      0.00000
      8      12.9806      0.00000

 k-point     5 :       0.3636    0.0000    0.0000
  band No.  band energies     occupation 
      1      -4.5590      2.00000
      2      -0.0067      2.00000
      3       4.6956      2.00000
      4       4.6956      2.00000
      5       7.4216      0.00000
      6       9.2245      0.00000
      7       9.2245      0.00000
      8      13.6336      0.00000

 k-point     6 :       0.4545    0.0000    0.0000
  band No.  band energies     occupation 
      1      -3.9526      2.00000
      2      -1.0170      2.00000
      3       4.5779      2.00000
      4       4.5779      2.00000
      5       7.2868      0.00000
      6       9.1169      0.00000
      7       9.1169      0.00000
      8      13.5005      0.00000

 k-point     7 :       0.0909    0.0909    0.0000
  band No.  band energies     occupation 
      1      -6.0112      2.00000
      2       4.9469      2.00000
      3       5.2636      2.00000
      4       5.2636      2.00000
      5       7.9994      0.00000
      6       8.9852      0.00000
      7       8.9852      0.00000
      8       9.7783      0.00000

 k-point     8 :       0.1818    0.0909    0.0000
  band No.  band energies     occupation 
      1      -5.7622      2.00000
      2       3.5922      2.00000
      3       4.8684      2.00000
      4       5.0501      2.00000
      5       8.0349      0.00000
      6       9.0421      0.00000
      7       9.5759      0.00000
      8      10.6976      0.00000

 k-point     9 :       0.2727    0.0909    0.0000
  band No.  band energies     occupation 
      1      -5.3113      2.00000
      2       1.9766      2.00000
      3       4.5505      2.00000
      4       4.6786      2.00000
      5       8.1582      0.00000
      6       9.0355      0.00000
      7       9.9264      0.00000
      8      11.1041      0.00000

 k-point    10 :       0.3636    0.0909    0.0000
  band No.  band energies     occupation 
      1      -4.6929      2.00000
      2       0.4744      2.00000
      3       4.2980      2.00000
      4       4.3643      2.00000
      5       8.0055      0.00000
      6       9.0702      0.00000
      7       9.8580      0.00000
      8      11.8751      0.00000

 k-point    11 :       0.4545    0.0909    0.0000
  band No.  band energies     occupation 
      1      -4.0272      2.00000
      2      -0.7131      2.00000
      3       4.0009      2.00000
      4       4.3239      2.00000
      5       7.8659      0.00000
      6       9.0281      0.00000
      7       9.6209      0.00000
      8      13.1172      0.00000

 k-point    12 :      -0.4545    0.0909    0.0000
  band No.  band energies     occupation 
      1      -3.7592      2.00000
      2      -1.1123      2.00000
      3       3.8237      2.00000
      4       4.4251      2.00000
      5       7.8404      0.00000
      6       9.0830      0.00000
      7       9.4357      0.00000
      8      13.8208      0.00000

 k-point    13 :      -0.3636    0.0909    0.0000
  band No.  band energies     occupation 
      1      -4.2394      2.00000
      2      -0.3673      2.00000
      3       3.7878      2.00000
      4       4.6515      2.00000
      5       7.9417      0.00000
      6       9.2733      0.00000
      7       9.3583      0.00000
      8      13.5117      0.00000

 k-point    14 :      -0.2727    0.0909    0.0000
  band No.  band energies     occupation 
      1      -4.9150      2.00000
      2       0.9552      2.00000
      3       3.9087      2.00000
      4       4.9745      2.00000
      5       8.1586      0.00000
      6       9.2930      0.00000
      7       9.4871      0.00000
      8      12.4581      0.00000

 k-point    15 :      -0.1818    0.0909    0.0000
  band No.  band energies     occupation 
      1      -5.4838      2.00000
      2       2.5000      2.00000
      3       4.2047      2.00000
      4       5.3376      2.00000
      5       8.4555      0.00000
      6       9.0134      0.00000
      7       9.3673      0.00000
      8      11.5783      0.00000

 k-point    16 :      -0.0909    0.0909    0.0000
  band No.  band energies     occupation 
      1      -5.8691      2.00000
      2       3.9662      2.00000
      3       4.7675      2.00000
      4       5.6116      2.00000
      5       8.6130      0.00000
      6       8.6906      0.00000
      7       8.7807      0.00000
      8      10.7083      0.00000

 k-point    17 :       0.1818    0.1818    0.0000
  band No.  band energies     occupation 
      1      -5.5829      2.00000
      2       3.4483      2.00000
      3       4.4363      2.00000
      4       4.4363      2.00000
      5       7.3535      0.00000
      6       9.8721      0.00000
      7      10.3321      0.00000
      8      10.3321      0.00000

 k-point    18 :       0.2727    0.1818    0.0000
  band No.  band energies     occupation 
      1      -5.1978      2.00000
      2       2.2922      2.00000
      3       4.0201      2.00000
      4       4.0944      2.00000
      5       7.4058      0.00000
      6       9.4546      0.00000
      7      10.6169      0.00000
      8      10.9143      0.00000

 k-point    19 :       0.3636    0.1818    0.0000
  band No.  band energies     occupation 
      1      -4.6298      2.00000
      2       0.9242      2.00000
      3       3.4900      2.00000
      4       3.8984      2.00000
      5       7.6409      0.00000
      6       9.8150      0.00000
      7      10.4162      0.00000
      8      10.9917      0.00000

 k-point    20 :       0.4545    0.1818    0.0000
  band No.  band energies     occupation 
      1      -3.9533      2.00000
      2      -0.3088      2.00000
      3       3.0149      2.00000
      4       3.8662      2.00000
      5       7.6799      0.00000
      6      10.1925      0.00000
      7      10.7365      0.00000
      8      11.0249      0.00000

 k-point    21 :      -0.4545    0.1818    0.0000
  band No.  band energies     occupation 
      1      -3.4736      2.00000
      2      -1.0152      2.00000
      3       2.6804      2.00000
      4       3.9967      2.00000
      5       7.7795      0.00000
      6      10.0633      0.00000
      7      10.4456      0.00000
      8      12.6499      0.00000

 k-point    22 :      -0.3636    0.1818    0.0000
  band No.  band energies     occupation 
      1      -3.7571      2.00000
      2      -0.6058      2.00000
      3       2.5277      2.00000
      4       4.2737      2.00000
      5       8.0320      0.00000
      6      10.0524      0.00000
      7      10.2230      0.00000
      8      13.4807      0.00000

 k-point    23 :      -0.2727    0.1818    0.0000
  band No.  band energies     occupation 
      1      -4.4251      2.00000
      2       0.5064      2.00000
      3       2.6090      2.00000
      4       4.6595      2.00000
      5       8.4000      0.00000
      6       9.9825      0.00000
      7      10.1017      0.00000
      8      12.0917      0.00000

 k-point    24 :      -0.1818    0.1818    0.0000
  band No.  band energies     occupation 
      1      -5.0384      2.00000
      2       1.6940      2.00000
      3       3.0903      2.00000
      4       5.0718      2.00000
      5       8.7305      0.00000
      6       9.4955      0.00000
      7       9.7923      0.00000
      8      11.4143      0.00000

 k-point    25 :       0.2727    0.2727    0.0000
  band No.  band energies     occupation 
      1      -4.8783      2.00000
      2       1.8316      2.00000
      3       3.7180      2.00000
      4       3.7180      2.00000
      5       6.7637      0.00000
      6       8.5570      0.00000
      7      11.8925      0.00000
      8      11.8925      0.00000

 k-point    26 :       0.3636    0.2727    0.0000
  band No.  band energies     occupation 
      1      -4.3674      2.00000
      2       0.8797      2.00000
      3       3.1831      2.00000
      4       3.4874      2.00000
      5       6.8956      0.00000
      6       8.2681      0.00000
      7      12.1821      0.00000
      8      12.3557      0.00000

 k-point    27 :       0.4545    0.2727    0.0000
  band No.  band energies     occupation 
      1      -3.7112      2.00000
      2      -0.1461      2.00000
      3       2.4594      2.00000
      4       3.4262      2.00000
      5       7.0936      0.00000
      6       9.0205      0.00000
      7      12.0239      0.00000
      8      12.2169      0.00000

 k-point    28 :      -0.4545    0.2727    0.0000
  band No.  band energies     occupation 
      1      -3.1002      2.00000
      2      -0.9449      2.00000
      3       1.8889      2.00000
      4       3.5383      2.00000
      5       7.2276      0.00000
      6      10.4943      0.00000
      7      11.8591      0.00000
      8      11.8895      0.00000

 k-point    29 :      -0.3636    0.2727    0.0000
  band No.  band energies     occupation 
      1      -3.1560      2.00000
      2      -0.8658      2.00000
      3       1.6050      2.00000
      4       3.8118      2.00000
      5       7.5169      0.00000
      6      11.5412      0.00000
      7      11.5609      0.00000
      8      12.4703      0.00000

 k-point    30 :      -0.2727    0.2727    0.0000
  band No.  band energies     occupation 
      1      -3.7875      2.00000
      2      -0.1092      2.00000
      3       1.7651      2.00000
      4       4.2124      2.00000
      5       7.9614      0.00000
      6      10.9475      0.00000
      7      11.2879      0.00000
      8      12.1557      0.00000

 k-point    31 :       0.3636    0.3636    0.0000
  band No.  band energies     occupation 
      1      -3.9131      2.00000
      2       0.2197      2.00000
      3       3.2136      2.00000
      4       3.2136      2.00000
      5       6.4069      0.00000
      6       7.4227      0.00000
      7      13.5507      0.00000
      8      13.5507      0.00000

 k-point    32 :       0.4545    0.3636    0.0000
  band No.  band energies     occupation 
      1      -3.2942      2.00000
      2      -0.5918      2.00000
      3       2.6814      2.00000
      4       3.1089      2.00000
      5       6.6143      0.00000
      6       7.4381      0.00000
      7      13.8763      0.00000
      8      13.8822      0.00000

 k-point    33 :      -0.4545    0.3636    0.0000
  band No.  band energies     occupation 
      1      -2.6232      2.00000
      2      -1.3060      2.00000
      3       1.9065      2.00000
      4       3.1818      2.00000
      5       6.7831      0.00000
      6       8.6207      0.00000
      7      13.5921      0.00000
      8      13.7506      0.00000

 k-point    34 :      -0.3636    0.3636    0.0000
  band No.  band energies     occupation 
      1      -2.5592      2.00000
      2      -1.3380      2.00000
      3       1.4235      2.00000
      4       3.4250      2.00000
      5       7.0604      0.00000
      6      10.3382      0.00000
      7      12.9203      0.00000
      8      13.4536      0.00000

 k-point    35 :       0.4545    0.4545    0.0000
  band No.  band energies     occupation 
      1      -2.7131      2.00000
      2      -1.3172      2.00000
      3       2.9559      2.00000
      4       2.9559      2.00000
      5       6.3656      0.00000
      6       6.6918      0.00000
      7      15.2443      0.00000
      8      15.2443      0.00000

 k-point    36 :      -0.4545    0.4545    0.0000
  band No.  band energies     occupation 
      1      -2.0704      2.00000
      2      -1.9587      2.00000
      3       2.5163      2.00000
      4       2.9809      2.00000
      5       6.5464      0.00000
      6       7.1292      0.00000
      7      15.1755      0.00000
      8      15.4263      0.00000

 k-point    37 :       0.2727    0.1818    0.0909
  band No.  band energies     occupation 
      1      -5.4456      2.00000
      2       2.7348      2.00000
      3       3.9317      2.00000
      4       4.9365      2.00000
      5       8.0926      0.00000
      6       9.3660      0.00000
      7      10.1254      0.00000
      8      10.5286      0.00000

 k-point    38 :       0.3636    0.1818    0.0909
  band No.  band energies     occupation 
      1      -4.9353      2.00000
      2       1.4193      2.00000
      3       3.3715      2.00000
      4       4.6187      2.00000
      5       8.4043      0.00000
      6       9.3136      0.00000
      7      10.4470      0.00000
      8      10.6469      0.00000

 k-point    39 :       0.4545    0.1818    0.0909
  band No.  band energies     occupation 
      1      -4.2804      2.00000
      2       0.0812      2.00000
      3       3.1155      2.00000
      4       4.2763      2.00000
      5       8.4396      0.00000
      6       9.1048      0.00000
      7      10.5479      0.00000
      8      11.4866      0.00000

 k-point    40 :      -0.4545    0.1818    0.0909
  band No.  band energies     occupation 
      1      -3.6693      2.00000
      2      -0.8957      2.00000
      3       3.0164      2.00000
      4       4.0666      2.00000
      5       8.4177      0.00000
      6       8.8981      0.00000
      7      10.4802      0.00000
      8      12.9525      0.00000

 k-point    41 :       0.3636    0.2727    0.0909
  band No.  band energies     occupation 
      1      -4.7509      2.00000
      2       1.4490      2.00000
      3       3.2192      2.00000
      4       3.9338      2.00000
      5       7.5315      0.00000
      6       9.0576      0.00000
      7      10.7319      0.00000
      8      11.7747      0.00000

 k-point    42 :       0.4545    0.2727    0.0909
  band No.  band energies     occupation 
      1      -4.1363      2.00000
      2       0.3724      2.00000
      3       2.6465      2.00000
      4       3.6216      2.00000
      5       7.8909      0.00000
      6       9.4688      0.00000
      7      10.4187      0.00000
      8      12.1632      0.00000

 k-point    43 :      -0.4545    0.2727    0.0909
  band No.  band energies     occupation 
      1      -3.4667      2.00000
      2      -0.6331      2.00000
      3       2.2628      2.00000
      4       3.4669      2.00000
      5       8.0234      0.00000
      6      10.0180      0.00000
      7      10.8399      0.00000
      8      12.1187      0.00000

 k-point    44 :      -0.3636    0.2727    0.0909
  band No.  band energies     occupation 
      1      -3.2015      2.00000
      2      -0.9808      2.00000
      3       2.0337      2.00000
      4       3.5562      2.00000
      5       8.2363      0.00000
      6       9.7554      0.00000
      7      12.0045      0.00000
      8      12.5153      0.00000

 k-point    45 :      -0.2727    0.2727    0.0909
  band No.  band energies     occupation 
      1      -3.7052      2.00000
      2      -0.2944      2.00000
      3       2.0231      2.00000
      4       3.8504      2.00000
      5       8.5982      0.00000
      6       9.5654      0.00000
      7      11.2972      0.00000
      8      11.9292      0.00000

 k-point    46 :      -0.1818    0.2727    0.0909
  band No.  band energies     occupation 
      1      -4.3774      2.00000
      2       0.6838      2.00000
      3       2.3991      2.00000
      4       4.2633      2.00000
      5       9.0380      0.00000
      6       9.1505      0.00000
      7      10.4057      0.00000
      8      11.4800      0.00000

 k-point    47 :       0.4545    0.3636    0.0909
  band No.  band energies     occupation 
      1      -3.8044      2.00000
      2       0.0832      2.00000
      3       2.7458      2.00000
      4       3.1356      2.00000
      5       7.1743      0.00000
      6       8.0239      0.00000
      7      12.1087      0.00000
      8      13.5160      0.00000

 k-point    48 :      -0.4545    0.3636    0.0909
  band No.  band energies     occupation 
      1      -3.1270      2.00000
      2      -0.7364      2.00000
      3       2.1056      2.00000
      4       2.9583      2.00000
      5       7.5179      0.00000
      6       8.8384      0.00000
      7      11.7569      0.00000
      8      13.8815      0.00000

 k-point    49 :      -0.3636    0.3636    0.0909
  band No.  band energies     occupation 
      1      -2.6600      2.00000
      2      -1.2334      2.00000
      3       1.5863      2.00000
      4       3.0741      2.00000
      5       7.7319      0.00000
      6      10.4034      0.00000
      7      11.4581      0.00000
      8      13.0564      0.00000

 k-point    50 :      -0.2727    0.3636    0.0909
  band No.  band energies     occupation 
      1      -3.0448      2.00000
      2      -0.8343      2.00000
      3       1.4824      2.00000
      4       3.3960      2.00000
      5       8.1031      0.00000
      6      10.8234      0.00000
      7      11.5608      0.00000
      8      12.4484      0.00000

 k-point    51 :      -0.4545    0.4545    0.0909
  band No.  band energies     occupation 
      1      -2.6400      2.00000
      2      -1.3146      2.00000
      3       2.5552      2.00000
      4       2.6762      2.00000
      5       7.1042      0.00000
      6       7.3738      0.00000
      7      13.6384      0.00000
      8      15.0670      0.00000

 k-point    52 :      -0.3636    0.4545    0.0909
  band No.  band energies     occupation 
      1      -2.1372      2.00000
      2      -1.7598      2.00000
      3       1.8976      2.00000
      4       2.7484      2.00000
      5       7.3848      0.00000
      6       8.6321      0.00000
      7      13.1844      0.00000
      8      13.4153      0.00000

 k-point    53 :      -0.4545    0.3636    0.1818
  band No.  band energies     occupation 
      1      -3.4954      2.00000
      2      -0.3095      2.00000
      3       1.9919      2.00000
      4       3.1586      2.00000
      5       8.8291      0.00000
      6       9.4664      0.00000
      7      10.0499      0.00000
      8      13.4118      0.00000

 k-point    54 :      -0.3636    0.3636    0.1818
  band No.  band energies     occupation 
      1      -2.8636      2.00000
      2      -1.0078      2.00000
      3       1.7126      2.00000
      4       2.8398      2.00000
      5       9.1965      0.00000
      6       9.5608      0.00000
      7      10.8298      0.00000
      8      12.6948      0.00000

 k-point    55 :      -0.3636    0.4545    0.1818
  band No.  band energies     occupation 
      1      -2.4549      2.00000
      2      -1.3581      2.00000
      3       1.9424      2.00000
      4       2.3231      2.00000
      5       8.7458      0.00000
      6       8.9523      0.00000
      7      11.3477      0.00000
      8      12.9339      0.00000

 k-point    56 :      -0.2727    0.4545    0.1818
  band No.  band energies     occupation 
      1      -2.2560      2.00000
      2      -1.5222      2.00000
      3       1.6638      2.00000
      4       2.3595      2.00000
      5       9.0933      0.00000
      6      10.3684      0.00000
      7      11.1223      0.00000
      8      11.1272      0.00000


--------------------------------------------------------------------------------------------------------


 soft charge-density along one line, spin component           1
         0         1         2         3         4         5         6         7         8         9
 total charge-density along one line
 
 pseudopotential strength for first ion, spin component:           1
 18.422  25.702   0.000   0.000   0.000   0.000   0.000   0.000
 25.702  35.863   0.000   0.000   0.000   0.000   0.000   0.000
  0.000   0.000   4.179  -0.000  -0.000   7.788  -0.000  -0.000
  0.000   0.000  -0.000   4.179  -0.000  -0.000   7.788  -0.000
  0.000   0.000  -0.000  -0.000   4.179  -0.000  -0.000   7.788
  0.000   0.000   7.788  -0.000  -0.000  14.523  -0.000  -0.000
  0.000   0.000  -0.000   7.788  -0.000  -0.000  14.523  -0.000
  0.000   0.000  -0.000  -0.000   7.788  -0.000  -0.000  14.523
 total augmentation occupancy for first ion, spin component:           1
  5.643  -2.126  -0.000   0.000   0.000   0.000   0.000   0.000
 -2.126   0.916  -0.000   0.000   0.000  -0.000  -0.000   0.000
  0.000  -0.000   2.988   0.000   0.000  -0.677  -0.000  -0.000
  0.000   0.000   0.000   2.988   0.000  -0.000  -0.677  -0.000
  0.000   0.000   0.000   0.000   2.988  -0.000  -0.000  -0.677
  0.000  -0.000  -0.677  -0.000  -0.000   0.162   0.000   0.000
  0.000  -0.000  -0.000  -0.677  -0.000   0.000   0.162   0.000
  0.000  -0.000  -0.000  -0.000  -0.677   0.000   0.000   0.162


------------------------ aborting loop because EDIFF is reached ----------------------------------------


    CHARGE:  cpu time    0.0520: real time    0.0534
    FORLOC:  cpu time    0.0010: real time    0.0018
    FORNL :  cpu time    0.1110: real time    0.1108
    STRESS:  cpu time    0.6169: real time    0.6175
    FORCOR:  cpu time    0.0310: real time    0.0310
    FORHAR:  cpu time    0.0060: real time    0.0061
    MIXING:  cpu time    0.0010: real time    0.0012
    OFIELD:  cpu time    0.0000: real time    0.0002

  FORCE on cell =-STRESS in cart. coord.  units (eV):
  Direction    XX          YY          ZZ          XY          YZ          ZX
  --------------------------------------------------------------------------------------
  Alpha Z     3.33881     3.33881     3.33881
  Ewald     -75.99608   -75.99616   -75.99607     0.00001     0.00000    -0.00000
  Hartree     5.00254     5.00253     5.00254     0.00000     0.00000     0.00000
  E(xc)     -25.32729   -25.32729   -25.32729    -0.00000    -0.00000    -0.00000
  Local     -29.34169   -29.34168   -29.34168    -0.00000     0.00001     0.00001
  n-local    74.07241    77.48171    81.61933    -0.90306    -0.87483    -0.03214
  augment   -11.65150   -11.65150   -11.65151    -0.00000    -0.00001    -0.00001
  Kinetic    53.42054    55.29978    60.94795     0.92411     1.26081    -0.55943
  Fock        0.00000     0.00000     0.00000     0.00000     0.00000     0.00000
  -------------------------------------------------------------------------------------
  Total       0.30534     0.30534     0.30534     0.00000    -0.00000     0.00000
  in kB      12.13014    12.13015    12.13014     0.00000    -0.00000     0.00000
  external pressure =       12.13 kB  Pullay stress =        0.00 kB


 VOLUME and BASIS-vectors are now :
 -----------------------------------------------------------------------------
  energy-cutoff  :      350.00
  volume of cell :       40.33
      direct lattice vectors                 reciprocal lattice vectors
     3.333573000  0.000000000  1.924639000     0.299978432 -0.106058350  0.000000000
     1.111191000  3.142924000  1.924639000     0.000000000  0.318175050  0.000000000
     0.000000000  0.000000000  3.849278000    -0.149989216 -0.106058350  0.259788979

  length of vectors
     3.849278403  3.849279412  3.849278000     0.318175161  0.318175050  0.318175190


 FORCES acting on ions
    electron-ion (+dipol)            ewald-force                    non-local-force                 convergence-correction
 -----------------------------------------------------------------------------------------------
   0.522E-05 0.243E-04 0.433E-07   -.892E-05 -.418E-04 0.782E-16   0.260E-16 -.173E-15 -.125E-15   0.648E-07 0.477E-07 0.112E-06
   -.522E-05 -.243E-04 -.433E-07   0.892E-05 0.418E-04 -.194E-15   -.538E-16 0.187E-15 0.146E-15   -.648E-07 -.477E-07 -.112E-06
 -----------------------------------------------------------------------------------------------
   0.557E-13 -.489E-13 0.133E-12   -.365E-15 -.270E-16 -.116E-15   -.278E-16 0.139E-16 0.208E-16   0.284E-15 -.251E-15 -.308E-15
 
 
 POSITION                                       TOTAL-FORCE (eV/Angst)
 -----------------------------------------------------------------------------------
      3.88917      2.75006      6.73624        -0.000000      0.000000     -0.000000
      0.55560      0.39287      0.96232         0.000000     -0.000000      0.000000
 -----------------------------------------------------------------------------------
    total drift:                                0.000000     -0.000000      0.000000


--------------------------------------------------------------------------------------------------------



  FREE ENERGIE OF THE ION-ELECTRON SYSTEM (eV)
  ---------------------------------------------------
  free  energy   TOTEN  =       -10.84536779 eV

  energy  without entropy=      -10.84536779  energy(sigma->0) =      -10.84536779
 


--------------------------------------------------------------------------------------------------------


    POTLOK:  cpu time    0.2060: real time    0.2140


--------------------------------------------------------------------------------------------------------




--------------------------------------------------------------------------------------------------------


    WAVPRE:  cpu time    0.0080: real time    0.0225
    FEWALD:  cpu time    0.0000: real time    0.0003
    GENKIN:  cpu time    0.0300: real time    0.0299
    ORTHCH:  cpu time    0.0150: real time    0.0140
     LOOP+:  cpu time    9.3336: real time    9.5735


--------------------------------------- Iteration      2(   1)  ---------------------------------------


    POTLOK:  cpu time    0.0330: real time    0.0360
    SETDIJ:  cpu time    0.1740: real time    0.1745
     EDDAV:  cpu time    0.5279: real time    0.5285
       DOS:  cpu time    0.0010: real time    0.0011
[...]
      8      12.4778      0.00000

 k-point    22 :      -0.3636    0.1818    0.0000
  band No.  band energies     occupation 
      1      -3.8296      2.00000
      2      -0.6925      2.00000
      3       2.4325      2.00000
      4       4.1600      2.00000
      5       7.8928      0.00000
      6       9.8907      0.00000
      7      10.0811      0.00000
      8      13.2856      0.00000

 k-point    23 :      -0.2727    0.1818    0.0000
  band No.  band energies     occupation 
      1      -4.4875      2.00000
      2       0.4034      2.00000
      3       2.5167      2.00000
      4       4.5406      2.00000
      5       8.2489      0.00000
      6       9.8355      0.00000
      7       9.9451      0.00000
      8      11.9016      0.00000

 k-point    24 :      -0.1818    0.1818    0.0000
  band No.  band energies     occupation 
      1      -5.0930      2.00000
      2       1.5767      2.00000
      3       2.9962      2.00000
      4       4.9475      2.00000
      5       8.5644      0.00000
      6       9.3485      0.00000
      7       9.6381      0.00000
      8      11.2314      0.00000

 k-point    25 :       0.2727    0.2727    0.0000
  band No.  band energies     occupation 
      1      -4.9342      2.00000
      2       1.7019      2.00000
      3       3.6136      2.00000
      4       3.6136      2.00000
      5       6.6476      0.00000
      6       8.4340      0.00000
      7      11.7157      0.00000
      8      11.7157      0.00000

 k-point    26 :       0.3636    0.2727    0.0000
  band No.  band energies     occupation 
      1      -4.4293      2.00000
      2       0.7603      2.00000
      3       3.0858      2.00000
      4       3.3852      2.00000
      5       6.7791      0.00000
      6       8.1484      0.00000
      7      11.9939      0.00000
      8      12.1802      0.00000

 k-point    27 :       0.4545    0.2727    0.0000
  band No.  band energies     occupation 
      1      -3.7817      2.00000
      2      -0.2523      2.00000
      3       2.3715      2.00000
      4       3.3243      2.00000
      5       6.9788      0.00000
      6       8.8890      0.00000
      7      11.8304      0.00000
      8      12.0516      0.00000

 k-point    28 :      -0.4545    0.2727    0.0000
  band No.  band energies     occupation 
      1      -3.1808      2.00000
      2      -1.0381      2.00000
      3       1.8081      2.00000
      4       3.4347      2.00000
      5       7.1113      0.00000
      6      10.3521      0.00000
      7      11.6618      0.00000
      8      11.7303      0.00000

 k-point    29 :      -0.3636    0.2727    0.0000
  band No.  band energies     occupation 
      1      -3.2366      2.00000
      2      -0.9597      2.00000
      3       1.5291      2.00000
      4       3.7045      2.00000
      5       7.3950      0.00000
      6      11.3812      0.00000
      7      11.3989      0.00000
      8      12.2836      0.00000

 k-point    30 :      -0.2727    0.2727    0.0000
  band No.  band energies     occupation 
      1      -3.8584      2.00000
      2      -0.2133      2.00000
      3       1.6887      2.00000
      4       4.0998      2.00000
      5       7.8295      0.00000
      6      10.7861      0.00000
      7      11.1270      0.00000
      8      11.9512      0.00000

 k-point    31 :       0.3636    0.3636    0.0000
  band No.  band energies     occupation 
      1      -3.9801      2.00000
      2       0.1056      2.00000
      3       3.1144      2.00000
      4       3.1144      2.00000
      5       6.2972      0.00000
      6       7.3136      0.00000
      7      13.3576      0.00000
      8      13.3576      0.00000

 k-point    32 :       0.4545    0.3636    0.0000
  band No.  band energies     occupation 
      1      -3.3687      2.00000
      2      -0.6974      2.00000
      3       2.5914      2.00000
      4       3.0107      2.00000
      5       6.5048      0.00000
      6       7.3244      0.00000
      7      13.6777      0.00000
      8      13.6875      0.00000

 k-point    33 :      -0.4545    0.3636    0.0000
  band No.  band energies     occupation 
      1      -2.7075      2.00000
      2      -1.4032      2.00000
      3       1.8299      2.00000
      4       3.0824      2.00000
      5       6.6739      0.00000
      6       8.4911      0.00000
      7      13.4093      0.00000
      8      13.5430      0.00000

 k-point    34 :      -0.3636    0.3636    0.0000
  band No.  band energies     occupation 
      1      -2.6474      2.00000
      2      -1.4324      2.00000
      3       1.3548      2.00000
      4       3.3227      2.00000
      5       6.9469      0.00000
      6      10.1946      0.00000
      7      12.7369      0.00000
      8      13.2635      0.00000

 k-point    35 :       0.4545    0.4545    0.0000
  band No.  band energies     occupation 
      1      -2.7940      2.00000
      2      -1.4143      2.00000
      3       2.8593      2.00000
      4       2.8593      2.00000
      5       6.2600      0.00000
      6       6.5869      0.00000
      7      15.0273      0.00000
      8      15.0273      0.00000

 k-point    36 :      -0.4545    0.4545    0.0000
  band No.  band energies     occupation 
      1      -2.1600      2.00000
      2      -2.0481      2.00000
      3       2.4285      2.00000
      4       2.8840      2.00000
      5       6.4408      0.00000
      6       7.0154      0.00000
      7      14.9547      0.00000
      8      15.1856      0.00000

 k-point    37 :       0.2727    0.1818    0.0909
  band No.  band energies     occupation 
      1      -5.4952      2.00000
      2       2.6081      2.00000
      3       3.8269      2.00000
      4       4.8131      2.00000
      5       7.9592      0.00000
      6       9.1817      0.00000
      7       9.9675      0.00000
      8      10.3859      0.00000

 k-point    38 :       0.3636    0.1818    0.0909
  band No.  band energies     occupation 
      1      -4.9910      2.00000
      2       1.3074      2.00000
      3       3.2697      2.00000
      4       4.4999      2.00000
      5       8.2631      0.00000
      6       9.1444      0.00000
      7      10.2955      0.00000
      8      10.5025      0.00000

 k-point    39 :       0.4545    0.1818    0.0909
  band No.  band energies     occupation 
      1      -4.3449      2.00000
      2      -0.0133      2.00000
      3       3.0124      2.00000
      4       4.1628      2.00000
      5       8.2869      0.00000
      6       8.9646      0.00000
      7      10.3907      0.00000
      8      11.3341      0.00000

 k-point    40 :      -0.4545    0.1818    0.0909
  band No.  band energies     occupation 
      1      -3.7441      2.00000
      2      -0.9755      2.00000
      3       2.9120      2.00000
      4       3.9567      2.00000
      5       8.2556      0.00000
      6       8.7746      0.00000
      7      10.3269      0.00000
      8      12.7820      0.00000

 k-point    41 :       0.3636    0.2727    0.0909
  band No.  band energies     occupation 
      1      -4.8085      2.00000
      2       1.3268      2.00000
      3       3.1225      2.00000
      4       3.8254      2.00000
      5       7.4057      0.00000
      6       8.9250      0.00000
      7      10.5636      0.00000
      8      11.6001      0.00000

 k-point    42 :       0.4545    0.2727    0.0909
  band No.  band energies     occupation 
      1      -4.2017      2.00000
      2       0.2632      2.00000
      3       2.5547      2.00000
      4       3.5189      2.00000
      5       7.7635      0.00000
      6       9.3342      0.00000
      7      10.2514      0.00000
      8      11.9873      0.00000

 k-point    43 :      -0.4545    0.2727    0.0909
  band No.  band energies     occupation 
      1      -3.5422      2.00000
      2      -0.7269      2.00000
      3       2.1730      2.00000
      4       3.3669      2.00000
      5       7.8956      0.00000
      6       9.8692      0.00000
      7      10.6792      0.00000
      8      11.9435      0.00000

 k-point    44 :      -0.3636    0.2727    0.0909
  band No.  band energies     occupation 
      1      -3.2822      2.00000
      2      -1.0680      2.00000
      3       1.9470      2.00000
      4       3.4546      2.00000
      5       8.1045      0.00000
      6       9.6073      0.00000
      7      11.8309      0.00000
      8      12.3477      0.00000

 k-point    45 :      -0.2727    0.2727    0.0909
  band No.  band energies     occupation 
      1      -3.7773      2.00000
      2      -0.3934      2.00000
      3       1.9395      2.00000
      4       3.7442      2.00000
      5       8.4583      0.00000
      6       9.4206      0.00000
      7      11.1319      0.00000
      8      11.7644      0.00000

 k-point    46 :      -0.1818    0.2727    0.0909
  band No.  band energies     occupation 
      1      -4.4401      2.00000
      2       0.5721      2.00000
      3       2.3136      2.00000
      4       4.1506      2.00000
      5       8.8843      0.00000
      6       9.0075      0.00000
      7      10.2596      0.00000
      8      11.3109      0.00000

 k-point    47 :       0.4545    0.3636    0.0909
  band No.  band energies     occupation 
      1      -3.8732      2.00000
      2      -0.0293      2.00000
      3       2.6546      2.00000
      4       3.0399      2.00000
      5       7.0547      0.00000
      6       7.9061      0.00000
      7      11.9284      0.00000
      8      13.3238      0.00000

 k-point    48 :      -0.4545    0.3636    0.0909
  band No.  band energies     occupation 
      1      -3.2049      2.00000
      2      -0.8399      2.00000
      3       2.0247      2.00000
      4       2.8653      2.00000
      5       7.3980      0.00000
      6       8.7080      0.00000
      7      11.5818      0.00000
      8      13.6829      0.00000

 k-point    49 :      -0.3636    0.3636    0.0909
  band No.  band energies     occupation 
      1      -2.7466      2.00000
      2      -1.3288      2.00000
      3       1.5138      2.00000
      4       2.9791      2.00000
      5       7.6097      0.00000
      6      10.2627      0.00000
      7      11.2835      0.00000
      8      12.8691      0.00000

 k-point    50 :      -0.2727    0.3636    0.0909
  band No.  band energies     occupation 
      1      -3.1260      2.00000
      2      -0.9340      2.00000
      3       1.4115      2.00000
      4       3.2965      2.00000
      5       7.9750      0.00000
      6      10.6710      0.00000
      7      11.3938      0.00000
      8      12.2800      0.00000

 k-point    51 :      -0.4545    0.4545    0.0909
  band No.  band energies     occupation 
      1      -2.7226      2.00000
      2      -1.4127      2.00000
      3       2.4666      2.00000
      4       2.5867      2.00000
      5       6.9885      0.00000
      6       7.2593      0.00000
      7      13.4464      0.00000
      8      14.8394      0.00000

 k-point    52 :      -0.3636    0.4545    0.0909
  band No.  band energies     occupation 
      1      -2.2285      2.00000
      2      -1.8520      2.00000
      3       1.8216      2.00000
      4       2.6577      2.00000
      5       7.2676      0.00000
      6       8.5021      0.00000
      7      12.9983      0.00000
      8      13.2269      0.00000

 k-point    53 :      -0.4545    0.3636    0.1818
  band No.  band energies     occupation 
      1      -3.5692      2.00000
      2      -0.4164      2.00000
      3       1.9124      2.00000
      4       3.0641      2.00000
      5       8.6919      0.00000
      6       9.3417      0.00000
      7       9.8805      0.00000
      8      13.2241      0.00000

 k-point    54 :      -0.3636    0.3636    0.1818
  band No.  band energies     occupation 
      1      -2.9470      2.00000
      2      -1.1059      2.00000
      3       1.6365      2.00000
      4       2.7505      2.00000
      5       9.0657      0.00000
      6       9.4118      0.00000
      7      10.6700      0.00000
      8      12.5171      0.00000

 k-point    55 :      -0.3636    0.4545    0.1818
  band No.  band energies     occupation 
      1      -2.5418      2.00000
      2      -1.4572      2.00000
      3       1.8651      2.00000
      4       2.2417      2.00000
      5       8.6127      0.00000
      6       8.8218      0.00000
      7      11.1775      0.00000
      8      12.7523      0.00000

 k-point    56 :      -0.2727    0.4545    0.1818
  band No.  band energies     occupation 
      1      -2.3469      2.00000
      2      -1.6189      2.00000
      3       1.5920      2.00000
      4       2.2773      2.00000
      5       8.9598      0.00000
      6      10.2354      0.00000
      7      10.9480      0.00000
      8      10.9560      0.00000


--------------------------------------------------------------------------------------------------------


 soft charge-density along one line, spin component           1
         0         1         2         3         4         5         6         7         8         9
 total charge-density along one line
 
 pseudopotential strength for first ion, spin component:           1
 18.437  25.722   0.000  -0.000   0.000   0.000  -0.000   0.000
 25.722  35.892   0.000  -0.000   0.000   0.000  -0.000   0.000
  0.000   0.000   4.181  -0.000  -0.000   7.790  -0.000  -0.000
 -0.000  -0.000  -0.000   4.181  -0.000  -0.000   7.790  -0.000
  0.000   0.000  -0.000  -0.000   4.181  -0.000  -0.000   7.790
  0.000   0.000   7.790  -0.000  -0.000  14.528  -0.000  -0.000
 -0.000  -0.000  -0.000   7.790  -0.000  -0.000  14.528  -0.000
  0.000   0.000  -0.000  -0.000   7.790  -0.000  -0.000  14.528
 total augmentation occupancy for first ion, spin component:           1
  5.531  -2.065  -0.000   0.000   0.000  -0.000  -0.000   0.000
 -2.065   0.887  -0.000   0.000   0.000  -0.000   0.000  -0.000
  0.000   0.000   2.942  -0.000   0.000  -0.663   0.000  -0.000
  0.000  -0.000  -0.000   2.942  -0.000   0.000  -0.663   0.000
  0.000   0.000   0.000  -0.000   2.942  -0.000   0.000  -0.663
 -0.000   0.000  -0.663   0.000  -0.000   0.158  -0.000   0.000
 -0.000   0.000   0.000  -0.663   0.000  -0.000   0.158  -0.000
  0.000  -0.000  -0.000   0.000  -0.663   0.000  -0.000   0.158


------------------------ aborting loop because EDIFF is reached ----------------------------------------


    CHARGE:  cpu time    0.0490: real time    0.0486
    FORLOC:  cpu time    0.0010: real time    0.0018
    FORNL :  cpu time    0.1110: real time    0.1115
    STRESS:  cpu time    0.6159: real time    0.6166
    FORCOR:  cpu time    0.0310: real time    0.0313
    FORHAR:  cpu time    0.0060: real time    0.0060
    MIXING:  cpu time    0.0000: real time    0.0012
    OFIELD:  cpu time    0.0010: real time    0.0002

  FORCE on cell =-STRESS in cart. coord.  units (eV):
  Direction    XX          YY          ZZ          XY          YZ          ZX
  --------------------------------------------------------------------------------------
  Alpha Z     3.29547     3.29547     3.29547
  Ewald     -75.66581   -75.66588   -75.66580     0.00001     0.00000    -0.00000
  Hartree     5.05446     5.05445     5.05446     0.00000     0.00000     0.00000
  E(xc)     -25.25242   -25.25242   -25.25242    -0.00000    -0.00000    -0.00000
  Local     -29.52468   -29.52466   -29.52466    -0.00000     0.00001     0.00001
  n-local    73.86825    77.24053    81.34928    -0.91722    -0.87005    -0.02799
  augment   -11.64788   -11.64788   -11.64789    -0.00000    -0.00001    -0.00001
  Kinetic    53.05889    55.01471    60.69633     0.86011     1.20634    -0.54210
  Fock        0.00000     0.00000     0.00000     0.00000     0.00000     0.00000
  -------------------------------------------------------------------------------------
  Total       0.00179     0.00179     0.00179    -0.00000    -0.00000    -0.00000
  in kB       0.07013     0.07013     0.07013    -0.00000    -0.00000    -0.00000
  external pressure =        0.07 kB  Pullay stress =        0.00 kB


 VOLUME and BASIS-vectors are now :
 -----------------------------------------------------------------------------
  energy-cutoff  :      350.00
  volume of cell :       40.86
      direct lattice vectors                 reciprocal lattice vectors
     3.348123670 -0.000000000  1.933039829     0.298674750 -0.105597429 -0.000000000
     1.116041223  3.156642519  1.933039829    -0.000000000  0.316792286  0.000000000
     0.000000000 -0.000000000  3.866079659    -0.149337375 -0.105597429  0.258659957

  length of vectors
     3.866080068  3.866081089  3.866079659     0.316792398  0.316792286  0.316792427


 FORCES acting on ions
    electron-ion (+dipol)            ewald-force                    non-local-force                 convergence-correction
 -----------------------------------------------------------------------------------------------
   0.525E-05 0.245E-04 0.591E-07   -.892E-05 -.418E-04 -.544E-15   -.573E-16 -.125E-15 0.284E-15   -.431E-07 -.302E-07 -.747E-07
   -.525E-05 -.245E-04 -.591E-07   0.892E-05 0.418E-04 0.439E-15   -.867E-17 0.416E-16 -.402E-15   0.431E-07 0.302E-07 0.747E-07
 -----------------------------------------------------------------------------------------------
   0.423E-13 -.471E-13 0.115E-12   -.103E-15 -.166E-16 -.105E-15   -.659E-16 -.833E-16 -.118E-15   -.126E-14 0.867E-15 -.221E-15
 
 
 POSITION                                       TOTAL-FORCE (eV/Angst)
 -----------------------------------------------------------------------------------
      3.90614      2.76206      6.76564        -0.000000      0.000000     -0.000000
      0.55802      0.39458      0.96652         0.000000     -0.000000      0.000000
 -----------------------------------------------------------------------------------
    total drift:                                0.000000     -0.000000      0.000000


--------------------------------------------------------------------------------------------------------



  FREE ENERGIE OF THE ION-ELECTRON SYSTEM (eV)
  ---------------------------------------------------
  free  energy   TOTEN  =       -10.84734237 eV

  energy  without entropy=      -10.84734237  energy(sigma->0) =      -10.84734237
 
 d Force = 0.0000000E+00[ 0.000E+00, 0.000E+00]  d Energy = 0.8990907E-03-0.899E-03
 d Force = 0.0000000E+00[ 0.000E+00, 0.000E+00]  d Ewald  = 0.6760651E+00-0.676E+00


--------------------------------------------------------------------------------------------------------


    POTLOK:  cpu time    0.2050: real time    0.2113


--------------------------------------------------------------------------------------------------------




--------------------------------------------------------------------------------------------------------


  
 reached required accuracy - stopping structural energy minimisation
     LOOP+:  cpu time    5.6751: real time    5.8224
    4ORBIT:  cpu time    0.0000: real time    0.0000

 total amount of memory used by VASP MPI-rank0    39446. kBytes
=======================================================================

   base      :      30000. kBytes
   nonl-proj :       2212. kBytes
   fftplans  :       4177. kBytes
   grid      :       1926. kBytes
   one-center:          6. kBytes
   wavefun   :       1125. kBytes
 
  
  
 General timing and accounting informations for this job:
 ========================================================
  
                  Total CPU time used (sec):       21.842
                            User time (sec):       21.407
                          System time (sec):        0.435
                         Elapsed time (sec):       22.898
  
                   Maximum memory used (kb):       69796.
                   Average memory used (kb):          N/A
  
                          Minor page faults:        14828
                          Major page faults:            1
                 Voluntary context switches:        14545
