unknown system                          
   1.00000000000000     
     2.832634    0.000000    0.000000
     0.000000    2.832634    0.000000
     0.000000    0.000000    2.832634
   Fe
     2
Direct
  0.000000  0.000000  0.000000
  0.500000  0.500000  0.500000
 
   32   32   32
  192.51      186.57      169.77      144.92      115.85      86.552      60.310      39.258      24.225      14.878    
  10.019      7.9537      6.9433      6.2579      5.8474      5.6407      5.5791      5.6407      5.8474      6.2579    
  6.9433      7.9537      10.019      14.878      24.225      39.258      60.310      86.552      115.85      144.92    
  169.77      186.57      186.57      180.84      164.62      140.60      112.47      84.076      58.616      38.183    
  23.607      14.574      9.9031      7.9221      6.9269      6.2504      5.8456      5.6417      5.5808      5.6417    
  5.8456      6.2504      6.9269      7.9221      9.9031      14.574      23.607      38.183      58.616      84.076    
  112.47      140.60      164.62      180.84      169.77      164.62      150.02      128.33      102.84      77.000    
  53.764      35.107      21.851      13.719      9.5848      7.8328      6.8779      6.2282      5.8404      5.6446    
  5.5860      5.6446      5.8404      6.2282      6.8779      7.8328      9.5848      13.719      21.851      35.107    
  53.764      77.000      102.84      128.33      150.02      164.62      144.92      140.60      128.33      110.02    
  88.384      66.328      46.429      30.473      19.238      12.482      9.1422      7.6948      6.7975      6.1928    
  5.8324      5.6495      5.5945      5.6495      5.8324      6.1928      6.7975      7.6948      9.1422      12.482    
  19.238      30.473      46.429      66.328      88.384      110.02      128.33      140.60      115.85      112.47    
  102.84      88.384      71.186      53.569      37.657      24.983      16.217      11.113      8.6736      7.5056    
  6.6897      6.1465      5.8223      5.6560      5.6055      5.6560      5.8223      6.1465      6.6897      7.5056    
  8.6736      11.113      16.217      24.983      37.657      53.569      71.186      88.384      102.84      112.47    
  86.552      84.076      77.000      66.328      53.569      40.475      28.709      19.487      13.307      9.8716    
  8.2444      7.2715      6.5617      6.0927      5.8103      5.6629      5.6176      5.6629      5.8103      6.0927    
  6.5617      7.2715      8.2444      9.8716      13.307      19.487      28.709      40.475      53.569      66.328    
  77.000      84.076      60.310      58.616      53.764      46.429      37.657      28.709      20.799      14.790    
  10.956      8.9228      7.8295      7.0113      6.4236      6.0346      5.7962      5.6687      5.6287      5.6687    
  5.7962      6.0346      6.4236      7.0113      7.8295      8.9228      10.956      14.790      20.799      28.709    
  37.657      46.429      53.764      58.616      39.258      38.183      35.107      30.473      24.983      19.487    
  14.790      11.402      9.3647      8.2346      7.3973      6.7483      6.2856      5.9752      5.7794      5.6712    
  5.6366      5.6712      5.7794      5.9752      6.2856      6.7483      7.3973      8.2346      9.3647      11.402    
  14.790      19.487      24.983      30.473      35.107      38.183      24.225      23.607      21.851      19.238    
  16.217      13.307      10.956      9.3647      8.3831      7.6212      6.9871      6.5032      6.1556      5.9161    
  5.7590      5.6689      5.6394      5.6689      5.7590      5.9161      6.1556      6.5032      6.9871      7.6212    
  8.3831      9.3647      10.956      13.307      16.217      19.238      21.851      23.607      14.878      14.574    
  13.719      12.482      11.113      9.8716      8.9228      8.2346      7.6212      7.0749      6.6296      6.2889    
  6.0381      5.8581      5.7346      5.6611      5.6366      5.6611      5.7346      5.8581      6.0381      6.2889    
  6.6296      7.0749      7.6212      8.2346      8.9228      9.8716      11.113      12.482      13.719      14.574    
  10.019      9.9031      9.5848      9.1422      8.6736      8.2444      7.8295      7.3973      6.9871      6.6296    
  6.3379      6.1095      5.9341      5.8018      5.7068      5.6485      5.6287      5.6485      5.7068      5.8018    
  5.9341      6.1095      6.3379      6.6296      6.9871      7.3973      7.8295      8.2444      8.6736      9.1422    
  9.5848      9.9031      7.9537      7.9221      7.8328      7.6948      7.5056      7.2715      7.0113      6.7483    
  6.5032      6.2889      6.1095      5.9624      5.8430      5.7480      5.6771      5.6328      5.6176      5.6328    
  5.6771      5.7480      5.8430      5.9624      6.1095      6.2889      6.5032      6.7483      7.0113      7.2715    
  7.5056      7.6948      7.8328      7.9221      6.9433      6.9269      6.8779      6.7975      6.6897      6.5617    
  6.4236      6.2856      6.1556      6.0381      5.9341      5.8430      5.7641      5.6984      5.6482      5.6164    
  5.6055      5.6164      5.6482      5.6984      5.7641      5.8430      5.9341      6.0381      6.1556      6.2856    
  6.4236      6.5617      6.6897      6.7975      6.8779      6.9269      6.2579      6.2504      6.2282      6.1928    
  6.1465      6.0927      6.0346      5.9752      5.9161      5.8581      5.8018      5.7480      5.6984      5.6557    
  5.6226      5.6017      5.5945      5.6017      5.6226      5.6557      5.6984      5.7480      5.8018      5.8581    
  5.9161      5.9752      6.0346      6.0927      6.1465      6.1928      6.2282      6.2504      5.8474      5.8456    
  5.8404      5.8324      5.8223      5.8103      5.7962      5.7794      5.7590      5.7346      5.7068      5.6771    
  5.6482      5.6226      5.6028      5.5903      5.5860      5.5903      5.6028      5.6226      5.6482      5.6771    
  5.7068      5.7346      5.7590      5.7794      5.7962      5.8103      5.8223      5.8324      5.8404      5.8456    
  5.6407      5.6417      5.6446      5.6495      5.6560      5.6629      5.6687      5.6712      5.6689      5.6611    
  5.6485      5.6328      5.6164      5.6017      5.5903      5.5832      5.5808      5.5832      5.5903      5.6017    
  5.6164      5.6328      5.6485      5.6611      5.6689      5.6712      5.6687      5.6629      5.6560      5.6495    
  5.6446      5.6417      5.5791      5.5808      5.5860      5.5945      5.6055      5.6176      5.6287      5.6366    
  5.6394      5.6366      5.6287      5.6176      5.6055      5.5945      5.5860      5.5808      5.5791      5.5808    
  5.5860      5.5945      5.6055      5.6176      5.6287      5.6366      5.6394      5.6366      5.6287      5.6176    
  5.6055      5.5945      5.5860      5.5808      5.6407      5.6417      5.6446      5.6495      5.6560      5.6629    
  5.6687      5.6712      5.6689      5.6611      5.6485      5.6328      5.6164      5.6017      5.5903      5.5832    
  5.5808      5.5832      5.5903      5.6017      5.6164      5.6328      5.6485      5.6611      5.6689      5.6712    
  5.6687      5.6629      5.6560      5.6495      5.6446      5.6417      5.8474      5.8456      5.8404      5.8324    
  5.8223      5.8103      5.7962      5.7794      5.7590      5.7346      5.7068      5.6771      5.6482      5.6226    
  5.6028      5.5903      5.5860      5.5903      5.6028      5.6226      5.6482      5.6771      5.7068      5.7346    
  5.7590      5.7794      5.7962      5.8103      5.8223      5.8324      5.8404      5.8456      6.2579      6.2504    
  6.2282      6.1928      6.1465      6.0927      6.0346      5.9752      5.9161      5.8581      5.8018      5.7480    
  5.6984      5.6557      5.6226      5.6017      5.5945      5.6017      5.6226      5.6557      5.6984      5.7480    
  5.8018      5.8581      5.9161      5.9752      6.0346      6.0927      6.1465      6.1928      6.2282      6.2504    
  6.9433      6.9269      6.8779      6.7975      6.6897      6.5617      6.4236      6.2856      6.1556      6.0381    
  5.9341      5.8430      5.7641      5.6984      5.6482      5.6164      5.6055      5.6164      5.6482      5.6984    
  5.7641      5.8430      5.9341      6.0381      6.1556      6.2856      6.4236      6.5617      6.6897      6.7975    
  6.8779      6.9269      7.9537      7.9221      7.8328      7.6948      7.5056      7.2715      7.0113      6.7483    
  6.5032      6.2889      6.1095      5.9624      5.8430      5.7480      5.6771      5.6328      5.6176      5.6328    
  5.6771      5.7480      5.8430      5.9624      6.1095      6.2889      6.5032      6.7483      7.0113      7.2715    
  7.5056      7.6948      7.8328      7.9221      10.019      9.9031      9.5848      9.1422      8.6736      8.2444    
  7.8295      7.3973      6.9871      6.6296      6.3379      6.1095      5.9341      5.8018      5.7068      5.6485    
  5.6287      5.6485      5.7068      5.8018      5.9341      6.1095      6.3379      6.6296      6.9871      7.3973    
  7.8295      8.2444      8.6736      9.1422      9.5848      9.9031      14.878      14.574      13.719      12.482    
  11.113      9.8716      8.9228      8.2346      7.6212      7.0749      6.6296      6.2889      6.0381      5.8581    
  5.7346      5.6611      5.6366      5.6611      5.7346      5.8581      6.0381      6.2889      6.6296      7.0749    
  7.6212      8.2346      8.9228      9.8716      11.113      12.482      13.719      14.574      24.225      23.607    
  21.851      19.238      16.217      13.307      10.956      9.3647      8.3831      7.6212      6.9871      6.5032    
  6.1556      5.9161      5.7590      5.6689      5.6394      5.6689      5.7590      5.9161      6.1556      6.5032    
  6.9871      7.6212      8.3831      9.3647      10.956      13.307      16.217      19.238      21.851      23.607    
  39.258      38.183      35.107      30.473      24.983      19.487      14.790      11.402      9.3647      8.2346    
  7.3973      6.7483      6.2856      5.9752      5.7794      5.6712      5.6366      5.6712      5.7794      5.9752    
  6.2856      6.7483      7.3973      8.2346      9.3647      11.402      14.790      19.487      24.983      30.473    
  35.107      38.183      60.310      58.616      53.764      46.429      37.657      28.709      20.799      14.790    
  10.956      8.9228      7.8295      7.0113      6.4236      6.0346      5.7962      5.6687      5.6287      5.6687    
  5.7962      6.0346      6.4236      7.0113      7.8295      8.9228      10.956      14.790      20.799      28.709    
  37.657      46.429      53.764      58.616      86.552      84.076      77.000      66.328      53.569      40.475    
  28.709      19.487      13.307      9.8716      8.2444      7.2715      6.5617      6.0927      5.8103      5.6629    
  5.6176      5.6629      5.8103      6.0927      6.5617      7.2715      8.2444      9.8716      13.307      19.487    
  28.709      40.475      53.569      66.328      77.000      84.076      115.85      112.47      102.84      88.384    
  71.186      53.569      37.657      24.983      16.217      11.113      8.6736      7.5056      6.6897      6.1465    
  5.8223      5.6560      5.6055      5.6560      5.8223      6.1465      6.6897      7.5056      8.6736      11.113    
  16.217      24.983      37.657      53.569      71.186      88.384      102.84      112.47      144.92      140.60    
  128.33      110.02      88.384      66.328      46.429      30.473      19.238      12.482      9.1422      7.6948    
  6.7975      6.1928      5.8324      5.6495      5.5945      5.6495      5.8324      6.1928      6.7975      7.6948    
  9.1422      12.482      19.238      30.473      46.429      66.328      88.384      110.02      128.33      140.60    
  169.77      164.62      150.02      128.33      102.84      77.000      53.764      35.107      21.851      13.719    
  9.5848      7.8328      6.8779      6.2282      5.8404      5.6446      5.5860      5.6446      5.8404      6.2282    
  6.8779      7.8328      9.5848      13.719      21.851      35.107      53.764      77.000      102.84      128.33    
  150.02      164.62      186.57      180.84      164.62      140.60      112.47      84.076      58.616      38.183    
  23.607      14.574      9.9031      7.9221      6.9269      6.2504      5.8456      5.6417      5.5808      5.6417    
  5.8456      6.2504      6.9269      7.9221      9.9031      14.574      23.607      38.183      58.616      84.076    
  112.47      140.60      164.62      180.84      186.57      180.84      164.62      140.60      112.47      84.076    
  58.616      38.183      23.607      14.574      9.9031      7.9221      6.9269      6.2504      5.8456      5.6417    
  5.5808      5.6417      5.8456      6.2504      6.9269      7.9221      9.9031      14.574      23.607      38.183    
  58.616      84.076      112.47      140.60      164.62      180.84      180.84      175.30      159.64      136.42    
  109.19      81.671      56.968      37.137      23.008      14.280      9.7931      7.8922      6.9112      6.2436    
  5.8445      5.6433      5.5832      5.6433      5.8445      6.2436      6.9112      7.8922      9.7931      14.280    
  23.008      37.137      56.968      81.671      109.19      136.42      159.64      175.30      164.62      159.64    
  145.53      124.54      99.853      74.798      52.249      34.147      21.305      13.458      9.4914      7.8075    
  6.8644      6.2236      5.8413      5.6482      5.5903      5.6482      5.8413      6.2236      6.8644      7.8075    
  9.4914      13.458      21.305      34.147      52.249      74.798      99.853      124.54      145.53      159.64    
  140.60      136.42      124.54      106.81      85.831      64.431      45.118      29.646      18.778      12.271    
  9.0730      7.6743      6.7878      6.1917      5.8365      5.6560      5.6017      5.6560      5.8365      6.1917    
  6.7878      7.6743      9.0730      12.271      18.778      29.646      45.118      64.431      85.831      106.81    
  124.54      136.42      112.47      109.19      99.853      85.831      69.140      52.038      36.601      24.325    
  15.864      10.964      8.6305      7.4901      6.6852      6.1501      5.8305      5.6663      5.6164      5.6663    
  5.8305      6.1501      6.6852      7.4901      8.6305      10.964      15.864      24.325      36.601      52.038    
  69.140      85.831      99.853      109.19      84.076      81.671      74.798      64.431      52.038      39.329    
  27.927      19.016      13.071      9.7840      8.2219      7.2629      6.5637      6.1018      5.8232      5.6777    
  5.6328      5.6777      5.8232      6.1018      6.5637      7.2629      8.2219      9.7840      13.071      19.016    
  27.927      39.329      52.038      64.431      74.798      81.671      58.616      56.968      52.249      45.118    
  36.601      27.927      20.281      14.496      10.826      8.8837      7.8171      7.0110      6.4326      6.0496    
  5.8143      5.6881      5.6485      5.6881      5.8143      6.0496      6.4326      7.0110      7.8171      8.8837    
  10.826      14.496      20.281      27.927      36.601      45.118      52.249      56.968      38.183      37.137    
  34.147      29.646      24.325      19.016      14.496      11.253      9.3113      8.2198      7.3950      6.7567    
  6.3017      5.9960      5.8026      5.6955      5.6611      5.6955      5.8026      5.9960      6.3017      6.7567    
  7.3950      8.2198      9.3113      11.253      14.496      19.016      24.325      29.646      34.147      37.137    
  23.607      23.008      21.305      18.778      15.864      13.071      10.826      9.3113      8.3672      7.6177    
  6.9949      6.5199      6.1784      5.9425      5.7873      5.6982      5.6689      5.6982      5.7873      5.9425    
  6.1784      6.5199      6.9949      7.6177      8.3672      9.3113      10.826      13.071      15.864      18.778    
  21.305      23.008      14.574      14.280      13.458      12.271      10.964      9.7840      8.8837      8.2198    
  7.6177      7.0826      6.6466      6.3129      6.0669      5.8898      5.7680      5.6955      5.6712      5.6955    
  5.7680      5.8898      6.0669      6.3129      6.6466      7.0826      7.6177      8.2198      8.8837      9.7840    
  10.964      12.271      13.458      14.280      9.9031      9.7931      9.4914      9.0730      8.6305      8.2219    
  7.8171      7.3950      6.9949      6.6466      6.3623      6.1394      5.9681      5.8385      5.7453      5.6881    
  5.6687      5.6881      5.7453      5.8385      5.9681      6.1394      6.3623      6.6466      6.9949      7.3950    
  7.8171      8.2219      8.6305      9.0730      9.4914      9.7931      7.9221      7.8922      7.8075      7.6743    
  7.4901      7.2629      7.0110      6.7567      6.5199      6.3129      6.1394      5.9971      5.8815      5.7894    
  5.7207      5.6777      5.6629      5.6777      5.7207      5.7894      5.8815      5.9971      6.1394      6.3129    
  6.5199      6.7567      7.0110      7.2629      7.4901      7.6743      7.8075      7.8922      6.9269      6.9112    
  6.8644      6.7878      6.6852      6.5637      6.4326      6.3017      6.1784      6.0669      5.9681      5.8815    
  5.8065      5.7442      5.6965      5.6663      5.6560      5.6663      5.6965      5.7442      5.8065      5.8815    
  5.9681      6.0669      6.1784      6.3017      6.4326      6.5637      6.6852      6.7878      6.8644      6.9112    
  6.2504      6.2436      6.2236      6.1917      6.1501      6.1018      6.0496      5.9960      5.9425      5.8898    
  5.8385      5.7894      5.7442      5.7052      5.6751      5.6560      5.6495      5.6560      5.6751      5.7052    
  5.7442      5.7894      5.8385      5.8898      5.9425      5.9960      6.0496      6.1018      6.1501      6.1917    
  6.2236      6.2436      5.8456      5.8445      5.8413      5.8365      5.8305      5.8232      5.8143      5.8026    
  5.7873      5.7680      5.7453      5.7207      5.6965      5.6751      5.6585      5.6482      5.6446      5.6482    
  5.6585      5.6751      5.6965      5.7207      5.7453      5.7680      5.7873      5.8026      5.8143      5.8232    
  5.8305      5.8365      5.8413      5.8445      5.6417      5.6433      5.6482      5.6560      5.6663      5.6777    
  5.6881      5.6955      5.6982      5.6955      5.6881      5.6777      5.6663      5.6560      5.6482      5.6433    
  5.6417      5.6433      5.6482      5.6560      5.6663      5.6777      5.6881      5.6955      5.6982      5.6955    
  5.6881      5.6777      5.6663      5.6560      5.6482      5.6433      5.5808      5.5832      5.5903      5.6017    
  5.6164      5.6328      5.6485      5.6611      5.6689      5.6712      5.6687      5.6629      5.6560      5.6495    
  5.6446      5.6417      5.6407      5.6417      5.6446      5.6495      5.6560      5.6629      5.6687      5.6712    
  5.6689      5.6611      5.6485      5.6328      5.6164      5.6017      5.5903      5.5832      5.6417      5.6433    
  5.6482      5.6560      5.6663      5.6777      5.6881      5.6955      5.6982      5.6955      5.6881      5.6777    
  5.6663      5.6560      5.6482      5.6433      5.6417      5.6433      5.6482      5.6560      5.6663      5.6777    
  5.6881      5.6955      5.6982      5.6955      5.6881      5.6777      5.6663      5.6560      5.6482      5.6433    
  5.8456      5.8445      5.8413      5.8365      5.8305      5.8232      5.8143      5.8026      5.7873      5.7680    
  5.7453      5.7207      5.6965      5.6751      5.6585      5.6482      5.6446      5.6482      5.6585      5.6751    
  5.6965      5.7207      5.7453      5.7680      5.7873      5.8026      5.8143      5.8232      5.8305      5.8365    
  5.8413      5.8445      6.2504      6.2436      6.2236      6.1917      6.1501      6.1018      6.0496      5.9960    
  5.9425      5.8898      5.8385      5.7894      5.7442      5.7052      5.6751      5.6560      5.6495      5.6560    
  5.6751      5.7052      5.7442      5.7894      5.8385      5.8898      5.9425      5.9960      6.0496      6.1018    
  6.1501      6.1917      6.2236      6.2436      6.9269      6.9112      6.8644      6.7878      6.6852      6.5637    
  6.4326      6.3017      6.1784      6.0669      5.9681      5.8815      5.8065      5.7442      5.6965      5.6663    
  5.6560      5.6663      5.6965      5.7442      5.8065      5.8815      5.9681      6.0669      6.1784      6.3017    
  6.4326      6.5637      6.6852      6.7878      6.8644      6.9112      7.9221      7.8922      7.8075      7.6743    
  7.4901      7.2629      7.0110      6.7567      6.5199      6.3129      6.1394      5.9971      5.8815      5.7894    
  5.7207      5.6777      5.6629      5.6777      5.7207      5.7894      5.8815      5.9971      6.1394      6.3129    
  6.5199      6.7567      7.0110      7.2629      7.4901      7.6743      7.8075      7.8922      9.9031      9.7931    
  9.4914      9.0730      8.6305      8.2219      7.8171      7.3950      6.9949      6.6466      6.3623      6.1394    
  5.9681      5.8385      5.7453      5.6881      5.6687      5.6881      5.7453      5.8385      5.9681      6.1394    
  6.3623      6.6466      6.9949      7.3950      7.8171      8.2219      8.6305      9.0730      9.4914      9.7931    
  14.574      14.280      13.458      12.271      10.964      9.7840      8.8837      8.2198      7.6177      7.0826    
  6.6466      6.3129      6.0669      5.8898      5.7680      5.6955      5.6712      5.6955      5.7680      5.8898    
  6.0669      6.3129      6.6466      7.0826      7.6177      8.2198      8.8837      9.7840      10.964      12.271    
  13.458      14.280      23.607      23.008      21.305      18.778      15.864      13.071      10.826      9.3113    
  8.3672      7.6177      6.9949      6.5199      6.1784      5.9425      5.7873      5.6982      5.6689      5.6982    
  5.7873      5.9425      6.1784      6.5199      6.9949      7.6177      8.3672      9.3113      10.826      13.071    
  15.864      18.778      21.305      23.008      38.183      37.137      34.147      29.646      24.325      19.016    
  14.496      11.253      9.3113      8.2198      7.3950      6.7567      6.3017      5.9960      5.8026      5.6955    
  5.6611      5.6955      5.8026      5.9960      6.3017      6.7567      7.3950      8.2198      9.3113      11.253    
  14.496      19.016      24.325      29.646      34.147      37.137      58.616      56.968      52.249      45.118    
  36.601      27.927      20.281      14.496      10.826      8.8837      7.8171      7.0110      6.4326      6.0496    
  5.8143      5.6881      5.6485      5.6881      5.8143      6.0496      6.4326      7.0110      7.8171      8.8837    
  10.826      14.496      20.281      27.927      36.601      45.118      52.249      56.968      84.076      81.671    
  74.798      64.431      52.038      39.329      27.927      19.016      13.071      9.7840      8.2219      7.2629    
  6.5637      6.1018      5.8232      5.6777      5.6328      5.6777      5.8232      6.1018      6.5637      7.2629    
  8.2219      9.7840      13.071      19.016      27.927      39.329      52.038      64.431      74.798      81.671    
  112.47      109.19      99.853      85.831      69.140      52.038      36.601      24.325      15.864      10.964    
  8.6305      7.4901      6.6852      6.1501      5.8305      5.6663      5.6164      5.6663      5.8305      6.1501    
  6.6852      7.4901      8.6305      10.964      15.864      24.325      36.601      52.038      69.140      85.831    
  99.853      109.19      140.60      136.42      124.54      106.81      85.831      64.431      45.118      29.646    
  18.778      12.271      9.0730      7.6743      6.7878      6.1917      5.8365      5.6560      5.6017      5.6560    
  5.8365      6.1917      6.7878      7.6743      9.0730      12.271      18.778      29.646      45.118      64.431    
  85.831      106.81      124.54      136.42      164.62      159.64      145.53      124.54      99.853      74.798    
  52.249      34.147      21.305      13.458      9.4914      7.8075      6.8644      6.2236      5.8413      5.6482    
  5.5903      5.6482      5.8413      6.2236      6.8644      7.8075      9.4914      13.458      21.305      34.147    
  52.249      74.798      99.853      124.54      145.53      159.64      180.84      175.30      159.64      136.42    
  109.19      81.671      56.968      37.137      23.008      14.280      9.7931      7.8922      6.9112      6.2436    
  5.8445      5.6433      5.5832      5.6433      5.8445      6.2436      6.9112      7.8922      9.7931      14.280    
  23.008      37.137      56.968      81.671      109.19      136.42      159.64      175.30      169.77      164.62    
  150.02      128.33      102.84      77.000      53.764      35.107      21.851      13.719      9.5848      7.8328    
  6.8779      6.2282      5.8404      5.6446      5.5860      5.6446      5.8404      6.2282      6.8779      7.8328    
  9.5848      13.719      21.851      35.107      53.764      77.000      102.84      128.33      150.02      164.62    
  164.62      159.64      145.53      124.54      99.853      74.798      52.249      34.147      21.305      13.458    
  9.4914      7.8075      6.8644      6.2236      5.8413      5.6482      5.5903      5.6482      5.8413      6.2236    
  6.8644      7.8075      9.4914      13.458      21.305      34.147      52.249      74.798      99.853      124.54    
  145.53      159.64      150.02      145.53      132.78      113.78      91.340      68.503      47.914      31.404    
  19.760      12.729      9.2363      7.7337      6.8243      6.2101      5.8441      5.6585      5.6028      5.6585    
  5.8441      6.2101      6.8243      7.7337      9.2363      12.729      19.760      31.404      47.914      68.503    
  91.340      113.78      132.78      145.53      128.33      124.54      113.78      97.660      78.543      59.008    
  41.376      27.294      17.481      11.688      8.8850      7.6121      6.7589      6.1886      5.8486      5.6751    
  5.6226      5.6751      5.8486      6.1886      6.7589      7.6121      8.8850      11.688      17.481      27.294    
  41.376      59.008      78.543      97.660      113.78      124.54      102.84      99.853      91.340      78.543    
  63.292      47.666      33.592      22.466      14.879      10.555      8.5133      7.4433      6.6718      6.1606    
  5.8546      5.6965      5.6482      5.6965      5.8546      6.1606      6.6718      7.4433      8.5133      10.555    
  14.879      22.466      33.592      47.666      63.292      78.543      91.340      99.853      77.000      74.798    
  68.503      59.008      47.666      36.065      25.711      17.692      12.418      9.5472      8.1570      7.2369    
  6.5692      6.1283      5.8612      5.7207      5.6771      5.7207      5.8612      6.1283      6.5692      7.2369    
  8.1570      9.5472      12.418      17.692      25.711      36.065      47.666      59.008      68.503      74.798    
  53.764      52.249      47.914      41.376      33.592      25.711      18.824      13.681      10.470      8.7776    
  7.7796      7.0097      6.4590      6.0934      5.8674      5.7453      5.7068      5.7453      5.8674      6.0934    
  6.4590      7.0097      7.7796      8.7776      10.470      13.681      18.824      25.711      33.592      41.376    
  47.914      52.249      35.107      34.147      31.404      27.294      22.466      17.692      13.681      10.848    
  9.1678      8.1746      7.3876      6.7816      6.3495      6.0577      5.8718      5.7680      5.7346      5.7680    
  5.8718      6.0577      6.3495      6.7816      7.3876      8.1746      9.1678      10.848      13.681      17.692    
  22.466      27.294      31.404      34.147      21.851      21.305      19.760      17.481      14.879      12.418    
  10.470      9.1678      8.3193      7.6068      7.0182      6.5700      6.2468      6.0222      5.8734      5.7873    
  5.7590      5.7873      5.8734      6.0222      6.2468      6.5700      7.0182      7.6068      8.3193      9.1678    
  10.470      12.418      14.879      17.481      19.760      21.305      13.719      13.458      12.729      11.688    
  10.555      9.5472      8.7776      8.1746      7.6068      7.1053      6.6977      6.3856      6.1546      5.9874    
  5.8718      5.8026      5.7794      5.8026      5.8718      5.9874      6.1546      6.3856      6.6977      7.1053    
  7.6068      8.1746      8.7776      9.5472      10.555      11.688      12.729      13.458      9.5848      9.4914    
  9.2363      8.8850      8.5133      8.1570      7.7796      7.3876      7.0182      6.6977      6.4364      6.2315    
  6.0736      5.9538      5.8674      5.8143      5.7962      5.8143      5.8674      5.9538      6.0736      6.2315    
  6.4364      6.6977      7.0182      7.3876      7.7796      8.1570      8.5133      8.8850      9.2363      9.4914    
  7.8328      7.8075      7.7337      7.6121      7.4433      7.2369      7.0097      6.7816      6.5700      6.3856    
  6.2315      6.1054      6.0031      5.9218      5.8612      5.8232      5.8103      5.8232      5.8612      5.9218    
  6.0031      6.1054      6.2315      6.3856      6.5700      6.7816      7.0097      7.2369      7.4433      7.6121    
  7.7337      7.8075      6.8779      6.8644      6.8243      6.7589      6.6718      6.5692      6.4590      6.3495    
  6.2468      6.1546      6.0736      6.0031      5.9427      5.8927      5.8546      5.8305      5.8223      5.8305    