   2   2   1   0
  0.1136426E+02  0.2832634E-09  0.2832634E-09  0.2832634E-09  0.5000000E-15
  1.000000000000000E-004
  CAR 
 unknown system                          
     27.10250444     -4.38642354  301      5.80651874      1.00000000
     -4.386  0.0000E+00  0.0000E+00
     -4.281  0.0000E+00  0.0000E+00
     -4.176  0.0000E+00  0.0000E+00
     -4.072 -0.5227E-31 -0.5486E-32
     -3.967 -0.2579E-27 -0.2707E-28
     -3.862 -0.7301E-24 -0.7666E-25
     -3.757 -0.1185E-20 -0.1245E-21
     -3.652 -0.1103E-17 -0.1159E-18
     -3.547 -0.5707E-15 -0.6002E-16
     -3.442 -0.1723E-12 -0.1815E-13
     -3.337 -0.2964E-10 -0.3129E-11
     -3.232 -0.2888E-08 -0.3062E-09
     -3.127 -0.1583E-06 -0.1692E-07
     -3.022 -0.4825E-05 -0.5233E-06
     -2.917 -0.8007E-04 -0.8928E-05
     -2.812 -0.6913E-03 -0.8149E-04
     -2.707 -0.2731E-02 -0.3681E-03
     -2.602 -0.2004E-02 -0.5785E-03
     -2.497  0.1714E-01  0.1221E-02
     -2.392  0.5471E-01  0.6963E-02
     -2.287  0.7933E-01  0.1529E-01
     -2.182  0.7807E-01  0.2348E-01
     -2.077  0.4861E-01  0.2859E-01
     -1.972  0.1514E-01  0.3018E-01
     -1.867  0.5665E-01  0.3612E-01
     -1.762  0.1661E+00  0.5355E-01
     -1.657  0.2320E+00  0.7790E-01
     -1.552  0.2290E+00  0.1019E+00
     -1.447  0.1600E+00  0.1187E+00
     -1.342  0.7554E-01  0.1267E+00
     -1.238  0.1060E+00  0.1378E+00
     -1.133  0.1906E+00  0.1578E+00
     -1.028  0.2152E+00  0.1804E+00
     -0.923  0.1971E+00  0.2011E+00
     -0.818  0.1394E+00  0.2157E+00
     -0.713  0.1386E+00  0.2302E+00
     -0.608  0.2231E+00  0.2537E+00
     -0.503  0.2449E+00  0.2794E+00
     -0.398  0.2517E+00  0.3058E+00
     -0.293  0.3301E+00  0.3404E+00
     -0.188  0.4071E+00  0.3832E+00
     -0.083  0.3548E+00  0.4204E+00
      0.022  0.2511E+00  0.4467E+00
      0.127  0.3235E+00  0.4807E+00
      0.232  0.4098E+00  0.5237E+00
      0.337  0.3468E+00  0.5601E+00
      0.442  0.2774E+00  0.5892E+00
      0.547  0.2841E+00  0.6191E+00
      0.652  0.3339E+00  0.6541E+00
      0.757  0.3929E+00  0.6954E+00
      0.862  0.6919E+00  0.7680E+00
      0.967  0.1267E+01  0.9010E+00
      1.072  0.1410E+01  0.1049E+01
      1.177  0.1018E+01  0.1156E+01
      1.282  0.9682E+00  0.1257E+01
      1.387  0.1543E+01  0.1419E+01
      1.492  0.2105E+01  0.1640E+01
      1.596  0.2223E+01  0.1874E+01
      1.701  0.2020E+01  0.2086E+01
      1.806  0.1848E+01  0.2280E+01
      1.911  0.1940E+01  0.2483E+01
      2.016  0.1856E+01  0.2678E+01
      2.121  0.1435E+01  0.2829E+01
      2.226  0.1230E+01  0.2958E+01
      2.331  0.1707E+01  0.3137E+01
      2.436  0.2868E+01  0.3438E+01
      2.541  0.3842E+01  0.3841E+01
      2.646  0.4008E+01  0.4262E+01
      2.751  0.3478E+01  0.4627E+01
      2.856  0.2844E+01  0.4926E+01
      2.961  0.2767E+01  0.5216E+01
      3.066  0.3133E+01  0.5545E+01
      3.171  0.3672E+01  0.5930E+01
      3.276  0.4342E+01  0.6386E+01
      3.381  0.4471E+01  0.6855E+01
      3.486  0.3432E+01  0.7216E+01
      3.591  0.1983E+01  0.7424E+01
      3.696  0.1242E+01  0.7554E+01
      3.801  0.1509E+01  0.7712E+01
      3.906  0.2169E+01  0.7940E+01
      4.011  0.2359E+01  0.8188E+01
      4.116  0.2381E+01  0.8438E+01
      4.221  0.3038E+01  0.8756E+01
      4.326  0.4096E+01  0.9186E+01
      4.430  0.4893E+01  0.9700E+01
      4.535  0.5076E+01  0.1023E+02
      4.640  0.4978E+01  0.1076E+02
      4.745  0.5433E+01  0.1133E+02
      4.850  0.6177E+01  0.1197E+02
      4.955  0.6706E+01  0.1268E+02
      5.060  0.7085E+01  0.1342E+02
      5.165  0.6537E+01  0.1411E+02
      5.270  0.4980E+01  0.1463E+02
      5.375  0.3682E+01  0.1502E+02
      5.480  0.2903E+01  0.1532E+02
      5.585  0.2141E+01  0.1555E+02
      5.690  0.1812E+01  0.1574E+02
      5.795  0.2238E+01  0.1597E+02
      5.900  0.2403E+01  0.1622E+02
      6.005  0.1713E+01  0.1640E+02
      6.110  0.1041E+01  0.1651E+02
      6.215  0.9257E+00  0.1661E+02
      6.320  0.1053E+01  0.1672E+02
      6.425  0.1064E+01  0.1683E+02
      6.530  0.1122E+01  0.1695E+02
      6.635  0.1403E+01  0.1710E+02
      6.740  0.1598E+01  0.1726E+02
      6.845  0.1760E+01  0.1745E+02
      6.950  0.2030E+01  0.1766E+02
      7.055  0.2344E+01  0.1791E+02
      7.160  0.2861E+01  0.1821E+02
      7.264  0.3227E+01  0.1855E+02
      7.369  0.3285E+01  0.1889E+02
      7.474  0.3387E+01  0.1925E+02
      7.579  0.3833E+01  0.1965E+02
      7.684  0.4859E+01  0.2016E+02
      7.789  0.5051E+01  0.2069E+02
      7.894  0.3148E+01  0.2102E+02
      7.999  0.1503E+01  0.2118E+02
      8.104  0.1944E+01  0.2138E+02
      8.209  0.2484E+01  0.2164E+02
      8.314  0.1697E+01  0.2182E+02
      8.419  0.7312E+00  0.2190E+02
      8.524  0.4331E+00  0.2194E+02
      8.629  0.3412E+00  0.2198E+02
      8.734  0.1859E+00  0.2200E+02
      8.839  0.3036E+00  0.2203E+02
      8.944  0.7247E+00  0.2211E+02
      9.049  0.1120E+01  0.2222E+02
      9.154  0.1267E+01  0.2236E+02
      9.259  0.1054E+01  0.2247E+02
      9.364  0.6623E+00  0.2254E+02
      9.469  0.2997E+00  0.2257E+02
      9.574  0.7739E-01  0.2258E+02
      9.679  0.2020E+00  0.2260E+02
      9.784  0.6145E+00  0.2266E+02
      9.889  0.8800E+00  0.2276E+02
      9.994  0.7075E+00  0.2283E+02
     10.098  0.3251E+00  0.2286E+02
     10.203  0.1908E+00  0.2288E+02
     10.308  0.4049E+00  0.2293E+02
     10.413  0.7020E+00  0.2300E+02
     10.518  0.7362E+00  0.2308E+02
     10.623  0.5398E+00  0.2313E+02
     10.728  0.4035E+00  0.2318E+02
     10.833  0.3876E+00  0.2322E+02
     10.938  0.4077E+00  0.2326E+02
     11.043  0.4727E+00  0.2331E+02
     11.148  0.5865E+00  0.2337E+02
     11.253  0.5175E+00  0.2343E+02
     11.358  0.2897E+00  0.2346E+02
     11.463  0.1085E+00  0.2347E+02
     11.568  0.6986E-01  0.2347E+02
     11.673  0.1795E+00  0.2349E+02
     11.778  0.2708E+00  0.2352E+02
     11.883  0.2819E+00  0.2355E+02
     11.988  0.2906E+00  0.2358E+02
     12.093  0.2592E+00  0.2361E+02
     12.198  0.1944E+00  0.2363E+02
     12.303  0.2021E+00  0.2365E+02
     12.408  0.2819E+00  0.2368E+02
     12.513  0.3881E+00  0.2372E+02
     12.618  0.4201E+00  0.2377E+02
     12.723  0.2708E+00  0.2379E+02
     12.828  0.8916E-01  0.2380E+02
     12.932  0.2095E-01  0.2381E+02
     13.037  0.3910E-01  0.2381E+02
     13.142  0.2134E+00  0.2383E+02
     13.247  0.5311E+00  0.2389E+02
     13.352  0.7910E+00  0.2397E+02
     13.457  0.9155E+00  0.2407E+02
     13.562  0.8311E+00  0.2415E+02
     13.667  0.5160E+00  0.2421E+02
     13.772  0.2019E+00  0.2423E+02
     13.877  0.4266E-01  0.2423E+02
     13.982  0.5442E-01  0.2424E+02
     14.087  0.2218E+00  0.2426E+02
     14.192  0.4677E+00  0.2431E+02
     14.297  0.6854E+00  0.2438E+02
     14.402  0.7565E+00  0.2446E+02
     14.507  0.8937E+00  0.2456E+02
     14.612  0.1260E+01  0.2469E+02
     14.717  0.1295E+01  0.2482E+02
     14.822  0.7678E+00  0.2491E+02
     14.927  0.3079E+00  0.2494E+02
     15.032  0.3289E+00  0.2497E+02
     15.137  0.6503E+00  0.2504E+02
     15.242  0.8366E+00  0.2513E+02
     15.347  0.7768E+00  0.2521E+02
     15.452  0.7779E+00  0.2529E+02
     15.557  0.8831E+00  0.2538E+02
     15.662  0.9150E+00  0.2548E+02
     15.766  0.7781E+00  0.2556E+02
     15.871  0.5258E+00  0.2562E+02
     15.976  0.4402E+00  0.2566E+02
     16.081  0.7355E+00  0.2574E+02
     16.186  0.1182E+01  0.2586E+02
     16.291  0.1254E+01  0.2600E+02
     16.396  0.8285E+00  0.2608E+02
     16.501  0.4512E+00  0.2613E+02
     16.606  0.4803E+00  0.2618E+02
     16.711  0.5161E+00  0.2624E+02
     16.816  0.5093E+00  0.2629E+02
     16.921  0.9390E+00  0.2639E+02
     17.026  0.1453E+01  0.2654E+02
     17.131  0.1317E+01  0.2668E+02
     17.236  0.8458E+00  0.2677E+02
     17.341  0.6049E+00  0.2683E+02
     17.446  0.5276E+00  0.2689E+02
     17.551  0.5048E+00  0.2694E+02
     17.656  0.5197E+00  0.2699E+02
     17.761  0.6284E+00  0.2706E+02
     17.866  0.9549E+00  0.2716E+02
     17.971  0.1242E+01  0.2729E+02
     18.076  0.1013E+01  0.2740E+02
     18.181  0.4475E+00  0.2744E+02
     18.286  0.1936E+00  0.2746E+02
     18.391  0.4537E+00  0.2751E+02
     18.496  0.7252E+00  0.2759E+02
     18.600  0.6571E+00  0.2766E+02
     18.705  0.5558E+00  0.2771E+02
     18.810  0.5803E+00  0.2778E+02
     18.915  0.6306E+00  0.2784E+02
     19.020  0.7504E+00  0.2792E+02
     19.125  0.1105E+01  0.2804E+02
     19.230  0.1360E+01  0.2818E+02
     19.335  0.9195E+00  0.2828E+02
     19.440  0.2849E+00  0.2831E+02
     19.545  0.2914E+00  0.2834E+02
     19.650  0.6276E+00  0.2840E+02
     19.755  0.6105E+00  0.2847E+02
     19.860  0.4527E+00  0.2851E+02
     19.965  0.6305E+00  0.2858E+02
     20.070  0.9529E+00  0.2868E+02
     20.175  0.9425E+00  0.2878E+02
     20.280  0.6351E+00  0.2885E+02
     20.385  0.4969E+00  0.2890E+02
     20.490  0.5958E+00  0.2896E+02
     20.595  0.5605E+00  0.2902E+02
     20.700  0.4319E+00  0.2906E+02
     20.805  0.5222E+00  0.2912E+02
     20.910  0.7327E+00  0.2920E+02
     21.015  0.7704E+00  0.2928E+02
     21.120  0.6457E+00  0.2934E+02
     21.225  0.5362E+00  0.2940E+02
     21.330  0.4306E+00  0.2945E+02
     21.434  0.2719E+00  0.2947E+02
     21.539  0.2819E+00  0.2950E+02
     21.644  0.6738E+00  0.2957E+02
     21.749  0.1143E+01  0.2969E+02
     21.854  0.1091E+01  0.2981E+02
     21.959  0.4845E+00  0.2986E+02
     22.064 -0.1286E-01  0.2986E+02
     22.169 -0.6129E-02  0.2986E+02
     22.274  0.5261E+00  0.2991E+02
     22.379  0.1222E+01  0.3004E+02
     22.484  0.1316E+01  0.3018E+02
     22.589  0.7920E+00  0.3026E+02
     22.694  0.3195E+00  0.3030E+02
     22.799  0.1711E+00  0.3031E+02
     22.904  0.3460E+00  0.3035E+02
     23.009  0.6668E+00  0.3042E+02
     23.114  0.9610E+00  0.3052E+02
     23.219  0.1170E+01  0.3064E+02
     23.324  0.1061E+01  0.3076E+02
     23.429  0.6523E+00  0.3082E+02
     23.534  0.3638E+00  0.3086E+02
     23.639  0.5239E+00  0.3092E+02
     23.744  0.8901E+00  0.3101E+02
     23.849  0.1014E+01  0.3112E+02
     23.954  0.1090E+01  0.3123E+02
     24.059  0.1319E+01  0.3137E+02
     24.164  0.1071E+01  0.3148E+02
     24.269  0.3437E+00  0.3152E+02
     24.373  0.1748E-01  0.3152E+02
     24.478  0.3998E+00  0.3156E+02
     24.583  0.1009E+01  0.3167E+02
     24.688  0.1038E+01  0.3178E+02
     24.793  0.5047E+00  0.3183E+02
     24.898  0.2893E+00  0.3186E+02
     25.003  0.5302E+00  0.3192E+02
     25.108  0.5672E+00  0.3198E+02
     25.213  0.2554E+00  0.3200E+02
     25.318  0.1372E-01  0.3200E+02
     25.423 -0.2766E-01  0.3200E+02
     25.528 -0.9978E-02  0.3200E+02
     25.633 -0.1523E-02  0.3200E+02
     25.738 -0.1209E-03  0.3200E+02
     25.843 -0.5285E-05  0.3200E+02
     25.948 -0.1306E-06  0.3200E+02
     26.053 -0.1847E-08  0.3200E+02
     26.158 -0.1506E-10  0.3200E+02
     26.263 -0.7120E-13  0.3200E+02
     26.368 -0.1735E-15  0.3200E+02
     26.473  0.0000E+00  0.3200E+02
     26.578  0.0000E+00  0.3200E+02
     26.683  0.0000E+00  0.3200E+02
     26.788  0.0000E+00  0.3200E+02
     26.893  0.0000E+00  0.3200E+02
     26.998  0.0000E+00  0.3200E+02
     27.103  0.0000E+00  0.3200E+02
     27.10250444     -4.38642354  301      5.80651874      1.00000000
     -4.386  0.0000E+00  0.0000E+00  0.0000E+00  0.0000E+00  0.0000E+00  0.0000E+00  0.0000E+00  0.0000E+00  0.0000E+00  0.0000E+00  0.0000E+00  0.0000E+00  0.0000E+00  0.0000E+00  0.0000E+00  0.0000E+00  0.0000E+00  0.0000E+00  0.0000E+00  0.0000E+00  0.0000E+00  0.0000E+00  0.0000E+00  0.0000E+00  0.0000E+00  0.0000E+00  0.0000E+00  0.0000E+00  0.0000E+00  0.0000E+00  0.0000E+00  0.0000E+00  0.0000E+00  0.0000E+00  0.0000E+00  0.0000E+00
     -4.281  0.0000E+00  0.0000E+00  0.0000E+00  0.0000E+00  0.0000E+00  0.0000E+00  0.0000E+00  0.0000E+00  0.0000E+00  0.0000E+00  0.0000E+00  0.0000E+00  0.0000E+00  0.0000E+00  0.0000E+00  0.0000E+00  0.0000E+00  0.0000E+00  0.0000E+00  0.0000E+00  0.0000E+00  0.0000E+00  0.0000E+00  0.0000E+00  0.0000E+00  0.0000E+00  0.0000E+00  0.0000E+00  0.0000E+00  0.0000E+00  0.0000E+00  0.0000E+00  0.0000E+00  0.0000E+00  0.0000E+00  0.0000E+00
     -4.176  0.0000E+00  0.0000E+00  0.0000E+00  0.0000E+00  0.0000E+00  0.0000E+00  0.0000E+00  0.0000E+00  0.0000E+00  0.0000E+00  0.0000E+00  0.0000E+00  0.0000E+00  0.0000E+00  0.0000E+00  0.0000E+00  0.0000E+00  0.0000E+00  0.0000E+00  0.0000E+00  0.0000E+00  0.0000E+00  0.0000E+00  0.0000E+00  0.0000E+00  0.0000E+00  0.0000E+00  0.0000E+00  0.0000E+00  0.0000E+00  0.0000E+00  0.0000E+00  0.0000E+00  0.0000E+00  0.0000E+00  0.0000E+00
     -4.072 -0.1865E-31 -0.2025E-38 -0.2379E-39 -0.1865E-31 -0.1486E-33  0.1444E-39  0.7704E-40 -0.1486E-33 -0.1486E-33 -0.1094E-39  0.1145E-39 -0.1486E-33 -0.1486E-33 -0.8182E-40 -0.1954E-39 -0.1486E-33 -0.3892E-35  0.1301E-40 -0.6285E-42 -0.3892E-35 -0.3892E-35  0.9219E-41  0.8550E-41 -0.3892E-35 -0.1135E-39 -0.9862E-45  0.5993E-45  0.1135E-39 -0.3892E-35 -0.1027E-41  0.4615E-42 -0.3892E-35 -0.1785E-39 -0.5813E-44 -0.6308E-44 -0.1031E-39
     -3.967 -0.9200E-28 -0.9992E-35 -0.1174E-35 -0.9200E-28 -0.7329E-30  0.7122E-36  0.3801E-36 -0.7329E-30 -0.7329E-30 -0.5397E-36  0.5651E-36 -0.7329E-30 -0.7329E-30 -0.4037E-36 -0.9641E-36 -0.7329E-30 -0.1920E-31  0.6418E-37 -0.3101E-38 -0.1920E-31 -0.1920E-31  0.4548E-37  0.4218E-37 -0.1920E-31 -0.5598E-36 -0.4865E-41  0.2957E-41  0.5597E-36 -0.1920E-31 -0.5068E-38  0.2277E-38 -0.1920E-31 -0.8807E-36 -0.2868E-40 -0.3112E-40 -0.5084E-36
     -3.862 -0.2605E-24 -0.2829E-31 -0.3323E-32 -0.2605E-24 -0.2075E-26  0.2016E-32  0.1076E-32 -0.2075E-26 -0.2075E-26 -0.1528E-32  0.1600E-32 -0.2075E-26 -0.2075E-26 -0.1143E-32 -0.2730E-32 -0.2075E-26 -0.5437E-28  0.1817E-33 -0.8780E-35 -0.5437E-28 -0.5436E-28  0.1288E-33  0.1194E-33 -0.5436E-28 -0.1585E-32 -0.1378E-37  0.8371E-38  0.1585E-32 -0.5436E-28 -0.1435E-34  0.6446E-35 -0.5436E-28 -0.2494E-32 -0.8119E-37 -0.8811E-37 -0.1440E-32
     -3.757 -0.4230E-21 -0.4594E-28 -0.5395E-29 -0.4230E-21 -0.3370E-23  0.3274E-29  0.1747E-29 -0.3370E-23 -0.3370E-23 -0.2481E-29  0.2598E-29 -0.3370E-23 -0.3370E-23 -0.1856E-29 -0.4432E-29 -0.3370E-23 -0.8828E-25  0.2951E-30 -0.1426E-31 -0.8828E-25 -0.8827E-25  0.2091E-30  0.1939E-30 -0.8827E-25 -0.2574E-29 -0.2237E-34  0.1359E-34  0.2573E-29 -0.8827E-25 -0.2330E-31  0.1047E-31 -0.8827E-25 -0.4049E-29 -0.1318E-33 -0.1431E-33 -0.2338E-29
     -3.652 -0.3935E-18 -0.4274E-25 -0.5019E-26 -0.3935E-18 -0.3135E-20  0.3046E-26  0.1626E-26 -0.3135E-20 -0.3135E-20 -0.2308E-26  0.2417E-26 -0.3135E-20 -0.3135E-20 -0.1727E-26 -0.4124E-26 -0.3135E-20 -0.8213E-22  0.2745E-27 -0.1326E-28 -0.8213E-22 -0.8213E-22  0.1945E-27  0.1804E-27 -0.8212E-22 -0.2394E-26 -0.2081E-31  0.1265E-31  0.2394E-26 -0.8212E-22 -0.2168E-28  0.9738E-29 -0.8212E-22 -0.3767E-26 -0.1227E-30 -0.1331E-30 -0.2175E-26
     -3.547 -0.2036E-15 -0.2211E-22 -0.2597E-23 -0.2036E-15 -0.1622E-17  0.1576E-23  0.8411E-24 -0.1622E-17 -0.1622E-17 -0.1194E-23  0.1251E-23 -0.1622E-17 -0.1622E-17 -0.8934E-24 -0.2134E-23 -0.1622E-17 -0.4250E-19  0.1420E-24 -0.6863E-26 -0.4249E-19 -0.4249E-19  0.1007E-24  0.9335E-25 -0.4249E-19 -0.1239E-23 -0.1077E-28  0.6543E-29  0.1239E-23 -0.4249E-19 -0.1122E-25  0.5038E-26 -0.4249E-19 -0.1949E-23 -0.6347E-28 -0.6887E-28 -0.1125E-23
     -3.442 -0.6149E-13 -0.6678E-20 -0.7843E-21 -0.6148E-13 -0.4898E-15  0.4759E-21  0.2540E-21 -0.4898E-15 -0.4898E-15 -0.3607E-21  0.3776E-21 -0.4898E-15 -0.4898E-15 -0.2698E-21 -0.6443E-21 -0.4898E-15 -0.1283E-16  0.4289E-22 -0.2072E-23 -0.1283E-16 -0.1283E-16  0.3040E-22  0.2819E-22 -0.1283E-16 -0.3741E-21 -0.3251E-26  0.1976E-26  0.3741E-21 -0.1283E-16 -0.3387E-23  0.1521E-23 -0.1283E-16 -0.5886E-21 -0.1916E-25 -0.2080E-25 -0.3398E-21
     -3.337 -0.1058E-10 -0.1149E-17 -0.1349E-18 -0.1057E-10 -0.8425E-13  0.8186E-19  0.4369E-19 -0.8425E-13 -0.8425E-13 -0.6204E-19  0.6496E-19 -0.8424E-13 -0.8425E-13 -0.4640E-19 -0.1108E-18 -0.8425E-13 -0.2207E-14  0.7378E-20 -0.3564E-21 -0.2207E-14 -0.2207E-14  0.5228E-20  0.4848E-20 -0.2207E-14 -0.6435E-19 -0.5590E-24  0.3398E-24  0.6434E-19 -0.2207E-14 -0.5825E-21  0.2614E-21 -0.2207E-14 -0.1012E-18 -0.3296E-23 -0.3577E-23 -0.5844E-19
     -3.232 -0.1030E-08 -0.1119E-15 -0.1314E-16 -0.1030E-08 -0.8208E-11  0.7975E-17  0.4257E-17 -0.8207E-11 -0.8208E-11 -0.6044E-17  0.6329E-17 -0.8207E-11 -0.8208E-11 -0.4520E-17 -0.1080E-16 -0.8207E-11 -0.2150E-12  0.7188E-18 -0.3472E-19 -0.2150E-12 -0.2150E-12  0.5094E-18  0.4723E-18 -0.2150E-12 -0.6269E-17 -0.5442E-22  0.3309E-22  0.6268E-17 -0.2150E-12 -0.5674E-19  0.2542E-19 -0.2150E-12 -0.9862E-17 -0.3212E-21 -0.3484E-21 -0.5694E-17
     -3.127 -0.5647E-07 -0.6133E-14 -0.7196E-15 -0.5645E-07 -0.4499E-09  0.4370E-15  0.2334E-15 -0.4497E-09 -0.4499E-09 -0.3312E-15  0.3470E-15 -0.4497E-09 -0.4499E-09 -0.2476E-15 -0.5915E-15 -0.4497E-09 -0.1179E-10  0.3939E-16 -0.1903E-17 -0.1178E-10 -0.1178E-10  0.2793E-16  0.2587E-16 -0.1178E-10 -0.3436E-15 -0.2975E-20  0.1811E-20  0.3434E-15 -0.1178E-10 -0.3108E-17  0.1385E-17 -0.1178E-10 -0.5405E-15 -0.1761E-19 -0.1909E-19 -0.3120E-15
     -3.022 -0.1721E-05 -0.1869E-12 -0.2189E-13 -0.1719E-05 -0.1371E-07  0.1332E-13  0.7125E-14 -0.1369E-07 -0.1371E-07 -0.1009E-13  0.1059E-13 -0.1369E-07 -0.1371E-07 -0.7536E-14 -0.1801E-13 -0.1369E-07 -0.3592E-09  0.1201E-14 -0.5799E-16 -0.3588E-09 -0.3592E-09  0.8517E-15  0.7873E-15 -0.3588E-09 -0.1047E-13 -0.8995E-19  0.5493E-19  0.1046E-13 -0.3592E-09 -0.9456E-16  0.4137E-16 -0.3588E-09 -0.1647E-13 -0.5370E-18 -0.5811E-18 -0.9507E-14
     -2.917 -0.2857E-04 -0.3099E-11 -0.3606E-12 -0.2844E-04 -0.2276E-06  0.2206E-12  0.1187E-12 -0.2265E-06 -0.2276E-06 -0.1671E-12  0.1762E-12 -0.2265E-06 -0.2276E-06 -0.1245E-12 -0.2979E-12 -0.2265E-06 -0.5958E-08  0.1992E-13 -0.9616E-15 -0.5939E-08 -0.5958E-08  0.1416E-13  0.1299E-13 -0.5939E-08 -0.1738E-12 -0.1453E-17  0.8973E-18  0.1730E-12 -0.5958E-08 -0.1560E-14  0.6409E-15 -0.5939E-08 -0.2731E-12 -0.8929E-17 -0.9601E-17 -0.1575E-12
     -2.812 -0.2467E-03 -0.2666E-10 -0.3031E-11 -0.2428E-03 -0.1965E-05  0.1893E-11  0.1041E-11 -0.1934E-05 -0.1965E-05 -0.1432E-11  0.1536E-11 -0.1934E-05 -0.1965E-05 -0.1056E-11 -0.2541E-11 -0.1934E-05 -0.5136E-07  0.1719E-12 -0.8276E-14 -0.5078E-07 -0.5136E-07  0.1231E-12  0.1099E-12 -0.5078E-07 -0.1502E-11 -0.1131E-16  0.7308E-17  0.1476E-11 -0.5136E-07 -0.1317E-13  0.4137E-14 -0.5078E-07 -0.2352E-11 -0.7759E-16 -0.8157E-16 -0.1353E-11
     -2.707 -0.9743E-03 -0.1037E-09 -0.1057E-10 -0.9114E-03 -0.7763E-05  0.7279E-11  0.4373E-11 -0.7259E-05 -0.7763E-05 -0.5465E-11  0.6325E-11 -0.7259E-05 -0.7763E-05 -0.3847E-11 -0.9498E-11 -0.7259E-05 -0.2014E-06  0.6765E-12 -0.3223E-13 -0.1921E-06 -0.2014E-06  0.5000E-12  0.3959E-12 -0.1921E-06 -0.6016E-11 -0.2374E-16  0.2145E-16  0.5457E-11 -0.2014E-06 -0.4684E-13 -0.7682E-14 -0.1921E-06 -0.9243E-11 -0.3147E-15 -0.2992E-15 -0.5289E-11
     -2.602 -0.7152E-03 -0.6036E-10  0.6388E-11 -0.1900E-03 -0.5709E-05  0.3344E-11  0.5860E-11 -0.1502E-05 -0.5709E-05 -0.2102E-11  0.7243E-11 -0.1502E-05 -0.5709E-05  0.4310E-12 -0.1549E-11 -0.1502E-05 -0.1335E-06  0.4723E-12 -0.1904E-13 -0.5546E-07 -0.1335E-06  0.5071E-12 -0.9654E-13 -0.5546E-07 -0.1211E-10  0.1715E-15 -0.4614E-16 -0.6605E-11 -0.1335E-06  0.1760E-13 -0.2478E-12 -0.5545E-07 -0.1318E-10 -0.2713E-15  0.1917E-16 -0.1018E-10
     -2.497  0.6116E-02  0.7285E-09  0.1355E-09  0.8063E-02  0.4868E-04 -0.5546E-10 -0.1449E-10  0.6427E-04  0.4868E-04  0.4364E-10 -0.2700E-10  0.6427E-04  0.4868E-04  0.4008E-10  0.8615E-10  0.6427E-04  0.1335E-05 -0.4367E-11  0.2242E-12  0.1624E-05  0.1335E-05 -0.2454E-11 -0.4378E-11  0.1624E-05 -0.3701E-09 -0.1262E-15  0.2604E-15 -0.4562E-09  0.1335E-05  0.5478E-12 -0.1136E-11  0.1624E-05 -0.3435E-09  0.4076E-14  0.3458E-14 -0.3677E-09
     -2.392  0.1952E-01  0.2143E-08  0.2687E-09  0.2018E-01  0.1554E-03 -0.1536E-09 -0.7692E-10  0.1607E-03  0.1554E-03  0.1172E-09 -0.1164E-09  0.1607E-03  0.1554E-03  0.9080E-10  0.2125E-09  0.1607E-03  0.4086E-05 -0.1370E-10  0.6431E-12  0.4184E-05  0.4085E-05 -0.9450E-11 -0.9497E-11  0.4184E-05 -0.1182E-07 -0.3734E-13  0.2177E-13 -0.1206E-07  0.4085E-05  0.1134E-11 -0.8421E-12  0.4184E-05 -0.1176E-07  0.8004E-13  0.2019E-13 -0.1182E-07
     -2.287  0.2831E-01  0.2589E-08 -0.8291E-10  0.1316E-01  0.2238E-03 -0.1515E-09 -0.1999E-09  0.1024E-03  0.2238E-03  0.1065E-09 -0.2575E-09  0.1024E-03  0.2238E-03  0.3179E-10  0.1333E-09  0.1024E-03  0.5323E-05 -0.1972E-10  0.4713E-12  0.3071E-05  0.5322E-05 -0.1832E-10 -0.9396E-12  0.3071E-05 -0.1901E-06 -0.6217E-12  0.3602E-12 -0.1899E-06  0.5322E-05 -0.2875E-12  0.6565E-11  0.3071E-05 -0.1901E-06  0.1190E-11  0.2129E-12 -0.1897E-06
     -2.182  0.2791E-01  0.1808E-08 -0.8096E-09 -0.1255E-01  0.2063E-03 -0.1167E-10 -0.3316E-09 -0.1176E-03  0.2064E-03  0.8804E-11 -0.4016E-09 -0.1176E-03  0.2064E-03 -0.6648E-10 -0.9864E-10 -0.1176E-03  0.3531E-05 -0.2343E-10 -0.2205E-11 -0.2471E-05  0.3531E-05 -0.2474E-10  0.1821E-10 -0.2471E-05 -0.1567E-05 -0.5105E-11  0.2965E-11 -0.1552E-05  0.3531E-05 -0.4537E-11  0.1653E-10 -0.2471E-05 -0.1567E-05  0.9654E-11  0.1699E-11 -0.1552E-05
     -2.077  0.1755E-01  0.9430E-09 -0.8719E-09 -0.2328E-01  0.7800E-04  0.1502E-09 -0.2741E-09 -0.2453E-03  0.7800E-04 -0.3991E-10 -0.3640E-09 -0.2453E-03  0.7800E-04  0.1009E-09 -0.4019E-10 -0.2453E-03 -0.1529E-05 -0.3202E-10 -0.9653E-11 -0.7432E-05 -0.1528E-05 -0.1768E-10  0.1892E-10 -0.7431E-05 -0.5762E-05 -0.1893E-10  0.1098E-10 -0.5521E-05 -0.1528E-05 -0.9966E-11  0.8825E-11 -0.7431E-05 -0.5762E-05  0.3433E-10  0.5839E-11 -0.5521E-05
     -1.972  0.5502E-02  0.4687E-10 -0.2922E-09 -0.8940E-02  0.1277E-04 -0.8629E-10 -0.1324E-09 -0.7065E-04  0.1277E-04 -0.5353E-10 -0.8480E-10 -0.7065E-04  0.1277E-04 -0.9980E-10 -0.8727E-10 -0.7065E-04 -0.9446E-06 -0.9847E-11 -0.1218E-11 -0.1720E-05 -0.9446E-06 -0.9203E-11  0.8718E-11 -0.1720E-05 -0.2422E-05 -0.1004E-10  0.5594E-11 -0.4066E-06 -0.9446E-06 -0.7271E-11  0.7576E-11 -0.1720E-05 -0.2422E-05  0.2881E-11 -0.1987E-11 -0.4067E-06
     -1.867  0.1885E-01 -0.1628E-08 -0.2866E-09  0.2475E-01  0.5737E-03 -0.1730E-08 -0.4118E-09  0.7412E-03  0.5737E-03 -0.1846E-09  0.3649E-09  0.7412E-03  0.5737E-03 -0.2763E-08 -0.1828E-08  0.7412E-03  0.3243E-04  0.1542E-09  0.8484E-10  0.3841E-04  0.3243E-04 -0.4538E-10  0.3980E-10  0.3841E-04  0.4112E-04  0.1249E-09 -0.7363E-10  0.4863E-04  0.3243E-04  0.3230E-10  0.1028E-09  0.3841E-04  0.4112E-04 -0.3005E-09 -0.6315E-10  0.4863E-04
     -1.762  0.5532E-01 -0.2432E-08 -0.1315E-08  0.5926E-01  0.1673E-02 -0.3350E-08 -0.8495E-09  0.1748E-02  0.1673E-02 -0.2028E-09  0.5362E-09  0.1748E-02  0.1673E-02 -0.6351E-08 -0.4451E-08  0.1748E-02  0.9066E-04  0.4073E-09  0.2097E-09  0.9308E-04  0.9066E-04 -0.9865E-10  0.1006E-09  0.9307E-04  0.1150E-03  0.3699E-09 -0.2154E-09  0.1177E-03  0.9066E-04  0.1206E-09  0.2441E-09  0.9307E-04  0.1150E-03 -0.7307E-09 -0.1338E-09  0.1177E-03
     -1.657  0.7740E-01  0.3934E-08 -0.3538E-08  0.3581E-01  0.2317E-02  0.8320E-09 -0.6906E-10  0.1052E-02  0.2317E-02  0.7699E-09 -0.9781E-09  0.1052E-02  0.2317E-02 -0.3379E-08 -0.3403E-08  0.1052E-02  0.1116E-03  0.4325E-09  0.1687E-09  0.6585E-04  0.1116E-03 -0.3083E-10  0.9666E-10  0.6585E-04  0.1438E-03  0.5347E-09 -0.3011E-09  0.8556E-04  0.1116E-03  0.2536E-09  0.1595E-09  0.6585E-04  0.1438E-03 -0.5472E-09 -0.2046E-10  0.8556E-04
     -1.552  0.7655E-01  0.1566E-07 -0.6351E-08 -0.3665E-01  0.2270E-02  0.9497E-08  0.1711E-08 -0.1141E-02  0.2270E-02  0.2384E-08 -0.3679E-08 -0.1141E-02  0.2270E-02  0.5086E-08  0.9932E-09 -0.1141E-02  0.8094E-04  0.2381E-09 -0.3124E-10 -0.4210E-04  0.8094E-04  0.1315E-09  0.4344E-10 -0.4210E-04  0.1171E-03  0.5846E-09 -0.3039E-09 -0.3931E-04  0.8094E-04  0.3971E-09 -0.1356E-09 -0.4210E-04  0.1171E-03  0.1822E-09  0.2583E-09 -0.3931E-04
     -1.447  0.5365E-01  0.1719E-07 -0.6146E-08 -0.6135E-01  0.1551E-02  0.1100E-07  0.2078E-08 -0.1906E-02  0.1551E-02  0.2436E-08 -0.3921E-08 -0.1906E-02  0.1551E-02  0.7466E-08  0.2797E-08 -0.1906E-02  0.3001E-04  0.1034E-09 -0.1314E-09 -0.9323E-04  0.3002E-04  0.1574E-09  0.3102E-10 -0.9323E-04  0.6824E-04  0.4667E-09 -0.2156E-09 -0.9040E-04  0.3002E-04  0.3614E-09 -0.2532E-09 -0.9323E-04  0.6824E-04  0.4655E-09  0.3446E-09 -0.9041E-04
     -1.342  0.2482E-01  0.5013E-08 -0.1007E-08 -0.1793E-01  0.8517E-03  0.4958E-08  0.7909E-09 -0.3867E-03  0.8517E-03  0.1761E-08 -0.1503E-08 -0.3867E-03  0.8517E-03  0.4060E-08  0.1040E-08 -0.3867E-03  0.7554E-04 -0.3592E-10 -0.2349E-10  0.4133E-04  0.7554E-04  0.9207E-10 -0.1228E-09  0.4132E-04  0.4272E-04  0.6581E-10 -0.8756E-10 -0.1515E-04  0.7554E-04  0.7764E-10 -0.3401E-12  0.4132E-04  0.4272E-04  0.2405E-09 -0.1314E-10 -0.1514E-04
     -1.238  0.3270E-01 -0.9465E-08  0.6699E-08  0.3986E-01  0.1686E-02  0.1440E-08 -0.2646E-09  0.2032E-02  0.1686E-02  0.3340E-08  0.1818E-09  0.2032E-02  0.1686E-02  0.4459E-08 -0.1102E-08  0.2032E-02  0.3548E-03 -0.3726E-09  0.2462E-09  0.3951E-03  0.3548E-03  0.1940E-09 -0.6635E-09  0.3950E-03  0.1077E-03 -0.5199E-09 -0.8740E-10  0.1206E-03  0.3548E-03 -0.2685E-09  0.5324E-09  0.3950E-03  0.1077E-03  0.1511E-09 -0.7719E-09  0.1207E-03
     -1.133  0.5885E-01 -0.1671E-07  0.1058E-07  0.5891E-01  0.3050E-02 -0.1881E-08 -0.4386E-09  0.2930E-02  0.3050E-02  0.3070E-08  0.1599E-09  0.2930E-02  0.3050E-02  0.6714E-08 -0.1732E-08  0.2930E-02  0.6139E-03 -0.8060E-09  0.6028E-09  0.5838E-03  0.6139E-03  0.4951E-09 -0.1066E-08  0.5838E-03  0.1830E-03 -0.8475E-09 -0.2342E-09  0.1801E-03  0.6139E-03 -0.3417E-09  0.8174E-09  0.5838E-03  0.1830E-03  0.2225E-09 -0.1244E-08  0.1801E-03
     -1.028  0.6683E-01 -0.1449E-07  0.5752E-08  0.7665E-02  0.3419E-02 -0.1547E-07 -0.2282E-11  0.3055E-03  0.3419E-02 -0.6172E-08 -0.9369E-09  0.3055E-03  0.3419E-02  0.4363E-08 -0.3212E-09  0.3055E-03  0.5752E-03 -0.1351E-08  0.1160E-08  0.1809E-03  0.5752E-03  0.1067E-08 -0.7175E-09  0.1809E-03  0.1533E-03 -0.5813E-09 -0.5518E-09  0.3990E-04  0.5752E-03  0.1564E-09  0.3642E-09  0.1809E-03  0.1533E-03  0.2064E-09 -0.8152E-09  0.3992E-04
     -0.923  0.6165E-01 -0.9868E-08 -0.7872E-09 -0.5464E-01  0.3113E-02 -0.2991E-07  0.4718E-09 -0.2940E-02  0.3113E-02 -0.1622E-07 -0.1851E-08 -0.2940E-02  0.3113E-02  0.5584E-09  0.1391E-08 -0.2940E-02  0.4134E-03 -0.1794E-08  0.1633E-08 -0.3459E-03  0.4134E-03  0.1594E-08 -0.1482E-09 -0.3459E-03  0.6323E-04 -0.1699E-09 -0.8873E-09 -0.1570E-03  0.4134E-03  0.7425E-09 -0.2286E-09 -0.3459E-03  0.6322E-04  0.1733E-09 -0.2002E-09 -0.1570E-03
     -0.818  0.4329E-01 -0.5528E-08 -0.2180E-08 -0.4570E-01  0.2284E-02 -0.2201E-07  0.6131E-09 -0.2316E-02  0.2284E-02 -0.1334E-07 -0.1505E-08 -0.2316E-02  0.2284E-02 -0.6554E-09  0.1176E-08 -0.2316E-02  0.2757E-03 -0.1202E-08  0.1155E-08 -0.3043E-03  0.2757E-03  0.1077E-08 -0.3810E-10 -0.3043E-03  0.1078E-03 -0.1495E-10 -0.4221E-09 -0.4943E-04  0.2757E-03  0.5604E-09 -0.3273E-09 -0.3043E-03  0.1078E-03 -0.7762E-10  0.1256E-09 -0.4943E-04
     -0.713  0.4021E-01 -0.1893E-08 -0.1526E-08  0.2220E-01  0.2839E-02  0.3225E-08  0.9680E-09  0.2040E-02  0.2839E-02 -0.5070E-08 -0.1787E-08  0.2040E-02  0.2839E-02 -0.7445E-09 -0.9090E-09  0.2040E-02  0.3840E-03  0.2148E-09  0.1465E-09  0.2680E-03  0.3840E-03 -0.4530E-09 -0.6452E-09  0.2679E-03  0.6346E-03 -0.3680E-10  0.1496E-08  0.6543E-03  0.3840E-03 -0.4279E-09 -0.3325E-09  0.2679E-03  0.6347E-03 -0.1186E-08  0.8044E-09  0.6543E-03
     -0.608  0.6317E-01 -0.2335E-09 -0.1994E-08  0.7342E-01  0.4909E-02  0.2128E-07  0.1111E-08  0.5580E-02  0.4909E-02 -0.2787E-08 -0.4001E-08  0.5580E-02  0.4909E-02 -0.6617E-09 -0.2746E-08  0.5580E-02  0.6696E-03  0.1069E-08 -0.3151E-09  0.7378E-03  0.6696E-03 -0.1601E-08 -0.1443E-08  0.7377E-03  0.1292E-02 -0.1358E-09  0.3335E-08  0.1365E-02  0.6696E-03 -0.1332E-08 -0.4507E-09  0.7377E-03  0.1292E-02 -0.2262E-08  0.1625E-08  0.1365E-02
     -0.503  0.6998E-01  0.6163E-08 -0.3956E-08  0.3948E-01  0.5393E-02  0.2411E-07 -0.2496E-08  0.2905E-02  0.5393E-02 -0.4742E-08 -0.8237E-08  0.2905E-02  0.5393E-02  0.1518E-08 -0.3211E-09  0.2905E-02  0.5782E-03  0.5614E-09 -0.1388E-09  0.3706E-03  0.5782E-03 -0.8198E-09 -0.9081E-09  0.3706E-03  0.1216E-02 -0.5883E-09  0.2142E-08  0.8065E-03  0.5782E-03 -0.1034E-08  0.3171E-10  0.3706E-03  0.1216E-02 -0.5140E-09  0.1513E-08  0.8066E-03
     -0.398  0.7249E-01  0.1764E-07 -0.7930E-08 -0.4404E-01  0.5608E-02  0.2535E-07 -0.1194E-07 -0.3522E-02  0.5609E-02 -0.8501E-08 -0.1490E-07 -0.3522E-02  0.5608E-02  0.4861E-08  0.7120E-08 -0.3522E-02  0.4490E-03 -0.3740E-09  0.4501E-09 -0.3375E-03  0.4489E-03  0.1309E-08  0.9194E-09 -0.3376E-03  0.9381E-03 -0.1810E-08 -0.1215E-08 -0.4792E-03  0.4489E-03  0.1151E-09  0.1093E-08 -0.3376E-03  0.9381E-03  0.3366E-08  0.8455E-09 -0.4792E-03
     -0.293  0.9184E-01  0.1057E-07 -0.1002E-07 -0.4703E-01  0.7524E-02  0.2859E-07 -0.2447E-07 -0.3301E-02  0.7524E-02 -0.9456E-08 -0.1527E-07 -0.3301E-02  0.7524E-02  0.7120E-09  0.1477E-07 -0.3301E-02  0.1524E-02  0.5138E-09  0.1875E-08  0.6171E-03  0.1524E-02  0.2092E-08  0.2233E-08  0.6169E-03  0.1557E-02 -0.3635E-08 -0.3007E-08 -0.1148E-03  0.1524E-02  0.7402E-09  0.1094E-08  0.6169E-03  0.1557E-02  0.3506E-08  0.1627E-09 -0.1146E-03
     -0.188  0.1073E+00 -0.1932E-07 -0.7400E-08  0.4796E-01  0.9462E-02  0.2592E-07 -0.3656E-07  0.4979E-02  0.9462E-02 -0.4955E-08 -0.4867E-08  0.4979E-02  0.9462E-02 -0.1199E-07  0.1952E-07  0.4979E-02  0.3629E-02  0.3343E-08  0.4018E-08  0.3369E-02  0.3629E-02  0.1054E-08  0.2489E-08  0.3368E-02  0.2775E-02 -0.5486E-08 -0.2682E-08  0.2097E-02  0.3629E-02  0.6598E-09 -0.3869E-09  0.3368E-02  0.2776E-02 -0.1215E-08 -0.7905E-09  0.2097E-02
     -0.083  0.9071E-01 -0.3404E-07 -0.4251E-08  0.9233E-01  0.8341E-02  0.1852E-07 -0.3336E-07  0.8574E-02  0.8341E-02 -0.1354E-08  0.2214E-08  0.8574E-02  0.8341E-02 -0.1662E-07  0.1706E-07  0.8574E-02  0.3967E-02  0.4251E-08  0.4301E-08  0.4074E-02  0.3966E-02  0.6884E-10  0.2021E-08  0.4073E-02  0.2824E-02 -0.5079E-08 -0.1776E-08  0.2870E-02  0.3966E-02  0.3789E-09 -0.1079E-08  0.4073E-02  0.2824E-02 -0.3821E-08 -0.1014E-08  0.2870E-02