unknown system                          
   1.00000000000000     
     2.797499   -0.000000    0.000000
     0.000000    2.797499    0.000000
    -0.000000   -0.000000    2.797499
   Fe
     2
Direct
  0.000000  0.000000  0.000000
  0.500000  0.500000  0.500000
 
   36   36   36
  199.03      194.06      179.85      158.33      132.27      104.67      78.305      55.308      36.985      23.759    
  15.273      10.565      8.3598      7.2802      6.5124      5.9919      5.6725      5.5102      5.4582      5.5102    
  5.6725      5.9919      6.5124      7.2802      8.3598      10.565      15.273      23.759      36.985      55.308    
  78.305      104.67      132.27      158.33      179.85      194.06      194.06      189.23      175.42      154.50    
  129.13      102.23      76.504      54.052      36.167      23.270      15.016      10.455      8.3242      7.2640    
  6.5023      5.9884      5.6727      5.5129      5.4612      5.5129      5.6727      5.9884      6.5023      7.2640    
  8.3242      10.455      15.016      23.270      36.167      54.052      76.504      102.23      129.13      154.50    
  175.42      189.23      179.85      175.42      162.75      143.50      120.08      95.180      71.299      50.424    
  33.804      21.865      14.285      10.148      8.2242      7.2148      6.4728      5.9779      5.6732      5.5202    
  5.4700      5.5202      5.6732      5.9779      6.4728      7.2148      8.2242      10.148      14.285      21.865    
  33.804      50.424      71.299      95.180      120.08      143.50      162.75      175.42      158.33      154.50    
  143.50      126.73      106.24      84.347      63.272      44.824      30.173      19.730      13.196      9.7037    
  8.0746      7.1311      6.4250      5.9599      5.6742      5.5310      5.4840      5.5310      5.6742      5.9599    
  6.4250      7.1311      8.0746      9.7037      13.196      19.730      30.173      44.824      63.272      84.347    
  106.24      126.73      143.50      154.50      132.27      129.13      120.08      106.24      89.234      70.968    
  53.330      37.902      25.722      17.163      11.928      9.2072      7.8890      7.0123      6.3621      5.9344    
  5.6755      5.5434      5.5020      5.5434      5.6755      5.9344      6.3621      7.0123      7.8890      9.2072    
  11.928      17.163      25.722      37.902      53.330      70.968      89.234      106.24      120.08      129.13    
  104.67      102.23      95.180      84.347      70.968      56.547      42.611      30.482      21.026      14.530    
  10.684      8.7330      7.6678      6.8640      6.2865      5.9031      5.6760      5.5562      5.5216      5.5562    
  5.6760      5.9031      6.2865      6.8640      7.6678      8.7330      10.684      14.530      21.026      30.482    
  42.611      56.547      70.968      84.347      95.180      102.23      78.305      76.504      71.299      63.272    
  53.330      42.611      32.304      23.440      16.678      12.190      9.6379      8.3067      7.4064      6.6988    
  6.2003      5.8695      5.6732      5.5691      5.5387      5.5691      5.6732      5.8695      6.2003      6.6988    
  7.4064      8.3067      9.6379      12.190      16.678      23.440      32.304      42.611      53.330      63.272    
  71.299      76.504      55.308      54.052      50.424      44.824      37.902      30.482      23.440      17.515    
  13.158      10.389      8.8511      7.8936      7.1179      6.5284      6.1087      5.8350      5.6667      5.5802    
  5.5519      5.5802      5.6667      5.8350      6.1087      6.5284      7.1179      7.8936      8.8511      10.389    
  13.158      17.515      23.440      30.482      37.902      44.824      50.424      54.052      36.985      36.167    
  33.804      30.173      25.722      21.026      16.678      13.158      10.687      9.1793      8.2347      7.4640    
  6.8335      6.3578      6.0214      5.7973      5.6591      5.5848      5.5618      5.5848      5.6591      5.7973    
  6.0214      6.3578      6.8335      7.4640      8.2347      9.1793      10.687      13.158      16.678      21.026    
  25.722      30.173      33.804      36.167      23.759      23.270      21.865      19.730      17.163      14.530    
  12.190      10.389      9.1793      8.3584      7.6600      7.0524      6.5670      6.2001      5.9382      5.7598    
  5.6470      5.5848      5.5652      5.5848      5.6470      5.7598      5.9382      6.2001      6.5670      7.0524    
  7.6600      8.3584      9.1793      10.389      12.190      14.530      17.163      19.730      21.865      23.270    
  15.273      15.016      14.285      13.196      11.928      10.684      9.6379      8.8511      8.2347      7.6600    
  7.1322      6.6871      6.3306      6.0600      5.8619      5.7231      5.6311      5.5789      5.5618      5.5789    
  5.6311      5.7231      5.8619      6.0600      6.3306      6.6871      7.1322      7.6600      8.2347      8.8511    
  9.6379      10.684      11.928      13.196      14.285      15.016      10.565      10.455      10.148      9.7037    
  9.2072      8.7330      8.3067      7.8936      7.4640      7.0524      6.6871      6.3786      6.1313      5.9389    
  5.7927      5.6847      5.6103      5.5663      5.5519      5.5663      5.6103      5.6847      5.7927      5.9389    
  6.1313      6.3786      6.6871      7.0524      7.4640      7.8936      8.3067      8.7330      9.2072      9.7037    
  10.148      10.455      8.3598      8.3242      8.2242      8.0746      7.8890      7.6678      7.4064      7.1179    
  6.8335      6.5670      6.3306      6.1313      5.9675      5.8346      5.7282      5.6464      5.5872      5.5511    
  5.5387      5.5511      5.5872      5.6464      5.7282      5.8346      5.9675      6.1313      6.3306      6.5670    
  6.8335      7.1179      7.4064      7.6678      7.8890      8.0746      8.2242      8.3242      7.2802      7.2640    
  7.2148      7.1311      7.0123      6.8640      6.6988      6.5284      6.3578      6.2001      6.0600      5.9389    
  5.8346      5.7451      5.6705      5.6089      5.5619      5.5318      5.5216      5.5318      5.5619      5.6089    
  5.6705      5.7451      5.8346      5.9389      6.0600      6.2001      6.3578      6.5284      6.6988      6.8640    
  7.0123      7.1311      7.2148      7.2640      6.5124      6.5023      6.4728      6.4250      6.3621      6.2865    
  6.2003      6.1087      6.0214      5.9382      5.8619      5.7927      5.7282      5.6705      5.6179      5.5715    
  5.5343      5.5104      5.5020      5.5104      5.5343      5.5715      5.6179      5.6705      5.7282      5.7927    
  5.8619      5.9382      6.0214      6.1087      6.2003      6.2865      6.3621      6.4250      6.4728      6.5023    
  5.9919      5.9884      5.9779      5.9599      5.9344      5.9031      5.8695      5.8350      5.7973      5.7598    
  5.7231      5.6847      5.6464      5.6089      5.5715      5.5367      5.5086      5.4904      5.4840      5.4904    
  5.5086      5.5367      5.5715      5.6089      5.6464      5.6847      5.7231      5.7598      5.7973      5.8350    
  5.8695      5.9031      5.9344      5.9599      5.9779      5.9884      5.6725      5.6727      5.6732      5.6742    
  5.6755      5.6760      5.6732      5.6667      5.6591      5.6470      5.6311      5.6103      5.5872      5.5619    
  5.5343      5.5086      5.4879      5.4746      5.4700      5.4746      5.4879      5.5086      5.5343      5.5619    
  5.5872      5.6103      5.6311      5.6470      5.6591      5.6667      5.6732      5.6760      5.6755      5.6742    
  5.6732      5.6727      5.5102      5.5129      5.5202      5.5310      5.5434      5.5562      5.5691      5.5802    
  5.5848      5.5848      5.5789      5.5663      5.5511      5.5318      5.5104      5.4904      5.4746      5.4646    
  5.4612      5.4646      5.4746      5.4904      5.5104      5.5318      5.5511      5.5663      5.5789      5.5848    
  5.5848      5.5802      5.5691      5.5562      5.5434      5.5310      5.5202      5.5129      5.4582      5.4612    
  5.4700      5.4840      5.5020      5.5216      5.5387      5.5519      5.5618      5.5652      5.5618      5.5519    
  5.5387      5.5216      5.5020      5.4840      5.4700      5.4612      5.4582      5.4612      5.4700      5.4840    
  5.5020      5.5216      5.5387      5.5519      5.5618      5.5652      5.5618      5.5519      5.5387      5.5216    
  5.5020      5.4840      5.4700      5.4612      5.5102      5.5129      5.5202      5.5310      5.5434      5.5562    
  5.5691      5.5802      5.5848      5.5848      5.5789      5.5663      5.5511      5.5318      5.5104      5.4904    
  5.4746      5.4646      5.4612      5.4646      5.4746      5.4904      5.5104      5.5318      5.5511      5.5663    
  5.5789      5.5848      5.5848      5.5802      5.5691      5.5562      5.5434      5.5310      5.5202      5.5129    
  5.6725      5.6727      5.6732      5.6742      5.6755      5.6760      5.6732      5.6667      5.6591      5.6470    
  5.6311      5.6103      5.5872      5.5619      5.5343      5.5086      5.4879      5.4746      5.4700      5.4746    
  5.4879      5.5086      5.5343      5.5619      5.5872      5.6103      5.6311      5.6470      5.6591      5.6667    
  5.6732      5.6760      5.6755      5.6742      5.6732      5.6727      5.9919      5.9884      5.9779      5.9599    
  5.9344      5.9031      5.8695      5.8350      5.7973      5.7598      5.7231      5.6847      5.6464      5.6089    
  5.5715      5.5367      5.5086      5.4904      5.4840      5.4904      5.5086      5.5367      5.5715      5.6089    
  5.6464      5.6847      5.7231      5.7598      5.7973      5.8350      5.8695      5.9031      5.9344      5.9599    
  5.9779      5.9884      6.5124      6.5023      6.4728      6.4250      6.3621      6.2865      6.2003      6.1087    
  6.0214      5.9382      5.8619      5.7927      5.7282      5.6705      5.6179      5.5715      5.5343      5.5104    
  5.5020      5.5104      5.5343      5.5715      5.6179      5.6705      5.7282      5.7927      5.8619      5.9382    
  6.0214      6.1087      6.2003      6.2865      6.3621      6.4250      6.4728      6.5023      7.2802      7.2640    
  7.2148      7.1311      7.0123      6.8640      6.6988      6.5284      6.3578      6.2001      6.0600      5.9389    
  5.8346      5.7451      5.6705      5.6089      5.5619      5.5318      5.5216      5.5318      5.5619      5.6089    
  5.6705      5.7451      5.8346      5.9389      6.0600      6.2001      6.3578      6.5284      6.6988      6.8640    
  7.0123      7.1311      7.2148      7.2640      8.3598      8.3242      8.2242      8.0746      7.8890      7.6678    
  7.4064      7.1179      6.8335      6.5670      6.3306      6.1313      5.9675      5.8346      5.7282      5.6464    
  5.5872      5.5511      5.5387      5.5511      5.5872      5.6464      5.7282      5.8346      5.9675      6.1313    
  6.3306      6.5670      6.8335      7.1179      7.4064      7.6678      7.8890      8.0746      8.2242      8.3242    
  10.565      10.455      10.148      9.7037      9.2072      8.7330      8.3067      7.8936      7.4640      7.0524    
  6.6871      6.3786      6.1313      5.9389      5.7927      5.6847      5.6103      5.5663      5.5519      5.5663    
  5.6103      5.6847      5.7927      5.9389      6.1313      6.3786      6.6871      7.0524      7.4640      7.8936    
  8.3067      8.7330      9.2072      9.7037      10.148      10.455      15.273      15.016      14.285      13.196    
  11.928      10.684      9.6379      8.8511      8.2347      7.6600      7.1322      6.6871      6.3306      6.0600    
  5.8619      5.7231      5.6311      5.5789      5.5618      5.5789      5.6311      5.7231      5.8619      6.0600    
  6.3306      6.6871      7.1322      7.6600      8.2347      8.8511      9.6379      10.684      11.928      13.196    
  14.285      15.016      23.759      23.270      21.865      19.730      17.163      14.530      12.190      10.389    
  9.1793      8.3584      7.6600      7.0524      6.5670      6.2001      5.9382      5.7598      5.6470      5.5848    
  5.5652      5.5848      5.6470      5.7598      5.9382      6.2001      6.5670      7.0524      7.6600      8.3584    
  9.1793      10.389      12.190      14.530      17.163      19.730      21.865      23.270      36.985      36.167    
  33.804      30.173      25.722      21.026      16.678      13.158      10.687      9.1793      8.2347      7.4640    
  6.8335      6.3578      6.0214      5.7973      5.6591      5.5848      5.5618      5.5848      5.6591      5.7973    
  6.0214      6.3578      6.8335      7.4640      8.2347      9.1793      10.687      13.158      16.678      21.026    
  25.722      30.173      33.804      36.167      55.308      54.052      50.424      44.824      37.902      30.482    
  23.440      17.515      13.158      10.389      8.8511      7.8936      7.1179      6.5284      6.1087      5.8350    
  5.6667      5.5802      5.5519      5.5802      5.6667      5.8350      6.1087      6.5284      7.1179      7.8936    
  8.8511      10.389      13.158      17.515      23.440      30.482      37.902      44.824      50.424      54.052    
  78.305      76.504      71.299      63.272      53.330      42.611      32.304      23.440      16.678      12.190    
  9.6379      8.3067      7.4064      6.6988      6.2003      5.8695      5.6732      5.5691      5.5387      5.5691    
  5.6732      5.8695      6.2003      6.6988      7.4064      8.3067      9.6379      12.190      16.678      23.440    
  32.304      42.611      53.330      63.272      71.299      76.504      104.67      102.23      95.180      84.347    
  70.968      56.547      42.611      30.482      21.026      14.530      10.684      8.7330      7.6678      6.8640    
  6.2865      5.9031      5.6760      5.5562      5.5216      5.5562      5.6760      5.9031      6.2865      6.8640    
  7.6678      8.7330      10.684      14.530      21.026      30.482      42.611      56.547      70.968      84.347    
  95.180      102.23      132.27      129.13      120.08      106.24      89.234      70.968      53.330      37.902    
  25.722      17.163      11.928      9.2072      7.8890      7.0123      6.3621      5.9344      5.6755      5.5434    
  5.5020      5.5434      5.6755      5.9344      6.3621      7.0123      7.8890      9.2072      11.928      17.163    
  25.722      37.902      53.330      70.968      89.234      106.24      120.08      129.13      158.33      154.50    
  143.50      126.73      106.24      84.347      63.272      44.824      30.173      19.730      13.196      9.7037    
  8.0746      7.1311      6.4250      5.9599      5.6742      5.5310      5.4840      5.5310      5.6742      5.9599    
  6.4250      7.1311      8.0746      9.7037      13.196      19.730      30.173      44.824      63.272      84.347    
  106.24      126.73      143.50      154.50      179.85      175.42      162.75      143.50      120.08      95.180    
  71.299      50.424      33.804      21.865      14.285      10.148      8.2242      7.2148      6.4728      5.9779    
  5.6732      5.5202      5.4700      5.5202      5.6732      5.9779      6.4728      7.2148      8.2242      10.148    
  14.285      21.865      33.804      50.424      71.299      95.180      120.08      143.50      162.75      175.42    
  194.06      189.23      175.42      154.50      129.13      102.23      76.504      54.052      36.167      23.270    
  15.016      10.455      8.3242      7.2640      6.5023      5.9884      5.6727      5.5129      5.4612      5.5129    
  5.6727      5.9884      6.5023      7.2640      8.3242      10.455      15.016      23.270      36.167      54.052    
  76.504      102.23      129.13      154.50      175.42      189.23      194.06      189.23      175.42      154.50    
  129.13      102.23      76.504      54.052      36.167      23.270      15.016      10.455      8.3242      7.2640    
  6.5023      5.9884      5.6727      5.5129      5.4612      5.5129      5.6727      5.9884      6.5023      7.2640    
  8.3242      10.455      15.016      23.270      36.167      54.052      76.504      102.23      129.13      154.50    
  175.42      189.23      189.23      184.54      171.12      150.77      126.06      99.842      74.743      52.824    
  35.368      22.793      14.767      10.350      8.2906      7.2483      6.4929      5.9855      5.6733      5.5158    
  5.4646      5.5158      5.6733      5.9855      6.4929      7.2483      8.2906      10.350      14.767      22.793    
  35.368      52.824      74.743      99.842      126.06      150.77      171.12      184.54      175.42      171.12    
  158.79      140.06      117.25      92.962      69.655      49.276      33.058      21.424      14.059      10.055    
  8.1955      7.2006      6.4651      5.9762      5.6752      5.5242      5.4746      5.5242      5.6752      5.9762    
  6.4651      7.2006      8.1955      10.055      14.059      21.424      33.058      49.276      69.655      92.962    
  117.25      140.06      158.79      171.12      154.50      150.77      140.06      123.72      103.75      82.382    
  61.808      43.801      29.512      19.346      13.006      9.6308      8.0523      7.1190      6.4203      5.9602    
  5.6782      5.5365      5.4904      5.5365      5.6782      5.9602      6.4203      7.1190      8.0523      9.6308    
  13.006      19.346      29.512      43.801      61.808      82.382      103.75      123.72      140.06      150.77    
  129.13      126.06      117.25      103.75      87.147      69.314      52.094      37.041      25.172      16.852    
  11.782      9.1566      7.8727      7.0033      6.3606      5.9373      5.6819      5.5509      5.5104      5.5509    
  5.6819      5.9373      6.3606      7.0033      7.8727      9.1566      11.782      16.852      25.172      37.041    
  52.094      69.314      87.147      103.75      117.25      126.06      102.23      99.842      92.962      82.382    
  69.314      55.230      41.629      29.803      20.602      14.302      10.586      8.7028      7.6559      6.8590    
  6.2884      5.9092      5.6846      5.5660      5.5318      5.5660      5.6846      5.9092      6.2884      6.8590    
  7.6559      8.7028      10.586      14.302      20.602      29.803      41.629      55.230      69.314      82.382    
  92.962      99.842      76.504      74.743      69.655      61.808      52.094      41.629      31.577      22.947    
  16.383      12.042      9.5828      8.2898      7.3984      6.6986      6.2054      5.8786      5.6842      5.5813    
  5.5511      5.5813      5.6842      5.8786      6.2054      6.6986      7.3984      8.2898      9.5828      12.042    
  16.383      22.947      31.577      41.629      52.094      61.808      69.655      74.743      54.052      52.824    
  49.276      43.801      37.041      29.803      22.947      17.195      12.979      10.310      8.8256      7.8832    
  7.1151      6.5325      6.1176      5.8470      5.6803      5.5944      5.5663      5.5944      5.6803      5.8470    
  6.1176      6.5325      7.1151      7.8832      8.8256      10.310      12.979      17.195      22.947      29.803    
  37.041      43.801      49.276      52.824      36.167      35.368      33.058      29.512      25.172      20.602    
  16.383      12.979      10.598      9.1467      8.2221      7.4590      6.8363      6.3662      6.0338      5.8120    
  5.6754      5.6017      5.5789      5.6017      5.6754      5.8120      6.0338      6.3662      6.8363      7.4590    
  8.2221      9.1467      10.598      12.979      16.383      20.602      25.172      29.512      33.058      35.368    
  23.270      22.793      21.424      19.346      16.852      14.302      12.042      10.310      9.1467      8.3448    
  7.6538      7.0540      6.5748      6.2128      5.9544      5.7782      5.6663      5.6044      5.5848      5.6044    
  5.6663      5.7782      5.9544      6.2128      6.5748      7.0540      7.6538      8.3448      9.1467      10.310    
  12.042      14.302      16.852      19.346      21.424      22.793      15.016      14.767      14.059      13.006    
  11.782      10.586      9.5828      8.8256      8.2221      7.6538      7.1334      6.6945      6.3435      6.0772    
  5.8814      5.7439      5.6531      5.6017      5.5848      5.6017      5.6531      5.7439      5.8814      6.0772    
  6.3435      6.6945      7.1334      7.6538      8.2221      8.8256      9.5828      10.586      11.782      13.006    
  14.059      14.767      10.455      10.350      10.055      9.6308      9.1566      8.7028      8.2898      7.8832    
  7.4590      7.0540      6.6945      6.3916      6.1488      5.9589      5.8157      5.7104      5.6377      5.5944    
  5.5802      5.5944      5.6377      5.7104      5.8157      5.9589      6.1488      6.3916      6.6945      7.0540    
  7.4590      7.8832      8.2898      8.7028      9.1566      9.6308      10.055      10.350      8.3242      8.2906    
  8.1955      8.0523      7.8727      7.6559      7.3984      7.1151      6.8363      6.5748      6.3435      6.1488    
  5.9879      5.8592      5.7564      5.6761      5.6173      5.5813      5.5691      5.5813      5.6173      5.6761    
  5.7564      5.8592      5.9879      6.1488      6.3435      6.5748      6.8363      7.1151      7.3984      7.6559    
  7.8727      8.0523      8.1955      8.2906      7.2640      7.2483      7.2006      7.1190      7.0033      6.8590    
  6.6986      6.5325      6.3662      6.2128      6.0772      5.9589      5.8592      5.7741      5.7008      5.6403    
  5.5946      5.5660      5.5562      5.5660      5.5946      5.6403      5.7008      5.7741      5.8592      5.9589    
  6.0772      6.2128      6.3662      6.5325      6.6986      6.8590      7.0033      7.1190      7.2006      7.2483    
  6.5023      6.4929      6.4651      6.4203      6.3606      6.2884      6.2054      6.1176      6.0338      5.9544    
  5.8814      5.8157      5.7564      5.7008      5.6500      5.6066      5.5728      5.5509      5.5434      5.5509    
  5.5728      5.6066      5.6500      5.7008      5.7564      5.8157      5.8814      5.9544      6.0338      6.1176    
  6.2054      6.2884      6.3606      6.4203      6.4651      6.4929      5.9884      5.9855      5.9762      5.9602    
  5.9373      5.9092      5.8786      5.8470      5.8120      5.7782      5.7439      5.7104      5.6761      5.6403    
  5.6066      5.5767      5.5526      5.5365      5.5310      5.5365      5.5526      5.5767      5.6066      5.6403    
  5.6761      5.7104      5.7439      5.7782      5.8120      5.8470      5.8786      5.9092      5.9373      5.9602    
  5.9762      5.9855      5.6727      5.6733      5.6752      5.6782      5.6819      5.6846      5.6842      5.6803    
  5.6754      5.6663      5.6531      5.6377      5.6173      5.5946      5.5728      5.5526      5.5356      5.5242    
  5.5202      5.5242      5.5356      5.5526      5.5728      5.5946      5.6173      5.6377      5.6531      5.6663    
  5.6754      5.6803      5.6842      5.6846      5.6819      5.6782      5.6752      5.6733      5.5129      5.5158    
  5.5242      5.5365      5.5509      5.5660      5.5813      5.5944      5.6017      5.6044      5.6017      5.5944    
  5.5813      5.5660      5.5509      5.5365      5.5242      5.5158      5.5129      5.5158      5.5242      5.5365    
  5.5509      5.5660      5.5813      5.5944      5.6017      5.6044      5.6017      5.5944      5.5813      5.5660    
  5.5509      5.5365      5.5242      5.5158      5.4612      5.4646      5.4746      5.4904      5.5104      5.5318    
  5.5511      5.5663      5.5789      5.5848      5.5848      5.5802      5.5691      5.5562      5.5434      5.5310    
  5.5202      5.5129      5.5102      5.5129      5.5202      5.5310      5.5434      5.5562      5.5691      5.5802    
  5.5848      5.5848      5.5789      5.5663      5.5511      5.5318      5.5104      5.4904      5.4746      5.4646    
  5.5129      5.5158      5.5242      5.5365      5.5509      5.5660      5.5813      5.5944      5.6017      5.6044    
  5.6017      5.5944      5.5813      5.5660      5.5509      5.5365      5.5242      5.5158      5.5129      5.5158    
  5.5242      5.5365      5.5509      5.5660      5.5813      5.5944      5.6017      5.6044      5.6017      5.5944    
  5.5813      5.5660      5.5509      5.5365      5.5242      5.5158      5.6727      5.6733      5.6752      5.6782    
  5.6819      5.6846      5.6842      5.6803      5.6754      5.6663      5.6531      5.6377      5.6173      5.5946    
  5.5728      5.5526      5.5356      5.5242      5.5202      5.5242      5.5356      5.5526      5.5728      5.5946    
  5.6173      5.6377      5.6531      5.6663      5.6754      5.6803      5.6842      5.6846      5.6819      5.6782    
  5.6752      5.6733      5.9884      5.9855      5.9762      5.9602      5.9373      5.9092      5.8786      5.8470    
  5.8120      5.7782      5.7439      5.7104      5.6761      5.6403      5.6066      5.5767      5.5526      5.5365    
  5.5310      5.5365      5.5526      5.5767      5.6066      5.6403      5.6761      5.7104      5.7439      5.7782    
  5.8120      5.8470      5.8786      5.9092      5.9373      5.9602      5.9762      5.9855      6.5023      6.4929    
  6.4651      6.4203      6.3606      6.2884      6.2054      6.1176      6.0338      5.9544      5.8814      5.8157    
  5.7564      5.7008      5.6500      5.6066      5.5728      5.5509      5.5434      5.5509      5.5728      5.6066    
  5.6500      5.7008      5.7564      5.8157      5.8814      5.9544      6.0338      6.1176      6.2054      6.2884    
  6.3606      6.4203      6.4651      6.4929      7.2640      7.2483      7.2006      7.1190      7.0033      6.8590    
  6.6986      6.5325      6.3662      6.2128      6.0772      5.9589      5.8592      5.7741      5.7008      5.6403    
  5.5946      5.5660      5.5562      5.5660      5.5946      5.6403      5.7008      5.7741      5.8592      5.9589    
  6.0772      6.2128      6.3662      6.5325      6.6986      6.8590      7.0033      7.1190      7.2006      7.2483    
  8.3242      8.2906      8.1955      8.0523      7.8727      7.6559      7.3984      7.1151      6.8363      6.5748    
  6.3435      6.1488      5.9879      5.8592      5.7564      5.6761      5.6173      5.5813      5.5691      5.5813    
  5.6173      5.6761      5.7564      5.8592      5.9879      6.1488      6.3435      6.5748      6.8363      7.1151    
  7.3984      7.6559      7.8727      8.0523      8.1955      8.2906      10.455      10.350      10.055      9.6308    
  9.1566      8.7028      8.2898      7.8832      7.4590      7.0540      6.6945      6.3916      6.1488      5.9589    
  5.8157      5.7104      5.6377      5.5944      5.5802      5.5944      5.6377      5.7104      5.8157      5.9589    
  6.1488      6.3916      6.6945      7.0540      7.4590      7.8832      8.2898      8.7028      9.1566      9.6308    
  10.055      10.350      15.016      14.767      14.059      13.006      11.782      10.586      9.5828      8.8256    
  8.2221      7.6538      7.1334      6.6945      6.3435      6.0772      5.8814      5.7439      5.6531      5.6017    
  5.5848      5.6017      5.6531      5.7439      5.8814      6.0772      6.3435      6.6945      7.1334      7.6538    
  8.2221      8.8256      9.5828      10.586      11.782      13.006      14.059      14.767      23.270      22.793    
  21.424      19.346      16.852      14.302      12.042      10.310      9.1467      8.3448      7.6538      7.0540    
  6.5748      6.2128      5.9544      5.7782      5.6663      5.6044      5.5848      5.6044      5.6663      5.7782    
  5.9544      6.2128      6.5748      7.0540      7.6538      8.3448      9.1467      10.310      12.042      14.302    
  16.852      19.346      21.424      22.793      36.167      35.368      33.058      29.512      25.172      20.602    
  16.383      12.979      10.598      9.1467      8.2221      7.4590      6.8363      6.3662      6.0338      5.8120    
  5.6754      5.6017      5.5789      5.6017      5.6754      5.8120      6.0338      6.3662      6.8363      7.4590    
  8.2221      9.1467      10.598      12.979      16.383      20.602      25.172      29.512      33.058      35.368    
  54.052      52.824      49.276      43.801      37.041      29.803      22.947      17.195      12.979      10.310    
  8.8256      7.8832      7.1151      6.5325      6.1176      5.8470      5.6803      5.5944      5.5663      5.5944    
  5.6803      5.8470      6.1176      6.5325      7.1151      7.8832      8.8256      10.310      12.979      17.195    
  22.947      29.803      37.041      43.801      49.276      52.824      76.504      74.743      69.655      61.808    
  52.094      41.629      31.577      22.947      16.383      12.042      9.5828      8.2898      7.3984      6.6986    
  6.2054      5.8786      5.6842      5.5813      5.5511      5.5813      5.6842      5.8786      6.2054      6.6986    
  7.3984      8.2898      9.5828      12.042      16.383      22.947      31.577      41.629      52.094      61.808    
  69.655      74.743      102.23      99.842      92.962      82.382      69.314      55.230      41.629      29.803    
  20.602      14.302      10.586      8.7028      7.6559      6.8590      6.2884      5.9092      5.6846      5.5660    
  5.5318      5.5660      5.6846      5.9092      6.2884      6.8590      7.6559      8.7028      10.586      14.302    
  20.602      29.803      41.629      55.230      69.314      82.382      92.962      99.842      129.13      126.06    