unknown system                          
   1.00000000000000     
     2.828080   -0.000000    0.000000
     0.000000    2.828080    0.000000
    -0.000000   -0.000000    2.828080
   Fe
     2
Direct
  0.000000  0.000000  0.000000
  0.500000  0.500000  0.500000
 
   36   36   36
 0.19157753113E+03 0.18690863164E+03 0.17354679979E+03 0.15327441118E+03 0.12863330987E+03
 0.10242131295E+03 0.77229626406E+02 0.55082968335E+02 0.37250692834E+02 0.24195961606E+02
 0.15657117360E+02 0.10798172564E+02 0.84629679023E+01 0.73636705361E+01 0.66147226051E+01
 0.60945811353E+01 0.57752972594E+01 0.56096126885E+01 0.55581677156E+01 0.56096126885E+01
 0.57752972594E+01 0.60945811353E+01 0.66147226051E+01 0.73636705361E+01 0.84629679023E+01
 0.10798172564E+02 0.15657117360E+02 0.24195961606E+02 0.37250692834E+02 0.55082968335E+02
 0.77229626406E+02 0.10242131295E+03 0.12863330987E+03 0.15327441118E+03 0.17354679979E+03
 0.18690863164E+03 0.18690863164E+03 0.18237015002E+03 0.16937695283E+03 0.14964888739E+03
 0.12564625490E+03 0.10008558182E+03 0.75495434960E+02 0.53862465300E+02 0.36445965545E+02
 0.23707391798E+02 0.15394240893E+02 0.10681709362E+02 0.84243903406E+01 0.73485100421E+01
 0.66051363088E+01 0.60915157763E+01 0.57757175011E+01 0.56126577970E+01 0.55614902785E+01
 0.56126577970E+01 0.57757175011E+01 0.60915157763E+01 0.66051363088E+01 0.73485100421E+01
 0.84243903406E+01 0.10681709362E+02 0.15394240893E+02 0.23707391798E+02 0.36445965545E+02
 0.53862465300E+02 0.75495434960E+02 0.10008558182E+03 0.12564625490E+03 0.14964888739E+03
 0.16937695283E+03 0.18237015002E+03 0.17354679979E+03 0.16937695283E+03 0.15742554132E+03
 0.13923920782E+03 0.11704855206E+03 0.93343848962E+02 0.70478954352E+02 0.50333399138E+02
 0.34120029645E+02 0.22301383631E+02 0.14645208462E+02 0.10354071151E+02 0.83168030507E+01
 0.73025352442E+01 0.65768485198E+01 0.60820160967E+01 0.57768801329E+01 0.56210030843E+01
 0.55710784407E+01 0.56210030843E+01 0.57768801329E+01 0.60820160967E+01 0.65768485198E+01
 0.73025352442E+01 0.83168030507E+01 0.10354071151E+02 0.14645208462E+02 0.22301383631E+02
 0.34120029645E+02 0.50333399138E+02 0.70478954352E+02 0.93343848962E+02 0.11704855206E+03
 0.13923920782E+03 0.15742554132E+03 0.16937695283E+03 0.15327441118E+03 0.14964888739E+03
 0.13923920782E+03 0.12334483643E+03 0.10386695230E+03 0.82966309569E+02 0.62733326502E+02
 0.44878122010E+02 0.30538835162E+02 0.20158282262E+02 0.13523555789E+02 0.98784457216E+01
 0.81588947045E+01 0.72248196001E+01 0.65304107651E+01 0.60658996545E+01 0.57785138499E+01
 0.56336497432E+01 0.55860698533E+01 0.56336497432E+01 0.57785138499E+01 0.60658996545E+01
 0.65304107651E+01 0.72248196001E+01 0.81588947045E+01 0.98784457216E+01 0.13523555789E+02
 0.20158282262E+02 0.30538835162E+02 0.44878122010E+02 0.62733326502E+02 0.82966309569E+02
 0.10386695230E+03 0.12334483643E+03 0.13923920782E+03 0.14964888739E+03 0.12863330987E+03
 0.12564625490E+03 0.11704855206E+03 0.10386695230E+03 0.87629140219E+02 0.70120594300E+02
 0.53117046344E+02 0.38116450656E+02 0.26131876058E+02 0.17565809575E+02 0.12206209095E+02
 0.93429755335E+01 0.79698239294E+01 0.71130912299E+01 0.64688443456E+01 0.60423396979E+01
 0.57805679167E+01 0.56479511601E+01 0.56052115820E+01 0.56479511601E+01 0.57805679167E+01
 0.60423396979E+01 0.64688443456E+01 0.71130912299E+01 0.79698239294E+01 0.93429755335E+01
 0.12206209095E+02 0.17565809575E+02 0.26131876058E+02 0.38116450656E+02 0.53117046344E+02
 0.70120594300E+02 0.87629140219E+02 0.10386695230E+03 0.11704855206E+03 0.12564625490E+03
 0.10242131295E+03 0.10008558182E+03 0.93343848962E+02 0.82966309569E+02 0.70120594300E+02
 0.56219461799E+02 0.42704449828E+02 0.30830361603E+02 0.21449507925E+02 0.14883326179E+02
 0.10898680947E+02 0.88330926527E+01 0.77546168875E+01 0.69703205167E+01 0.63948483094E+01
 0.60121893968E+01 0.57821922460E+01 0.56623231293E+01 0.56263447147E+01 0.56623231293E+01
 0.57821922460E+01 0.60121893968E+01 0.63948483094E+01 0.69703205167E+01 0.77546168875E+01
 0.88330926527E+01 0.10898680947E+02 0.14883326179E+02 0.21449507925E+02 0.30830361603E+02
 0.42704449828E+02 0.56219461799E+02 0.70120594300E+02 0.82966309569E+02 0.93343848962E+02
 0.10008558182E+03 0.77229626406E+02 0.75495434960E+02 0.70478954352E+02 0.62733326502E+02
 0.53117046344E+02 0.42704449828E+02 0.32620354939E+02 0.23857374956E+02 0.17068258625E+02
 0.12466246341E+02 0.97827532039E+01 0.83888033658E+01 0.75054746888E+01 0.68075261236E+01
 0.63108361026E+01 0.59782622559E+01 0.57809887848E+01 0.56756663691E+01 0.56455795847E+01
 0.56756663691E+01 0.57809887848E+01 0.59782622559E+01 0.63108361026E+01 0.68075261236E+01
 0.75054746888E+01 0.83888033658E+01 0.97827532039E+01 0.12466246341E+02 0.17068258625E+02
 0.23857374956E+02 0.32620354939E+02 0.42704449828E+02 0.53117046344E+02 0.62733326502E+02
 0.70478954352E+02 0.75495434960E+02 0.55082968335E+02 0.53862465300E+02 0.50333399138E+02
 0.44878122010E+02 0.38116450656E+02 0.30830361603E+02 0.23857374956E+02 0.17915901147E+02
 0.13465544260E+02 0.10573650151E+02 0.89438994743E+01 0.79830849000E+01 0.72254737656E+01
 0.66388709234E+01 0.62195968567E+01 0.59437192041E+01 0.57751032798E+01 0.56876896366E+01
 0.56598171976E+01 0.56876896366E+01 0.57751032798E+01 0.59437192041E+01 0.62195968567E+01
 0.66388709234E+01 0.72254737656E+01 0.79830849000E+01 0.89438994743E+01 0.10573650151E+02
 0.13465544260E+02 0.17915901147E+02 0.23857374956E+02 0.30830361603E+02 0.38116450656E+02
 0.44878122010E+02 0.50333399138E+02 0.53862465300E+02 0.37250692834E+02 0.36445965545E+02
 0.34120029645E+02 0.30538835162E+02 0.26131876058E+02 0.21449507925E+02 0.17068258625E+02
 0.13465544260E+02 0.10885558567E+02 0.92839754266E+01 0.83191636532E+01 0.75683387864E+01
 0.69437287844E+01 0.64696482917E+01 0.61310534560E+01 0.59061544493E+01 0.57669316919E+01
 0.56931729310E+01 0.56697851009E+01 0.56931729310E+01 0.57669316919E+01 0.59061544493E+01
 0.61310534560E+01 0.64696482917E+01 0.69437287844E+01 0.75683387864E+01 0.83191636532E+01
 0.92839754266E+01 0.10885558567E+02 0.13465544260E+02 0.17068258625E+02 0.21449507925E+02
 0.26131876058E+02 0.30538835162E+02 0.34120029645E+02 0.36445965545E+02 0.24195961606E+02
 0.23707391798E+02 0.22301383631E+02 0.20158282262E+02 0.17565809575E+02 0.14883326179E+02
 0.12466246341E+02 0.10573650151E+02 0.92839754266E+01 0.84416541295E+01 0.77616933930E+01
 0.71623507292E+01 0.66790686911E+01 0.63104913291E+01 0.60471577516E+01 0.58677451824E+01
 0.57552118700E+01 0.56930807368E+01 0.56738716648E+01 0.56930807368E+01 0.57552118700E+01
 0.58677451824E+01 0.60471577516E+01 0.63104913291E+01 0.66790686911E+01 0.71623507292E+01
 0.77616933930E+01 0.84416541295E+01 0.92839754266E+01 0.10573650151E+02 0.12466246341E+02
 0.14883326179E+02 0.17565809575E+02 0.20158282262E+02 0.22301383631E+02 0.23707391798E+02
 0.15657117360E+02 0.15394240893E+02 0.14645208462E+02 0.13523555789E+02 0.12206209095E+02
 0.10898680947E+02 0.97827532039E+01 0.89438994743E+01 0.83191636532E+01 0.77616933930E+01
 0.72420356277E+01 0.67992169937E+01 0.64414586691E+01 0.61690849240E+01 0.59695384372E+01
 0.58302431591E+01 0.57383766476E+01 0.56867777396E+01 0.56697851009E+01 0.56867777396E+01
 0.57383766476E+01 0.58302431591E+01 0.59695384372E+01 0.61690849240E+01 0.64414586691E+01
 0.67992169937E+01 0.72420356277E+01 0.77616933930E+01 0.83191636532E+01 0.89438994743E+01
 0.97827532039E+01 0.10898680947E+02 0.12206209095E+02 0.13523555789E+02 0.14645208462E+02
 0.15394240893E+02 0.10798172564E+02 0.10681709362E+02 0.10354071151E+02 0.98784457216E+01
 0.93429755335E+01 0.88330926527E+01 0.83888033658E+01 0.79830849000E+01 0.75683387864E+01
 0.71623507292E+01 0.67992169937E+01 0.64896180597E+01 0.62404625069E+01 0.60460713911E+01
 0.58987852793E+01 0.57907472112E+01 0.57171634524E+01 0.56739132491E+01 0.56598171976E+01
 0.56739132491E+01 0.57171634524E+01 0.57907472112E+01 0.58987852793E+01 0.60460713911E+01
 0.62404625069E+01 0.64896180597E+01 0.67992169937E+01 0.71623507292E+01 0.75683387864E+01
 0.79830849000E+01 0.83888033658E+01 0.88330926527E+01 0.93429755335E+01 0.98784457216E+01
 0.10354071151E+02 0.10681709362E+02 0.84629679023E+01 0.84243903406E+01 0.83168030507E+01
 0.81588947045E+01 0.79698239294E+01 0.77546168875E+01 0.75054746888E+01 0.72254737656E+01
 0.69437287844E+01 0.66790686911E+01 0.64414586691E+01 0.62404625069E+01 0.60746053630E+01
 0.59401900810E+01 0.58336420710E+01 0.57522652267E+01 0.56935313141E+01 0.56577703857E+01
 0.56455795847E+01 0.56577703857E+01 0.56935313141E+01 0.57522652267E+01 0.58336420710E+01
 0.59401900810E+01 0.60746053630E+01 0.62404625069E+01 0.64414586691E+01 0.66790686911E+01
 0.69437287844E+01 0.72254737656E+01 0.75054746888E+01 0.77546168875E+01 0.79698239294E+01
 0.81588947045E+01 0.83168030507E+01 0.84243903406E+01 0.73636705361E+01 0.73485100421E+01
 0.73025352442E+01 0.72248196001E+01 0.71130912299E+01 0.69703205167E+01 0.68075261236E+01
 0.66388709234E+01 0.64696482917E+01 0.63104913291E+01 0.61690849240E+01 0.60460713911E+01
 0.59401900810E+01 0.58503359643E+01 0.57755039675E+01 0.57136556525E+01 0.56665317207E+01
 0.56365314127E+01 0.56263447147E+01 0.56365314127E+01 0.56665317207E+01 0.57136556525E+01
 0.57755039675E+01 0.58503359643E+01 0.59401900810E+01 0.60460713911E+01 0.61690849240E+01
 0.63104913291E+01 0.64696482917E+01 0.66388709234E+01 0.68075261236E+01 0.69703205167E+01
 0.71130912299E+01 0.72248196001E+01 0.73025352442E+01 0.73485100421E+01 0.66147226051E+01
 0.66051363088E+01 0.65768485198E+01 0.65304107651E+01 0.64688443456E+01 0.63948483094E+01
 0.63108361026E+01 0.62195968567E+01 0.61310534560E+01 0.60471577516E+01 0.59695384372E+01
 0.58987852793E+01 0.58336420710E+01 0.57755039675E+01 0.57219947904E+01 0.56750326314E+01
 0.56375913652E+01 0.56136398369E+01 0.56052115820E+01 0.56136398369E+01 0.56375913652E+01
 0.56750326314E+01 0.57219947904E+01 0.57755039675E+01 0.58336420710E+01 0.58987852793E+01
 0.59695384372E+01 0.60471577516E+01 0.61310534560E+01 0.62195968567E+01 0.63108361026E+01
 0.63948483094E+01 0.64688443456E+01 0.65304107651E+01 0.65768485198E+01 0.66051363088E+01
 0.60945811353E+01 0.60915157763E+01 0.60820160967E+01 0.60658996545E+01 0.60423396979E+01
 0.60121893968E+01 0.59782622559E+01 0.59437192041E+01 0.59061544493E+01 0.58677451824E+01
 0.58302431591E+01 0.57907472112E+01 0.57522652267E+01 0.57136556525E+01 0.56750326314E+01
 0.56394377922E+01 0.56109483297E+01 0.55924191801E+01 0.55860698533E+01 0.55924191801E+01
 0.56109483297E+01 0.56394377922E+01 0.56750326314E+01 0.57136556525E+01 0.57522652267E+01
 0.57907472112E+01 0.58302431591E+01 0.58677451824E+01 0.59061544493E+01 0.59437192041E+01
 0.59782622559E+01 0.60121893968E+01 0.60423396979E+01 0.60658996545E+01 0.60820160967E+01
 0.60915157763E+01 0.57752972594E+01 0.57757175011E+01 0.57768801329E+01 0.57785138499E+01
 0.57805679167E+01 0.57821922460E+01 0.57809887848E+01 0.57751032798E+01 0.57669316919E+01
 0.57552118700E+01 0.57383766476E+01 0.57171634524E+01 0.56935313141E+01 0.56665317207E+01
 0.56375913652E+01 0.56109483297E+01 0.55895849319E+01 0.55758729911E+01 0.55710784407E+01
 0.55758729911E+01 0.55895849319E+01 0.56109483297E+01 0.56375913652E+01 0.56665317207E+01
 0.56935313141E+01 0.57171634524E+01 0.57383766476E+01 0.57552118700E+01 0.57669316919E+01
 0.57751032798E+01 0.57809887848E+01 0.57821922460E+01 0.57805679167E+01 0.57785138499E+01
 0.57768801329E+01 0.57757175011E+01 0.56096126885E+01 0.56126577970E+01 0.56210030843E+01
 0.56336497432E+01 0.56479511601E+01 0.56623231293E+01 0.56756663691E+01 0.56876896366E+01
 0.56931729310E+01 0.56930807368E+01 0.56867777396E+01 0.56739132491E+01 0.56577703857E+01
 0.56365314127E+01 0.56136398369E+01 0.55924191801E+01 0.55758729911E+01 0.55650994862E+01
 0.55614902785E+01 0.55650994862E+01 0.55758729911E+01 0.55924191801E+01 0.56136398369E+01
 0.56365314127E+01 0.56577703857E+01 0.56739132491E+01 0.56867777396E+01 0.56930807368E+01
 0.56931729310E+01 0.56876896366E+01 0.56756663691E+01 0.56623231293E+01 0.56479511601E+01
 0.56336497432E+01 0.56210030843E+01 0.56126577970E+01 0.55581677156E+01 0.55614902785E+01
 0.55710784407E+01 0.55860698533E+01 0.56052115820E+01 0.56263447147E+01 0.56455795847E+01
 0.56598171976E+01 0.56697851009E+01 0.56738716648E+01 0.56697851009E+01 0.56598171976E+01
 0.56455795847E+01 0.56263447147E+01 0.56052115820E+01 0.55860698533E+01 0.55710784407E+01
 0.55614902785E+01 0.55581677156E+01 0.55614902785E+01 0.55710784407E+01 0.55860698533E+01
 0.56052115820E+01 0.56263447147E+01 0.56455795847E+01 0.56598171976E+01 0.56697851009E+01
 0.56738716648E+01 0.56697851009E+01 0.56598171976E+01 0.56455795847E+01 0.56263447147E+01
 0.56052115820E+01 0.55860698533E+01 0.55710784407E+01 0.55614902785E+01 0.56096126885E+01
 0.56126577970E+01 0.56210030843E+01 0.56336497432E+01 0.56479511601E+01 0.56623231293E+01
 0.56756663691E+01 0.56876896366E+01 0.56931729310E+01 0.56930807368E+01 0.56867777396E+01
 0.56739132491E+01 0.56577703857E+01 0.56365314127E+01 0.56136398369E+01 0.55924191801E+01
 0.55758729911E+01 0.55650994862E+01 0.55614902785E+01 0.55650994862E+01 0.55758729911E+01
 0.55924191801E+01 0.56136398369E+01 0.56365314127E+01 0.56577703857E+01 0.56739132491E+01
 0.56867777396E+01 0.56930807368E+01 0.56931729310E+01 0.56876896366E+01 0.56756663691E+01
 0.56623231293E+01 0.56479511601E+01 0.56336497432E+01 0.56210030843E+01 0.56126577970E+01
 0.57752972594E+01 0.57757175011E+01 0.57768801329E+01 0.57785138499E+01 0.57805679167E+01
 0.57821922460E+01 0.57809887848E+01 0.57751032798E+01 0.57669316919E+01 0.57552118700E+01
 0.57383766476E+01 0.57171634524E+01 0.56935313141E+01 0.56665317207E+01 0.56375913652E+01
 0.56109483297E+01 0.55895849319E+01 0.55758729911E+01 0.55710784407E+01 0.55758729911E+01
 0.55895849319E+01 0.56109483297E+01 0.56375913652E+01 0.56665317207E+01 0.56935313141E+01
 0.57171634524E+01 0.57383766476E+01 0.57552118700E+01 0.57669316919E+01 0.57751032798E+01
 0.57809887848E+01 0.57821922460E+01 0.57805679167E+01 0.57785138499E+01 0.57768801329E+01
 0.57757175011E+01 0.60945811353E+01 0.60915157763E+01 0.60820160967E+01 0.60658996545E+01
 0.60423396979E+01 0.60121893968E+01 0.59782622559E+01 0.59437192041E+01 0.59061544493E+01
 0.58677451824E+01 0.58302431591E+01 0.57907472112E+01 0.57522652267E+01 0.57136556525E+01
 0.56750326314E+01 0.56394377922E+01 0.56109483297E+01 0.55924191801E+01 0.55860698533E+01
 0.55924191801E+01 0.56109483297E+01 0.56394377922E+01 0.56750326314E+01 0.57136556525E+01
 0.57522652267E+01 0.57907472112E+01 0.58302431591E+01 0.58677451824E+01 0.59061544493E+01
 0.59437192041E+01 0.59782622559E+01 0.60121893968E+01 0.60423396979E+01 0.60658996545E+01
 0.60820160967E+01 0.60915157763E+01 0.66147226051E+01 0.66051363088E+01 0.65768485198E+01
 0.65304107651E+01 0.64688443456E+01 0.63948483094E+01 0.63108361026E+01 0.62195968567E+01
 0.61310534560E+01 0.60471577516E+01 0.59695384372E+01 0.58987852793E+01 0.58336420710E+01
 0.57755039675E+01 0.57219947904E+01 0.56750326314E+01 0.56375913652E+01 0.56136398369E+01
 0.56052115820E+01 0.56136398369E+01 0.56375913652E+01 0.56750326314E+01 0.57219947904E+01
 0.57755039675E+01 0.58336420710E+01 0.58987852793E+01 0.59695384372E+01 0.60471577516E+01
 0.61310534560E+01 0.62195968567E+01 0.63108361026E+01 0.63948483094E+01 0.64688443456E+01
 0.65304107651E+01 0.65768485198E+01 0.66051363088E+01 0.73636705361E+01 0.73485100421E+01
 0.73025352442E+01 0.72248196001E+01 0.71130912299E+01 0.69703205167E+01 0.68075261236E+01
 0.66388709234E+01 0.64696482917E+01 0.63104913291E+01 0.61690849240E+01 0.60460713911E+01
 0.59401900810E+01 0.58503359643E+01 0.57755039675E+01 0.57136556525E+01 0.56665317207E+01
 0.56365314127E+01 0.56263447147E+01 0.56365314127E+01 0.56665317207E+01 0.57136556525E+01
 0.57755039675E+01 0.58503359643E+01 0.59401900810E+01 0.60460713911E+01 0.61690849240E+01
 0.63104913291E+01 0.64696482917E+01 0.66388709234E+01 0.68075261236E+01 0.69703205167E+01
 0.71130912299E+01 0.72248196001E+01 0.73025352442E+01 0.73485100421E+01 0.84629679023E+01
 0.84243903406E+01 0.83168030507E+01 0.81588947045E+01 0.79698239294E+01 0.77546168875E+01
 0.75054746888E+01 0.72254737656E+01 0.69437287844E+01 0.66790686911E+01 0.64414586691E+01
 0.62404625069E+01 0.60746053630E+01 0.59401900810E+01 0.58336420710E+01 0.57522652267E+01
 0.56935313141E+01 0.56577703857E+01 0.56455795847E+01 0.56577703857E+01 0.56935313141E+01
 0.57522652267E+01 0.58336420710E+01 0.59401900810E+01 0.60746053630E+01 0.62404625069E+01
 0.64414586691E+01 0.66790686911E+01 0.69437287844E+01 0.72254737656E+01 0.75054746888E+01
 0.77546168875E+01 0.79698239294E+01 0.81588947045E+01 0.83168030507E+01 0.84243903406E+01
 0.10798172564E+02 0.10681709362E+02 0.10354071151E+02 0.98784457216E+01 0.93429755335E+01
 0.88330926527E+01 0.83888033658E+01 0.79830849000E+01 0.75683387864E+01 0.71623507292E+01
 0.67992169937E+01 0.64896180597E+01 0.62404625069E+01 0.60460713911E+01 0.58987852793E+01
 0.57907472112E+01 0.57171634524E+01 0.56739132491E+01 0.56598171976E+01 0.56739132491E+01
 0.57171634524E+01 0.57907472112E+01 0.58987852793E+01 0.60460713911E+01 0.62404625069E+01
 0.64896180597E+01 0.67992169937E+01 0.71623507292E+01 0.75683387864E+01 0.79830849000E+01
 0.83888033658E+01 0.88330926527E+01 0.93429755335E+01 0.98784457216E+01 0.10354071151E+02
 0.10681709362E+02 0.15657117360E+02 0.15394240893E+02 0.14645208462E+02 0.13523555789E+02
 0.12206209095E+02 0.10898680947E+02 0.97827532039E+01 0.89438994743E+01 0.83191636532E+01
 0.77616933930E+01 0.72420356277E+01 0.67992169937E+01 0.64414586691E+01 0.61690849240E+01
 0.59695384372E+01 0.58302431591E+01 0.57383766476E+01 0.56867777396E+01 0.56697851009E+01
 0.56867777396E+01 0.57383766476E+01 0.58302431591E+01 0.59695384372E+01 0.61690849240E+01
 0.64414586691E+01 0.67992169937E+01 0.72420356277E+01 0.77616933930E+01 0.83191636532E+01
 0.89438994743E+01 0.97827532039E+01 0.10898680947E+02 0.12206209095E+02 0.13523555789E+02
 0.14645208462E+02 0.15394240893E+02 0.24195961606E+02 0.23707391798E+02 0.22301383631E+02
 0.20158282262E+02 0.17565809575E+02 0.14883326179E+02 0.12466246341E+02 0.10573650151E+02
 0.92839754266E+01 0.84416541295E+01 0.77616933930E+01 0.71623507292E+01 0.66790686911E+01
 0.63104913291E+01 0.60471577516E+01 0.58677451824E+01 0.57552118700E+01 0.56930807368E+01
 0.56738716648E+01 0.56930807368E+01 0.57552118700E+01 0.58677451824E+01 0.60471577516E+01
 0.63104913291E+01 0.66790686911E+01 0.71623507292E+01 0.77616933930E+01 0.84416541295E+01
 0.92839754266E+01 0.10573650151E+02 0.12466246341E+02 0.14883326179E+02 0.17565809575E+02
 0.20158282262E+02 0.22301383631E+02 0.23707391798E+02 0.37250692834E+02 0.36445965545E+02
 0.34120029645E+02 0.30538835162E+02 0.26131876058E+02 0.21449507925E+02 0.17068258625E+02
 0.13465544260E+02 0.10885558567E+02 0.92839754266E+01 0.83191636532E+01 0.75683387864E+01
 0.69437287844E+01 0.64696482917E+01 0.61310534560E+01 0.59061544493E+01 0.57669316919E+01
 0.56931729310E+01 0.56697851009E+01 0.56931729310E+01 0.57669316919E+01 0.59061544493E+01
 0.61310534560E+01 0.64696482917E+01 0.69437287844E+01 0.75683387864E+01 0.83191636532E+01
 0.92839754266E+01 0.10885558567E+02 0.13465544260E+02 0.17068258625E+02 0.21449507925E+02
 0.26131876058E+02 0.30538835162E+02 0.34120029645E+02 0.36445965545E+02 0.55082968335E+02
 0.53862465300E+02 0.50333399138E+02 0.44878122010E+02 0.38116450656E+02 0.30830361603E+02
 0.23857374956E+02 0.17915901147E+02 0.13465544260E+02 0.10573650151E+02 0.89438994743E+01
 0.79830849000E+01 0.72254737656E+01 0.66388709234E+01 0.62195968567E+01 0.59437192041E+01
 0.57751032798E+01 0.56876896366E+01 0.56598171976E+01 0.56876896366E+01 0.57751032798E+01
 0.59437192041E+01 0.62195968567E+01 0.66388709234E+01 0.72254737656E+01 0.79830849000E+01
 0.89438994743E+01 0.10573650151E+02 0.13465544260E+02 0.17915901147E+02 0.23857374956E+02
 0.30830361603E+02 0.38116450656E+02 0.44878122010E+02 0.50333399138E+02 0.53862465300E+02
 0.77229626406E+02 0.75495434960E+02 0.70478954352E+02 0.62733326502E+02 0.53117046344E+02
 0.42704449828E+02 0.32620354939E+02 0.23857374956E+02 0.17068258625E+02 0.12466246341E+02
 0.97827532039E+01 0.83888033658E+01 0.75054746888E+01 0.68075261236E+01 0.63108361026E+01
 0.59782622559E+01 0.57809887848E+01 0.56756663691E+01 0.56455795847E+01 0.56756663691E+01
 0.57809887848E+01 0.59782622559E+01 0.63108361026E+01 0.68075261236E+01 0.75054746888E+01
 0.83888033658E+01 0.97827532039E+01 0.12466246341E+02 0.17068258625E+02 0.23857374956E+02
 0.32620354939E+02 0.42704449828E+02 0.53117046344E+02 0.62733326502E+02 0.70478954352E+02
 0.75495434960E+02 0.10242131295E+03 0.10008558182E+03 0.93343848962E+02 0.82966309569E+02
 0.70120594300E+02 0.56219461799E+02 0.42704449828E+02 0.30830361603E+02 0.21449507925E+02
 0.14883326179E+02 0.10898680947E+02 0.88330926527E+01 0.77546168875E+01 0.69703205167E+01
 0.63948483094E+01 0.60121893968E+01 0.57821922460E+01 0.56623231293E+01 0.56263447147E+01
 0.56623231293E+01 0.57821922460E+01 0.60121893968E+01 0.63948483094E+01 0.69703205167E+01
 0.77546168875E+01 0.88330926527E+01 0.10898680947E+02 0.14883326179E+02 0.21449507925E+02
 0.30830361603E+02 0.42704449828E+02 0.56219461799E+02 0.70120594300E+02 0.82966309569E+02
 0.93343848962E+02 0.10008558182E+03 0.12863330987E+03 0.12564625490E+03 0.11704855206E+03
 0.10386695230E+03 0.87629140219E+02 0.70120594300E+02 0.53117046344E+02 0.38116450656E+02
 0.26131876058E+02 0.17565809575E+02 0.12206209095E+02 0.93429755335E+01 0.79698239294E+01
 0.71130912299E+01 0.64688443456E+01 0.60423396979E+01 0.57805679167E+01 0.56479511601E+01
 0.56052115820E+01 0.56479511601E+01 0.57805679167E+01 0.60423396979E+01 0.64688443456E+01
 0.71130912299E+01 0.79698239294E+01 0.93429755335E+01 0.12206209095E+02 0.17565809575E+02
 0.26131876058E+02 0.38116450656E+02 0.53117046344E+02 0.70120594300E+02 0.87629140219E+02
 0.10386695230E+03 0.11704855206E+03 0.12564625490E+03 0.15327441118E+03 0.14964888739E+03
 0.13923920782E+03 0.12334483643E+03 0.10386695230E+03 0.82966309569E+02 0.62733326502E+02
 0.44878122010E+02 0.30538835162E+02 0.20158282262E+02 0.13523555789E+02 0.98784457216E+01
 0.81588947045E+01 0.72248196001E+01 0.65304107651E+01 0.60658996545E+01 0.57785138499E+01
 0.56336497432E+01 0.55860698533E+01 0.56336497432E+01 0.57785138499E+01 0.60658996545E+01
 0.65304107651E+01 0.72248196001E+01 0.81588947045E+01 0.98784457216E+01 0.13523555789E+02
 0.20158282262E+02 0.30538835162E+02 0.44878122010E+02 0.62733326502E+02 0.82966309569E+02
 0.10386695230E+03 0.12334483643E+03 0.13923920782E+03 0.14964888739E+03 0.17354679979E+03
 0.16937695283E+03 0.15742554132E+03 0.13923920782E+03 0.11704855206E+03 0.93343848962E+02
 0.70478954352E+02 0.50333399138E+02 0.34120029645E+02 0.22301383631E+02 0.14645208462E+02
 0.10354071151E+02 0.83168030507E+01 0.73025352442E+01 0.65768485198E+01 0.60820160967E+01
 0.57768801329E+01 0.56210030843E+01 0.55710784407E+01 0.56210030843E+01 0.57768801329E+01
 0.60820160967E+01 0.65768485198E+01 0.73025352442E+01 0.83168030507E+01 0.10354071151E+02
 0.14645208462E+02 0.22301383631E+02 0.34120029645E+02 0.50333399138E+02 0.70478954352E+02
 0.93343848962E+02 0.11704855206E+03 0.13923920782E+03 0.15742554132E+03 0.16937695283E+03
 0.18690863164E+03 0.18237015002E+03 0.16937695283E+03 0.14964888739E+03 0.12564625490E+03
 0.10008558182E+03 0.75495434960E+02 0.53862465300E+02 0.36445965545E+02 0.23707391798E+02
 0.15394240893E+02 0.10681709362E+02 0.84243903406E+01 0.73485100421E+01 0.66051363088E+01
 0.60915157763E+01 0.57757175011E+01 0.56126577970E+01 0.55614902785E+01 0.56126577970E+01
 0.57757175011E+01 0.60915157763E+01 0.66051363088E+01 0.73485100421E+01 0.84243903406E+01
 0.10681709362E+02 0.15394240893E+02 0.23707391798E+02 0.36445965545E+02 0.53862465300E+02
 0.75495434960E+02 0.10008558182E+03 0.12564625490E+03 0.14964888739E+03 0.16937695283E+03
 0.18237015002E+03 0.18690863164E+03 0.18237015002E+03 0.16937695283E+03 0.14964888739E+03
 0.12564625490E+03 0.10008558182E+03 0.75495434960E+02 0.53862465300E+02 0.36445965545E+02
 0.23707391798E+02 0.15394240893E+02 0.10681709362E+02 0.84243903406E+01 0.73485100421E+01
 0.66051363088E+01 0.60915157763E+01 0.57757175011E+01 0.56126577970E+01 0.55614902785E+01
 0.56126577970E+01 0.57757175011E+01 0.60915157763E+01 0.66051363088E+01 0.73485100421E+01
 0.84243903406E+01 0.10681709362E+02 0.15394240893E+02 0.23707391798E+02 0.36445965545E+02
 0.53862465300E+02 0.75495434960E+02 0.10008558182E+03 0.12564625490E+03 0.14964888739E+03
 0.16937695283E+03 0.18237015002E+03 0.18237015002E+03 0.17795748913E+03 0.16532010251E+03
 0.14611807503E+03 0.12273347015E+03 0.97804475407E+02 0.73799316363E+02 0.52668000934E+02
 0.35658881228E+02 0.23230511104E+02 0.15139046760E+02 0.10569853155E+02 0.83878036930E+01
 0.73339037934E+01 0.65961941311E+01 0.60889126322E+01 0.57765160764E+01 0.56159687846E+01
 0.55650994862E+01 0.56159687846E+01 0.57765160764E+01 0.60889126322E+01 0.65961941311E+01
 0.73339037934E+01 0.83878036930E+01 0.10569853155E+02 0.15139046760E+02 0.23230511104E+02
 0.35658881228E+02 0.52668000934E+02 0.73799316363E+02 0.97804475407E+02 0.12273347015E+03
 0.14611807503E+03 0.16532010251E+03 0.17795748913E+03 0.16937695283E+03 0.16532010251E+03
 0.15368856714E+03 0.13597692811E+03 0.11434678368E+03 0.91219322483E+02 0.68893403014E+02
 0.49215013754E+02 0.33384654198E+02 0.21859058675E+02 0.14412560982E+02 0.10255348776E+02
 0.82859512081E+01 0.72894833618E+01 0.65694889830E+01 0.60807491505E+01 0.57790144382E+01
 0.56254311972E+01 0.55758729911E+01 0.56254311972E+01 0.57790144382E+01 0.60807491505E+01
 0.65694889830E+01 0.72894833618E+01 0.82859512081E+01 0.10255348776E+02 0.14412560982E+02
 0.21859058675E+02 0.33384654198E+02 0.49215013754E+02 0.68893403014E+02 0.91219322483E+02
 0.11434678368E+03 0.13597692811E+03 0.15368856714E+03 0.16532010251E+03 0.14964888739E+03
 0.14611807503E+03 0.13597692811E+03 0.12048377175E+03 0.10148358606E+03 0.81080645258E+02
 0.61318825143E+02 0.43880039297E+02 0.29885900344E+02 0.19771171542E+02 0.13326361502E+02
 0.97996516171E+01 0.81355461419E+01 0.72139002191E+01 0.65257754559E+01 0.60665564047E+01
 0.57825229778E+01 0.56394323172E+01 0.55924191801E+01 0.56394323172E+01 0.57825229778E+01
 0.60665564047E+01 0.65257754559E+01 0.72139002191E+01 0.81355461419E+01 0.97996516171E+01
 0.13326361502E+02 0.19771171542E+02 0.29885900344E+02 0.43880039297E+02 0.61318825143E+02
 0.81080645258E+02 0.10148358606E+03 0.12048377175E+03 0.13597692811E+03 0.14611807503E+03
 0.12564625490E+03 0.12273347015E+03 0.11434678368E+03 0.10148358606E+03 0.85629530102E+02
 0.68528102157E+02 0.51917968617E+02 0.37272877105E+02 0.25585464243E+02 0.17250458402E+02
 0.12053540858E+02 0.92875975346E+01 0.79537907964E+01 0.71048079714E+01 0.64674022856E+01
 0.60453641202E+01 0.57869792499E+01 0.56556067982E+01 0.56136398369E+01 0.56556067982E+01
 0.57869792499E+01 0.60453641202E+01 0.64674022856E+01 0.71048079714E+01 0.79537907964E+01
 0.92875975346E+01 0.12053540858E+02 0.17250458402E+02 0.25585464243E+02 0.37272877105E+02
 0.51917968617E+02 0.68528102157E+02 0.85629530102E+02 0.10148358606E+03 0.11434678368E+03
 0.12273347015E+03 0.10008558182E+03 0.97804475407E+02 0.91219322483E+02 0.81080645258E+02
 0.68528102157E+02 0.54944684806E+02 0.41745375506E+02 0.30161320942E+02 0.21024670468E+02
 0.14648918433E+02 0.10793868228E+02 0.88000217228E+01 0.77437356611E+01 0.69656900120E+01
 0.63968116771E+01 0.60180056159E+01 0.57907756008E+01 0.56719171598E+01 0.56365314127E+01
 0.56719171598E+01 0.57907756008E+01 0.60180056159E+01 0.63968116771E+01 0.69656900120E+01
 0.77437356611E+01 0.88000217228E+01 0.10793868228E+02 0.14648918433E+02 0.21024670468E+02
 0.30161320942E+02 0.41745375506E+02 0.54944684806E+02 0.68528102157E+02 0.81080645258E+02
 0.91219322483E+02 0.97804475407E+02 0.75495434960E+02 0.73799316363E+02 0.68893403014E+02
 0.61318825143E+02 0.51917968617E+02 0.41745375506E+02 0.31904823771E+02 0.23366049634E+02
 0.16768514126E+02 0.12311823185E+02 0.97222782003E+01 0.83716312211E+01 0.74983243313E+01
 0.68072978720E+01 0.63158722080E+01 0.59871379457E+01 0.57918595303E+01 0.56877071483E+01
 0.56577703857E+01 0.56877071483E+01 0.57918595303E+01 0.59871379457E+01 0.63158722080E+01
 0.68072978720E+01 0.74983243313E+01 0.83716312211E+01 0.97222782003E+01 0.12311823185E+02
 0.16768514126E+02 0.23366049634E+02 0.31904823771E+02 0.41745375506E+02 0.51917968617E+02
 0.61318825143E+02 0.68893403014E+02 0.73799316363E+02 0.53862465300E+02 0.52668000934E+02
 0.49215013754E+02 0.43880039297E+02 0.37272877105E+02 0.30161320942E+02 0.23366049634E+02
 0.17591021889E+02 0.13279940055E+02 0.10488151068E+02 0.89162109379E+01 0.79737255272E+01
 0.72227723400E+01 0.66429626497E+01 0.62282695984E+01 0.59554240607E+01 0.57882528289E+01
 0.57016647833E+01 0.56739132491E+01 0.57016647833E+01 0.57882528289E+01 0.59554240607E+01
 0.62282695984E+01 0.66429626497E+01 0.72227723400E+01 0.79737255272E+01 0.89162109379E+01
 0.10488151068E+02 0.13279940055E+02 0.17591021889E+02 0.23366049634E+02 0.30161320942E+02
 0.37272877105E+02 0.43880039297E+02 0.49215013754E+02 0.52668000934E+02 0.36445965545E+02
 0.35658881228E+02 0.33384654198E+02 0.29885900344E+02 0.25585464243E+02 0.21024670468E+02
 0.16768514126E+02 0.13279940055E+02 0.10790042406E+02 0.92480061895E+01 0.83073871519E+01
 0.75637983755E+01 0.69465207378E+01 0.64777716080E+01 0.61431454526E+01 0.59206921973E+01
 0.57830674104E+01 0.57098910631E+01 0.56867777396E+01 0.57098910631E+01 0.57830674104E+01
 0.59206921973E+01 0.61431454526E+01 0.64777716080E+01 0.69465207378E+01 0.75637983755E+01
 0.83073871519E+01 0.92480061895E+01 0.10790042406E+02 0.13279940055E+02 0.16768514126E+02
 0.21024670468E+02 0.25585464243E+02 0.29885900344E+02 0.33384654198E+02 0.35658881228E+02
 0.23707391798E+02 0.23230511104E+02 0.21859058675E+02 0.19771171542E+02 0.17250458402E+02
 0.14648918433E+02 0.12311823185E+02 0.10488151068E+02 0.92480061895E+01 0.84287243311E+01