   2   2   1   0
  0.1173411E+02  0.2863036E-09  0.2863036E-09  0.2863036E-09  0.5000000E-15
  1.000000000000000E-004
  CAR 
 unknown system                          
     45.55601470     -4.88053223  301      5.88056536      1.00000000
     -4.881  0.0000E+00  0.0000E+00  0.0000E+00  0.0000E+00
     -4.712  0.0000E+00  0.0000E+00  0.0000E+00  0.0000E+00
     -4.544  0.0000E+00  0.0000E+00  0.0000E+00  0.0000E+00
     -4.376  0.0000E+00  0.0000E+00  0.0000E+00  0.0000E+00
     -4.208 -0.8949E-33  0.0000E+00 -0.1505E-33  0.0000E+00
     -4.040 -0.3293E-27 -0.1413E-32 -0.5536E-28 -0.2375E-33
     -3.872 -0.2941E-22 -0.4953E-27 -0.4944E-23 -0.8326E-28
     -3.704 -0.6226E-18 -0.4215E-22 -0.1047E-18 -0.7086E-23
     -3.536 -0.3294E-14 -0.8456E-18 -0.5540E-15 -0.1422E-18
     -3.367 -0.4351E-11 -0.4286E-14 -0.7320E-12 -0.7208E-15
     -3.199 -0.1455E-08 -0.5395E-11 -0.2453E-09 -0.9078E-12
     -3.031 -0.1240E-06 -0.1720E-08 -0.2109E-07 -0.2901E-09
     -2.863 -0.2513E-05 -0.1397E-06 -0.4437E-06 -0.2378E-07
     -2.695 -0.5617E-05 -0.2686E-05 -0.1388E-05 -0.4753E-06
     -2.527  0.6328E-04 -0.5112E-05  0.9251E-05 -0.1335E-05
     -2.359  0.2279E-03  0.6753E-04  0.4756E-04  0.1002E-04
     -2.191  0.3950E-03  0.2316E-03  0.1140E-03  0.4896E-04
     -2.022  0.4475E-03  0.3956E-03  0.1892E-03  0.1155E-03
     -1.854  0.5902E-03  0.4423E-03  0.2884E-03  0.1898E-03
     -1.686  0.6656E-03  0.5839E-03  0.4003E-03  0.2880E-03
     -1.518  0.6616E-03  0.6543E-03  0.5116E-03  0.3980E-03
     -1.350  0.8283E-03  0.6474E-03  0.6508E-03  0.5068E-03
     -1.182  0.9905E-03  0.7882E-03  0.8173E-03  0.6394E-03
     -1.014  0.8126E-03  0.9731E-03  0.9540E-03  0.8030E-03
     -0.846  0.1043E-02  0.7893E-03  0.1129E-02  0.9357E-03
     -0.677  0.1300E-02  0.9241E-03  0.1348E-02  0.1091E-02
     -0.509  0.1175E-02  0.1244E-02  0.1545E-02  0.1300E-02
     -0.341  0.1262E-02  0.1118E-02  0.1758E-02  0.1488E-02
     -0.173  0.1447E-02  0.1099E-02  0.2001E-02  0.1673E-02
     -0.005  0.1773E-02  0.1292E-02  0.2299E-02  0.1890E-02
      0.163  0.1813E-02  0.1373E-02  0.2604E-02  0.2121E-02
      0.331  0.1721E-02  0.1682E-02  0.2893E-02  0.2404E-02
      0.499  0.2413E-02  0.1490E-02  0.3299E-02  0.2654E-02
      0.667  0.2759E-02  0.1353E-02  0.3763E-02  0.2882E-02
      0.836  0.3467E-02  0.2064E-02  0.4346E-02  0.3229E-02
      1.004  0.6448E-02  0.2030E-02  0.5430E-02  0.3570E-02
      1.172  0.1050E-01  0.2044E-02  0.7195E-02  0.3914E-02
      1.340  0.1199E-01  0.2191E-02  0.9210E-02  0.4282E-02
      1.508  0.1444E-01  0.2312E-02  0.1164E-01  0.4670E-02
      1.676  0.1847E-01  0.3146E-02  0.1474E-01  0.5199E-02
      1.844  0.1756E-01  0.3169E-02  0.1770E-01  0.5732E-02
      2.012  0.1280E-01  0.3554E-02  0.1985E-01  0.6330E-02
      2.181  0.9658E-02  0.5071E-02  0.2147E-01  0.7182E-02
      2.349  0.8765E-02  0.6653E-02  0.2294E-01  0.8301E-02
      2.517  0.2154E-01  0.7372E-02  0.2657E-01  0.9540E-02
      2.685  0.3009E-01  0.6683E-02  0.3162E-01  0.1066E-01
      2.853  0.2287E-01  0.7855E-02  0.3547E-01  0.1198E-01
      3.021  0.2010E-01  0.9460E-02  0.3885E-01  0.1357E-01
      3.189  0.2327E-01  0.1200E-01  0.4276E-01  0.1559E-01
      3.357  0.2905E-01  0.1300E-01  0.4764E-01  0.1778E-01
      3.526  0.2514E-01  0.1050E-01  0.5187E-01  0.1954E-01
      3.694  0.1510E-01  0.7547E-02  0.5441E-01  0.2081E-01
      3.862  0.8784E-02  0.5583E-02  0.5589E-01  0.2175E-01
      4.030  0.8311E-02  0.1177E-01  0.5728E-01  0.2373E-01
      4.198  0.9321E-02  0.2304E-01  0.5885E-01  0.2760E-01
      4.366  0.1275E-01  0.2608E-01  0.6099E-01  0.3199E-01
      4.534  0.2147E-01  0.2410E-01  0.6460E-01  0.3604E-01
      4.702  0.3275E-01  0.2245E-01  0.7011E-01  0.3982E-01
      4.871  0.4551E-01  0.2275E-01  0.7776E-01  0.4364E-01
      5.039  0.4924E-01  0.2457E-01  0.8604E-01  0.4777E-01
      5.207  0.3078E-01  0.2245E-01  0.9121E-01  0.5155E-01
      5.375  0.1774E-01  0.1755E-01  0.9419E-01  0.5450E-01
      5.543  0.1559E-01  0.1138E-01  0.9681E-01  0.5641E-01
      5.711  0.1481E-01  0.5933E-02  0.9931E-01  0.5741E-01
      5.879  0.1455E-01  0.4842E-02  0.1018E+00  0.5822E-01
      6.047  0.1464E-01  0.5181E-02  0.1042E+00  0.5909E-01
      6.216  0.8393E-02  0.5350E-02  0.1056E+00  0.5999E-01
      6.384  0.3270E-02  0.6614E-02  0.1062E+00  0.6110E-01
      6.552  0.2954E-02  0.9378E-02  0.1067E+00  0.6268E-01
      6.720  0.2765E-02  0.1296E-01  0.1071E+00  0.6486E-01
      6.888  0.3203E-02  0.1571E-01  0.1077E+00  0.6750E-01
      7.056  0.3152E-02  0.1879E-01  0.1082E+00  0.7066E-01
      7.224  0.2481E-02  0.2434E-01  0.1086E+00  0.7475E-01
      7.392  0.3157E-02  0.2675E-01  0.1092E+00  0.7925E-01
      7.560  0.3047E-02  0.2508E-01  0.1097E+00  0.8346E-01
      7.729  0.1915E-02  0.3832E-01  0.1100E+00  0.8991E-01
      7.897  0.2944E-02  0.4624E-01  0.1105E+00  0.9768E-01
      8.065  0.3748E-02  0.2586E-01  0.1111E+00  0.1020E+00
      8.233  0.2506E-02  0.1430E-01  0.1115E+00  0.1044E+00
      8.401  0.1800E-02  0.9743E-02  0.1118E+00  0.1061E+00
      8.569  0.2535E-02  0.4926E-02  0.1123E+00  0.1069E+00
      8.737  0.3057E-02  0.4332E-02  0.1128E+00  0.1076E+00
      8.905  0.2543E-02  0.4888E-02  0.1132E+00  0.1084E+00
      9.074  0.2009E-02  0.3337E-02  0.1135E+00  0.1090E+00
      9.242  0.2455E-02  0.3382E-02  0.1140E+00  0.1096E+00
      9.410  0.3043E-02  0.3891E-02  0.1145E+00  0.1102E+00
      9.578  0.1761E-02  0.4048E-02  0.1148E+00  0.1109E+00
      9.746  0.1686E-02  0.3333E-02  0.1150E+00  0.1115E+00
      9.914  0.1955E-02  0.2296E-02  0.1154E+00  0.1119E+00
     10.082  0.2254E-02  0.3494E-02  0.1158E+00  0.1124E+00
     10.250  0.2345E-02  0.3589E-02  0.1161E+00  0.1131E+00
     10.419  0.1878E-02  0.2391E-02  0.1165E+00  0.1135E+00
     10.587  0.1846E-02  0.2764E-02  0.1168E+00  0.1139E+00
     10.755  0.1784E-02  0.3077E-02  0.1171E+00  0.1144E+00
     10.923  0.1405E-02  0.2594E-02  0.1173E+00  0.1149E+00
     11.091  0.1429E-02  0.2017E-02  0.1175E+00  0.1152E+00
     11.259  0.1089E-02  0.2024E-02  0.1177E+00  0.1156E+00
     11.427  0.1376E-02  0.2924E-02  0.1180E+00  0.1160E+00
     11.595  0.1730E-02  0.2538E-02  0.1183E+00  0.1165E+00
     11.764  0.1587E-02  0.1693E-02  0.1185E+00  0.1168E+00
     11.932  0.1507E-02  0.1755E-02  0.1188E+00  0.1170E+00
     12.100  0.8109E-03  0.1698E-02  0.1189E+00  0.1173E+00
     12.268  0.4205E-03  0.1845E-02  0.1190E+00  0.1176E+00
     12.436  0.6186E-03  0.1518E-02  0.1191E+00  0.1179E+00
     12.604  0.5020E-03  0.1711E-02  0.1192E+00  0.1182E+00
     12.772  0.7130E-03  0.1615E-02  0.1193E+00  0.1185E+00
     12.940  0.1085E-02  0.1412E-02  0.1195E+00  0.1187E+00
     13.109  0.7723E-03  0.1132E-02  0.1196E+00  0.1189E+00
     13.277  0.1183E-02  0.5070E-03  0.1198E+00  0.1190E+00
     13.445  0.2958E-02  0.8123E-03  0.1203E+00  0.1191E+00
     13.613  0.4905E-02  0.1015E-02  0.1211E+00  0.1193E+00
     13.781  0.4883E-02  0.1006E-02  0.1219E+00  0.1194E+00
     13.949  0.4387E-02  0.8561E-03  0.1227E+00  0.1196E+00
     14.117  0.4087E-02  0.5355E-03  0.1234E+00  0.1197E+00
     14.285  0.4685E-02  0.4648E-03  0.1242E+00  0.1198E+00
     14.453  0.3803E-02  0.9341E-04  0.1248E+00  0.1198E+00
     14.622  0.2897E-02  0.1955E-02  0.1253E+00  0.1201E+00
     14.790  0.3395E-02  0.5852E-02  0.1259E+00  0.1211E+00
     14.958  0.3048E-02  0.7760E-02  0.1264E+00  0.1224E+00
     15.126  0.2611E-02  0.5582E-02  0.1268E+00  0.1233E+00
     15.294  0.3697E-02  0.3745E-02  0.1274E+00  0.1240E+00
     15.462  0.3448E-02  0.4130E-02  0.1280E+00  0.1247E+00
     15.630  0.3022E-02  0.4399E-02  0.1285E+00  0.1254E+00
     15.798  0.3677E-02  0.3934E-02  0.1291E+00  0.1261E+00
     15.967  0.3759E-02  0.3090E-02  0.1298E+00  0.1266E+00
     16.135  0.3942E-02  0.3072E-02  0.1304E+00  0.1271E+00
     16.303  0.4459E-02  0.4242E-02  0.1312E+00  0.1278E+00
     16.471  0.3905E-02  0.3851E-02  0.1318E+00  0.1285E+00
     16.639  0.3446E-02  0.4624E-02  0.1324E+00  0.1292E+00
     16.807  0.3759E-02  0.4103E-02  0.1330E+00  0.1299E+00
     16.975  0.3823E-02  0.3238E-02  0.1337E+00  0.1305E+00
     17.143  0.3825E-02  0.4866E-02  0.1343E+00  0.1313E+00
     17.312  0.3250E-02  0.4094E-02  0.1349E+00  0.1320E+00
     17.480  0.3444E-02  0.3812E-02  0.1355E+00  0.1326E+00
     17.648  0.4292E-02  0.4301E-02  0.1362E+00  0.1333E+00
     17.816  0.3950E-02  0.4011E-02  0.1368E+00  0.1340E+00
     17.984  0.4203E-02  0.3723E-02  0.1375E+00  0.1346E+00
     18.152  0.3395E-02  0.3040E-02  0.1381E+00  0.1351E+00
     18.320  0.2666E-02  0.3699E-02  0.1386E+00  0.1358E+00
     18.488  0.3014E-02  0.4613E-02  0.1391E+00  0.1365E+00
     18.657  0.3621E-02  0.4798E-02  0.1397E+00  0.1374E+00
     18.825  0.4092E-02  0.3906E-02  0.1404E+00  0.1380E+00
     18.993  0.4678E-02  0.3249E-02  0.1412E+00  0.1386E+00
     19.161  0.4318E-02  0.2260E-02  0.1419E+00  0.1389E+00
     19.329  0.2896E-02  0.3245E-02  0.1424E+00  0.1395E+00
     19.497  0.2031E-02  0.4810E-02  0.1427E+00  0.1403E+00
     19.665  0.2245E-02  0.4519E-02  0.1431E+00  0.1410E+00
     19.833  0.4205E-02  0.4817E-02  0.1438E+00  0.1419E+00
     20.001  0.4159E-02  0.3487E-02  0.1445E+00  0.1424E+00
     20.170  0.4344E-02  0.1719E-02  0.1452E+00  0.1427E+00
     20.338  0.4196E-02  0.2635E-02  0.1459E+00  0.1432E+00
     20.506  0.2907E-02  0.4029E-02  0.1464E+00  0.1439E+00
     20.674  0.2640E-02  0.3989E-02  0.1469E+00  0.1445E+00
     20.842  0.1988E-02  0.5143E-02  0.1472E+00  0.1454E+00
     21.010  0.2560E-02  0.4347E-02  0.1476E+00  0.1461E+00
     21.178  0.4359E-02  0.2600E-02  0.1484E+00  0.1466E+00
     21.346  0.4825E-02  0.2601E-02  0.1492E+00  0.1470E+00
     21.515  0.3679E-02  0.2250E-02  0.1498E+00  0.1474E+00
     21.683  0.3172E-02  0.3290E-02  0.1503E+00  0.1479E+00
     21.851  0.3074E-02  0.4625E-02  0.1508E+00  0.1487E+00
     22.019  0.2749E-02  0.4593E-02  0.1513E+00  0.1495E+00
     22.187  0.3100E-02  0.3835E-02  0.1518E+00  0.1501E+00
     22.355  0.3473E-02  0.3013E-02  0.1524E+00  0.1506E+00
     22.523  0.4833E-02  0.2418E-02  0.1532E+00  0.1510E+00
     22.691  0.5359E-02  0.2938E-02  0.1541E+00  0.1515E+00
     22.860  0.4613E-02  0.3092E-02  0.1549E+00  0.1520E+00
     23.028  0.3711E-02  0.4024E-02  0.1555E+00  0.1527E+00
     23.196  0.3615E-02  0.5740E-02  0.1561E+00  0.1537E+00
     23.364  0.4310E-02  0.5204E-02  0.1569E+00  0.1546E+00
     23.532  0.3766E-02  0.4023E-02  0.1575E+00  0.1552E+00
     23.700  0.4531E-02  0.3408E-02  0.1582E+00  0.1558E+00
     23.868  0.6383E-02  0.4296E-02  0.1593E+00  0.1565E+00
     24.036  0.6510E-02  0.5706E-02  0.1604E+00  0.1575E+00
     24.205  0.5223E-02  0.4875E-02  0.1613E+00  0.1583E+00
     24.373  0.3802E-02  0.6112E-02  0.1619E+00  0.1593E+00
     24.541  0.3767E-02  0.7384E-02  0.1626E+00  0.1606E+00
     24.709  0.5059E-02  0.5553E-02  0.1634E+00  0.1615E+00
     24.877  0.4724E-02  0.3377E-02  0.1642E+00  0.1621E+00
     25.045  0.5107E-02  0.3813E-02  0.1651E+00  0.1627E+00
     25.213  0.5704E-02  0.4672E-02  0.1660E+00  0.1635E+00
     25.381  0.5899E-02  0.5413E-02  0.1670E+00  0.1644E+00
     25.550  0.5348E-02  0.5562E-02  0.1679E+00  0.1654E+00
     25.718  0.4465E-02  0.5549E-02  0.1687E+00  0.1663E+00
     25.886  0.3953E-02  0.6035E-02  0.1693E+00  0.1673E+00
     26.054  0.4725E-02  0.5458E-02  0.1701E+00  0.1682E+00
     26.222  0.5681E-02  0.3895E-02  0.1711E+00  0.1689E+00
     26.390  0.6007E-02  0.4094E-02  0.1721E+00  0.1696E+00
     26.558  0.6443E-02  0.5703E-02  0.1732E+00  0.1705E+00
     26.726  0.5282E-02  0.6392E-02  0.1741E+00  0.1716E+00
     26.894  0.2955E-02  0.5592E-02  0.1746E+00  0.1725E+00
     27.063  0.3109E-02  0.5885E-02  0.1751E+00  0.1735E+00
     27.231  0.4531E-02  0.4343E-02  0.1758E+00  0.1743E+00
     27.399  0.3220E-02  0.3161E-02  0.1764E+00  0.1748E+00
     27.567  0.4229E-02  0.4734E-02  0.1771E+00  0.1756E+00
     27.735  0.5409E-02  0.4109E-02  0.1780E+00  0.1763E+00
     27.903  0.4097E-02  0.2158E-02  0.1787E+00  0.1766E+00
     28.071  0.3291E-02  0.4420E-02  0.1792E+00  0.1774E+00
     28.239  0.3429E-02  0.5589E-02  0.1798E+00  0.1783E+00
     28.408  0.3232E-02  0.3831E-02  0.1804E+00  0.1790E+00
     28.576  0.1928E-02  0.3515E-02  0.1807E+00  0.1796E+00
     28.744  0.2727E-02  0.3283E-02  0.1812E+00  0.1801E+00
     28.912  0.4039E-02  0.2719E-02  0.1818E+00  0.1806E+00
     29.080  0.3144E-02  0.2725E-02  0.1824E+00  0.1810E+00
     29.248  0.1783E-02  0.2914E-02  0.1827E+00  0.1815E+00
     29.416  0.2590E-02  0.3136E-02  0.1831E+00  0.1820E+00
     29.584  0.2996E-02  0.2682E-02  0.1836E+00  0.1825E+00
     29.753  0.4028E-02  0.2994E-02  0.1843E+00  0.1830E+00
     29.921  0.3336E-02  0.2815E-02  0.1848E+00  0.1835E+00
     30.089  0.3022E-02  0.3244E-02  0.1853E+00  0.1840E+00
     30.257  0.4056E-02  0.3718E-02  0.1860E+00  0.1846E+00
     30.425  0.4150E-02  0.3640E-02  0.1867E+00  0.1852E+00
     30.593  0.5044E-02  0.4896E-02  0.1876E+00  0.1861E+00
     30.761  0.6393E-02  0.4161E-02  0.1886E+00  0.1868E+00
     30.929  0.6510E-02  0.4953E-02  0.1897E+00  0.1876E+00
     31.098  0.6473E-02  0.6171E-02  0.1908E+00  0.1886E+00
     31.266  0.6377E-02  0.5897E-02  0.1919E+00  0.1896E+00
     31.434  0.5024E-02  0.6335E-02  0.1927E+00  0.1907E+00
     31.602  0.3654E-02  0.6824E-02  0.1934E+00  0.1918E+00
     31.770  0.3786E-02  0.4881E-02  0.1940E+00  0.1927E+00
     31.938  0.3952E-02  0.4013E-02  0.1947E+00  0.1933E+00
     32.106  0.2350E-02  0.4136E-02  0.1951E+00  0.1940E+00
     32.274  0.1738E-02  0.3180E-02  0.1953E+00  0.1946E+00
     32.443  0.2471E-02  0.2615E-02  0.1958E+00  0.1950E+00
     32.611  0.2002E-02  0.2702E-02  0.1961E+00  0.1955E+00
     32.779  0.1916E-02  0.2592E-02  0.1964E+00  0.1959E+00
     32.947  0.1803E-02  0.2130E-02  0.1967E+00  0.1963E+00
     33.115  0.1166E-02  0.2385E-02  0.1969E+00  0.1967E+00
     33.283  0.1080E-02  0.1575E-02  0.1971E+00  0.1969E+00
     33.451  0.1107E-02  0.1185E-02  0.1973E+00  0.1971E+00
     33.619  0.4843E-03  0.9444E-03  0.1974E+00  0.1973E+00
     33.787  0.2428E-03  0.3781E-03  0.1974E+00  0.1973E+00
     33.956  0.3923E-03  0.3930E-03  0.1975E+00  0.1974E+00
     34.124  0.1143E-02  0.9277E-03  0.1977E+00  0.1976E+00
     34.292  0.7779E-03  0.1124E-02  0.1978E+00  0.1978E+00
     34.460  0.2331E-03  0.2644E-03  0.1978E+00  0.1978E+00
     34.628  0.1084E-02  0.6555E-03  0.1980E+00  0.1979E+00
     34.796  0.1251E-02  0.1580E-02  0.1982E+00  0.1982E+00
     34.964  0.6571E-03  0.8693E-03  0.1983E+00  0.1983E+00
     35.132  0.3292E-03  0.2451E-03  0.1984E+00  0.1984E+00
     35.301  0.5847E-03  0.4442E-03  0.1985E+00  0.1984E+00
     35.469  0.5155E-03  0.5871E-03  0.1986E+00  0.1985E+00
     35.637  0.1500E-03  0.3309E-03  0.1986E+00  0.1986E+00
     35.805  0.6675E-04  0.1394E-03  0.1986E+00  0.1986E+00
     35.973  0.4428E-03  0.3806E-03  0.1987E+00  0.1987E+00
     36.141  0.6616E-03  0.5755E-03  0.1988E+00  0.1988E+00
     36.309  0.2802E-03  0.4245E-03  0.1989E+00  0.1988E+00
     36.477  0.2707E-03  0.4913E-03  0.1989E+00  0.1989E+00
     36.646  0.8105E-03  0.6940E-03  0.1990E+00  0.1990E+00
     36.814  0.6935E-03  0.6762E-03  0.1991E+00  0.1992E+00
     36.982  0.5145E-03  0.4624E-03  0.1992E+00  0.1992E+00
     37.150  0.1006E-03  0.6557E-04  0.1993E+00  0.1993E+00
     37.318  0.1975E-03  0.9841E-04  0.1993E+00  0.1993E+00
     37.486  0.3797E-03  0.4623E-03  0.1994E+00  0.1993E+00
     37.654  0.2241E-03  0.3037E-03  0.1994E+00  0.1994E+00
     37.822  0.5016E-04 -0.2732E-06  0.1994E+00  0.1994E+00
     37.991  0.8009E-04  0.9662E-04  0.1994E+00  0.1994E+00
     38.159  0.3678E-03  0.3715E-03  0.1995E+00  0.1995E+00
     38.327  0.1487E-03  0.1176E-03  0.1995E+00  0.1995E+00
     38.495 -0.3011E-04  0.5189E-04  0.1995E+00  0.1995E+00
     38.663  0.3729E-03  0.5192E-03  0.1996E+00  0.1996E+00
     38.831  0.6735E-03  0.5607E-03  0.1997E+00  0.1997E+00
     38.999  0.2673E-03  0.2465E-03  0.1997E+00  0.1997E+00
     39.167  0.1509E-03  0.8846E-04  0.1997E+00  0.1997E+00
     39.336  0.1173E-03  0.8904E-04  0.1998E+00  0.1998E+00
     39.504  0.8759E-04  0.9233E-04  0.1998E+00  0.1998E+00
     39.672 -0.4295E-05 -0.4817E-05  0.1998E+00  0.1998E+00
     39.840  0.1603E-04  0.5361E-04  0.1998E+00  0.1998E+00
     40.008  0.1679E-03  0.1851E-03  0.1998E+00  0.1998E+00
     40.176  0.1134E-03  0.5863E-04  0.1998E+00  0.1998E+00
     40.344 -0.5881E-05  0.7690E-04  0.1998E+00  0.1998E+00
     40.512  0.1127E-03  0.1810E-03  0.1998E+00  0.1999E+00
     40.680  0.1642E-03  0.3183E-04  0.1999E+00  0.1999E+00
     40.849  0.1865E-04  0.3132E-04  0.1999E+00  0.1999E+00
     41.017  0.1127E-03  0.1874E-03  0.1999E+00  0.1999E+00
     41.185  0.1790E-03  0.2189E-03  0.1999E+00  0.1999E+00
     41.353  0.1809E-03  0.1438E-03  0.1999E+00  0.2000E+00
     41.521  0.1133E-03  0.6440E-05  0.2000E+00  0.2000E+00
     41.689 -0.2774E-05 -0.5806E-05  0.2000E+00  0.2000E+00
     41.857 -0.3898E-05 -0.3552E-06  0.2000E+00  0.2000E+00
     42.025 -0.1642E-06 -0.3893E-08  0.2000E+00  0.2000E+00
     42.194 -0.1319E-08 -0.9335E-11  0.2000E+00  0.2000E+00
     42.362 -0.2885E-11 -0.5568E-10  0.2000E+00  0.2000E+00
     42.530 -0.3761E-09 -0.1405E-07  0.2000E+00  0.2000E+00
     42.698 -0.5837E-07 -0.7437E-06  0.2000E+00  0.2000E+00
     42.866 -0.1803E-05 -0.5620E-05  0.2000E+00  0.2000E+00
     43.034 -0.4401E-05  0.2909E-04  0.2000E+00  0.2000E+00
     43.202  0.6183E-04  0.1232E-03  0.2000E+00  0.2000E+00
     43.370  0.1205E-03  0.5449E-04  0.2000E+00  0.2000E+00
     43.539  0.2361E-04 -0.5128E-05  0.2000E+00  0.2000E+00
     43.707 -0.5377E-05 -0.1521E-05  0.2000E+00  0.2000E+00
     43.875 -0.6103E-06 -0.4355E-07  0.2000E+00  0.2000E+00
     44.043 -0.1049E-07 -0.2511E-09  0.2000E+00  0.2000E+00
     44.211 -0.3826E-10 -0.3248E-12  0.2000E+00  0.2000E+00
     44.379 -0.3187E-13 -0.9777E-16  0.2000E+00  0.2000E+00
     44.547 -0.6215E-17  0.0000E+00  0.2000E+00  0.2000E+00
     44.715  0.0000E+00  0.0000E+00  0.2000E+00  0.2000E+00
     44.884  0.0000E+00  0.0000E+00  0.2000E+00  0.2000E+00
     45.052  0.0000E+00  0.0000E+00  0.2000E+00  0.2000E+00
     45.220  0.0000E+00  0.0000E+00  0.2000E+00  0.2000E+00
     45.388  0.0000E+00  0.0000E+00  0.2000E+00  0.2000E+00
     45.556  0.0000E+00  0.0000E+00  0.2000E+00  0.2000E+00
     45.55601470     -4.88053223  301      5.88056536      1.00000000
     -4.881  0.0000E+00  0.0000E+00  0.0000E+00  0.0000E+00  0.0000E+00  0.0000E+00  0.0000E+00  0.0000E+00  0.0000E+00  0.0000E+00  0.0000E+00  0.0000E+00  0.0000E+00  0.0000E+00  0.0000E+00  0.0000E+00  0.0000E+00  0.0000E+00
     -4.712  0.0000E+00  0.0000E+00  0.0000E+00  0.0000E+00  0.0000E+00  0.0000E+00  0.0000E+00  0.0000E+00  0.0000E+00  0.0000E+00  0.0000E+00  0.0000E+00  0.0000E+00  0.0000E+00  0.0000E+00  0.0000E+00  0.0000E+00  0.0000E+00
     -4.544  0.0000E+00  0.0000E+00  0.0000E+00  0.0000E+00  0.0000E+00  0.0000E+00  0.0000E+00  0.0000E+00  0.0000E+00  0.0000E+00  0.0000E+00  0.0000E+00  0.0000E+00  0.0000E+00  0.0000E+00  0.0000E+00  0.0000E+00  0.0000E+00
     -4.376  0.0000E+00  0.0000E+00  0.0000E+00  0.0000E+00  0.0000E+00  0.0000E+00  0.0000E+00  0.0000E+00  0.0000E+00  0.0000E+00  0.0000E+00  0.0000E+00  0.0000E+00  0.0000E+00  0.0000E+00  0.0000E+00  0.0000E+00  0.0000E+00
     -4.208 -0.3290E-31  0.0000E+00 -0.1211E-35  0.0000E+00 -0.1211E-35  0.0000E+00 -0.1211E-35  0.0000E+00 -0.1169E-39  0.0000E+00 -0.1169E-39  0.0000E+00 -0.1038E-37  0.0000E+00 -0.1169E-39  0.0000E+00 -0.1038E-37  0.0000E+00
     -4.040 -0.1210E-25 -0.5192E-31 -0.8168E-30 -0.1911E-35 -0.8168E-30 -0.1911E-35 -0.8168E-30 -0.1911E-35 -0.1446E-33 -0.1305E-39 -0.1446E-33 -0.1305E-39 -0.6974E-32 -0.1152E-37 -0.1446E-33 -0.1305E-39 -0.6974E-32 -0.1152E-37
     -3.872 -0.1081E-20 -0.1820E-25 -0.1332E-24 -0.1231E-29 -0.1332E-24 -0.1231E-29 -0.1332E-24 -0.1231E-29 -0.4304E-28 -0.1547E-33 -0.4304E-28 -0.1547E-33 -0.1130E-26 -0.7398E-32 -0.4304E-28 -0.1547E-33 -0.1130E-26 -0.7398E-32
     -3.704 -0.2288E-16 -0.1549E-20 -0.5257E-20 -0.1917E-24 -0.5257E-20 -0.1917E-24 -0.5257E-20 -0.1917E-24 -0.3086E-23 -0.4411E-28 -0.3086E-23 -0.4411E-28 -0.4412E-22 -0.1145E-26 -0.3086E-23 -0.4411E-28 -0.4412E-22 -0.1145E-26
     -3.536 -0.1210E-12 -0.3106E-16 -0.4855E-16 -0.6880E-20 -0.4855E-16 -0.6880E-20 -0.4855E-16 -0.6880E-20 -0.5152E-19 -0.3030E-23 -0.5152E-19 -0.3030E-23 -0.3994E-18 -0.4059E-22 -0.5152E-19 -0.3030E-23 -0.3994E-18 -0.4059E-22
     -3.367 -0.1596E-09 -0.1574E-12 -0.1122E-12 -0.6375E-16 -0.1122E-12 -0.6375E-16 -0.1122E-12 -0.6375E-16 -0.2114E-15 -0.4847E-19 -0.2114E-15 -0.4847E-19 -0.8907E-15 -0.3689E-18 -0.2114E-15 -0.4847E-19 -0.8907E-15 -0.3689E-18
     -3.199 -0.5330E-07 -0.1979E-09 -0.6346E-10 -0.1407E-12 -0.6346E-10 -0.1407E-12 -0.6346E-10 -0.1407E-12 -0.2069E-12 -0.1904E-15 -0.2069E-12 -0.1904E-15 -0.4740E-12 -0.7852E-15 -0.2069E-12 -0.1904E-15 -0.4740E-12 -0.7852E-15
     -3.031 -0.4533E-05 -0.6300E-07 -0.8790E-08 -0.7600E-10 -0.8790E-08 -0.7600E-10 -0.8790E-08 -0.7600E-10 -0.4788E-10 -0.1785E-12 -0.4788E-10 -0.1785E-12 -0.5990E-10 -0.3985E-12 -0.4788E-10 -0.1785E-12 -0.5990E-10 -0.3985E-12
     -2.863 -0.9156E-04 -0.5106E-05 -0.2881E-06 -0.1005E-07 -0.2881E-06 -0.1005E-07 -0.2881E-06 -0.1005E-07 -0.2548E-08 -0.3951E-10 -0.2548E-08 -0.3951E-10 -0.1849E-08 -0.4794E-10 -0.2548E-08 -0.3951E-10 -0.1849E-08 -0.4794E-10
     -2.695 -0.2011E-03 -0.9778E-04 -0.1802E-05 -0.3136E-06 -0.1802E-05 -0.3136E-06 -0.1802E-05 -0.3136E-06 -0.2917E-07 -0.2006E-08 -0.2917E-07 -0.2006E-08 -0.1891E-07 -0.1404E-08 -0.2917E-07 -0.2006E-08 -0.1891E-07 -0.1404E-08
     -2.527  0.2317E-02 -0.1824E-03  0.3432E-05 -0.1828E-05  0.3432E-05 -0.1828E-05  0.3432E-05 -0.1828E-05 -0.5282E-07 -0.2164E-07 -0.5282E-07 -0.2164E-07 -0.8061E-07 -0.1362E-07 -0.5282E-07 -0.2164E-07 -0.8061E-07 -0.1362E-07
     -2.359  0.8242E-02  0.2471E-02  0.4559E-04  0.4036E-05  0.4559E-04  0.4036E-05  0.4559E-04  0.4036E-05  0.4462E-06 -0.3283E-07  0.4462E-06 -0.3283E-07  0.4897E-06 -0.5400E-07  0.4462E-06 -0.3283E-07  0.4897E-06 -0.5400E-07
     -2.191  0.1407E-01  0.8370E-02  0.1490E-03  0.4766E-04  0.1490E-03  0.4766E-04  0.1490E-03  0.4766E-04  0.3219E-05  0.3494E-06  0.3219E-05  0.3494E-06  0.2425E-05  0.3709E-06  0.3219E-05  0.3494E-06  0.2425E-05  0.3709E-06
     -2.022  0.1569E-01  0.1408E-01  0.2481E-03  0.1516E-03  0.2481E-03  0.1516E-03  0.2481E-03  0.1516E-03  0.9227E-05  0.2346E-05  0.9227E-05  0.2346E-05  0.5660E-05  0.1716E-05  0.9227E-05  0.2346E-05  0.5660E-05  0.1716E-05
     -1.854  0.2027E-01  0.1550E-01  0.4569E-03  0.2483E-03  0.4569E-03  0.2483E-03  0.4569E-03  0.2483E-03  0.1947E-04  0.6521E-05  0.1947E-04  0.6521E-05  0.2039E-04  0.3830E-05  0.1947E-04  0.6521E-05  0.2039E-04  0.3830E-05
     -1.686  0.2248E-01  0.2005E-01  0.6240E-03  0.4560E-03  0.6240E-03  0.4560E-03  0.6240E-03  0.4560E-03  0.4221E-04  0.1339E-04  0.4221E-04  0.1339E-04  0.2823E-04  0.1364E-04  0.4221E-04  0.1339E-04  0.2823E-04  0.1364E-04
     -1.518  0.2193E-01  0.2210E-01  0.7385E-03  0.6191E-03  0.7385E-03  0.6191E-03  0.7385E-03  0.6191E-03  0.6269E-04  0.2827E-04  0.6269E-04  0.2827E-04  0.4092E-04  0.1850E-04  0.6269E-04  0.2827E-04  0.4092E-04  0.1850E-04
     -1.350  0.2676E-01  0.2148E-01  0.1111E-02  0.7273E-03  0.1111E-02  0.7273E-03  0.1111E-02  0.7273E-03  0.1003E-03  0.4190E-04  0.1003E-03  0.4190E-04  0.1052E-03  0.2508E-04  0.1003E-03  0.4190E-04  0.1052E-03  0.2508E-04
     -1.182  0.3145E-01  0.2553E-01  0.1460E-02  0.1066E-02  0.1460E-02  0.1066E-02  0.1460E-02  0.1066E-02  0.1754E-03  0.6245E-04  0.1754E-03  0.6245E-04  0.1421E-03  0.6357E-04  0.1754E-03  0.6245E-04  0.1421E-03  0.6357E-04
     -1.014  0.2525E-01  0.3100E-01  0.1323E-02  0.1453E-02  0.1323E-02  0.1453E-02  0.1323E-02  0.1453E-02  0.2139E-03  0.1110E-03  0.2139E-03  0.1110E-03  0.1219E-03  0.8937E-04  0.2139E-03  0.1110E-03  0.1219E-03  0.8937E-04
     -0.846  0.3133E-01  0.2471E-01  0.1925E-02  0.1294E-02  0.1925E-02  0.1294E-02  0.1925E-02  0.1294E-02  0.3347E-03  0.1304E-03  0.3347E-03  0.1304E-03  0.2990E-03  0.6931E-04  0.3347E-03  0.1304E-03  0.2990E-03  0.6931E-04
     -0.677  0.3825E-01  0.2806E-01  0.2577E-02  0.1734E-02  0.2577E-02  0.1734E-02  0.2577E-02  0.1734E-02  0.4621E-03  0.1907E-03  0.4621E-03  0.1907E-03  0.4744E-03  0.1497E-03  0.4621E-03  0.1907E-03  0.4744E-03  0.1497E-03
     -0.509  0.3361E-01  0.3710E-01  0.2466E-02  0.2510E-02  0.2466E-02  0.2510E-02  0.2466E-02  0.2510E-02  0.6213E-03  0.2717E-03  0.6213E-03  0.2717E-03  0.4793E-03  0.2679E-03  0.6213E-03  0.2717E-03  0.4793E-03  0.2679E-03
     -0.341  0.3484E-01  0.3263E-01  0.2819E-02  0.2406E-02  0.2819E-02  0.2406E-02  0.2819E-02  0.2406E-02  0.9341E-03  0.3200E-03  0.9341E-03  0.3200E-03  0.5873E-03  0.2658E-03  0.9341E-03  0.3200E-03  0.5873E-03  0.2658E-03
     -0.173  0.3861E-01  0.3114E-01  0.3473E-02  0.2542E-02  0.3473E-02  0.2542E-02  0.3473E-02  0.2542E-02  0.1048E-02  0.4858E-03  0.1048E-02  0.4858E-03  0.1061E-02  0.2716E-03  0.1048E-02  0.4858E-03  0.1061E-02  0.2716E-03
     -0.005  0.4525E-01  0.3580E-01  0.4422E-02  0.3182E-02  0.4422E-02  0.3182E-02  0.4422E-02  0.3182E-02  0.1665E-02  0.5787E-03  0.1665E-02  0.5787E-03  0.1683E-02  0.4306E-03  0.1665E-02  0.5787E-03  0.1683E-02  0.4306E-03
      0.163  0.4466E-01  0.3683E-01  0.4589E-02  0.3629E-02  0.4589E-02  0.3629E-02  0.4589E-02  0.3629E-02  0.2302E-02  0.6230E-03  0.2302E-02  0.6230E-03  0.1724E-02  0.7093E-03  0.2302E-02  0.6230E-03  0.1724E-02  0.7093E-03
      0.331  0.3977E-01  0.4387E-01  0.4383E-02  0.4594E-02  0.4383E-02  0.4594E-02  0.4383E-02  0.4594E-02  0.2882E-02  0.1089E-02  0.2882E-02  0.1089E-02  0.2169E-02  0.8715E-03  0.2882E-02  0.1089E-02  0.2169E-02  0.8715E-03
      0.499  0.5251E-01  0.3793E-01  0.6421E-02  0.4197E-02  0.6421E-02  0.4197E-02  0.6421E-02  0.4197E-02  0.4291E-02  0.1188E-02  0.4291E-02  0.1188E-02  0.4113E-02  0.7802E-03  0.4291E-02  0.1188E-02  0.4113E-02  0.7802E-03
      0.667  0.5667E-01  0.3300E-01  0.7294E-02  0.3990E-02  0.7294E-02  0.3990E-02  0.7294E-02  0.3990E-02  0.5808E-02  0.1302E-02  0.5808E-02  0.1302E-02  0.5534E-02  0.9117E-03  0.5808E-02  0.1302E-02  0.5534E-02  0.9117E-03
      0.836  0.6095E-01  0.4848E-01  0.7674E-02  0.6335E-02  0.7674E-02  0.6335E-02  0.7674E-02  0.6335E-02  0.1235E-01  0.2109E-02  0.1235E-01  0.2109E-02  0.8620E-02  0.1860E-02  0.1235E-01  0.2109E-02  0.8620E-02  0.1860E-02
      1.004  0.7995E-01  0.4620E-01  0.9206E-02  0.6411E-02  0.9206E-02  0.6411E-02  0.9206E-02  0.6411E-02  0.3225E-01  0.2190E-02  0.3225E-01  0.2190E-02  0.3196E-01  0.2199E-02  0.3225E-01  0.2190E-02  0.3196E-01  0.2199E-02
      1.172  0.9914E-01  0.4424E-01  0.1225E-01  0.6459E-02  0.1225E-01  0.6459E-02  0.1225E-01  0.6459E-02  0.5201E-01  0.3084E-02  0.5201E-01  0.3084E-02  0.7635E-01  0.2301E-02  0.5201E-01  0.3084E-02  0.7635E-01  0.2301E-02
      1.340  0.8731E-01  0.4552E-01  0.1252E-01  0.6863E-02  0.1252E-01  0.6863E-02  0.1252E-01  0.6863E-02  0.5622E-01  0.4082E-02  0.5622E-01  0.4082E-02  0.1100E+00  0.2603E-02  0.5622E-01  0.4082E-02  0.1100E+00  0.2603E-02
      1.508  0.8060E-01  0.4498E-01  0.1580E-01  0.7392E-02  0.1580E-01  0.7392E-02  0.1580E-01  0.7392E-02  0.6005E-01  0.4504E-02  0.6005E-01  0.4504E-02  0.1572E+00  0.3969E-02  0.6005E-01  0.4504E-02  0.1572E+00  0.3969E-02
      1.676  0.7853E-01  0.5790E-01  0.2140E-01  0.1015E-01  0.2140E-01  0.1015E-01  0.2140E-01  0.1015E-01  0.6821E-01  0.6847E-02  0.6821E-01  0.6847E-02  0.2268E+00  0.6172E-02  0.6821E-01  0.6847E-02  0.2268E+00  0.6172E-02
      1.844  0.5984E-01  0.5463E-01  0.2016E-01  0.9632E-02  0.2016E-01  0.9632E-02  0.2016E-01  0.9632E-02  0.6940E-01  0.8604E-02  0.6940E-01  0.8604E-02  0.2191E+00  0.7030E-02  0.6940E-01  0.8604E-02  0.2191E+00  0.7030E-02
      2.012  0.3500E-01  0.5516E-01  0.1347E-01  0.9660E-02  0.1347E-01  0.9660E-02  0.1347E-01  0.9660E-02  0.7143E-01  0.1286E-01  0.7143E-01  0.1286E-01  0.1383E+00  0.9019E-02  0.7143E-01  0.1286E-01  0.1383E+00  0.9019E-02
      2.181  0.1971E-01  0.6849E-01  0.9358E-02  0.1159E-01  0.9358E-02  0.1159E-01  0.9358E-02  0.1159E-01  0.6150E-01  0.2245E-01  0.6150E-01  0.2245E-01  0.9957E-01  0.1703E-01  0.6150E-01  0.2245E-01  0.9957E-01  0.1703E-01
      2.349  0.6944E-02  0.7736E-01  0.8802E-02  0.1292E-01  0.8802E-02  0.1292E-01  0.8802E-02  0.1292E-01  0.5905E-01  0.3367E-01  0.5905E-01  0.3367E-01  0.9246E-01  0.2783E-01  0.5905E-01  0.3367E-01  0.9246E-01  0.2783E-01
      2.517  0.3271E-02  0.7890E-01  0.1783E-01  0.1375E-01  0.1783E-01  0.1375E-01  0.1783E-01  0.1375E-01  0.2277E+00  0.4071E-01  0.2277E+00  0.4071E-01  0.1273E+00  0.3120E-01  0.2277E+00  0.4071E-01  0.1273E+00  0.3120E-01
      2.685  0.3703E-02  0.6309E-01  0.2182E-01  0.1231E-01  0.2182E-01  0.1231E-01  0.2182E-01  0.1231E-01  0.3379E+00  0.3897E-01  0.3379E+00  0.3897E-01  0.1575E+00  0.3071E-01  0.3379E+00  0.3897E-01  0.1575E+00  0.3071E-01
      2.853  0.6311E-02  0.6340E-01  0.1577E-01  0.1534E-01  0.1577E-01  0.1534E-01  0.1577E-01  0.1534E-01  0.2553E+00  0.4173E-01  0.2553E+00  0.4173E-01  0.1224E+00  0.4650E-01  0.2553E+00  0.4173E-01  0.1224E+00  0.4650E-01
      3.021  0.9571E-02  0.5547E-01  0.1878E-01  0.1602E-01  0.1878E-01  0.1602E-01  0.1878E-01  0.1602E-01  0.2215E+00  0.4376E-01  0.2215E+00  0.4376E-01  0.1011E+00  0.8155E-01  0.2215E+00  0.4376E-01  0.1011E+00  0.8155E-01
      3.189  0.1403E-01  0.4889E-01  0.2793E-01  0.1934E-01  0.2793E-01  0.1934E-01  0.2793E-01  0.1934E-01  0.2552E+00  0.4538E-01  0.2552E+00  0.4538E-01  0.1066E+00  0.1317E+00  0.2552E+00  0.4538E-01  0.1066E+00  0.1317E+00
      3.357  0.1956E-01  0.4048E-01  0.3495E-01  0.1948E-01  0.3495E-01  0.1948E-01  0.3495E-01  0.1948E-01  0.3151E+00  0.5090E-01  0.3151E+00  0.5090E-01  0.1383E+00  0.1507E+00  0.3151E+00  0.5090E-01  0.1383E+00  0.1507E+00
      3.526  0.1668E-01  0.2594E-01  0.2782E-01  0.1428E-01  0.2782E-01  0.1428E-01  0.2782E-01  0.1428E-01  0.2852E+00  0.5031E-01  0.2852E+00  0.5031E-01  0.1081E+00  0.1159E+00  0.2852E+00  0.5031E-01  0.1081E+00  0.1159E+00