    2    2  100    2
  0.1173411E+02  0.2863035E-09  0.2863035E-09  0.2863035E-09  0.5000000E-15
  1.000000000000000E-004
  CAR 
 unknown system                          
     16    165     20
 
  0.0000000E+00  0.0000000E+00  0.0000000E+00  0.2035416E-03
    1       -2.587962     -2.425529   1.000000   1.000000
    2        1.003037      2.815062   1.000000   1.000000
    3        1.003037      2.815203   1.000000   1.000000
    4        3.567351      5.464066   1.000000   1.006069
    5        3.567351      5.464199   1.000000   1.006083
    6        3.567351      5.464210   1.000000   1.006084
    7        4.785658      7.529751   1.000000  -0.000000
    8        4.785659      7.529914   1.000000  -0.000000
    9        6.003183      8.174014   0.074200  -0.000000
   10        6.003184      8.174138   0.074196  -0.000000
   11        6.003184      8.174149   0.074196  -0.000000
   12       15.839186     16.104358   0.000000   0.000000
   13       15.839186     16.104358   0.000000   0.000000
   14       15.839186     16.104361   0.000000   0.000000
   15       21.570172     22.624538   0.000000   0.000000
   16       21.570174     22.624551   0.000000   0.000000
   17       26.734699     27.833875   0.000000   0.000000
   18       30.938566     30.683277   0.000000   0.000000
   19       30.938566     30.683277   0.000000   0.000000
   20       30.938566     30.683277   0.000000   0.000000
 
  0.5882353E-01 -0.1540744E-32  0.0000000E+00  0.1221250E-02
    1       -2.515728     -2.352994   1.000000   1.000000
    2        1.034070      2.841603   1.000000   1.000000
    3        1.035506      2.851987   1.000000   1.000000
    4        3.566682      5.460696   1.000000   1.005724
    5        3.566683      5.460839   1.000000   1.005738
    6        3.587186      5.486042   1.000000   1.008725
    7        4.753298      7.487607   1.000000  -0.000000
    8        4.798470      7.546079   1.000000  -0.000000
    9        5.941836      8.092887   0.253737  -0.000000
   10        5.941838      8.093022   0.253732  -0.000000
   11        5.981841      8.150169   0.126419  -0.000000
   12       15.305045     15.665024   0.000000   0.000000
   13       15.976627     16.262217   0.000000   0.000000
   14       15.976627     16.262218   0.000000   0.000000
   15       21.591191     22.639049   0.000000   0.000000
   16       21.978755     22.952074   0.000000   0.000000
   17       26.966384     28.054264   0.000000   0.000000
   18       30.431035     30.243393   0.000000   0.000000
   19       30.878254     30.653360   0.000000   0.000000
   20       30.878254     30.653361   0.000000   0.000000
 
  0.1176471E+00  0.3081488E-32  0.0000000E+00  0.1221250E-02
    1       -2.301224     -2.137235   1.000000   1.000000
    2        1.125882      2.913042   1.000000   1.000000
    3        1.127874      2.961124   1.000000   1.000000
    4        3.566207      5.452474   1.000000   1.004948
    5        3.566208      5.452617   1.000000   1.004960
    6        3.646112      5.550955   1.000000   1.020861
    7        4.657181      7.362429   1.000000  -0.000000
    8        4.836008      7.592839   1.000000  -0.000000
    9        5.769165      7.869343   0.899786  -0.000000
   10        5.769166      7.869476   0.899782  -0.000000
   11        5.917861      8.078296   0.345191  -0.000000
   12       14.075008     14.611525   0.000000   0.000000
   13       16.376088     16.714162   0.000000   0.000000
   14       16.376088     16.714164   0.000000   0.000000
   15       21.654027     22.682868   0.000000   0.000000
   16       22.763454     23.613095   0.000000   0.000000
   17       27.733967     28.779761   0.000000   0.000000
   18       29.355169     29.280420   0.000000   0.000000
   19       30.624261     30.506743   0.000000   0.000000
   20       30.624261     30.506745   0.000000   0.000000
 
  0.1764706E+00  0.6162976E-32  0.0000000E+00  0.1221250E-02
    1       -1.951365     -1.783939   1.000000   1.000000
    2        1.266302      3.007681   1.000000   1.000000
    3        1.276065      3.140175   1.000000   1.000000
    4        3.570995      5.445910   1.000000   1.004391
    5        3.570996      5.446052   1.000000   1.004402
    6        3.742393      5.657100   1.000000   1.033409
    7        4.500235      7.158594   1.000000  -0.000000
    8        4.897352      7.552029   1.000000  -0.000000
    9        5.515838      7.552160   1.013539  -0.000000
   10        5.515839      7.666508   1.013540  -0.000000
   11        5.813885      7.961573   0.765515  -0.000000
   12       12.605971     13.326207   0.000000   0.000000
   13       17.005394     17.409973   0.000000   0.000000
   14       17.005394     17.409977   0.000000   0.000000
   15       21.762054     22.759172   0.000000   0.000000
   16       23.408593     24.176671   0.000000   0.000000
   17       28.175364     28.207949   0.000000   0.000000
   18       29.114336     30.085578   0.000000   0.000000
   19       30.022387     30.099344   0.000000   0.000000
   20       30.022388     30.099348   0.000000   0.000000
 
  0.2352941E+00  0.6162976E-32  0.0000000E+00  0.1221250E-02
    1       -1.479198     -1.303418   1.000000   1.000000
    2        1.426691      3.086883   1.000000   1.000000
    3        1.480342      3.384787   1.000000   1.000000
    4        3.587275      5.448771   1.000000   1.004627
    5        3.587276      5.448912   1.000000   1.004639
    6        3.873141      5.801361   1.000000   0.807781
    7        4.287302      6.882953   1.000000  -0.000000
    8        4.980859      7.192041   1.000000  -0.000000
    9        5.218018      7.192171   1.000015  -0.000000
   10        5.218020      7.759586   1.000015  -0.000000
   11        5.673807      7.804479   1.028288  -0.000000
   12       11.107725     12.029201  -0.000000   0.000000
   13       17.825391     18.295296   0.000000   0.000000
   14       17.825392     18.295300   0.000000   0.000000
   15       21.920015     22.872771   0.000000   0.000000
   16       23.839658     24.547488   0.000000   0.000000
   17       27.053480     27.190640   0.000000   0.000000
   18       29.035553     29.325057   0.000000   0.000000
   19       29.035554     29.325063   0.000000   0.000000
   20       30.965220     31.391981   0.000000   0.000000
 
  0.2941176E+00 -0.6162976E-32  0.0000000E+00  0.1221250E-02
    1       -0.905971     -0.711276   1.000000   1.000000
    2        1.573352      3.094394   1.000000   1.000000
    3        1.732701      3.688683   1.000000   1.000000
    4        3.623282      5.471361   1.000000   1.006870
    5        3.623283      5.471500   1.000000   1.006886
    6        4.025241      5.979499   1.000000   0.132844
    7        4.034395      6.545382   1.000000  -0.000014
    8        4.907879      6.829372   1.000000  -0.000000
    9        4.907880      6.829502   1.000000  -0.000000
   10        5.090463      7.612972   1.000000  -0.000000
   11        5.502867      7.866425   1.011269  -0.000000
   12        9.678033     10.844305  -0.000000  -0.000000
   13       18.799238     19.325080   0.000000   0.000000
   14       18.799239     19.325084   0.000000   0.000000
   15       22.134391     23.030406   0.000000   0.000000
   16       24.175192     24.821313   0.000000   0.000000
   17       26.040306     26.283115   0.000000   0.000000
   18       27.798845     28.243373   0.000000   0.000000
   19       27.798846     28.243380   0.000000   0.000000
   20       29.565202     29.981682   0.000000   0.000000
 
  0.3529412E+00  0.1232595E-31  0.0000000E+00  0.1221250E-02
    1       -0.266128     -0.030788   1.000000   1.000000
    2        1.657982      2.963039   1.000000   1.000000
    3        2.025446      4.043737   1.000000   1.000000
    4        3.687486      5.524445   1.000000   1.015188
    5        3.687487      5.524583   1.000000   1.015216
    6        3.723509      6.159369   1.000000  -0.031989
    7        4.221166      6.186130   1.000000  -0.026396
    8        4.610532      6.491902   1.000000  -0.000068
    9        4.610533      6.492032   1.000000  -0.000068
   10        5.241079      7.394405   1.000030  -0.000000
   11        5.307396      7.985650   1.000194  -0.000000
   12        8.382042      9.856712  -0.000000  -0.000000
   13       19.896577     20.465483   0.000000   0.000000
   14       19.896577     20.465486   0.000000   0.000000
   15       22.413696     23.240927   0.000000   0.000000
   16       24.524744     25.105948   0.000000   0.000000
   17       25.151897     25.501584   0.000000   0.000000
   18       26.449888     26.987456   0.000000   0.000000
   19       26.449889     26.987462   0.000000   0.000000
   20       28.298956     28.707920   0.000000   0.000000
 
  0.4117647E+00  0.0000000E+00  0.0000000E+00  0.1221250E-02
    1        0.385630      0.703751   1.000000   1.000000
    2        1.619043      2.637610   1.000000   1.000000
    3        2.349189      4.439606   1.000000   1.000000
    4        3.392693      5.617335   1.000000   1.034324
    5        3.787239      5.617471   1.000000   1.034340
    6        3.787239      5.739554   1.000000   0.961627
    7        4.342208      6.195655   1.000000  -0.024202
    8        4.342209      6.195787   1.000000  -0.024172
    9        4.427557      6.414848   1.000000  -0.000520
   10        5.094413      7.156628   1.000000  -0.000000
   11        5.468534      8.127378   1.006551  -0.000000
   12        7.279813      9.118557  -0.000000  -0.000000
   13       21.092275     21.690292   0.000000   0.000000
   14       21.092276     21.690294   0.000000   0.000000
   15       22.767699     23.514941   0.000000   0.000000
   16       24.388227     24.844437   0.000000   0.000000
   17       24.961586     25.480736   0.000000   0.000000
   18       25.068462     25.656468   0.000000   0.000000
   19       25.068463     25.656472   0.000000   0.000000
   20       27.196749     27.608850   0.000000   0.000000
 
  0.4705882E+00  0.1232595E-31  0.0000000E+00  0.1221250E-02
    1        0.969304      1.441529   1.000000   1.000000
    2        1.396489      2.112532   1.000000   1.000000
    3        2.693177      4.864021   1.000000   1.000000
    4        3.045355      5.302721   1.000000   1.000171
    5        3.928291      5.757779   1.000000   0.926169
    6        3.928292      5.757913   1.000000   0.925876
    7        4.113447      5.950159   1.000000   0.224358
    8        4.113448      5.950292   1.000000   0.223900
    9        4.646961      6.658527   1.000000  -0.000000
   10        4.871843      6.908653   1.000000  -0.000000
   11        5.837168      8.321864   0.678925  -0.000000
   12        6.425671      8.626715  -0.000399  -0.000000
   13       22.366267     22.978535   0.000000   0.000000
   14       22.366268     22.978535   0.000000   0.000000
   15       23.207542     23.864794   0.000000   0.000000
   16       23.698400     24.303762   0.000000   0.000000
   17       23.698401     24.308594   0.000000   0.000000
   18       23.744477     24.308596   0.000000   0.000000
   19       25.534708     26.001941   0.000000   0.000000
   20       26.274937     26.705825   0.000000   0.000000
 
  0.5882353E-01  0.5882353E-01  0.0000000E+00  0.2442499E-02
    1       -2.443900     -2.280806   1.000000   1.000000
    2        1.064621      2.873992   1.000000   1.000000
    3        1.067706      2.881946   1.000000   1.000000
    4        3.527839      5.416611   1.000000   1.002493
    5        3.564522      5.455824   1.000000   1.005253
    6        3.645045      5.548671   1.000000   1.020345
    7        4.746104      7.477280   1.000000  -0.000000
    8        4.788828      7.533399   1.000000  -0.000000
    9        5.831372      7.958541   0.701338  -0.000000
   10        5.880088      8.011486   0.502019  -0.000000
   11        6.012514      8.184539   0.054974  -0.000000
   12       15.317701     15.710798   0.000000   0.000000
   13       15.554884     15.922069   0.000000   0.000000
   14       16.110697     16.414487   0.000000   0.000000
   15       21.802031     22.805935   0.000000   0.000000
   16       22.223341     23.151318   0.000000   0.000000
   17       27.182806     28.261790   0.000000   0.000000
   18       29.985948     29.880692   0.000000   0.000000
   19       30.728842     30.519102   0.000000   0.000000
   20       30.836641     30.635289   0.000000   0.000000
 
  0.1176471E+00  0.5882353E-01  0.0000000E+00  0.4884999E-02
    1       -2.230700     -2.066141   1.000000   1.000000
    2        1.153533      2.948419   1.000000   1.000000
    3        1.161730      2.986752   1.000000   1.000000
    4        3.496179      5.375755   1.000000   1.001039
    5        3.559759      5.443392   1.000000   1.004191
    6        3.734833      5.646233   1.000000   1.034992
    7        4.665230      7.370201   1.000000  -0.000000
    8        4.819408      7.571128   1.000000  -0.000000
    9        5.626764      7.704674   1.035174  -0.000000
   10        5.708001      7.789540   1.004420  -0.000000
   11        5.989619      8.157345   0.106059  -0.000000
   12       14.169138     14.725785   0.000000   0.000000
   13       15.843357     16.274296   0.000000   0.000000
   14       16.501239     16.852388   0.000000   0.000000
   15       21.937723     22.909507   0.000000   0.000000
   16       23.005358     23.817048   0.000000   0.000000
   17       27.907700     28.929778   0.000000   0.000000
   18       28.913962     28.950833   0.000000   0.000000
   19       30.400015     30.285259   0.000000   0.000000
   20       30.633191     30.522397   0.000000   0.000000
 
  0.1764706E+00  0.5882353E-01  0.0000000E+00  0.4884999E-02
    1       -1.883335     -1.714883   1.000000   1.000000
    2        1.293166      3.043909   1.000000   1.000000
    3        1.308159      3.161845   1.000000   1.000000
    4        3.480060      5.348113   1.000000   1.000544
    5        3.556467      5.428978   1.000000   1.003187
    6        3.850963      5.772616   1.000000   0.891142
    7        4.520880      7.178873   1.000000  -0.000000
    8        4.881383      7.380414   1.000000  -0.000000
    9        5.361304      7.477218   1.000745  -0.000000
   10        5.456823      7.645853   1.005347  -0.000000
   11        5.910032      8.065394   0.376804  -0.000000
   12       12.698251     13.434159   0.000000   0.000000
   13       16.430032     16.929537   0.000000   0.000000
   14       17.118561     17.530736   0.000000   0.000000
   15       22.074192     23.009755   0.000000   0.000000
   16       23.711362     24.440623   0.000000   0.000000
   17       27.694463     27.823614   0.000000   0.000000
   18       29.237793     29.797617   0.000000   0.000000
   19       29.741984     30.154403   0.000000   0.000000
   20       30.080073     30.211438   0.000000   0.000000
 
  0.2352941E+00  0.5882353E-01  0.0000000E+00  0.4884999E-02
    1       -1.415060     -1.237372   1.000000   1.000000
    2        1.455490      3.122961   1.000000   1.000000
    3        1.505960      3.400599   1.000000   1.000000
    4        3.482538      5.337696   1.000000   1.000422
    5        3.558928      5.420606   1.000000   1.002702
    6        3.994116      5.929163   1.000000   0.300945
    7        4.328556      6.920685   1.000000  -0.000000
    8        4.966286      7.023524   1.000000  -0.000000
    9        5.061737      7.128700   1.000000  -0.000000
   10        5.164400      7.741560   1.000003  -0.000000
   11        5.784987      7.922895   0.857715  -0.000000
   12       11.195826     12.127613  -0.000000   0.000000
   13       17.189703     17.756106   0.000000   0.000000
   14       17.925876     18.399108   0.000000   0.000000
   15       22.262491     23.149438   0.000000   0.000000
   16       24.203234     24.874210   0.000000   0.000000
   17       26.500210     26.742628   0.000000   0.000000
   18       28.757830     28.978892   0.000000   0.000000
   19       29.108400     29.398813   0.000000   0.000000
   20       31.086915     31.980620   0.000000   0.000000
 
  0.2941176E+00  0.5882353E-01  0.0000000E+00  0.4884999E-02
    1       -0.847696     -0.649470   1.000000   1.000000
    2        1.601943      3.129134   1.000000   1.000000
    3        1.751719      3.696028   1.000000   1.000000
    4        3.508987      5.351424   1.000000   1.000589
    5        3.561684      5.424002   1.000000   1.002890
    6        4.109458      6.114595   1.000000  -0.034964
    7        4.162903      6.610669   1.000000  -0.000002
    8        4.754896      6.667842   1.000000  -0.000000
    9        4.865338      6.788129   1.000000  -0.000000
   10        5.077006      7.740295   1.000000  -0.000000
   11        5.623476      7.850956   1.034936  -0.000000
   12        9.760108     10.928777  -0.000000  -0.000000
   13       18.077997     18.701002   0.000000   0.000000
   14       18.888045     19.414352   0.000000   0.000000
   15       22.517527     23.342669   0.000000   0.000000
   16       24.598612     25.212319   0.000000   0.000000
   17       25.371335     25.730658   0.000000   0.000000
   18       27.617731     27.945066   0.000000   0.000000
   19       27.867708     28.315206   0.000000   0.000000
   20       30.449255     30.867298   0.000000   0.000000
 
  0.3529412E+00  0.5882353E-01  0.0000000E+00  0.4884999E-02
    1       -0.216267      0.025307   1.000000   1.000000
    2        1.683705      2.994743   1.000000   1.000000
    3        2.036388      4.038677   1.000000   1.000000
    4        3.512383      5.398016   1.000000   1.001695
    5        3.566063      5.433750   1.000000   1.003494
    6        3.932223      6.276979   1.000000  -0.008468
    7        4.353926      6.325222   1.000000  -0.003641
    8        4.462250      6.337289   1.000000  -0.002881
    9        4.586869      6.485057   1.000000  -0.000082
   10        5.229547      7.527536   1.000021  -0.000000
   11        5.434240      7.972686   1.003527  -0.000000
   12        8.454187      9.920583  -0.000000  -0.000000
   13       19.056654     19.721242   0.000000   0.000000
   14       19.975120     20.542897   0.000000   0.000000
   15       22.853955     23.604806   0.000000   0.000000
   16       24.299941     24.776437   0.000000   0.000000
   17       25.013961     25.569614   0.000000   0.000000
   18       26.479599     26.868277   0.000000   0.000000
   19       26.513051     27.052544   0.000000   0.000000
   20       29.172098     29.599335   0.000000   0.000000
 
  0.4117647E+00  0.5882353E-01  0.0000000E+00  0.4884999E-02
    1        0.424505      0.752584   1.000000   1.000000
    2        1.640871      2.667834   1.000000   1.000000
    3        2.349531      4.415365   1.000000   1.000000
    4        3.309572      5.394222   1.000000   1.001563
    5        3.660006      5.485585   1.000000   1.008663
    6        3.912704      5.997889   1.000000   0.086081
    7        4.199363      6.047804   1.000000   0.001263
    8        4.347669      6.233894   1.000000  -0.015746
    9        4.562312      6.555797   1.000000  -0.000010
   10        5.225511      7.293809   1.000018  -0.000000
   11        5.463301      8.118268   1.005989  -0.000000
   12        7.335683      9.156784  -0.000000  -0.000000
   13       20.091756     20.779216   0.000000   0.000000
   14       21.162851     21.759083   0.000000   0.000000
   15       23.257148     23.837581   0.000000   0.000000
   16       23.290325     23.957089   0.000000   0.000000
   17       25.129076     25.717302   0.000000   0.000000
   18       25.443452     25.880742   0.000000   0.000000
   19       25.527298     26.030971   0.000000   0.000000
   20       28.017398     28.449673   0.000000   0.000000
 
  0.4705882E+00  0.5882353E-01  0.0000000E+00  0.4884999E-02
    1        0.996896      1.482146   1.000000   1.000000
    2        1.417593      2.145962   1.000000   1.000000
    3        2.678936      4.806349   1.000000   1.000000
    4        3.008099      5.169355   1.000000   1.000003
    5        3.795668      5.620759   1.000000   1.034691
    6        3.975718      5.807970   1.000000   0.785893
    7        4.006619      5.929362   1.000000   0.300183
    8        4.154755      6.040259   1.000000   0.010345
    9        4.781712      6.799214   1.000000  -0.000000
   10        5.005286      7.048007   1.000000  -0.000000
   11        5.846956      8.320668   0.640009  -0.000000
   12        6.458689      8.641250  -0.000170  -0.000000
   13       21.152079     21.838378   0.000000   0.000000
   14       22.211391     22.864257   0.000000   0.000000
   15       22.430527     23.041151   0.000000   0.000000
   16       23.759253     24.368525   0.000000   0.000000
   17       23.851282     24.430240   0.000000   0.000000
   18       24.563109     25.062007   0.000000   0.000000
   19       26.186903     26.651767   0.000000   0.000000
   20       27.016478     27.458653   0.000000   0.000000
 
  0.1176471E+00  0.1176471E+00  0.0000000E+00  0.2442499E-02
    1       -2.021735     -1.854980   1.000000   1.000000
    2        1.232781      3.049920   1.000000   1.000000
    3        1.261133      3.059491   1.000000   1.000000
    4        3.415855      5.282095   1.000000   1.000097
    5        3.542627      5.418273   1.000000   1.002578
    6        3.871775      5.795724   1.000000   0.825679
    7        4.657973      7.351423   1.000000  -0.000000
    8        4.799286      7.404675   1.000000  -0.000000
    9        5.375072      7.545511   1.001023  -0.000000
   10        5.538432      7.574176   1.018085  -0.000000
   11        6.038566      8.213577   0.012554  -0.000000
   12       14.151175     14.767498   0.000000   0.000000
   13       14.943980     15.532555   0.000000   0.000000
   14       16.867751     17.253881   0.000000   0.000000
   15       22.252150     23.163792   0.000000   0.000000
   16       23.787683     24.497727   0.000000   0.000000
   17       27.832211     27.993029   0.000000   0.000000
   18       28.502175     29.528744   0.000000   0.000000
   19       29.982202     29.902467   0.000000   0.000000
   20       30.586039     30.513682   0.000000   0.000000
 
  0.1764706E+00  0.1176471E+00  0.0000000E+00  0.4884999E-02
    1       -1.682110     -1.509884   1.000000   1.000000
    2        1.357042      3.147028   1.000000   1.000000
    3        1.415093      3.223227   1.000000   1.000000
    4        3.355283      5.206914   1.000000   1.000010
    5        3.521012      5.384653   1.000000   1.001268
    6        4.029579      5.967823   1.000000   0.166872
    7        4.569322      7.055682   1.000000  -0.000000
    8        4.841580      7.223837   1.000000  -0.000000
    9        5.079538      7.279832   1.000000  -0.000000
   10        5.295758      7.595639   1.000142  -0.000000
   11        6.023361      8.194888   0.035341  -0.000000
   12       12.912474     13.682807   0.000000   0.000000
   13       15.229468     15.894591   0.000000   0.000000
   14       17.452174     17.885483   0.000000   0.000000
   15       22.446963     23.312878   0.000000   0.000000
   16       24.659480     25.284391   0.000000   0.000000
   17       26.550375     26.831509   0.000000   0.000000
   18       29.330605     29.350197   0.000000   0.000000
   19       29.659489     30.290496   0.000000   0.000000
   20       30.225330     30.637004   0.000000   0.000000
 
  0.2352941E+00  0.1176471E+00  0.0000000E+00  0.4884999E-02
    1       -1.226391     -1.041829   1.000000   1.000000
    2        1.508128      3.220083   1.000000   1.000000
    3        1.610778      3.449981   1.000000   1.000000
    4        3.319896      5.156912   1.000000   1.000002
    5        3.498027      5.350022   1.000000   1.000570
    6        4.206211      6.160713   1.000000  -0.031745
    7        4.427670      6.691815   1.000000  -0.000000
    8        4.765987      6.967485   1.000000  -0.000000
    9        4.925619      7.016911   1.000000  -0.000000
   10        5.021562      7.691880   1.000000  -0.000000
   11        5.949325      8.108293   0.227238  -0.000000
   12       11.423804     12.375651   0.000000   0.000000
   13       15.890599     16.611853   0.000000   0.000000
   14       18.223947     18.706861   0.000000   0.000000
   15       22.646146     23.459781   0.000000   0.000000
   16       25.258801     25.648552   0.000000   0.000000
   17       25.328713     25.902537   0.000000   0.000000
   18       28.430924     28.562625   0.000000   0.000000
   19       29.323753     29.614548   0.000000   0.000000
   20       31.371690     32.275331   0.000000   0.000000
 
  0.2941176E+00  0.1176471E+00  0.0000000E+00  0.4884999E-02
    1       -0.678189     -0.467401   1.000000   1.000000
    2        1.648681      3.216228   1.000000   1.000000
    3        1.841141      3.725943   1.000000   1.000000
    4        3.315040      5.138655   1.000000   1.000001
    5        3.463703      5.316908   1.000000   1.000249
    6        4.276292      6.339768   1.000000  -0.002743
    7        4.399867      6.372835   1.000000  -0.001374
    8        4.456519      6.689252   1.000000  -0.000000
    9        4.755773      6.768927   1.000000  -0.000000
   10        5.037782      7.806414   1.000000  -0.000000
   11        5.826375      7.966530   0.720231  -0.000000
   12        9.978616     11.147471  -0.000000  -0.000000
   13       16.685683     17.447474   0.000000   0.000000
   14       19.152387     19.680457   0.000000   0.000000
   15       22.892042     23.642341   0.000000   0.000000
   16       24.009259     24.501050   0.000000   0.000000
   17       25.873634     26.406692   0.000000   0.000000
   18       27.418882     27.638745   0.000000   0.000000
   19       28.071674     28.528346   0.000000   0.000000
   20       32.048890     32.458727   0.000000   0.000000
 
  0.3529412E+00  0.1176471E+00  0.0000000E+00  0.4884999E-02
    1       -0.074682      0.189049   1.000000   1.000000
    2        1.722674      3.070390   1.000000   1.000000
    3        2.102954      4.039511   1.000000   1.000000
    4        3.346480      5.159479   1.000000   1.000002
    5        3.381824      5.272711   1.000000   1.000075
    6        4.167743      6.018535   1.000000   0.043720
    7        4.168468      6.477899   1.000000  -0.000101
    8        4.530999      6.517739   1.000000  -0.000032
    9        4.607727      6.601553   1.000000  -0.000002
   10        5.194943      7.782552   1.000007  -0.000000
   11        5.665091      7.934404   1.031405  -0.000000
   12        8.648998     10.089306  -0.000000  -0.000000
   13       17.569589     18.352502   0.000000   0.000000
   14       20.209991     20.774867   0.000000   0.000000
   15       22.812755     23.396850   0.000000   0.000000
   16       23.206599     23.882958   0.000000   0.000000
   17       26.420147     26.714635   0.000000   0.000000
   18       26.425118     26.914577   0.000000   0.000000
   19       26.699504     27.244921   0.000000   0.000000
   20       30.833423     31.247100   0.000000   0.000000
 
  0.4117647E+00  0.1176471E+00  0.0000000E+00  0.4884999E-02
    1        0.528938      0.892651   1.000000   1.000000
    2        1.672360      2.740995   1.000000   1.000000
    3        2.388026      4.373862   1.000000   1.000000
    4        3.212466      5.178594   1.000000   1.000004
    5        3.419300      5.225894   1.000000   1.000019
    6        3.914606      5.741170   1.000000   0.958813
    7        4.144470      6.320084   1.000000  -0.004012
    8        4.366567      6.336824   1.000000  -0.002908
    9        4.825265      6.841944   1.000000  -0.000000
   10        5.447162      7.567780   1.004493  -0.000000
   11        5.475187      8.090353   1.007322  -0.000000
   12        7.489181      9.259975  -0.000000  -0.000000
   13       18.518993     19.302059   0.000000   0.000000
   14       21.373648     21.964869   0.000000   0.000000
   15       21.667513     22.329374   0.000000   0.000000
   16       23.609121     24.204147   0.000000   0.000000
   17       25.307780     25.882674   0.000000   0.000000
   18       25.525897     25.896893   0.000000   0.000000
   19       27.047730     27.508957   0.000000   0.000000
   20       29.700569     30.117062   0.000000   0.000000
 
  0.4705882E+00  0.1176471E+00  0.0000000E+00  0.4884999E-02
    1        1.061405      1.594705   1.000000   1.000000
    2        1.454627      2.232997   1.000000   1.000000
    3        2.682567      4.703306   1.000000   1.000000
    4        2.966884      4.987204   1.000000   1.000000
    5        3.537414      5.343264   1.000000   1.000484
    6        3.702839      5.514996   1.000000   1.013384
    7        4.186454      6.232935   1.000000  -0.015940
    8        4.258915      6.252127   1.000000  -0.012310
    9        5.046995      7.088215   1.000000  -0.000000
   10        5.266287      7.333106   1.000062  -0.000000
   11        5.875793      8.315512   0.520189  -0.000000
   12        6.552256      8.680461  -0.000011  -0.000000
   13       19.521250     20.283608   0.000000   0.000000
   14       20.570998     21.292692   0.000000   0.000000
   15       22.623122     23.228856   0.000000   0.000000
   16       23.940549     24.546970   0.000000   0.000000
   17       24.119680     24.630853   0.000000   0.000000
   18       24.755084     25.185616   0.000000   0.000000
   19       27.797038     28.234190   0.000000   0.000000
   20       28.682462     29.105421   0.000000   0.000000
 
  0.1764706E+00  0.1764706E+00  0.0000000E+00  0.2442499E-02
    1       -1.357023     -1.175877   1.000000   1.000000
    2        1.452504      3.267912   1.000000   1.000000
    3        1.582729      3.343569   1.000000   1.000000
    4        3.249305      5.083003   1.000000   1.000000
    5        3.479744      5.325572   1.000000   1.000311
    6        4.227765      6.185064   1.000000  -0.026638