 vasp.6.2.0 18Jan21 (build Aug 12 2022 13:00:08) complex                        
  
 executed on             LinuxIFC date 2024.11.04  04:27:30
 running on    4 total cores
 distrk:  each k-point on    4 cores,    1 groups
 distr:  one band on NCORE=   1 cores,    4 groups


--------------------------------------------------------------------------------------------------------


 INCAR:
   ISTART = 0            (Read existing wavefunction, if there)
   ISPIN = 2            (Non-Spin polarised DFT)
   MAGMOM = 5 5          (Set this parameters manually)
   GGA_COMPAT = .FALSE.   (Apply spherical cutoff on gradient field)
   VOSKOWN = 1        (Enhances the magnetic moments and the magnetic energies)
   LMAXMIX = 4        (For d elements increase LMAXMIX to 4, f: LMAXMIX \= 6)
   LREAL = .FALSE.       (Projection operators: automatic)
   ENCUT = 350          (Cut-off energy for plane wave basis set, in eV)
   LORBIT = 11           (Write orbital decomposed charge densities and magnetic moments)
   ADDGRID = .TRUE.        (Increase grid, helps GGA convergence)
   LASPH = .TRUE.        (Give more accurate total energies and band structure calculations)
   PREC = Accurate      (Accurate strictly avoids any aliasing or wrap around errors)
   KSPACING = 0.13
   ISMEAR = 1            (Gaussian smearing, metals:1)
   SIGMA = 0.2          (Smearing value in eV, metals:0.2)
   NELM = 90           (Max electronic SCF steps)
   NELMIN = 6            (Min electronic SCF steps)
   EDIFF = 1E-06        (SCF energy convergence, in eV)
   NSW = 100          (Max ionic steps)
   IBRION = 2            (Algorithm: 0-MD, 1-Quasi-New, 2-CG)
   ISIF = 3            (Stress/relaxation: 2-Ions, 3-Shape/Ions/V, 4-Shape/Ions)
   EDIFFG = -2E-03        (Ionic convergence, eV/AA)
   ISYM = 2              (Symmetry: 0\=none, 2\=GGA, 3\=hybrids)

 POTCAR:    PAW_PBE Fe 06Sep2000                  
 POTCAR:    PAW_PBE Fe 06Sep2000                  
   VRHFIN =Fe:  d7 s1                                                                               
   LEXCH  = PE                                                                                      
   EATOM  =   594.3153 eV,   43.6809 Ry                                                             
                                                                                                    
   TITEL  = PAW_PBE Fe 06Sep2000                                                                    
   LULTRA =        F    use ultrasoft PP ?                                                          
   IUNSCR =        1    unscreen: 0-lin 1-nonlin 2-no                                               
   RPACOR =    2.000    partial core radius                                                         
   POMASS =   55.847; ZVAL   =    8.000    mass and valenz                                          
   RCORE  =    2.300    outmost cutoff radius                                                       
   RWIGS  =    2.460; RWIGS  =    1.302    wigner-seitz radius (au A)                               
   ENMAX  =  267.882; ENMIN  =  200.911 eV                                                          
   RCLOC  =    1.701    cutoff for local pot                                                        
   LCOR   =        T    correct aug charges                                                         
   LPAW   =        T    paw PP                                                                      
   EAUG   =  511.368                                                                                
   DEXC   =    0.000                                                                                
   RMAX   =    2.356    core radius for proj-oper                                                   
   RAUG   =    1.300    factor for augmentation sphere                                              
   RDEP   =    2.442    radius for radial grids                                                     
   RDEPT  =    1.890    core radius for aug-charge                                                  
                                                                                                    
   Atomic configuration                                                                             
    9 entries                                                                                       
     n  l   j            E        occ.                                                              
     1  0  0.50     -6993.8440   2.0000                                                             
     2  0  0.50      -814.6047   2.0000                                                             
     2  1  1.50      -693.3689   6.0000                                                             
     3  0  0.50       -89.4732   2.0000                                                             
     3  1  1.50       -55.6373   6.0000                                                             
     3  2  2.50        -3.8151   7.0000                                                             
     4  0  0.50        -4.2551   1.0000                                                             
     4  1  1.50        -3.4015   0.0000                                                             
     4  3  2.50        -1.3606   0.0000                                                             
   Description                                                                                      
     l       E           TYP  RCUT    TYP  RCUT                                                     
     2     -3.8151135     23  2.300                                                                 
     2     -5.1756961     23  2.300                                                                 
     0     -4.2550963     23  2.300                                                                 
     0      7.2035603     23  2.300                                                                 
     1     -2.7211652     23  2.300                                                                 
     1     18.4316424     23  2.300                                                                 
  local pseudopotential read in
  partial core-charges read in
  partial kinetic energy density read in
  atomic valenz-charges read in
  non local Contribution for L=           2  read in
    real space projection operators read in
  non local Contribution for L=           2  read in
    real space projection operators read in
  non local Contribution for L=           0  read in
    real space projection operators read in
  non local Contribution for L=           0  read in
    real space projection operators read in
  non local Contribution for L=           1  read in
    real space projection operators read in
  non local Contribution for L=           1  read in
    real space projection operators read in
    PAW grid and wavefunctions read in
 
   number of l-projection  operators is LMAX  =           6
   number of lm-projection operators is LMMAX =          18
 
  PAW_PBE Fe 06Sep2000                  :
 energy of atom  1       EATOM= -594.3153
 kinetic energy error for atom=    0.0205 (will be added to EATOM!!)
 
 
 POSCAR: Fe2
  positions in direct lattice
  No initial velocities read in
 exchange correlation table for  LEXCH =        8
   RHO(1)=    0.500       N(1)  =     2000
   RHO(2)=  100.500       N(2)  =     4000
 


--------------------------------------------------------------------------------------------------------


 ion  position               nearest neighbor table
   1  0.000  0.000  0.000-   2 2.48   2 2.48   2 2.48   2 2.48   2 2.48   2 2.48   2 2.48   2 2.48

   2  0.500  0.500  0.500-   1 2.48   1 2.48   1 2.48   1 2.48   1 2.48   1 2.48   1 2.48   1 2.48

 
  LATTYP: Found a simple cubic cell.
 ALAT       =     2.8630354989
  
  Lattice vectors:
  
 A1 = (   2.8630354989,   0.0000000000,   0.0000000000)
 A2 = (   0.0000000000,   2.8630354989,   0.0000000000)
 A3 = (   0.0000000000,   0.0000000000,   2.8630354989)


Analysis of symmetry for initial positions (statically):
=====================================================================
 Subroutine PRICEL returns following result:
 
  LATTYP: Found a body centered cubic cell.
 ALAT       =     2.8630354989
  
  Lattice vectors:
  
 A1 = (   1.4315177495,   1.4315177495,  -1.4315177495)
 A2 = (  -1.4315177495,   1.4315177495,   1.4315177495)
 A3 = (   1.4315177495,  -1.4315177495,   1.4315177495)
 
   2 primitive cells build up your supercell.
 

 Routine SETGRP: Setting up the symmetry group for a 
 simple cubic supercell.


 Subroutine GETGRP returns: Found 48 space group operations
 (whereof 48 operations were pure point group operations)
 out of a pool of 48 trial point group operations.


The static configuration has the point symmetry O_h .


Analysis of symmetry for dynamics (positions and initial velocities):
=====================================================================
 Subroutine PRICEL returns following result:
 
  LATTYP: Found a body centered cubic cell.
 ALAT       =     2.8630354989
  
  Lattice vectors:
  
 A1 = (   1.4315177495,   1.4315177495,  -1.4315177495)
 A2 = (  -1.4315177495,   1.4315177495,   1.4315177495)
 A3 = (   1.4315177495,  -1.4315177495,   1.4315177495)
 
   2 primitive cells build up your supercell.
 

 Routine SETGRP: Setting up the symmetry group for a 
 simple cubic supercell.


 Subroutine GETGRP returns: Found 48 space group operations
 (whereof 48 operations were pure point group operations)
 out of a pool of 48 trial point group operations.


The dynamic configuration has the point symmetry O_h .


Analysis of structural, dynamic, and magnetic symmetry:
=====================================================================
 Subroutine PRICEL returns following result:
 
  LATTYP: Found a body centered cubic cell.
 ALAT       =     2.8630354989
  
  Lattice vectors:
  
 A1 = (   1.4315177495,   1.4315177495,  -1.4315177495)
 A2 = (  -1.4315177495,   1.4315177495,   1.4315177495)
 A3 = (   1.4315177495,  -1.4315177495,   1.4315177495)
 
   2 primitive cells build up your supercell.
 

 Routine SETGRP: Setting up the symmetry group for a 
 simple cubic supercell.


 Subroutine GETGRP returns: Found 48 space group operations
 (whereof 48 operations were pure point group operations)
 out of a pool of 48 trial point group operations.


The overall configuration has the point symmetry O_h .


 Subroutine INISYM returns: Found 48 space group operations
 (whereof 48 operations are pure point group operations),
 and found     2 'primitive' translations


----------------------------------------------------------------------------------------

                                     Primitive cell                                     

  volume of cell :      11.7341

  direct lattice vectors                    reciprocal lattice vectors
     1.431517749  1.431517749 -1.431517749     0.349279637  0.349279637  0.000000000
    -1.431517749  1.431517749  1.431517749     0.000000000  0.349279637  0.349279637
     1.431517749 -1.431517749  1.431517749     0.349279637 -0.000000000  0.349279637

  length of vectors
     2.479461474  2.479461474  2.479461474     0.493956000  0.493956000  0.493956000

  position of ions in fractional coordinates (direct lattice)
     0.000000000  0.000000000  0.000000000

  ion indices of the primitive-cell ions
   primitive index   ion index
                 1           1

----------------------------------------------------------------------------------------

 
 -----------------------------------------------------------------------------
|                                                                             |
|           W    W    AA    RRRRR   N    N  II  N    N   GGGG   !!!           |
|           W    W   A  A   R    R  NN   N  II  NN   N  G    G  !!!           |
|           W    W  A    A  R    R  N N  N  II  N N  N  G       !!!           |
|           W WW W  AAAAAA  RRRRR   N  N N  II  N  N N  G  GGG   !            |
|           WW  WW  A    A  R   R   N   NN  II  N   NN  G    G                |
|           W    W  A    A  R    R  N    N  II  N    N   GGGG   !!!           |
|                                                                             |
|     The requested file  could not be found or opened for reading            |
|     k-point information. Automatic k-point generation is used as a          |
|     fallback, which may lead to unwanted results.                           |
|                                                                             |
 -----------------------------------------------------------------------------

 

Automatic generation of k-mesh.
 Grid dimensions derived from KSPACING:
 generate k-points for:   17   17   17

 Generating k-lattice:

  Cartesian coordinates                     Fractional coordinates (reciprocal lattice)
     0.020545861 -0.000000000  0.000000000     0.058823529  0.000000000  0.000000000
     0.000000000  0.020545861  0.000000000     0.000000000  0.058823529  0.000000000
    -0.000000000 -0.000000000  0.020545861     0.000000000  0.000000000  0.058823529

  Length of vectors
     0.020545861  0.020545861  0.020545861

  Shift w.r.t. Gamma in fractional coordinates (k-lattice)
     0.000000000  0.000000000  0.000000000

 
 Subroutine IBZKPT returns following result:
 ===========================================
 
 Found    165 irreducible k-points:
 
 Following reciprocal coordinates:
            Coordinates               Weight
  0.000000  0.000000  0.000000      1.000000
  0.058824 -0.000000  0.000000      6.000000
  0.117647  0.000000  0.000000      6.000000
  0.176471  0.000000  0.000000      6.000000
  0.235294  0.000000  0.000000      6.000000
  0.294118 -0.000000  0.000000      6.000000
  0.352941  0.000000  0.000000      6.000000
  0.411765  0.000000  0.000000      6.000000
  0.470588  0.000000  0.000000      6.000000
  0.058824  0.058824  0.000000     12.000000
  0.117647  0.058824  0.000000     24.000000
  0.176471  0.058824  0.000000     24.000000
  0.235294  0.058824  0.000000     24.000000
  0.294118  0.058824  0.000000     24.000000
  0.352941  0.058824  0.000000     24.000000
  0.411765  0.058824  0.000000     24.000000
  0.470588  0.058824  0.000000     24.000000
  0.117647  0.117647  0.000000     12.000000
  0.176471  0.117647  0.000000     24.000000
  0.235294  0.117647  0.000000     24.000000
  0.294118  0.117647  0.000000     24.000000
  0.352941  0.117647  0.000000     24.000000
  0.411765  0.117647  0.000000     24.000000
  0.470588  0.117647  0.000000     24.000000
  0.176471  0.176471  0.000000     12.000000
  0.235294  0.176471  0.000000     24.000000
  0.294118  0.176471  0.000000     24.000000
  0.352941  0.176471  0.000000     24.000000
  0.411765  0.176471  0.000000     24.000000
  0.470588  0.176471  0.000000     24.000000
  0.235294  0.235294  0.000000     12.000000
  0.294118  0.235294  0.000000     24.000000
  0.352941  0.235294  0.000000     24.000000
  0.411765  0.235294  0.000000     24.000000
  0.470588  0.235294  0.000000     24.000000
  0.294118  0.294118  0.000000     12.000000
  0.352941  0.294118  0.000000     24.000000
  0.411765  0.294118  0.000000     24.000000
  0.470588  0.294118  0.000000     24.000000
  0.352941  0.352941  0.000000     12.000000
  0.411765  0.352941  0.000000     24.000000
  0.470588  0.352941  0.000000     24.000000
  0.411765  0.411765  0.000000     12.000000
  0.470588  0.411765  0.000000     24.000000
  0.470588  0.470588  0.000000     12.000000
  0.058824  0.058824  0.058824      8.000000
  0.117647  0.058824  0.058824     24.000000
  0.176471  0.058824  0.058824     24.000000
  0.235294  0.058824  0.058824     24.000000
  0.294118  0.058824  0.058824     24.000000
  0.352941  0.058824  0.058824     24.000000
  0.411765  0.058824  0.058824     24.000000
  0.470588  0.058824  0.058824     24.000000
  0.117647  0.117647  0.058824     24.000000
  0.176471  0.117647  0.058824     48.000000
  0.235294  0.117647  0.058824     48.000000
  0.294118  0.117647  0.058824     48.000000
  0.352941  0.117647  0.058824     48.000000
  0.411765  0.117647  0.058824     48.000000
  0.470588  0.117647  0.058824     48.000000
  0.176471  0.176471  0.058824     24.000000
  0.235294  0.176471  0.058824     48.000000
  0.294118  0.176471  0.058824     48.000000
  0.352941  0.176471  0.058824     48.000000
  0.411765  0.176471  0.058824     48.000000
  0.470588  0.176471  0.058824     48.000000
  0.235294  0.235294  0.058824     24.000000
  0.294118  0.235294  0.058824     48.000000
  0.352941  0.235294  0.058824     48.000000
  0.411765  0.235294  0.058824     48.000000
  0.470588  0.235294  0.058824     48.000000
  0.294118  0.294118  0.058824     24.000000
  0.352941  0.294118  0.058824     48.000000
  0.411765  0.294118  0.058824     48.000000
  0.470588  0.294118  0.058824     48.000000
  0.352941  0.352941  0.058824     24.000000
  0.411765  0.352941  0.058824     48.000000
  0.470588  0.352941  0.058824     48.000000
  0.411765  0.411765  0.058824     24.000000
  0.470588  0.411765  0.058824     48.000000
  0.470588  0.470588  0.058824     24.000000
  0.117647  0.117647  0.117647      8.000000
  0.176471  0.117647  0.117647     24.000000
  0.235294  0.117647  0.117647     24.000000
  0.294118  0.117647  0.117647     24.000000
  0.352941  0.117647  0.117647     24.000000
  0.411765  0.117647  0.117647     24.000000
  0.470588  0.117647  0.117647     24.000000
  0.176471  0.176471  0.117647     24.000000
  0.235294  0.176471  0.117647     48.000000
  0.294118  0.176471  0.117647     48.000000
  0.352941  0.176471  0.117647     48.000000
  0.411765  0.176471  0.117647     48.000000
  0.470588  0.176471  0.117647     48.000000
  0.235294  0.235294  0.117647     24.000000
  0.294118  0.235294  0.117647     48.000000
  0.352941  0.235294  0.117647     48.000000
  0.411765  0.235294  0.117647     48.000000
  0.470588  0.235294  0.117647     48.000000
  0.294118  0.294118  0.117647     24.000000
  0.352941  0.294118  0.117647     48.000000
  0.411765  0.294118  0.117647     48.000000
  0.470588  0.294118  0.117647     48.000000
  0.352941  0.352941  0.117647     24.000000
  0.411765  0.352941  0.117647     48.000000
  0.470588  0.352941  0.117647     48.000000
  0.411765  0.411765  0.117647     24.000000
  0.470588  0.411765  0.117647     48.000000
  0.470588  0.470588  0.117647     24.000000
  0.176471  0.176471  0.176471      8.000000
  0.235294  0.176471  0.176471     24.000000
  0.294118  0.176471  0.176471     24.000000
  0.352941  0.176471  0.176471     24.000000
  0.411765  0.176471  0.176471     24.000000
  0.470588  0.176471  0.176471     24.000000
  0.235294  0.235294  0.176471     24.000000
  0.294118  0.235294  0.176471     48.000000
  0.352941  0.235294  0.176471     48.000000
  0.411765  0.235294  0.176471     48.000000
  0.470588  0.235294  0.176471     48.000000
  0.294118  0.294118  0.176471     24.000000
  0.352941  0.294118  0.176471     48.000000
  0.411765  0.294118  0.176471     48.000000
  0.470588  0.294118  0.176471     48.000000
  0.352941  0.352941  0.176471     24.000000
  0.411765  0.352941  0.176471     48.000000
  0.470588  0.352941  0.176471     48.000000
  0.411765  0.411765  0.176471     24.000000
  0.470588  0.411765  0.176471     48.000000
  0.470588  0.470588  0.176471     24.000000
  0.235294  0.235294  0.235294      8.000000
  0.294118  0.235294  0.235294     24.000000
  0.352941  0.235294  0.235294     24.000000
  0.411765  0.235294  0.235294     24.000000
  0.470588  0.235294  0.235294     24.000000
  0.294118  0.294118  0.235294     24.000000
  0.352941  0.294118  0.235294     48.000000
  0.411765  0.294118  0.235294     48.000000
  0.470588  0.294118  0.235294     48.000000
  0.352941  0.352941  0.235294     24.000000
  0.411765  0.352941  0.235294     48.000000
  0.470588  0.352941  0.235294     48.000000
  0.411765  0.411765  0.235294     24.000000
  0.470588  0.411765  0.235294     48.000000
  0.470588  0.470588  0.235294     24.000000
  0.294118  0.294118  0.294118      8.000000
  0.352941  0.294118  0.294118     24.000000
  0.411765  0.294118  0.294118     24.000000
  0.470588  0.294118  0.294118     24.000000
  0.352941  0.352941  0.294118     24.000000
  0.411765  0.352941  0.294118     48.000000
  0.470588  0.352941  0.294118     48.000000
  0.411765  0.411765  0.294118     24.000000
  0.470588  0.411765  0.294118     48.000000
  0.470588  0.470588  0.294118     24.000000
  0.352941  0.352941  0.352941      8.000000
  0.411765  0.352941  0.352941     24.000000
  0.470588  0.352941  0.352941     24.000000
  0.411765  0.411765  0.352941     24.000000
  0.470588  0.411765  0.352941     48.000000
  0.470588  0.470588  0.352941     24.000000
  0.411765  0.411765  0.411765      8.000000
  0.470588  0.411765  0.411765     24.000000
  0.470588  0.470588  0.411765     24.000000
  0.470588  0.470588  0.470588      8.000000
 
 Following cartesian coordinates:
            Coordinates               Weight
  0.000000  0.000000  0.000000      1.000000
  0.020546 -0.000000  0.000000      6.000000
  0.041092 -0.000000  0.000000      6.000000
  0.061638 -0.000000  0.000000      6.000000
  0.082183 -0.000000  0.000000      6.000000
  0.102729 -0.000000  0.000000      6.000000
  0.123275 -0.000000  0.000000      6.000000
  0.143821 -0.000000  0.000000      6.000000
  0.164367 -0.000000  0.000000      6.000000
  0.020546  0.020546  0.000000     12.000000
  0.041092  0.020546  0.000000     24.000000
  0.061638  0.020546  0.000000     24.000000
  0.082183  0.020546  0.000000     24.000000
  0.102729  0.020546  0.000000     24.000000
  0.123275  0.020546  0.000000     24.000000
  0.143821  0.020546  0.000000     24.000000
  0.164367  0.020546  0.000000     24.000000
  0.041092  0.041092  0.000000     12.000000
  0.061638  0.041092  0.000000     24.000000
  0.082183  0.041092  0.000000     24.000000
  0.102729  0.041092  0.000000     24.000000
  0.123275  0.041092  0.000000     24.000000
  0.143821  0.041092  0.000000     24.000000
  0.164367  0.041092  0.000000     24.000000
  0.061638  0.061638  0.000000     12.000000
  0.082183  0.061638  0.000000     24.000000
  0.102729  0.061638  0.000000     24.000000
  0.123275  0.061638  0.000000     24.000000
  0.143821  0.061638  0.000000     24.000000
  0.164367  0.061638  0.000000     24.000000
  0.082183  0.082183  0.000000     12.000000
  0.102729  0.082183  0.000000     24.000000
  0.123275  0.082183  0.000000     24.000000
  0.143821  0.082183  0.000000     24.000000
  0.164367  0.082183  0.000000     24.000000
  0.102729  0.102729  0.000000     12.000000
  0.123275  0.102729  0.000000     24.000000
  0.143821  0.102729  0.000000     24.000000
  0.164367  0.102729  0.000000     24.000000
  0.123275  0.123275  0.000000     12.000000
  0.143821  0.123275  0.000000     24.000000
  0.164367  0.123275  0.000000     24.000000
  0.143821  0.143821  0.000000     12.000000
  0.164367  0.143821  0.000000     24.000000
  0.164367  0.164367  0.000000     12.000000
  0.020546  0.020546  0.020546      8.000000
  0.041092  0.020546  0.020546     24.000000
  0.061638  0.020546  0.020546     24.000000
  0.082183  0.020546  0.020546     24.000000
  0.102729  0.020546  0.020546     24.000000
  0.123275  0.020546  0.020546     24.000000
  0.143821  0.020546  0.020546     24.000000
  0.164367  0.020546  0.020546     24.000000
  0.041092  0.041092  0.020546     24.000000
  0.061638  0.041092  0.020546     48.000000
  0.082183  0.041092  0.020546     48.000000
  0.102729  0.041092  0.020546     48.000000
  0.123275  0.041092  0.020546     48.000000
  0.143821  0.041092  0.020546     48.000000
  0.164367  0.041092  0.020546     48.000000
  0.061638  0.061638  0.020546     24.000000
  0.082183  0.061638  0.020546     48.000000
  0.102729  0.061638  0.020546     48.000000
  0.123275  0.061638  0.020546     48.000000
  0.143821  0.061638  0.020546     48.000000
  0.164367  0.061638  0.020546     48.000000
  0.082183  0.082183  0.020546     24.000000
  0.102729  0.082183  0.020546     48.000000
  0.123275  0.082183  0.020546     48.000000
  0.143821  0.082183  0.020546     48.000000
  0.164367  0.082183  0.020546     48.000000
  0.102729  0.102729  0.020546     24.000000
  0.123275  0.102729  0.020546     48.000000
  0.143821  0.102729  0.020546     48.000000
  0.164367  0.102729  0.020546     48.000000
  0.123275  0.123275  0.020546     24.000000
  0.143821  0.123275  0.020546     48.000000
  0.164367  0.123275  0.020546     48.000000
  0.143821  0.143821  0.020546     24.000000
  0.164367  0.143821  0.020546     48.000000
  0.164367  0.164367  0.020546     24.000000
  0.041092  0.041092  0.041092      8.000000
  0.061638  0.041092  0.041092     24.000000
  0.082183  0.041092  0.041092     24.000000
  0.102729  0.041092  0.041092     24.000000
  0.123275  0.041092  0.041092     24.000000
  0.143821  0.041092  0.041092     24.000000
  0.164367  0.041092  0.041092     24.000000
  0.061638  0.061638  0.041092     24.000000
  0.082183  0.061638  0.041092     48.000000
  0.102729  0.061638  0.041092     48.000000
  0.123275  0.061638  0.041092     48.000000
  0.143821  0.061638  0.041092     48.000000
  0.164367  0.061638  0.041092     48.000000
  0.082183  0.082183  0.041092     24.000000
  0.102729  0.082183  0.041092     48.000000
  0.123275  0.082183  0.041092     48.000000
  0.143821  0.082183  0.041092     48.000000
  0.164367  0.082183  0.041092     48.000000
  0.102729  0.102729  0.041092     24.000000
  0.123275  0.102729  0.041092     48.000000
  0.143821  0.102729  0.041092     48.000000
  0.164367  0.102729  0.041092     48.000000
  0.123275  0.123275  0.041092     24.000000
  0.143821  0.123275  0.041092     48.000000
  0.164367  0.123275  0.041092     48.000000
  0.143821  0.143821  0.041092     24.000000
  0.164367  0.143821  0.041092     48.000000
  0.164367  0.164367  0.041092     24.000000
  0.061638  0.061638  0.061638      8.000000
  0.082183  0.061638  0.061638     24.000000
  0.102729  0.061638  0.061638     24.000000
  0.123275  0.061638  0.061638     24.000000
  0.143821  0.061638  0.061638     24.000000
  0.164367  0.061638  0.061638     24.000000
  0.082183  0.082183  0.061638     24.000000
  0.102729  0.082183  0.061638     48.000000
  0.123275  0.082183  0.061638     48.000000
  0.143821  0.082183  0.061638     48.000000
  0.164367  0.082183  0.061638     48.000000
  0.102729  0.102729  0.061638     24.000000
  0.123275  0.102729  0.061638     48.000000
  0.143821  0.102729  0.061638     48.000000
  0.164367  0.102729  0.061638     48.000000
  0.123275  0.123275  0.061638     24.000000
  0.143821  0.123275  0.061638     48.000000
  0.164367  0.123275  0.061638     48.000000
  0.143821  0.143821  0.061638     24.000000
  0.164367  0.143821  0.061638     48.000000
  0.164367  0.164367  0.061638     24.000000
  0.082183  0.082183  0.082183      8.000000
  0.102729  0.082183  0.082183     24.000000
  0.123275  0.082183  0.082183     24.000000
  0.143821  0.082183  0.082183     24.000000
  0.164367  0.082183  0.082183     24.000000
  0.102729  0.102729  0.082183     24.000000
  0.123275  0.102729  0.082183     48.000000
  0.143821  0.102729  0.082183     48.000000
  0.164367  0.102729  0.082183     48.000000
  0.123275  0.123275  0.082183     24.000000
  0.143821  0.123275  0.082183     48.000000
  0.164367  0.123275  0.082183     48.000000
  0.143821  0.143821  0.082183     24.000000
  0.164367  0.143821  0.082183     48.000000
  0.164367  0.164367  0.082183     24.000000
  0.102729  0.102729  0.102729      8.000000
  0.123275  0.102729  0.102729     24.000000
  0.143821  0.102729  0.102729     24.000000
  0.164367  0.102729  0.102729     24.000000
  0.123275  0.123275  0.102729     24.000000
  0.143821  0.123275  0.102729     48.000000
  0.164367  0.123275  0.102729     48.000000
  0.143821  0.143821  0.102729     24.000000
  0.164367  0.143821  0.102729     48.000000
  0.164367  0.164367  0.102729     24.000000
  0.123275  0.123275  0.123275      8.000000
  0.143821  0.123275  0.123275     24.000000
  0.164367  0.123275  0.123275     24.000000
  0.143821  0.143821  0.123275     24.000000
  0.164367  0.143821  0.123275     48.000000
  0.164367  0.164367  0.123275     24.000000
  0.143821  0.143821  0.143821      8.000000
  0.164367  0.143821  0.143821     24.000000
  0.164367  0.164367  0.143821     24.000000
  0.164367  0.164367  0.164367      8.000000
 


--------------------------------------------------------------------------------------------------------




 Dimension of arrays:
   k-points           NKPTS =    165   k-points in BZ     NKDIM =    165   number of bands    NBANDS=     20
   number of dos      NEDOS =    301   number of ions     NIONS =      2
   non local maximal  LDIM  =      6   non local SUM 2l+1 LMDIM =     18
   total plane-waves  NPLWV =   5832
   max r-space proj   IRMAX =      1   max aug-charges    IRDMAX=  71010
   dimension x,y,z NGX =    18 NGY =   18 NGZ =   18
   dimension x,y,z NGXF=    36 NGYF=   36 NGZF=   36
   support grid    NGXF=    72 NGYF=   72 NGZF=   72
   ions per type =               2
   NGX,Y,Z   is equivalent  to a cutoff of  10.45, 10.45, 10.45 a.u.
   NGXF,Y,Z  is equivalent  to a cutoff of  20.90, 20.90, 20.90 a.u.

 SYSTEM =  unknown system                          
 POSCAR =  Fe2                                     

 Startparameter for this run:
   NWRITE =      2    write-flag & timer
   PREC   = accura    normal or accurate (medium, high low for compatibility)
   ISTART =      0    job   : 0-new  1-cont  2-samecut
   ICHARG =      2    charge: 1-file 2-atom 10-const
   ISPIN  =      2    spin polarized calculation?
   LNONCOLLINEAR =      F non collinear calculations
   LSORBIT =      F    spin-orbit coupling
   INIWAV =      1    electr: 0-lowe 1-rand  2-diag
   LASPH  =      T    aspherical Exc in radial PAW
   METAGGA=      F    non-selfconsistent MetaGGA calc.

 Electronic Relaxation 1
   ENCUT  =  350.0 eV  25.72 Ry    5.07 a.u.   4.37  4.37  4.37*2*pi/ulx,y,z
   ENINI  =  350.0     initial cutoff
   ENAUG  =  511.4 eV  augmentation charge cutoff
   NELM   =     90;   NELMIN=  6; NELMDL= -5     # of ELM steps 
   EDIFF  = 0.1E-05   stopping-criterion for ELM
   LREAL  =      F    real-space projection
   NLSPLINE    = F    spline interpolate recip. space projectors
   LCOMPAT=      F    compatible to vasp.4.4
   GGA_COMPAT  = F    GGA compatible to vasp.4.4-vasp.4.6
   LMAXPAW     = -100 max onsite density
   LMAXMIX     =    4 max onsite mixed and CHGCAR
   VOSKOWN=      1    Vosko Wilk Nusair interpolation
   ROPT   =    0.00000
 Ionic relaxation
   EDIFFG = -.2E-02   stopping-criterion for IOM
   NSW    =    100    number of steps for IOM
   NBLOCK =      1;   KBLOCK =    100    inner block; outer block 
   IBRION =      2    ionic relax: 0-MD 1-quasi-New 2-CG
   NFREE  =      1    steps in history (QN), initial steepest desc. (CG)
   ISIF   =      3    stress and relaxation
   IWAVPR =     11    prediction:  0-non 1-charg 2-wave 3-comb
   ISYM   =      2    0-nonsym 1-usesym 2-fastsym
   LCORR  =      T    Harris-Foulkes like correction to forces

   POTIM  = 0.5000    time-step for ionic-motion
   TEIN   =    0.0    initial temperature
   TEBEG  =    0.0;   TEEND  =   0.0 temperature during run
   SMASS  =  -3.00    Nose mass-parameter (am)
   estimated Nose-frequenzy (Omega)   =  0.10E-29 period in steps = 0.13E+47 mass=  -0.187E-27a.u.
   SCALEE = 1.0000    scale energy and forces
   NPACO  =    256;   APACO  = 16.0  distance and # of slots for P.C.
   PSTRESS=    0.0 pullay stress

  Mass of Ions in am
   POMASS =  55.85
  Ionic Valenz
   ZVAL   =   8.00
  Atomic Wigner-Seitz radii
   RWIGS  =  -1.00
  virtual crystal weights 
   VCA    =   1.00
   NELECT =      16.0000    total number of electrons
   NUPDOWN=      -1.0000    fix difference up-down

 DOS related values:
   EMIN   =  10.00;   EMAX   =-10.00  energy-range for DOS
   EFERMI =   0.00
   ISMEAR =     1;   SIGMA  =   0.20  broadening in eV -4-tet -1-fermi 0-gaus

 Electronic relaxation 2 (details)
   IALGO  =     38    algorithm
   LDIAG  =      T    sub-space diagonalisation (order eigenvalues)
   LSUBROT=      F    optimize rotation matrix (better conditioning)
   TURBO    =      0    0=normal 1=particle mesh
   IRESTART =      0    0=no restart 2=restart with 2 vectors
   NREBOOT  =      0    no. of reboots
   NMIN     =      0    reboot dimension
   EREF     =   0.00    reference energy to select bands
   IMIX   =      4    mixing-type and parameters
     AMIX     =   0.40;   BMIX     =  1.00
     AMIX_MAG =   1.60;   BMIX_MAG =  1.00
     AMIN     =   0.10
     WC   =   100.;   INIMIX=   1;  MIXPRE=   1;  MAXMIX= -45

 Intra band minimization:
   WEIMIN = 0.0010     energy-eigenvalue tresh-hold
   EBREAK =  0.12E-07  absolut break condition
   DEPER  =   0.30     relativ break condition  

   TIME   =   0.40     timestep for ELM

  volume/ion in A,a.u.               =      11.73        79.19
  Fermi-wavevector in a.u.,A,eV,Ry     =   1.440859  2.722828 28.246703  2.076074
  Thomas-Fermi vector in A             =   2.559556
 
 Write flags
   LWAVE        =      T    write WAVECAR
   LDOWNSAMPLE  =      F    k-point downsampling of WAVECAR
   LCHARG       =      T    write CHGCAR
   LVTOT        =      F    write LOCPOT, total local potential
   LVHAR        =      F    write LOCPOT, Hartree potential only
   LELF         =      F    write electronic localiz. function (ELF)
   LORBIT       =     11    0 simple, 1 ext, 2 COOP (PROOUT), +10 PAW based schemes


 Dipole corrections
   LMONO  =      F    monopole corrections only (constant potential shift)
   LDIPOL =      F    correct potential (dipole corrections)
   IDIPOL =      0    1-x, 2-y, 3-z, 4-all directions 
   EPSILON=  1.0000000 bulk dielectric constant

 Exchange correlation treatment:
   GGA     =    --    GGA type
   LEXCH   =     8    internal setting for exchange type
   VOSKOWN=      1    Vosko Wilk Nusair interpolation
   LHFCALC =     F    Hartree Fock is set to
   LHFONE  =     F    Hartree Fock one center treatment
   AEXX    =    0.0000 exact exchange contribution

 Linear response parameters
   LEPSILON=     F    determine dielectric tensor
   LRPA    =     F    only Hartree local field effects (RPA)
   LNABLA  =     F    use nabla operator in PAW spheres
   LVEL    =     F    velocity operator in full k-point grid
   LINTERFAST=   F  fast interpolation
   KINTER  =     0    interpolate to denser k-point grid
   CSHIFT  =0.1000    complex shift for real part using Kramers Kronig
   OMEGAMAX=  -1.0    maximum frequency
   DEG_THRESHOLD= 0.2000000E-02 threshold for treating states as degnerate
   RTIME   =   -0.100 relaxation time in fs
  (WPLASMAI=    0.000 imaginary part of plasma frequency in eV, 0.658/RTIME)
   DFIELD  = 0.0000000 0.0000000 0.0000000 field for delta impulse in time
 
 Orbital magnetization related:
   ORBITALMAG=     F  switch on orbital magnetization
   LCHIMAG   =     F  perturbation theory with respect to B field
   DQ        =  0.001000  dq finite difference perturbation B field
   LLRAUG    =     F  two centre corrections for induced B field



--------------------------------------------------------------------------------------------------------


 conjugate gradient relaxation of ions
 charge density and potential will be updated during run
 spin polarized calculation
 Variant of blocked Davidson
 Davidson routine will perform the subspace rotation
 perform sub-space diagonalisation
    after iterative eigenvector-optimisation
 modified Broyden-mixing scheme, WC =      100.0
 initial mixing is a Kerker type mixing with AMIX =  0.4000 and BMIX =      1.0000
 Hartree-type preconditioning will be used
 using additional bands           12
 reciprocal scheme for non local part
 use partial core corrections
 calculate Harris-corrections to forces 
   (improved forces if not selfconsistent)
 use gradient corrections 
 use of overlap-Matrix (Vanderbilt PP)
 Methfessel and Paxton  Order N= 1 SIGMA  =   0.20


--------------------------------------------------------------------------------------------------------


  energy-cutoff  :      350.00
  volume of cell :       23.47
      direct lattice vectors                 reciprocal lattice vectors
     2.863035499  0.000000000  0.000000000     0.349279637 -0.000000000  0.000000000
     0.000000000  2.863035499  0.000000000     0.000000000  0.349279637  0.000000000
     0.000000000  0.000000000  2.863035499    -0.000000000 -0.000000000  0.349279637

  length of vectors
     2.863035499  2.863035499  2.863035499     0.349279637  0.349279637  0.349279637


 
 k-points in units of 2pi/SCALE and weight: read from INCAR                         
   0.00000000  0.00000000  0.00000000       0.000
   0.02054586 -0.00000000  0.00000000       0.001
   0.04109172 -0.00000000  0.00000000       0.001
   0.06163758 -0.00000000  0.00000000       0.001
   0.08218344 -0.00000000  0.00000000       0.001
   0.10272931 -0.00000000  0.00000000       0.001
   0.12327517 -0.00000000  0.00000000       0.001
   0.14382103 -0.00000000  0.00000000       0.001
   0.16436689 -0.00000000  0.00000000       0.001
   0.02054586  0.02054586  0.00000000       0.002
   0.04109172  0.02054586  0.00000000       0.005
   0.06163758  0.02054586  0.00000000       0.005
   0.08218344  0.02054586  0.00000000       0.005
   0.10272931  0.02054586  0.00000000       0.005
   0.12327517  0.02054586  0.00000000       0.005
   0.14382103  0.02054586  0.00000000       0.005
   0.16436689  0.02054586  0.00000000       0.005
   0.04109172  0.04109172  0.00000000       0.002
   0.06163758  0.04109172  0.00000000       0.005
   0.08218344  0.04109172  0.00000000       0.005
   0.10272931  0.04109172  0.00000000       0.005
   0.12327517  0.04109172  0.00000000       0.005
   0.14382103  0.04109172  0.00000000       0.005
   0.16436689  0.04109172  0.00000000       0.005
   0.06163758  0.06163758  0.00000000       0.002
   0.08218344  0.06163758  0.00000000       0.005
   0.10272931  0.06163758  0.00000000       0.005
   0.12327517  0.06163758  0.00000000       0.005
   0.14382103  0.06163758  0.00000000       0.005
   0.16436689  0.06163758  0.00000000       0.005
   0.08218344  0.08218344  0.00000000       0.002
   0.10272931  0.08218344  0.00000000       0.005
   0.12327517  0.08218344  0.00000000       0.005
   0.14382103  0.08218344  0.00000000       0.005
   0.16436689  0.08218344  0.00000000       0.005
   0.10272931  0.10272931  0.00000000       0.002
   0.12327517  0.10272931  0.00000000       0.005
   0.14382103  0.10272931  0.00000000       0.005
   0.16436689  0.10272931  0.00000000       0.005
   0.12327517  0.12327517  0.00000000       0.002
   0.14382103  0.12327517  0.00000000       0.005
   0.16436689  0.12327517  0.00000000       0.005
   0.14382103  0.14382103  0.00000000       0.002
   0.16436689  0.14382103  0.00000000       0.005
   0.16436689  0.16436689  0.00000000       0.002
   0.02054586  0.02054586  0.02054586       0.002
   0.04109172  0.02054586  0.02054586       0.005
   0.06163758  0.02054586  0.02054586       0.005
   0.08218344  0.02054586  0.02054586       0.005
   0.10272931  0.02054586  0.02054586       0.005
   0.12327517  0.02054586  0.02054586       0.005
   0.14382103  0.02054586  0.02054586       0.005
   0.16436689  0.02054586  0.02054586       0.005
   0.04109172  0.04109172  0.02054586       0.005
   0.06163758  0.04109172  0.02054586       0.010
   0.08218344  0.04109172  0.02054586       0.010
   0.10272931  0.04109172  0.02054586       0.010
   0.12327517  0.04109172  0.02054586       0.010
   0.14382103  0.04109172  0.02054586       0.010
   0.16436689  0.04109172  0.02054586       0.010
   0.06163758  0.06163758  0.02054586       0.005
   0.08218344  0.06163758  0.02054586       0.010
   0.10272931  0.06163758  0.02054586       0.010
   0.12327517  0.06163758  0.02054586       0.010
   0.14382103  0.06163758  0.02054586       0.010
   0.16436689  0.06163758  0.02054586       0.010
   0.08218344  0.08218344  0.02054586       0.005
   0.10272931  0.08218344  0.02054586       0.010
   0.12327517  0.08218344  0.02054586       0.010
   0.14382103  0.08218344  0.02054586       0.010
   0.16436689  0.08218344  0.02054586       0.010
   0.10272931  0.10272931  0.02054586       0.005
   0.12327517  0.10272931  0.02054586       0.010
   0.14382103  0.10272931  0.02054586       0.010
   0.16436689  0.10272931  0.02054586       0.010
   0.12327517  0.12327517  0.02054586       0.005
   0.14382103  0.12327517  0.02054586       0.010
   0.16436689  0.12327517  0.02054586       0.010
   0.14382103  0.14382103  0.02054586       0.005
   0.16436689  0.14382103  0.02054586       0.010
   0.16436689  0.16436689  0.02054586       0.005
   0.04109172  0.04109172  0.04109172       0.002
   0.06163758  0.04109172  0.04109172       0.005
   0.08218344  0.04109172  0.04109172       0.005
   0.10272931  0.04109172  0.04109172       0.005
   0.12327517  0.04109172  0.04109172       0.005
   0.14382103  0.04109172  0.04109172       0.005
   0.16436689  0.04109172  0.04109172       0.005
   0.06163758  0.06163758  0.04109172       0.005
   0.08218344  0.06163758  0.04109172       0.010
   0.10272931  0.06163758  0.04109172       0.010
   0.12327517  0.06163758  0.04109172       0.010
   0.14382103  0.06163758  0.04109172       0.010
   0.16436689  0.06163758  0.04109172       0.010
   0.08218344  0.08218344  0.04109172       0.005
   0.10272931  0.08218344  0.04109172       0.010
   0.12327517  0.08218344  0.04109172       0.010
   0.14382103  0.08218344  0.04109172       0.010
   0.16436689  0.08218344  0.04109172       0.010
   0.10272931  0.10272931  0.04109172       0.005
   0.12327517  0.10272931  0.04109172       0.010
   0.14382103  0.10272931  0.04109172       0.010
   0.16436689  0.10272931  0.04109172       0.010
   0.12327517  0.12327517  0.04109172       0.005
   0.14382103  0.12327517  0.04109172       0.010
   0.16436689  0.12327517  0.04109172       0.010
   0.14382103  0.14382103  0.04109172       0.005
   0.16436689  0.14382103  0.04109172       0.010
   0.16436689  0.16436689  0.04109172       0.005
   0.06163758  0.06163758  0.06163758       0.002
   0.08218344  0.06163758  0.06163758       0.005
   0.10272931  0.06163758  0.06163758       0.005
   0.12327517  0.06163758  0.06163758       0.005
   0.14382103  0.06163758  0.06163758       0.005
   0.16436689  0.06163758  0.06163758       0.005
   0.08218344  0.08218344  0.06163758       0.005
   0.10272931  0.08218344  0.06163758       0.010
   0.12327517  0.08218344  0.06163758       0.010
   0.14382103  0.08218344  0.06163758       0.010
   0.16436689  0.08218344  0.06163758       0.010
   0.10272931  0.10272931  0.06163758       0.005
   0.12327517  0.10272931  0.06163758       0.010
   0.14382103  0.10272931  0.06163758       0.010
   0.16436689  0.10272931  0.06163758       0.010
   0.12327517  0.12327517  0.06163758       0.005
   0.14382103  0.12327517  0.06163758       0.010
   0.16436689  0.12327517  0.06163758       0.010
   0.14382103  0.14382103  0.06163758       0.005
   0.16436689  0.14382103  0.06163758       0.010
   0.16436689  0.16436689  0.06163758       0.005
   0.08218344  0.08218344  0.08218344       0.002
   0.10272931  0.08218344  0.08218344       0.005
   0.12327517  0.08218344  0.08218344       0.005
   0.14382103  0.08218344  0.08218344       0.005
   0.16436689  0.08218344  0.08218344       0.005
   0.10272931  0.10272931  0.08218344       0.005
   0.12327517  0.10272931  0.08218344       0.010
   0.14382103  0.10272931  0.08218344       0.010
   0.16436689  0.10272931  0.08218344       0.010
   0.12327517  0.12327517  0.08218344       0.005
   0.14382103  0.12327517  0.08218344       0.010
   0.16436689  0.12327517  0.08218344       0.010
   0.14382103  0.14382103  0.08218344       0.005
   0.16436689  0.14382103  0.08218344       0.010
   0.16436689  0.16436689  0.08218344       0.005
   0.10272931  0.10272931  0.10272931       0.002
   0.12327517  0.10272931  0.10272931       0.005
   0.14382103  0.10272931  0.10272931       0.005
   0.16436689  0.10272931  0.10272931       0.005
   0.12327517  0.12327517  0.10272931       0.005
   0.14382103  0.12327517  0.10272931       0.010
   0.16436689  0.12327517  0.10272931       0.010
   0.14382103  0.14382103  0.10272931       0.005
   0.16436689  0.14382103  0.10272931       0.010
   0.16436689  0.16436689  0.10272931       0.005
   0.12327517  0.12327517  0.12327517       0.002
   0.14382103  0.12327517  0.12327517       0.005
   0.16436689  0.12327517  0.12327517       0.005
   0.14382103  0.14382103  0.12327517       0.005
   0.16436689  0.14382103  0.12327517       0.010
   0.16436689  0.16436689  0.12327517       0.005
   0.14382103  0.14382103  0.14382103       0.002
   0.16436689  0.14382103  0.14382103       0.005
   0.16436689  0.16436689  0.14382103       0.005
   0.16436689  0.16436689  0.16436689       0.002
 
 k-points in reciprocal lattice and weights: read from INCAR                         
   0.00000000  0.00000000  0.00000000       0.000
   0.05882353 -0.00000000  0.00000000       0.001
   0.11764706  0.00000000  0.00000000       0.001
   0.17647059  0.00000000  0.00000000       0.001
   0.23529412  0.00000000  0.00000000       0.001
   0.29411765 -0.00000000  0.00000000       0.001
   0.35294118  0.00000000  0.00000000       0.001
   0.41176471  0.00000000  0.00000000       0.001
   0.47058824  0.00000000  0.00000000       0.001
   0.05882353  0.05882353  0.00000000       0.002
   0.11764706  0.05882353  0.00000000       0.005
   0.17647059  0.05882353  0.00000000       0.005
   0.23529412  0.05882353  0.00000000       0.005
   0.29411765  0.05882353  0.00000000       0.005
   0.35294118  0.05882353  0.00000000       0.005
   0.41176471  0.05882353  0.00000000       0.005
   0.47058824  0.05882353  0.00000000       0.005
   0.11764706  0.11764706  0.00000000       0.002
   0.17647059  0.11764706  0.00000000       0.005
   0.23529412  0.11764706  0.00000000       0.005
   0.29411765  0.11764706  0.00000000       0.005
   0.35294118  0.11764706  0.00000000       0.005
   0.41176471  0.11764706  0.00000000       0.005
   0.47058824  0.11764706  0.00000000       0.005
   0.17647059  0.17647059  0.00000000       0.002
   0.23529412  0.17647059  0.00000000       0.005
   0.29411765  0.17647059  0.00000000       0.005
   0.35294118  0.17647059  0.00000000       0.005
   0.41176471  0.17647059  0.00000000       0.005
   0.47058824  0.17647059  0.00000000       0.005
   0.23529412  0.23529412  0.00000000       0.002
   0.29411765  0.23529412  0.00000000       0.005
   0.35294118  0.23529412  0.00000000       0.005
   0.41176471  0.23529412  0.00000000       0.005
   0.47058824  0.23529412  0.00000000       0.005
   0.29411765  0.29411765  0.00000000       0.002
   0.35294118  0.29411765  0.00000000       0.005
   0.41176471  0.29411765  0.00000000       0.005
   0.47058824  0.29411765  0.00000000       0.005
   0.35294118  0.35294118  0.00000000       0.002
   0.41176471  0.35294118  0.00000000       0.005
   0.47058824  0.35294118  0.00000000       0.005
   0.41176471  0.41176471  0.00000000       0.002
   0.47058824  0.41176471  0.00000000       0.005
   0.47058824  0.47058824  0.00000000       0.002
   0.05882353  0.05882353  0.05882353       0.002
   0.11764706  0.05882353  0.05882353       0.005
   0.17647059  0.05882353  0.05882353       0.005
   0.23529412  0.05882353  0.05882353       0.005
   0.29411765  0.05882353  0.05882353       0.005
   0.35294118  0.05882353  0.05882353       0.005
   0.41176471  0.05882353  0.05882353       0.005
   0.47058824  0.05882353  0.05882353       0.005
   0.11764706  0.11764706  0.05882353       0.005
   0.17647059  0.11764706  0.05882353       0.010
   0.23529412  0.11764706  0.05882353       0.010
   0.29411765  0.11764706  0.05882353       0.010
   0.35294118  0.11764706  0.05882353       0.010
   0.41176471  0.11764706  0.05882353       0.010
   0.47058824  0.11764706  0.05882353       0.010
   0.17647059  0.17647059  0.05882353       0.005
   0.23529412  0.17647059  0.05882353       0.010
   0.29411765  0.17647059  0.05882353       0.010
   0.35294118  0.17647059  0.05882353       0.010
   0.41176471  0.17647059  0.05882353       0.010
   0.47058824  0.17647059  0.05882353       0.010
   0.23529412  0.23529412  0.05882353       0.005
   0.29411765  0.23529412  0.05882353       0.010
   0.35294118  0.23529412  0.05882353       0.010
   0.41176471  0.23529412  0.05882353       0.010
   0.47058824  0.23529412  0.05882353       0.010
   0.29411765  0.29411765  0.05882353       0.005
   0.35294118  0.29411765  0.05882353       0.010
   0.41176471  0.29411765  0.05882353       0.010
   0.47058824  0.29411765  0.05882353       0.010
   0.35294118  0.35294118  0.05882353       0.005
   0.41176471  0.35294118  0.05882353       0.010
   0.47058824  0.35294118  0.05882353       0.010
   0.41176471  0.41176471  0.05882353       0.005
   0.47058824  0.41176471  0.05882353       0.010
   0.47058824  0.47058824  0.05882353       0.005
   0.11764706  0.11764706  0.11764706       0.002
   0.17647059  0.11764706  0.11764706       0.005
   0.23529412  0.11764706  0.11764706       0.005
   0.29411765  0.11764706  0.11764706       0.005
   0.35294118  0.11764706  0.11764706       0.005
   0.41176471  0.11764706  0.11764706       0.005
   0.47058824  0.11764706  0.11764706       0.005
   0.17647059  0.17647059  0.11764706       0.005
   0.23529412  0.17647059  0.11764706       0.010
   0.29411765  0.17647059  0.11764706       0.010
   0.35294118  0.17647059  0.11764706       0.010
   0.41176471  0.17647059  0.11764706       0.010
   0.47058824  0.17647059  0.11764706       0.010
   0.23529412  0.23529412  0.11764706       0.005
   0.29411765  0.23529412  0.11764706       0.010
   0.35294118  0.23529412  0.11764706       0.010
   0.41176471  0.23529412  0.11764706       0.010
   0.47058824  0.23529412  0.11764706       0.010
   0.29411765  0.29411765  0.11764706       0.005
   0.35294118  0.29411765  0.11764706       0.010
   0.41176471  0.29411765  0.11764706       0.010
   0.47058824  0.29411765  0.11764706       0.010
   0.35294118  0.35294118  0.11764706       0.005
   0.41176471  0.35294118  0.11764706       0.010
   0.47058824  0.35294118  0.11764706       0.010
   0.41176471  0.41176471  0.11764706       0.005
   0.47058824  0.41176471  0.11764706       0.010
   0.47058824  0.47058824  0.11764706       0.005
   0.17647059  0.17647059  0.17647059       0.002
   0.23529412  0.17647059  0.17647059       0.005
   0.29411765  0.17647059  0.17647059       0.005
   0.35294118  0.17647059  0.17647059       0.005
   0.41176471  0.17647059  0.17647059       0.005
   0.47058824  0.17647059  0.17647059       0.005
   0.23529412  0.23529412  0.17647059       0.005
   0.29411765  0.23529412  0.17647059       0.010
   0.35294118  0.23529412  0.17647059       0.010
   0.41176471  0.23529412  0.17647059       0.010
   0.47058824  0.23529412  0.17647059       0.010
   0.29411765  0.29411765  0.17647059       0.005
   0.35294118  0.29411765  0.17647059       0.010
   0.41176471  0.29411765  0.17647059       0.010
   0.47058824  0.29411765  0.17647059       0.010
   0.35294118  0.35294118  0.17647059       0.005
   0.41176471  0.35294118  0.17647059       0.010
   0.47058824  0.35294118  0.17647059       0.010
   0.41176471  0.41176471  0.17647059       0.005
   0.47058824  0.41176471  0.17647059       0.010
   0.47058824  0.47058824  0.17647059       0.005
   0.23529412  0.23529412  0.23529412       0.002
   0.29411765  0.23529412  0.23529412       0.005
   0.35294118  0.23529412  0.23529412       0.005
   0.41176471  0.23529412  0.23529412       0.005
   0.47058824  0.23529412  0.23529412       0.005
   0.29411765  0.29411765  0.23529412       0.005
   0.35294118  0.29411765  0.23529412       0.010
   0.41176471  0.29411765  0.23529412       0.010
   0.47058824  0.29411765  0.23529412       0.010
   0.35294118  0.35294118  0.23529412       0.005
   0.41176471  0.35294118  0.23529412       0.010
   0.47058824  0.35294118  0.23529412       0.010
   0.41176471  0.41176471  0.23529412       0.005
   0.47058824  0.41176471  0.23529412       0.010
   0.47058824  0.47058824  0.23529412       0.005
   0.29411765  0.29411765  0.29411765       0.002
   0.35294118  0.29411765  0.29411765       0.005
   0.41176471  0.29411765  0.29411765       0.005
   0.47058824  0.29411765  0.29411765       0.005
   0.35294118  0.35294118  0.29411765       0.005
   0.41176471  0.35294118  0.29411765       0.010
   0.47058824  0.35294118  0.29411765       0.010
   0.41176471  0.41176471  0.29411765       0.005
   0.47058824  0.41176471  0.29411765       0.010
   0.47058824  0.47058824  0.29411765       0.005
   0.35294118  0.35294118  0.35294118       0.002
   0.41176471  0.35294118  0.35294118       0.005
   0.47058824  0.35294118  0.35294118       0.005
   0.41176471  0.41176471  0.35294118       0.005
   0.47058824  0.41176471  0.35294118       0.010
   0.47058824  0.47058824  0.35294118       0.005
   0.41176471  0.41176471  0.41176471       0.002
   0.47058824  0.41176471  0.41176471       0.005
   0.47058824  0.47058824  0.41176471       0.005
   0.47058824  0.47058824  0.47058824       0.002
 
 position of ions in fractional coordinates (direct lattice) 
   0.00000000  0.00000000  0.00000000
   0.50000000  0.50000000  0.50000000
 
 position of ions in cartesian coordinates  (Angst):
   0.00000000  0.00000000  0.00000000
   1.43151775  1.43151775  1.43151775
 


--------------------------------------------------------------------------------------------------------


 k-point   1 :   0.0000 0.0000 0.0000  plane waves:     365
 k-point   2 :   0.0588-0.0000 0.0000  plane waves:     353
 k-point   3 :   0.1176 0.0000 0.0000  plane waves:     357
 k-point   4 :   0.1765 0.0000 0.0000  plane waves:     349
 k-point   5 :   0.2353 0.0000 0.0000  plane waves:     349
 k-point   6 :   0.2941-0.0000 0.0000  plane waves:     357
 k-point   7 :   0.3529 0.0000 0.0000  plane waves:     353
 k-point   8 :   0.4118 0.0000 0.0000  plane waves:     352
 k-point   9 :   0.4706 0.0000 0.0000  plane waves:     336
 k-point  10 :   0.0588 0.0588 0.0000  plane waves:     355
 k-point  11 :   0.1176 0.0588 0.0000  plane waves:     351
 k-point  12 :   0.1765 0.0588 0.0000  plane waves:     353
 k-point  13 :   0.2353 0.0588 0.0000  plane waves:     354
 k-point  14 :   0.2941 0.0588 0.0000  plane waves:     352
 k-point  15 :   0.3529 0.0588 0.0000  plane waves:     352
 k-point  16 :   0.4118 0.0588 0.0000  plane waves:     348
 k-point  17 :   0.4706 0.0588 0.0000  plane waves:     348
 k-point  18 :   0.1176 0.1176 0.0000  plane waves:     352
 k-point  19 :   0.1765 0.1176 0.0000  plane waves:     348
 k-point  20 :   0.2353 0.1176 0.0000  plane waves:     352
 k-point  21 :   0.2941 0.1176 0.0000  plane waves:     352
 k-point  22 :   0.3529 0.1176 0.0000  plane waves:     348
 k-point  23 :   0.4118 0.1176 0.0000  plane waves:     347
 k-point  24 :   0.4706 0.1176 0.0000  plane waves:     348
 k-point  25 :   0.1765 0.1765 0.0000  plane waves:     352
 k-point  26 :   0.2353 0.1765 0.0000  plane waves:     350
 k-point  27 :   0.2941 0.1765 0.0000  plane waves:     348
 k-point  28 :   0.3529 0.1765 0.0000  plane waves:     351
 k-point  29 :   0.4118 0.1765 0.0000  plane waves:     352
 k-point  30 :   0.4706 0.1765 0.0000  plane waves:     350
 k-point  31 :   0.2353 0.2353 0.0000  plane waves:     346
 k-point  32 :   0.2941 0.2353 0.0000  plane waves:     347
 k-point  33 :   0.3529 0.2353 0.0000  plane waves:     348
 k-point  34 :   0.4118 0.2353 0.0000  plane waves:     348
 k-point  35 :   0.4706 0.2353 0.0000  plane waves:     350
 k-point  36 :   0.2941 0.2941 0.0000  plane waves:     346
 k-point  37 :   0.3529 0.2941 0.0000  plane waves:     352
 k-point  38 :   0.4118 0.2941 0.0000  plane waves:     351
 k-point  39 :   0.4706 0.2941 0.0000  plane waves:     352
 k-point  40 :   0.3529 0.3529 0.0000  plane waves:     348
 k-point  41 :   0.4118 0.3529 0.0000  plane waves:     353
 k-point  42 :   0.4706 0.3529 0.0000  plane waves:     355
 k-point  43 :   0.4118 0.4118 0.0000  plane waves:     354
 k-point  44 :   0.4706 0.4118 0.0000  plane waves:     358
 k-point  45 :   0.4706 0.4706 0.0000  plane waves:     356
 k-point  46 :   0.0588 0.0588 0.0588  plane waves:     353
 k-point  47 :   0.1176 0.0588 0.0588  plane waves:     352
 k-point  48 :   0.1765 0.0588 0.0588  plane waves:     353
 k-point  49 :   0.2353 0.0588 0.0588  plane waves:     353
 k-point  50 :   0.2941 0.0588 0.0588  plane waves:     350
 k-point  51 :   0.3529 0.0588 0.0588  plane waves:     345
 k-point  52 :   0.4118 0.0588 0.0588  plane waves:     348
 k-point  53 :   0.4706 0.0588 0.0588  plane waves:     350
 k-point  54 :   0.1176 0.1176 0.0588  plane waves:     350
 k-point  55 :   0.1765 0.1176 0.0588  plane waves:     351
 k-point  56 :   0.2353 0.1176 0.0588  plane waves:     351
 k-point  57 :   0.2941 0.1176 0.0588  plane waves:     346
 k-point  58 :   0.3529 0.1176 0.0588  plane waves:     350
 k-point  59 :   0.4118 0.1176 0.0588  plane waves:     350
 k-point  60 :   0.4706 0.1176 0.0588  plane waves:     347
 k-point  61 :   0.1765 0.1765 0.0588  plane waves:     357
 k-point  62 :   0.2353 0.1765 0.0588  plane waves:     351
 k-point  63 :   0.2941 0.1765 0.0588  plane waves:     350
 k-point  64 :   0.3529 0.1765 0.0588  plane waves:     352
 k-point  65 :   0.4118 0.1765 0.0588  plane waves:     351
 k-point  66 :   0.4706 0.1765 0.0588  plane waves:     349
 k-point  67 :   0.2353 0.2353 0.0588  plane waves:     347
 k-point  68 :   0.2941 0.2353 0.0588  plane waves:     349
 k-point  69 :   0.3529 0.2353 0.0588  plane waves:     352
 k-point  70 :   0.4118 0.2353 0.0588  plane waves:     353
 k-point  71 :   0.4706 0.2353 0.0588  plane waves:     350
 k-point  72 :   0.2941 0.2941 0.0588  plane waves:     351
 k-point  73 :   0.3529 0.2941 0.0588  plane waves:     350
 k-point  74 :   0.4118 0.2941 0.0588  plane waves:     351
 k-point  75 :   0.4706 0.2941 0.0588  plane waves:     351
 k-point  76 :   0.3529 0.3529 0.0588  plane waves:     346
 k-point  77 :   0.4118 0.3529 0.0588  plane waves:     350
 k-point  78 :   0.4706 0.3529 0.0588  plane waves:     352
 k-point  79 :   0.4118 0.4118 0.0588  plane waves:     348
 k-point  80 :   0.4706 0.4118 0.0588  plane waves:     353
 k-point  81 :   0.4706 0.4706 0.0588  plane waves:     356
 k-point  82 :   0.1176 0.1176 0.1176  plane waves:     353
 k-point  83 :   0.1765 0.1176 0.1176  plane waves:     351
 k-point  84 :   0.2353 0.1176 0.1176  plane waves:     351
 k-point  85 :   0.2941 0.1176 0.1176  plane waves:     349
 k-point  86 :   0.3529 0.1176 0.1176  plane waves:     355
 k-point  87 :   0.4118 0.1176 0.1176  plane waves:     352
 k-point  88 :   0.4706 0.1176 0.1176  plane waves:     350
 k-point  89 :   0.1765 0.1765 0.1176  plane waves:     348
 k-point  90 :   0.2353 0.1765 0.1176  plane waves:     352
 k-point  91 :   0.2941 0.1765 0.1176  plane waves:     351
 k-point  92 :   0.3529 0.1765 0.1176  plane waves:     351
 k-point  93 :   0.4118 0.1765 0.1176  plane waves:     353
 k-point  94 :   0.4706 0.1765 0.1176  plane waves:     351
 k-point  95 :   0.2353 0.2353 0.1176  plane waves:     353
 k-point  96 :   0.2941 0.2353 0.1176  plane waves:     351
 k-point  97 :   0.3529 0.2353 0.1176  plane waves:     349
 k-point  98 :   0.4118 0.2353 0.1176  plane waves:     350
 k-point  99 :   0.4706 0.2353 0.1176  plane waves:     352
 k-point 100 :   0.2941 0.2941 0.1176  plane waves:     351
 k-point 101 :   0.3529 0.2941 0.1176  plane waves:     348
 k-point 102 :   0.4118 0.2941 0.1176  plane waves:     350
 k-point 103 :   0.4706 0.2941 0.1176  plane waves:     349
 k-point 104 :   0.3529 0.3529 0.1176  plane waves:     347
 k-point 105 :   0.4118 0.3529 0.1176  plane waves:     345
 k-point 106 :   0.4706 0.3529 0.1176  plane waves:     350
 k-point 107 :   0.4118 0.4118 0.1176  plane waves:     347
 k-point 108 :   0.4706 0.4118 0.1176  plane waves:     348
 k-point 109 :   0.4706 0.4706 0.1176  plane waves:     346
 k-point 110 :   0.1765 0.1765 0.1765  plane waves:     350
 k-point 111 :   0.2353 0.1765 0.1765  plane waves:     352
 k-point 112 :   0.2941 0.1765 0.1765  plane waves:     352
 k-point 113 :   0.3529 0.1765 0.1765  plane waves:     350
 k-point 114 :   0.4118 0.1765 0.1765  plane waves:     349
 k-point 115 :   0.4706 0.1765 0.1765  plane waves:     349
 k-point 116 :   0.2353 0.2353 0.1765  plane waves:     353
 k-point 117 :   0.2941 0.2353 0.1765  plane waves:     351
 k-point 118 :   0.3529 0.2353 0.1765  plane waves:     349
 k-point 119 :   0.4118 0.2353 0.1765  plane waves:     346
 k-point 120 :   0.4706 0.2353 0.1765  plane waves:     349
 k-point 121 :   0.2941 0.2941 0.1765  plane waves:     349
 k-point 122 :   0.3529 0.2941 0.1765  plane waves:     348
 k-point 123 :   0.4118 0.2941 0.1765  plane waves:     348
 k-point 124 :   0.4706 0.2941 0.1765  plane waves:     346
 k-point 125 :   0.3529 0.3529 0.1765  plane waves:     346
 k-point 126 :   0.4118 0.3529 0.1765  plane waves:     343
 k-point 127 :   0.4706 0.3529 0.1765  plane waves:     346
 k-point 128 :   0.4118 0.4118 0.1765  plane waves:     347
 k-point 129 :   0.4706 0.4118 0.1765  plane waves:     346
 k-point 130 :   0.4706 0.4706 0.1765  plane waves:     345
 k-point 131 :   0.2353 0.2353 0.2353  plane waves:     350
 k-point 132 :   0.2941 0.2353 0.2353  plane waves:     350
 k-point 133 :   0.3529 0.2353 0.2353  plane waves:     348
 k-point 134 :   0.4118 0.2353 0.2353  plane waves:     345
 k-point 135 :   0.4706 0.2353 0.2353  plane waves:     350
 k-point 136 :   0.2941 0.2941 0.2353  plane waves:     351
 k-point 137 :   0.3529 0.2941 0.2353  plane waves:     346
 k-point 138 :   0.4118 0.2941 0.2353  plane waves:     347
 k-point 139 :   0.4706 0.2941 0.2353  plane waves:     348
 k-point 140 :   0.3529 0.3529 0.2353  plane waves:     348
 k-point 141 :   0.4118 0.3529 0.2353  plane waves:     348
 k-point 142 :   0.4706 0.3529 0.2353  plane waves:     343
 k-point 143 :   0.4118 0.4118 0.2353  plane waves:     345
 k-point 144 :   0.4706 0.4118 0.2353  plane waves:     345
 k-point 145 :   0.4706 0.4706 0.2353  plane waves:     346
 k-point 146 :   0.2941 0.2941 0.2941  plane waves:     350
 k-point 147 :   0.3529 0.2941 0.2941  plane waves:     347
 k-point 148 :   0.4118 0.2941 0.2941  plane waves:     344
 k-point 149 :   0.4706 0.2941 0.2941  plane waves:     348
 k-point 150 :   0.3529 0.3529 0.2941  plane waves:     346
 k-point 151 :   0.4118 0.3529 0.2941  plane waves:     347
 k-point 152 :   0.4706 0.3529 0.2941  plane waves:     343
 k-point 153 :   0.4118 0.4118 0.2941  plane waves:     342
 k-point 154 :   0.4706 0.4118 0.2941  plane waves:     342
 k-point 155 :   0.4706 0.4706 0.2941  plane waves:     342
 k-point 156 :   0.3529 0.3529 0.3529  plane waves:     344
 k-point 157 :   0.4118 0.3529 0.3529  plane waves:     344
 k-point 158 :   0.4706 0.3529 0.3529  plane waves:     338
 k-point 159 :   0.4118 0.4118 0.3529  plane waves:     341
 k-point 160 :   0.4706 0.4118 0.3529  plane waves:     336
 k-point 161 :   0.4706 0.4706 0.3529  plane waves:     338
 k-point 162 :   0.4118 0.4118 0.4118  plane waves:     344
 k-point 163 :   0.4706 0.4118 0.4118  plane waves:     340
 k-point 164 :   0.4706 0.4706 0.4118  plane waves:     343
 k-point 165 :   0.4706 0.4706 0.4706  plane waves:     347

 maximum and minimum number of plane-waves per node :       365      336

 maximum number of plane-waves:       365
 maximum index in each direction: 
   IXMAX=    4   IYMAX=    4   IZMAX=    4
   IXMIN=   -4   IYMIN=   -4   IZMIN=   -4


 serial   3D FFT for wavefunctions
 parallel 3D FFT for charge:
    minimum data exchange during FFTs selected (reduces bandwidth)


 total amount of memory used by VASP MPI-rank0    52610. kBytes
=======================================================================

   base      :      30000. kBytes
   nonl-proj :       8755. kBytes
   fftplans  :       1775. kBytes
   grid      :       1353. kBytes
   one-center:         62. kBytes
   wavefun   :      10665. kBytes
 
     INWAV:  cpu time    0.0000: real time    0.0006
 Broyden mixing: mesh for mixing (old mesh)
   NGX =  9   NGY =  9   NGZ =  9
  (NGX  = 36   NGY  = 36   NGZ  = 36)
  gives a total of    729 points

 initial charge density was supplied:
 charge density of overlapping atoms calculated
 number of electron      16.0000000 magnetization      10.0000000
 keeping initial charge density in first step


--------------------------------------------------------------------------------------------------------


 Maximum index for augmentation-charges        17277 (set IRDMAX)


--------------------------------------------------------------------------------------------------------


 First call to EWALD:  gamma=   0.619
 Maximum number of real-space cells 3x 3x 3
 Maximum number of reciprocal cells 3x 3x 3

    FEWALD:  cpu time    0.0040: real time    0.0041


--------------------------------------- Iteration      1(   1)  ---------------------------------------


    POTLOK:  cpu time    0.0550: real time    0.0582
    SETDIJ:  cpu time    1.8197: real time    1.8205
     EDDAV:  cpu time    5.2832: real time    5.2877
       DOS:  cpu time    0.0140: real time    0.0151
    --------------------------------------------
      LOOP:  cpu time    7.1719: real time    7.1817

 eigenvalue-minimisations  : 14776
 total energy-change (2. order) : 0.6229805E+02  (-0.6074011E+03)
 number of electron      16.0000000 magnetization      10.0000000
 augmentation part       16.0000000 magnetization      10.0000000

 Free energy of the ion-electron system (eV)
  ---------------------------------------------------
  alpha Z        PSCENC =       117.79976220
  Ewald energy   TEWEN  =     -1171.43779597
  -Hartree energ DENC   =      -228.04061711
  -exchange      EXHF   =         0.00000000
  -V(xc)+E(xc)   XCENC  =        14.27160946
  PAW double counting   =      1103.49540010    -1119.11610375
  entropy T*S    EENTRO =         0.00125080
  eigenvalues    EBANDS =       156.73488422
  atomic energy  EATOM  =      1188.58965621
  Solvation  Ediel_sol  =         0.00000000
  ---------------------------------------------------
  free energy    TOTEN  =        62.29804616 eV

  energy without entropy =       62.29679536  energy(sigma->0) =       62.29762923


--------------------------------------------------------------------------------------------------------




--------------------------------------- Iteration      1(   2)  ---------------------------------------


     EDDAV:  cpu time    4.8753: real time    4.8962
       DOS:  cpu time    0.0150: real time    0.0157
    --------------------------------------------
      LOOP:  cpu time    4.8913: real time    4.9118

 eigenvalue-minimisations  : 13440
 total energy-change (2. order) :-0.7575641E+02  (-0.6732734E+02)
 number of electron      16.0000000 magnetization      10.0000000
 augmentation part       16.0000000 magnetization      10.0000000

 Free energy of the ion-electron system (eV)
  ---------------------------------------------------
  alpha Z        PSCENC =       117.79976220
  Ewald energy   TEWEN  =     -1171.43779597
  -Hartree energ DENC   =      -228.04061711
  -exchange      EXHF   =         0.00000000
  -V(xc)+E(xc)   XCENC  =        14.27160946
  PAW double counting   =      1103.49540010    -1119.11610375
  entropy T*S    EENTRO =         0.00087136
  eigenvalues    EBANDS =        80.97885417
  atomic energy  EATOM  =      1188.58965621
  Solvation  Ediel_sol  =         0.00000000
  ---------------------------------------------------
  free energy    TOTEN  =       -13.45836333 eV

  energy without entropy =      -13.45923469  energy(sigma->0) =      -13.45865378


--------------------------------------------------------------------------------------------------------




--------------------------------------- Iteration      1(   3)  ---------------------------------------


     EDDAV:  cpu time    5.2762: real time    5.2966
       DOS:  cpu time    0.0150: real time    0.0160
    --------------------------------------------
      LOOP:  cpu time    5.2912: real time    5.3126

 eigenvalue-minimisations  : 14964
 total energy-change (2. order) :-0.2608293E+01  (-0.2552067E+01)
 number of electron      16.0000000 magnetization      10.0000000
 augmentation part       16.0000000 magnetization      10.0000000

 Free energy of the ion-electron system (eV)
  ---------------------------------------------------
  alpha Z        PSCENC =       117.79976220
  Ewald energy   TEWEN  =     -1171.43779597
  -Hartree energ DENC   =      -228.04061711
  -exchange      EXHF   =         0.00000000
  -V(xc)+E(xc)   XCENC  =        14.27160946
  PAW double counting   =      1103.49540010    -1119.11610375
  entropy T*S    EENTRO =         0.00068220
  eigenvalues    EBANDS =        78.37075043
  atomic energy  EATOM  =      1188.58965621
  Solvation  Ediel_sol  =         0.00000000
  ---------------------------------------------------
  free energy    TOTEN  =       -16.06665623 eV

  energy without entropy =      -16.06733843  energy(sigma->0) =      -16.06688363


--------------------------------------------------------------------------------------------------------




--------------------------------------- Iteration      1(   4)  ---------------------------------------


     EDDAV:  cpu time    5.1202: real time    5.1409
       DOS:  cpu time    0.0150: real time    0.0159
    --------------------------------------------
      LOOP:  cpu time    5.1352: real time    5.1568

 eigenvalue-minimisations  : 14388
 total energy-change (2. order) :-0.1946077E-01  (-0.1945625E-01)
 number of electron      16.0000000 magnetization      10.0000000
 augmentation part       16.0000000 magnetization      10.0000000

 Free energy of the ion-electron system (eV)
  ---------------------------------------------------
  alpha Z        PSCENC =       117.79976220
  Ewald energy   TEWEN  =     -1171.43779597
  -Hartree energ DENC   =      -228.04061711
  -exchange      EXHF   =         0.00000000
  -V(xc)+E(xc)   XCENC  =        14.27160946
  PAW double counting   =      1103.49540010    -1119.11610375
  entropy T*S    EENTRO =         0.00066049
  eigenvalues    EBANDS =        78.35131138
  atomic energy  EATOM  =      1188.58965621
  Solvation  Ediel_sol  =         0.00000000
  ---------------------------------------------------
  free energy    TOTEN  =       -16.08611700 eV

  energy without entropy =      -16.08677749  energy(sigma->0) =      -16.08633716


--------------------------------------------------------------------------------------------------------




--------------------------------------- Iteration      1(   5)  ---------------------------------------


     EDDAV:  cpu time    5.2342: real time    5.2547
       DOS:  cpu time    0.0160: real time    0.0156
    CHARGE:  cpu time    0.3000: real time    0.3008
    MIXING:  cpu time    0.0010: real time    0.0011
    --------------------------------------------
      LOOP:  cpu time    5.5502: real time    5.5723

 eigenvalue-minimisations  : 14792
 total energy-change (2. order) :-0.2405613E-03  (-0.2405571E-03)
 number of electron      16.0000001 magnetization       4.3812191
 augmentation part        7.3779223 magnetization       2.7126703

 Broyden mixing:
  rms(total) = 0.19572E+01    rms(broyden)= 0.19571E+01
  rms(prec ) = 0.35369E+01
  weight for this iteration     100.00

 Free energy of the ion-electron system (eV)
  ---------------------------------------------------
  alpha Z        PSCENC =       117.79976220
  Ewald energy   TEWEN  =     -1171.43779597
  -Hartree energ DENC   =      -228.04061711
  -exchange      EXHF   =         0.00000000
  -V(xc)+E(xc)   XCENC  =        14.27160946
  PAW double counting   =      1103.49540010    -1119.11610375
  entropy T*S    EENTRO =         0.00066039
  eigenvalues    EBANDS =        78.35107091
  atomic energy  EATOM  =      1188.58965621
  Solvation  Ediel_sol  =         0.00000000
  ---------------------------------------------------
  free energy    TOTEN  =       -16.08635756 eV

  energy without entropy =      -16.08701795  energy(sigma->0) =      -16.08657769


--------------------------------------------------------------------------------------------------------




--------------------------------------- Iteration      1(   6)  ---------------------------------------


    POTLOK:  cpu time    0.0350: real time    0.0518
    SETDIJ:  cpu time    1.5448: real time    1.5446
     EDDAV:  cpu time    5.2132: real time    5.2185
       DOS:  cpu time    0.0170: real time    0.0172
    CHARGE:  cpu time    0.2700: real time    0.2713
    MIXING:  cpu time    0.0020: real time    0.0012
    --------------------------------------------
      LOOP:  cpu time    7.0819: real time    7.1047

 eigenvalue-minimisations  : 14632
 total energy-change (2. order) :-0.4811605E+00  (-0.5154301E+00)
 number of electron      16.0000001 magnetization       4.6164111
 augmentation part        8.4888556 magnetization       3.7919153

 Broyden mixing:
  rms(total) = 0.61115E+00    rms(broyden)= 0.61035E+00
  rms(prec ) = 0.68740E+00
  weight for this iteration     100.00

 eigenvalues of (default mixing * dielectric matrix)
  average eigenvalue GAMMA=   0.8842
  0.8842

 Free energy of the ion-electron system (eV)
  ---------------------------------------------------
  alpha Z        PSCENC =       117.79976220
  Ewald energy   TEWEN  =     -1171.43779597
  -Hartree energ DENC   =      -196.94243592
  -exchange      EXHF   =         0.00000000
  -V(xc)+E(xc)   XCENC  =         8.24096384
  PAW double counting   =      1215.43256135    -1227.66966859
  entropy T*S    EENTRO =         0.00014128
  eigenvalues    EBANDS =        49.41929753
  atomic energy  EATOM  =      1188.58965621
  Solvation  Ediel_sol  =         0.00000000
  ---------------------------------------------------
  free energy    TOTEN  =       -16.56751808 eV

  energy without entropy =      -16.56765935  energy(sigma->0) =      -16.56756517


--------------------------------------------------------------------------------------------------------




--------------------------------------- Iteration      1(   7)  ---------------------------------------


    POTLOK:  cpu time    0.0350: real time    0.0520
    SETDIJ:  cpu time    1.5688: real time    1.5685
     EDDAV:  cpu time    5.5022: real time    5.5078
       DOS:  cpu time    0.0160: real time    0.0165
    CHARGE:  cpu time    0.2690: real time    0.2695
    MIXING:  cpu time    0.0010: real time    0.0011
    --------------------------------------------
      LOOP:  cpu time    7.3929: real time    7.4154

 eigenvalue-minimisations  : 15640
 total energy-change (2. order) : 0.6121485E-01  (-0.3760730E-01)
 number of electron      16.0000001 magnetization       4.4892737
 augmentation part        8.2546239 magnetization       3.7080292

 Broyden mixing:
  rms(total) = 0.43687E+00    rms(broyden)= 0.43675E+00
  rms(prec ) = 0.51831E+00
  weight for this iteration     100.00

 eigenvalues of (default mixing * dielectric matrix)
  average eigenvalue GAMMA=   0.7734
  1.0310  0.5158

 Free energy of the ion-electron system (eV)
  ---------------------------------------------------
  alpha Z        PSCENC =       117.79976220
  Ewald energy   TEWEN  =     -1171.43779597
  -Hartree energ DENC   =      -199.49036557
  -exchange      EXHF   =         0.00000000
  -V(xc)+E(xc)   XCENC  =         8.86286936
  PAW double counting   =      1292.71073205    -1308.00692169
  entropy T*S    EENTRO =        -0.00175500
  eigenvalues    EBANDS =        54.46751518
  atomic energy  EATOM  =      1188.58965621
  Solvation  Ediel_sol  =         0.00000000
  ---------------------------------------------------
  free energy    TOTEN  =       -16.50630323 eV

  energy without entropy =      -16.50454823  energy(sigma->0) =      -16.50571823


--------------------------------------------------------------------------------------------------------




--------------------------------------- Iteration      1(   8)  ---------------------------------------


    POTLOK:  cpu time    0.0360: real time    0.0512
    SETDIJ:  cpu time    1.5558: real time    1.5569
     EDDAV:  cpu time    5.8821: real time    5.8877
       DOS:  cpu time    0.0170: real time    0.0171
    CHARGE:  cpu time    0.2700: real time    0.2699
    MIXING:  cpu time    0.0000: real time    0.0011
    --------------------------------------------
      LOOP:  cpu time    7.7608: real time    7.7839

 eigenvalue-minimisations  : 17016
 total energy-change (2. order) : 0.1648905E-01  (-0.1020956E-02)
 number of electron      16.0000001 magnetization       4.4197663
 augmentation part        8.2815957 magnetization       3.6380468

 Broyden mixing:
  rms(total) = 0.16143E+00    rms(broyden)= 0.16140E+00
  rms(prec ) = 0.23034E+00
  weight for this iteration     100.00

 eigenvalues of (default mixing * dielectric matrix)
  average eigenvalue GAMMA=   1.1119
  1.8816  0.8793  0.5748

 Free energy of the ion-electron system (eV)
  ---------------------------------------------------
  alpha Z        PSCENC =       117.79976220
  Ewald energy   TEWEN  =     -1171.43779597
  -Hartree energ DENC   =      -197.75674186
  -exchange      EXHF   =         0.00000000
  -V(xc)+E(xc)   XCENC  =         8.63016657
  PAW double counting   =      1331.22893918    -1347.35921212
  entropy T*S    EENTRO =        -0.00170814
  eigenvalues    EBANDS =        53.81711975
  atomic energy  EATOM  =      1188.58965621
  Solvation  Ediel_sol  =         0.00000000
  ---------------------------------------------------
  free energy    TOTEN  =       -16.48981418 eV

  energy without entropy =      -16.48810604  energy(sigma->0) =      -16.48924480


--------------------------------------------------------------------------------------------------------




--------------------------------------- Iteration      1(   9)  ---------------------------------------


    POTLOK:  cpu time    0.0360: real time    0.0509
    SETDIJ:  cpu time    1.5598: real time    1.5606
     EDDAV:  cpu time    6.6690: real time    6.6757
       DOS:  cpu time    0.0160: real time    0.0171
    CHARGE:  cpu time    0.2720: real time    0.2720
    MIXING:  cpu time    0.0010: real time    0.0012
    --------------------------------------------
      LOOP:  cpu time    8.5537: real time    8.5775

 eigenvalue-minimisations  : 19628
 total energy-change (2. order) : 0.1116281E-01  (-0.3002901E-03)
 number of electron      16.0000001 magnetization       4.4614495
 augmentation part        8.3206599 magnetization       3.6780150

 Broyden mixing:
  rms(total) = 0.42061E-01    rms(broyden)= 0.42036E-01
  rms(prec ) = 0.49021E-01
  weight for this iteration     100.00

 eigenvalues of (default mixing * dielectric matrix)
  average eigenvalue GAMMA=   1.1884
  2.3368  1.0577  0.6796  0.6796

 Free energy of the ion-electron system (eV)
  ---------------------------------------------------
  alpha Z        PSCENC =       117.79976220
  Ewald energy   TEWEN  =     -1171.43779597
  -Hartree energ DENC   =      -195.32967354
  -exchange      EXHF   =         0.00000000
  -V(xc)+E(xc)   XCENC  =         8.48554767
  PAW double counting   =      1392.00022218    -1409.50979320
  entropy T*S    EENTRO =        -0.00152593
  eigenvalues    EBANDS =        52.92494900
  atomic energy  EATOM  =      1188.58965621
  Solvation  Ediel_sol  =         0.00000000
  ---------------------------------------------------
[...]

 k-point   159 :       0.4118    0.4118    0.3529
  band No.  band energies     occupation 
      1       3.5792      1.00000
      2       3.5907      1.00000
      3       3.9709      1.00000
      4       4.0969      1.00000
      5       4.1351      1.00000
      6       4.3660      1.00000
      7       7.6724     -0.00000
      8       7.7076     -0.00000
      9       7.7541     -0.00000
     10       7.7782     -0.00000
     11      11.2971     -0.00000
     12      13.1579      0.00000
     13      14.6059      0.00000
     14      16.6520      0.00000
     15      17.0785      0.00000
     16      18.5828      0.00000
     17      19.6393      0.00000
     18      21.9217      0.00000
     19      37.3816      0.00000
     20      38.7135      0.00000

 k-point   160 :       0.4706    0.4118    0.3529
  band No.  band energies     occupation 
      1       3.5789      1.00000
      2       3.5970      1.00000
      3       3.9690      1.00000
      4       4.0160      1.00000
      5       4.2932      1.00000
      6       4.3832      1.00000
      7       7.6930     -0.00000
      8       7.7059     -0.00000
      9       7.7961     -0.00000
     10       7.8044     -0.00000
     11      11.9349      0.00000
     12      12.6193      0.00000
     13      15.2106      0.00000
     14      16.0911      0.00000
     15      17.2002      0.00000
     16      17.9613      0.00000
     17      19.9956      0.00000
     18      20.8641      0.00000
     19      38.0830      0.00000
     20      38.6014      0.00000

 k-point   161 :       0.4706    0.4706    0.3529
  band No.  band energies     occupation 
      1       3.5967      1.00000
      2       3.6098      1.00000
      3       3.9285      1.00000
      4       3.9495      1.00000
      5       4.4053      1.00000
      6       4.4382      1.00000
      7       7.7215     -0.00000
      8       7.7263     -0.00000
      9       7.8193     -0.00000
     10       7.8221     -0.00000
     11      12.4941      0.00000
     12      12.8245      0.00000
     13      14.9171      0.00000
     14      15.3087      0.00000
     15      17.8080      0.00000
     16      18.3321      0.00000
     17      19.2929      0.00000
     18      19.8479      0.00000
     19      38.7416      0.00000
     20      38.9598      0.00000

 k-point   162 :       0.4118    0.4118    0.4118
  band No.  band energies     occupation 
      1       3.6607      1.00000
      2       3.8994      1.00000
      3       3.9569      1.00000
      4       3.9570      1.00000
      5       4.1861      1.00000
      6       4.1862      1.00000
      7       7.7556     -0.00000
      8       7.7558     -0.00000
      9       7.7755     -0.00000
     10       7.7757     -0.00000
     11      11.9648      0.00000
     12      14.1507      0.00000
     13      14.1507      0.00000
     14      16.3523      0.00000
     15      17.4143      0.00000
     16      17.4143      0.00000
     17      18.7686      0.00000
     18      20.7465      0.00000
     19      39.3360      0.00000
     20      39.3360      0.00000

 k-point   163 :       0.4706    0.4118    0.4118
  band No.  band energies     occupation 
      1       3.7167      1.00000
      2       3.8016      1.00000
      3       3.9837      1.00000
      4       4.0589      1.00000
      5       4.1388      1.00000
      6       4.2243      1.00000
      7       7.7625     -0.00000
      8       7.7700     -0.00000
      9       7.8047     -0.00000
     10       7.8112     -0.00000
     11      12.6704      0.00000
     12      13.4232      0.00000
     13      15.1938      0.00000
     14      16.2830      0.00000
     15      16.6106      0.00000
     16      17.1349      0.00000
     17      18.9051      0.00000
     18      19.7106      0.00000
     19      39.9287      0.00000
     20      40.4038      0.00000

 k-point   164 :       0.4706    0.4706    0.4118
  band No.  band energies     occupation 
      1       3.7952      1.00000
      2       3.8648      1.00000
      3       3.9275      1.00000
      4       3.9919      1.00000
      5       4.1902      1.00000
      6       4.2211      1.00000
      7       7.7893     -0.00000
      8       7.7920     -0.00000
      9       7.8247     -0.00000
     10       7.8270     -0.00000
     11      13.3786      0.00000
     12      13.8425      0.00000
     13      15.0579      0.00000
     14      15.6522      0.00000
     15      16.8051      0.00000
     16      17.1568      0.00000
     17      18.2796      0.00000
     18      18.7429      0.00000
     19      40.9522      0.00000
     20      41.1921      0.00000

 k-point   165 :       0.4706    0.4706    0.4706
  band No.  band energies     occupation 
      1       3.8940      1.00000
      2       3.9702      1.00000
      3       3.9703      1.00000
      4       4.0661      1.00000
      5       4.0661      1.00000
      6       4.0767      1.00000
      7       7.8282     -0.00000
      8       7.8283     -0.00000
      9       7.8290     -0.00000
     10       7.8292     -0.00000
     11      14.2299      0.00000
     12      14.9069      0.00000
     13      14.9069      0.00000
     14      16.0133      0.00000
     15      16.0133      0.00000
     16      16.2271      0.00000
     17      17.7065      0.00000
     18      17.9157      0.00000
     19      43.1338      0.00000
     20      43.1443      0.00000


--------------------------------------------------------------------------------------------------------


 soft charge-density along one line, spin component           1
         0         1         2         3         4         5         6         7         8         9
 total charge-density along one line
 
 soft charge-density along one line, spin component           2
         0         1         2         3         4         5         6         7         8         9
 total charge-density along one line
 
 pseudopotential strength for first ion, spin component:           1
 -5.563  -0.000  -0.000  -0.000  -0.000  -6.095  -0.000  -0.000
 -0.000  -5.563   0.000  -0.000   0.000  -0.000  -6.095   0.000
 -0.000   0.000  -5.772   0.000   0.000  -0.000   0.000  -6.297
 -0.000  -0.000   0.000  -5.563  -0.000  -0.000  -0.000   0.000
 -0.000   0.000   0.000  -0.000  -5.772  -0.000   0.000   0.000
 -6.095  -0.000  -0.000  -0.000  -0.000  -6.584  -0.000  -0.000
 -0.000  -6.095   0.000  -0.000   0.000  -0.000  -6.584   0.000
 -0.000   0.000  -6.297   0.000   0.000  -0.000   0.000  -6.780
 -0.000  -0.000   0.000  -6.095  -0.000  -0.000  -0.000   0.000
 -0.000   0.000   0.000  -0.000  -6.297  -0.000   0.000   0.000
 -0.000   0.000   0.000   0.000  -0.000  -0.000   0.000   0.000
 -0.000   0.000   0.000   0.000  -0.000  -0.000   0.000   0.000
  0.000   0.000  -0.000  -0.000  -0.000   0.000   0.000  -0.000
 -0.000   0.000   0.000  -0.000   0.000  -0.000   0.000   0.000
  0.000  -0.000   0.000   0.000  -0.000   0.000  -0.000   0.000
  0.000   0.000  -0.000  -0.000  -0.000   0.000   0.000  -0.000
 -0.000   0.000   0.000  -0.000   0.000  -0.000   0.000   0.000
  0.000  -0.000   0.000   0.000  -0.000   0.000  -0.000   0.000
 pseudopotential strength for first ion, spin component:           2
 -4.132   0.000  -0.000   0.000  -0.000  -4.707   0.000  -0.000
  0.000  -4.131  -0.000  -0.000  -0.000   0.000  -4.707  -0.000
 -0.000  -0.000  -3.882  -0.000  -0.000  -0.000  -0.000  -4.466
  0.000  -0.000  -0.000  -4.131   0.000   0.000  -0.000  -0.000
 -0.000  -0.000  -0.000   0.000  -3.882  -0.000  -0.000  -0.000
 -4.707   0.000  -0.000   0.000  -0.000  -5.240   0.000  -0.000
  0.000  -4.707  -0.000  -0.000  -0.000   0.000  -5.240  -0.000
 -0.000  -0.000  -4.466  -0.000  -0.000  -0.000  -0.000  -5.007
  0.000  -0.000  -0.000  -4.707   0.000   0.000  -0.000  -0.000
 -0.000  -0.000  -0.000   0.000  -4.466  -0.000  -0.000  -0.000
 -0.000  -0.000  -0.000  -0.000   0.000  -0.000  -0.000  -0.000
 -0.000  -0.000  -0.000  -0.000   0.000  -0.000  -0.000  -0.000
  0.000   0.000  -0.000   0.000  -0.000   0.000   0.000  -0.000
  0.000   0.000   0.000  -0.000   0.000   0.000   0.000   0.000
  0.000   0.000   0.000   0.000  -0.000   0.000   0.000   0.000
  0.000   0.000  -0.000   0.000  -0.000   0.000   0.000  -0.000
  0.000   0.000   0.000  -0.000   0.000   0.000   0.000   0.000
  0.000   0.000   0.000   0.000  -0.000   0.000   0.000   0.000
 total augmentation occupancy for first ion, spin component:           1
  2.254   0.000  -0.000   0.000  -0.000  -1.255  -0.000   0.000  -0.000   0.000   0.000   0.000   0.000   0.000   0.000   0.000
  0.000   2.254   0.000   0.000  -0.000  -0.000  -1.255   0.000  -0.000   0.000  -0.000  -0.000   0.000   0.000   0.000   0.000
 -0.000   0.000   3.672   0.000   0.000   0.000  -0.000  -2.396   0.000   0.000  -0.000   0.000   0.000   0.000  -0.000   0.000
  0.000   0.000  -0.000   2.254   0.000  -0.000  -0.000   0.000  -1.255  -0.000   0.000   0.000   0.000   0.000   0.000  -0.000
 -0.000  -0.000  -0.000   0.000   3.672   0.000   0.000   0.000  -0.000  -2.396  -0.000   0.000   0.000  -0.000  -0.000   0.000
 -1.255  -0.000   0.000  -0.000   0.000   1.651   0.000  -0.000   0.000  -0.000   0.000   0.000   0.000   0.000   0.000   0.000
 -0.000  -1.255   0.000  -0.000   0.000   0.000   1.651   0.000   0.000  -0.000  -0.000   0.000   0.000   0.000   0.000   0.000
  0.000   0.000  -2.396   0.000  -0.000  -0.000   0.000   2.381   0.000  -0.000  -0.000  -0.000  -0.000  -0.000   0.000   0.000
 -0.000  -0.000  -0.000  -1.255  -0.000   0.000   0.000   0.000   1.651   0.000  -0.000   0.000   0.000   0.000   0.000   0.000
  0.000   0.000   0.000  -0.000  -2.396  -0.000  -0.000   0.000   0.000   2.381   0.000   0.000   0.000   0.000   0.000  -0.000
  0.000  -0.000  -0.000   0.000   0.000   0.000  -0.000  -0.000  -0.000   0.000   2.434  -0.284   0.000   0.000   0.000   0.000
  0.000  -0.000   0.000  -0.000   0.000   0.000   0.000  -0.000   0.000  -0.000  -0.284   0.039   0.000   0.000   0.000   0.000
  0.000   0.000   0.000   0.000   0.000   0.000   0.000  -0.000   0.000   0.000   0.000   0.000   0.297   0.000   0.000  -0.026
  0.000   0.000  -0.000   0.000   0.000   0.000   0.000   0.000   0.000   0.000   0.000   0.000   0.000   0.297   0.000  -0.000
  0.000   0.000  -0.000   0.000  -0.000   0.000   0.000   0.000   0.000   0.000   0.000   0.000   0.000   0.000   0.297  -0.000
  0.000   0.000   0.000   0.000   0.000   0.000   0.000   0.000   0.000  -0.000   0.000   0.000  -0.026  -0.000  -0.000   0.003
  0.000   0.000   0.000   0.000   0.000   0.000   0.000  -0.000   0.000   0.000   0.000   0.000  -0.000  -0.026  -0.000   0.000
  0.000   0.000   0.000   0.000   0.000   0.000   0.000   0.000   0.000   0.000   0.000   0.000  -0.000  -0.000  -0.026   0.000
 total augmentation occupancy for first ion, spin component:           2
  1.867   0.000  -0.000   0.000  -0.000  -0.780  -0.000   0.000  -0.000   0.000  -0.000   0.000   0.000   0.000   0.000   0.000
  0.000   1.867   0.000   0.000  -0.000  -0.000  -0.780  -0.000  -0.000   0.000   0.000  -0.000   0.000   0.000   0.000  -0.000
 -0.000   0.000   3.102   0.000   0.000   0.000  -0.000  -1.383   0.000  -0.000   0.000  -0.000   0.000  -0.000   0.000   0.000
  0.000   0.000   0.000   1.867   0.000  -0.000  -0.000  -0.000  -0.780  -0.000   0.000   0.000   0.000   0.000   0.000  -0.000
 -0.000  -0.000   0.000   0.000   3.102   0.000   0.000   0.000  -0.000  -1.383  -0.000   0.000   0.000  -0.000   0.000   0.000
 -0.780  -0.000   0.000  -0.000   0.000   0.088   0.000  -0.000   0.000  -0.000   0.000  -0.000   0.000   0.000   0.000   0.000
 -0.000  -0.780  -0.000  -0.000   0.000   0.000   0.088  -0.000   0.000  -0.000   0.000  -0.000   0.000   0.000   0.000   0.000
  0.000  -0.000  -1.383  -0.000   0.000  -0.000  -0.000   0.379  -0.000  -0.000   0.000   0.000   0.000   0.000   0.000   0.000
 -0.000  -0.000   0.000  -0.780  -0.000   0.000   0.000  -0.000   0.088   0.000   0.000   0.000   0.000   0.000   0.000   0.000
  0.000   0.000   0.000  -0.000  -1.383  -0.000  -0.000   0.000   0.000   0.379   0.000  -0.000   0.000   0.000  -0.000  -0.000
  0.000   0.000   0.000  -0.000   0.000   0.000   0.000   0.000   0.000  -0.000  -0.330   0.099   0.000   0.000  -0.000   0.000
  0.000  -0.000  -0.000   0.000  -0.000  -0.000  -0.000   0.000   0.000  -0.000   0.099  -0.017   0.000   0.000   0.000   0.000
  0.000   0.000   0.000   0.000  -0.000   0.000   0.000  -0.000   0.000  -0.000   0.000   0.000  -0.037  -0.000  -0.000   0.006
  0.000   0.000   0.000   0.000  -0.000   0.000   0.000  -0.000   0.000  -0.000   0.000   0.000  -0.000  -0.037  -0.000   0.000
  0.000   0.000   0.000   0.000  -0.000   0.000   0.000   0.000   0.000   0.000  -0.000   0.000  -0.000  -0.000  -0.037   0.000
  0.000   0.000   0.000  -0.000   0.000   0.000   0.000   0.000  -0.000  -0.000   0.000   0.000   0.006   0.000   0.000  -0.001
  0.000  -0.000   0.000   0.000   0.000   0.000   0.000  -0.000   0.000   0.000   0.000   0.000   0.000   0.006   0.000  -0.000
  0.000  -0.000   0.000  -0.000   0.000   0.000  -0.000  -0.000   0.000  -0.000   0.000   0.000   0.000   0.000   0.006  -0.000


------------------------ aborting loop because EDIFF is reached ----------------------------------------





 total charge

# of ion       s       p       d       tot
------------------------------------------
    1        0.489   0.546   6.239   7.274
    2        0.489   0.546   6.239   7.274
--------------------------------------------------
tot          0.978   1.091  12.478  14.548



 magnetization (x)

# of ion       s       p       d       tot
------------------------------------------
    1       -0.014  -0.057   2.244   2.174
    2       -0.014  -0.057   2.244   2.174
--------------------------------------------------
tot         -0.027  -0.113   4.487   4.347
 
    CHARGE:  cpu time    0.2690: real time    0.2697
    FORLOC:  cpu time    0.0000: real time    0.0008
    FORNL :  cpu time    0.4869: real time    0.4875
    STRESS:  cpu time    1.7607: real time    1.7607
    FORCOR:  cpu time    0.0330: real time    0.0337
    FORHAR:  cpu time    0.0020: real time    0.0028
    MIXING:  cpu time    0.0010: real time    0.0010
    OFIELD:  cpu time    0.0000: real time    0.0002

  FORCE on cell =-STRESS in cart. coord.  units (eV):
  Direction    XX          YY          ZZ          XY          YZ          ZX
  --------------------------------------------------------------------------------------
  Alpha Z   122.22210   122.22210   122.22210
  Ewald    -395.30568  -395.30568  -395.30568    -0.00000    -0.00000    -0.00000
  Hartree    63.14215    63.14215    63.14215    -0.00000    -0.00000    -0.00000
  E(xc)     -79.45972   -79.45972   -79.45972    -0.00000    -0.00000     0.00000
  Local     118.18202   118.18202   118.18202     0.00000     0.00000     0.00000
  n-local   -54.80161   -51.65725   -48.98377     2.48931    -0.89960     0.69065
  augment    77.41120    77.41120    77.41120    -0.00000     0.00000     0.00000
  Kinetic   148.07469   145.22464   143.55879     2.81259    -0.53890     0.10831
  Fock        0.00000     0.00000     0.00000     0.00000     0.00000     0.00000
  -------------------------------------------------------------------------------------
  Total      -0.00277    -0.00277    -0.00277     0.00000     0.00000    -0.00000
  in kB      -0.19607    -0.19607    -0.19607     0.00000     0.00000    -0.00000
  external pressure =       -0.20 kB  Pullay stress =        0.00 kB


 VOLUME and BASIS-vectors are now :
 -----------------------------------------------------------------------------
  energy-cutoff  :      350.00
  volume of cell :       22.62
      direct lattice vectors                 reciprocal lattice vectors
     2.828079568 -0.000000000  0.000000000     0.353596840 -0.000000000  0.000000000
     0.000000000  2.828079568  0.000000000     0.000000000  0.353596840  0.000000000
    -0.000000000 -0.000000000  2.828079568    -0.000000000 -0.000000000  0.353596840

  length of vectors
     2.828079568  2.828079568  2.828079568     0.353596840  0.353596840  0.353596840


 FORCES acting on ions
    electron-ion (+dipol)            ewald-force                    non-local-force                 convergence-correction
 -----------------------------------------------------------------------------------------------
   -.147E-13 -.179E-13 -.219E-13   0.131E-14 -.715E-14 -.449E-14   -.170E-25 -.344E-28 0.129E-25   0.248E-13 0.298E-13 -.279E-15
   0.144E-12 -.546E-12 0.481E-13   -.269E-14 0.785E-14 0.342E-14   0.427E-26 -.735E-28 0.000E+00   0.146E-14 0.236E-13 -.300E-14
 -----------------------------------------------------------------------------------------------
   0.130E-12 -.564E-12 0.262E-13   -.138E-14 0.696E-15 -.107E-14   -.127E-25 -.108E-27 0.129E-25   0.262E-13 0.535E-13 -.328E-14
 
 
 POSITION                                       TOTAL-FORCE (eV/Angst)
 -----------------------------------------------------------------------------------
      0.00000      0.00000      0.00000        -0.000000     -0.000000     -0.000000
      1.41404      1.41404      1.41404         0.000000      0.000000      0.000000
 -----------------------------------------------------------------------------------
    total drift:                                0.000000     -0.000000      0.000000


--------------------------------------------------------------------------------------------------------



  FREE ENERGIE OF THE ION-ELECTRON SYSTEM (eV)
  ---------------------------------------------------
  free  energy   TOTEN  =       -16.49619180 eV

  energy  without entropy=      -16.49444142  energy(sigma->0) =      -16.49560834
 
 d Force = 0.0000000E+00[ 0.000E+00, 0.000E+00]  d Energy = 0.1471835E-01-0.147E-01
 d Force = 0.0000000E+00[ 0.000E+00, 0.000E+00]  d Ewald  =-0.1296356E+02 0.130E+02


--------------------------------------------------------------------------------------------------------


    POTLOK:  cpu time    1.6118: real time    1.6184


--------------------------------------------------------------------------------------------------------




--------------------------------------------------------------------------------------------------------


  
 reached required accuracy - stopping structural energy minimisation
 writing wavefunctions
     LOOP+:  cpu time   67.0898: real time   69.0352
    4ORBIT:  cpu time    0.0000: real time    0.0000



 total charge

# of ion       s       p       d       tot
------------------------------------------
    1        0.489   0.546   6.239   7.274
    2        0.489   0.546   6.239   7.274
--------------------------------------------------
tot          0.978   1.091  12.478  14.548



 magnetization (x)

# of ion       s       p       d       tot
------------------------------------------
    1       -0.014  -0.057   2.244   2.174
    2       -0.014  -0.057   2.244   2.174
--------------------------------------------------
tot         -0.027  -0.113   4.487   4.347
 

 total amount of memory used by VASP MPI-rank0    52610. kBytes
=======================================================================

   base      :      30000. kBytes
   nonl-proj :       8755. kBytes
   fftplans  :       1775. kBytes
   grid      :       1353. kBytes
   one-center:         62. kBytes
   wavefun   :      10665. kBytes
 
  
  
 General timing and accounting informations for this job:
 ========================================================
  
                  Total CPU time used (sec):      239.443
                            User time (sec):      235.178
                          System time (sec):        4.264
                         Elapsed time (sec):      251.746
  
                   Maximum memory used (kb):       83984.
                   Average memory used (kb):          N/A
  
                          Minor page faults:        11747
                          Major page faults:            1
                 Voluntary context switches:       317238
