PROCAR lm decomposed
# of k-points:  165         # of bands:   20         # of ions:    2

 k-point     1 :    0.00000000 0.00000000 0.00000000     weight = 0.00020354

band     1 # energy   -2.58796191 # occ.  1.00000000
 
ion      s     py     pz     px    dxy    dyz    dz2    dxz  x2-y2    tot
    1  0.368  0.000  0.000  0.000  0.000  0.000  0.000  0.000  0.000  0.368
    2  0.368  0.000  0.000  0.000  0.000  0.000  0.000  0.000  0.000  0.368
tot    0.735  0.000  0.000  0.000  0.000  0.000  0.000  0.000  0.000  0.735
 
band     2 # energy    1.00303714 # occ.  1.00000000
 
ion      s     py     pz     px    dxy    dyz    dz2    dxz  x2-y2    tot
    1  0.000  0.000  0.000  0.000  0.000  0.000  0.130  0.000  0.308  0.438
    2  0.000  0.000  0.000  0.000  0.000  0.000  0.130  0.000  0.308  0.438
tot    0.000  0.000  0.000  0.000  0.000  0.000  0.261  0.000  0.616  0.877
 
band     3 # energy    1.00303730 # occ.  1.00000000
 
ion      s     py     pz     px    dxy    dyz    dz2    dxz  x2-y2    tot
    1  0.000  0.000  0.000  0.000  0.000  0.000  0.308  0.000  0.130  0.438
    2  0.000  0.000  0.000  0.000  0.000  0.000  0.308  0.000  0.130  0.438
tot    0.000  0.000  0.000  0.000  0.000  0.000  0.616  0.000  0.261  0.877
 
band     4 # energy    3.56735055 # occ.  1.00000000
 
ion      s     py     pz     px    dxy    dyz    dz2    dxz  x2-y2    tot
    1  0.000  0.000  0.000  0.000  0.489  0.000  0.000  0.000  0.000  0.489
    2  0.000  0.000  0.000  0.000  0.489  0.000  0.000  0.000  0.000  0.489
tot    0.000  0.000  0.000  0.000  0.979  0.000  0.000  0.000  0.000  0.979
 
band     5 # energy    3.56735140 # occ.  1.00000000
 
ion      s     py     pz     px    dxy    dyz    dz2    dxz  x2-y2    tot
    1  0.000  0.000  0.000  0.000  0.000  0.000  0.000  0.489  0.000  0.489
    2  0.000  0.000  0.000  0.000  0.000  0.000  0.000  0.489  0.000  0.489
tot    0.000  0.000  0.000  0.000  0.000  0.000  0.000  0.979  0.000  0.979
 
band     6 # energy    3.56735142 # occ.  1.00000000
 
ion      s     py     pz     px    dxy    dyz    dz2    dxz  x2-y2    tot
    1  0.000  0.000  0.000  0.000  0.000  0.489  0.000  0.000  0.000  0.489
    2  0.000  0.000  0.000  0.000  0.000  0.489  0.000  0.000  0.000  0.489
tot    0.000  0.000  0.000  0.000  0.000  0.979  0.000  0.000  0.000  0.979
 
band     7 # energy    4.78565833 # occ.  1.00000000
 
ion      s     py     pz     px    dxy    dyz    dz2    dxz  x2-y2    tot
    1  0.000  0.000  0.000  0.000  0.000  0.000  0.481  0.000  0.004  0.485
    2  0.000  0.000  0.000  0.000  0.000  0.000  0.481  0.000  0.004  0.485
tot    0.000  0.000  0.000  0.000  0.000  0.000  0.963  0.000  0.008  0.970
 
band     8 # energy    4.78565931 # occ.  1.00000000
 
ion      s     py     pz     px    dxy    dyz    dz2    dxz  x2-y2    tot
    1  0.000  0.000  0.000  0.000  0.000  0.000  0.004  0.000  0.481  0.485
    2  0.000  0.000  0.000  0.000  0.000  0.000  0.004  0.000  0.481  0.485
tot    0.000  0.000  0.000  0.000  0.000  0.000  0.008  0.000  0.963  0.970
 
band     9 # energy    6.00318273 # occ.  0.07419951
 
ion      s     py     pz     px    dxy    dyz    dz2    dxz  x2-y2    tot
    1  0.000  0.000  0.000  0.000  0.494  0.000  0.000  0.000  0.000  0.494
    2  0.000  0.000  0.000  0.000  0.494  0.000  0.000  0.000  0.000  0.494
tot    0.000  0.000  0.000  0.000  0.988  0.000  0.000  0.000  0.000  0.988
 
band    10 # energy    6.00318433 # occ.  0.07419603
 
ion      s     py     pz     px    dxy    dyz    dz2    dxz  x2-y2    tot
    1  0.000  0.000  0.000  0.000  0.000  0.000  0.000  0.494  0.000  0.494
    2  0.000  0.000  0.000  0.000  0.000  0.000  0.000  0.494  0.000  0.494
tot    0.000  0.000  0.000  0.000  0.000  0.000  0.000  0.988  0.000  0.988
 
band    11 # energy    6.00318435 # occ.  0.07419598
 
ion      s     py     pz     px    dxy    dyz    dz2    dxz  x2-y2    tot
    1  0.000  0.000  0.000  0.000  0.000  0.494  0.000  0.000  0.000  0.494
    2  0.000  0.000  0.000  0.000  0.000  0.494  0.000  0.000  0.000  0.494
tot    0.000  0.000  0.000  0.000  0.000  0.988  0.000  0.000  0.000  0.988
 
band    12 # energy   15.83918617 # occ.  0.00000000
 
ion      s     py     pz     px    dxy    dyz    dz2    dxz  x2-y2    tot
    1  0.000  0.000  0.000  0.377  0.000  0.000  0.000  0.000  0.000  0.377
    2  0.000  0.000  0.000  0.377  0.000  0.000  0.000  0.000  0.000  0.377
tot    0.000  0.000  0.000  0.753  0.000  0.000  0.000  0.000  0.000  0.753
 
band    13 # energy   15.83918627 # occ.  0.00000000
 
ion      s     py     pz     px    dxy    dyz    dz2    dxz  x2-y2    tot
    1  0.000  0.377  0.000  0.000  0.000  0.000  0.000  0.000  0.000  0.377
    2  0.000  0.377  0.000  0.000  0.000  0.000  0.000  0.000  0.000  0.377
tot    0.000  0.753  0.000  0.000  0.000  0.000  0.000  0.000  0.000  0.753
 
band    14 # energy   15.83918638 # occ.  0.00000000
 
ion      s     py     pz     px    dxy    dyz    dz2    dxz  x2-y2    tot
    1  0.000  0.000  0.377  0.000  0.000  0.000  0.000  0.000  0.000  0.377
    2  0.000  0.000  0.377  0.000  0.000  0.000  0.000  0.000  0.000  0.377
tot    0.000  0.000  0.753  0.000  0.000  0.000  0.000  0.000  0.000  0.753
 
band    15 # energy   21.57017180 # occ.  0.00000000
 
ion      s     py     pz     px    dxy    dyz    dz2    dxz  x2-y2    tot
    1  0.000  0.000  0.000  0.000  0.000  0.000  0.477  0.000  0.000  0.477
    2  0.000  0.000  0.000  0.000  0.000  0.000  0.477  0.000  0.000  0.477
tot    0.000  0.000  0.000  0.000  0.000  0.000  0.953  0.000  0.000  0.953
 
band    16 # energy   21.57017354 # occ.  0.00000000
 
ion      s     py     pz     px    dxy    dyz    dz2    dxz  x2-y2    tot
    1  0.000  0.000  0.000  0.000  0.000  0.000  0.000  0.000  0.477  0.477
    2  0.000  0.000  0.000  0.000  0.000  0.000  0.000  0.000  0.477  0.477
tot    0.000  0.000  0.000  0.000  0.000  0.000  0.000  0.000  0.953  0.953
 
band    17 # energy   26.73469868 # occ.  0.00000000
 
ion      s     py     pz     px    dxy    dyz    dz2    dxz  x2-y2    tot
    1  0.391  0.000  0.000  0.000  0.000  0.000  0.000  0.000  0.000  0.391
    2  0.391  0.000  0.000  0.000  0.000  0.000  0.000  0.000  0.000  0.391
tot    0.782  0.000  0.000  0.000  0.000  0.000  0.000  0.000  0.000  0.782
 
band    18 # energy   30.93856644 # occ.  0.00000000
 
ion      s     py     pz     px    dxy    dyz    dz2    dxz  x2-y2    tot
    1  0.000  0.000  0.000  0.000  0.000  0.000  0.000  0.000  0.000  0.000
    2  0.000  0.000  0.000  0.000  0.000  0.000  0.000  0.000  0.000  0.000
tot    0.000  0.000  0.000  0.000  0.000  0.000  0.000  0.000  0.000  0.000
 
band    19 # energy   30.93856644 # occ.  0.00000000
 
ion      s     py     pz     px    dxy    dyz    dz2    dxz  x2-y2    tot
    1  0.000  0.000  0.000  0.000  0.000  0.000  0.000  0.000  0.000  0.000
    2  0.000  0.000  0.000  0.000  0.000  0.000  0.000  0.000  0.000  0.000
tot    0.000  0.000  0.000  0.000  0.000  0.000  0.000  0.000  0.000  0.000
 
band    20 # energy   30.93856644 # occ.  0.00000000
 
ion      s     py     pz     px    dxy    dyz    dz2    dxz  x2-y2    tot
    1  0.000  0.000  0.000  0.000  0.000  0.000  0.000  0.000  0.000  0.000
    2  0.000  0.000  0.000  0.000  0.000  0.000  0.000  0.000  0.000  0.000
tot    0.000  0.000  0.000  0.000  0.000  0.000  0.000  0.000  0.000  0.000
 

 k-point     2 :    0.05882353-0.00000000 0.00000000     weight = 0.00122125

band     1 # energy   -2.51572783 # occ.  1.00000000
 
ion      s     py     pz     px    dxy    dyz    dz2    dxz  x2-y2    tot
    1  0.365  0.000  0.000  0.003  0.000  0.000  0.000  0.000  0.000  0.368
    2  0.365  0.000  0.000  0.003  0.000  0.000  0.000  0.000  0.000  0.368
tot    0.730  0.000  0.000  0.005  0.000  0.000  0.000  0.000  0.000  0.735
 
band     2 # energy    1.03406991 # occ.  1.00000000
 
ion      s     py     pz     px    dxy    dyz    dz2    dxz  x2-y2    tot
    1  0.000  0.000  0.000  0.000  0.000  0.000  0.329  0.000  0.110  0.438
    2  0.000  0.000  0.000  0.000  0.000  0.000  0.329  0.000  0.110  0.438
tot    0.000  0.000  0.000  0.000  0.000  0.000  0.658  0.000  0.219  0.877
 
band     3 # energy    1.03550577 # occ.  1.00000000
 
ion      s     py     pz     px    dxy    dyz    dz2    dxz  x2-y2    tot
    1  0.000  0.000  0.000  0.002  0.000  0.000  0.109  0.000  0.327  0.438
    2  0.000  0.000  0.000  0.002  0.000  0.000  0.109  0.000  0.327  0.438
tot    0.000  0.000  0.000  0.004  0.000  0.000  0.218  0.000  0.654  0.876
 
band     4 # energy    3.56668180 # occ.  1.00000000
 
ion      s     py     pz     px    dxy    dyz    dz2    dxz  x2-y2    tot
    1  0.000  0.000  0.000  0.000  0.489  0.000  0.000  0.000  0.000  0.489
    2  0.000  0.000  0.000  0.000  0.489  0.000  0.000  0.000  0.000  0.489
tot    0.000  0.001  0.000  0.000  0.978  0.000  0.000  0.000  0.000  0.978
 
band     5 # energy    3.56668265 # occ.  1.00000000
 
ion      s     py     pz     px    dxy    dyz    dz2    dxz  x2-y2    tot
    1  0.000  0.000  0.000  0.000  0.000  0.000  0.000  0.489  0.000  0.489
    2  0.000  0.000  0.000  0.000  0.000  0.000  0.000  0.489  0.000  0.489
tot    0.000  0.000  0.001  0.000  0.000  0.000  0.000  0.978  0.000  0.978
 
band     6 # energy    3.58718597 # occ.  1.00000000
 
ion      s     py     pz     px    dxy    dyz    dz2    dxz  x2-y2    tot
    1  0.000  0.000  0.000  0.000  0.000  0.489  0.000  0.000  0.000  0.489
    2  0.000  0.000  0.000  0.000  0.000  0.489  0.000  0.000  0.000  0.489
tot    0.000  0.000  0.000  0.000  0.000  0.978  0.000  0.000  0.000  0.978
 
band     7 # energy    4.75329765 # occ.  1.00000000
 
ion      s     py     pz     px    dxy    dyz    dz2    dxz  x2-y2    tot
    1  0.000  0.000  0.000  0.000  0.000  0.000  0.363  0.000  0.121  0.484
    2  0.000  0.000  0.000  0.000  0.000  0.000  0.363  0.000  0.121  0.484
tot    0.000  0.000  0.000  0.000  0.000  0.000  0.727  0.000  0.242  0.969
 
band     8 # energy    4.79847022 # occ.  1.00000000
 
ion      s     py     pz     px    dxy    dyz    dz2    dxz  x2-y2    tot
    1  0.000  0.000  0.000  0.000  0.000  0.000  0.121  0.000  0.364  0.485
    2  0.000  0.000  0.000  0.000  0.000  0.000  0.121  0.000  0.364  0.485
tot    0.000  0.000  0.000  0.000  0.000  0.000  0.243  0.000  0.728  0.971
 
band     9 # energy    5.94183621 # occ.  0.25373740
 
ion      s     py     pz     px    dxy    dyz    dz2    dxz  x2-y2    tot
    1  0.000  0.002  0.000  0.000  0.491  0.000  0.000  0.000  0.000  0.493
    2  0.000  0.002  0.000  0.000  0.491  0.000  0.000  0.000  0.000  0.493
tot    0.000  0.003  0.000  0.000  0.982  0.000  0.000  0.000  0.000  0.986
 
band    10 # energy    5.94183779 # occ.  0.25373171
 
ion      s     py     pz     px    dxy    dyz    dz2    dxz  x2-y2    tot
    1  0.000  0.000  0.002  0.000  0.000  0.000  0.000  0.491  0.000  0.493
    2  0.000  0.000  0.002  0.000  0.000  0.000  0.000  0.491  0.000  0.493
tot    0.000  0.000  0.003  0.000  0.000  0.000  0.000  0.982  0.000  0.986
 
band    11 # energy    5.98184120 # occ.  0.12641869
 
ion      s     py     pz     px    dxy    dyz    dz2    dxz  x2-y2    tot
    1  0.000  0.000  0.000  0.000  0.000  0.494  0.000  0.000  0.000  0.494
    2  0.000  0.000  0.000  0.000  0.000  0.494  0.000  0.000  0.000  0.494
tot    0.000  0.000  0.000  0.000  0.000  0.987  0.000  0.000  0.000  0.987
 
band    12 # energy   15.30504491 # occ.  0.00000000
 
ion      s     py     pz     px    dxy    dyz    dz2    dxz  x2-y2    tot
    1  0.013  0.000  0.000  0.347  0.000  0.000  0.006  0.000  0.018  0.385
    2  0.013  0.000  0.000  0.347  0.000  0.000  0.006  0.000  0.018  0.385
tot    0.026  0.000  0.000  0.694  0.000  0.000  0.012  0.000  0.037  0.770
 
band    13 # energy   15.97662681 # occ.  0.00000000
 
ion      s     py     pz     px    dxy    dyz    dz2    dxz  x2-y2    tot
    1  0.000  0.373  0.000  0.000  0.005  0.000  0.000  0.000  0.000  0.379
    2  0.000  0.373  0.000  0.000  0.005  0.000  0.000  0.000  0.000  0.379
tot    0.000  0.747  0.000  0.000  0.011  0.000  0.000  0.000  0.000  0.758
 
band    14 # energy   15.97662694 # occ.  0.00000000
 
ion      s     py     pz     px    dxy    dyz    dz2    dxz  x2-y2    tot
    1  0.000  0.000  0.373  0.000  0.000  0.000  0.000  0.005  0.000  0.379
    2  0.000  0.000  0.373  0.000  0.000  0.000  0.000  0.005  0.000  0.379
tot    0.000  0.000  0.747  0.000  0.000  0.000  0.000  0.011  0.000  0.758
 
band    15 # energy   21.59119053 # occ.  0.00000000
 
ion      s     py     pz     px    dxy    dyz    dz2    dxz  x2-y2    tot
    1  0.000  0.000  0.000  0.000  0.000  0.000  0.356  0.000  0.119  0.475
    2  0.000  0.000  0.000  0.000  0.000  0.000  0.356  0.000  0.119  0.475
tot    0.000  0.000  0.000  0.000  0.000  0.000  0.712  0.000  0.237  0.950
 
band    16 # energy   21.97875474 # occ.  0.00000000
 
ion      s     py     pz     px    dxy    dyz    dz2    dxz  x2-y2    tot
    1  0.003  0.000  0.000  0.012  0.000  0.000  0.112  0.000  0.337  0.465
    2  0.003  0.000  0.000  0.012  0.000  0.000  0.112  0.000  0.337  0.465
tot    0.006  0.000  0.000  0.025  0.000  0.000  0.224  0.000  0.673  0.929
 
band    17 # energy   26.96638360 # occ.  0.00000000
 
ion      s     py     pz     px    dxy    dyz    dz2    dxz  x2-y2    tot
    1  0.374  0.000  0.000  0.016  0.000  0.000  0.000  0.000  0.001  0.391
    2  0.374  0.000  0.000  0.016  0.000  0.000  0.000  0.000  0.001  0.391
tot    0.748  0.000  0.000  0.032  0.000  0.000  0.001  0.000  0.002  0.783
 
band    18 # energy   30.43103486 # occ.  0.00000000
 
ion      s     py     pz     px    dxy    dyz    dz2    dxz  x2-y2    tot
    1  0.000  0.000  0.000  0.000  0.000  0.000  0.038  0.000  0.013  0.051
    2  0.000  0.000  0.000  0.000  0.000  0.000  0.038  0.000  0.013  0.051
tot    0.000  0.000  0.000  0.000  0.000  0.000  0.076  0.000  0.025  0.102
 
band    19 # energy   30.87825412 # occ.  0.00000000
 
ion      s     py     pz     px    dxy    dyz    dz2    dxz  x2-y2    tot
    1  0.000  0.001  0.000  0.000  0.028  0.000  0.000  0.000  0.000  0.029
    2  0.000  0.001  0.000  0.000  0.028  0.000  0.000  0.000  0.000  0.029
tot    0.000  0.001  0.000  0.000  0.057  0.000  0.000  0.000  0.000  0.058
 
band    20 # energy   30.87825418 # occ.  0.00000000
 
ion      s     py     pz     px    dxy    dyz    dz2    dxz  x2-y2    tot
    1  0.000  0.000  0.001  0.000  0.000  0.000  0.000  0.028  0.000  0.029
    2  0.000  0.000  0.001  0.000  0.000  0.000  0.000  0.028  0.000  0.029
tot    0.000  0.000  0.001  0.000  0.000  0.000  0.000  0.057  0.000  0.058
 

 k-point     3 :    0.11764706 0.00000000 0.00000000     weight = 0.00122125

band     1 # energy   -2.30122420 # occ.  1.00000000
 
ion      s     py     pz     px    dxy    dyz    dz2    dxz  x2-y2    tot
    1  0.357  0.000  0.000  0.010  0.000  0.000  0.000  0.000  0.000  0.368
    2  0.357  0.000  0.000  0.010  0.000  0.000  0.000  0.000  0.000  0.368
tot    0.715  0.000  0.000  0.020  0.000  0.000  0.000  0.000  0.000  0.736
 
band     2 # energy    1.12588168 # occ.  1.00000000
 
ion      s     py     pz     px    dxy    dyz    dz2    dxz  x2-y2    tot
    1  0.000  0.000  0.000  0.000  0.000  0.000  0.329  0.000  0.110  0.439
    2  0.000  0.000  0.000  0.000  0.000  0.000  0.329  0.000  0.110  0.439
tot    0.000  0.000  0.000  0.000  0.000  0.000  0.658  0.000  0.219  0.878
 
band     3 # energy    1.12787395 # occ.  1.00000000
 
ion      s     py     pz     px    dxy    dyz    dz2    dxz  x2-y2    tot
    1  0.000  0.000  0.000  0.008  0.000  0.000  0.107  0.000  0.322  0.438
    2  0.000  0.000  0.000  0.008  0.000  0.000  0.107  0.000  0.322  0.438
tot    0.001  0.000  0.000  0.015  0.000  0.000  0.215  0.000  0.645  0.875
 
band     4 # energy    3.56620672 # occ.  1.00000000
 
ion      s     py     pz     px    dxy    dyz    dz2    dxz  x2-y2    tot
    1  0.000  0.001  0.000  0.000  0.487  0.000  0.000  0.000  0.000  0.488
    2  0.000  0.001  0.000  0.000  0.487  0.000  0.000  0.000  0.000  0.488
tot    0.000  0.002  0.000  0.000  0.975  0.000  0.000  0.000  0.000  0.977
 
band     5 # energy    3.56620757 # occ.  1.00000000
 
ion      s     py     pz     px    dxy    dyz    dz2    dxz  x2-y2    tot
    1  0.000  0.000  0.001  0.000  0.000  0.000  0.000  0.487  0.000  0.488
    2  0.000  0.000  0.001  0.000  0.000  0.000  0.000  0.487  0.000  0.488
tot    0.000  0.000  0.002  0.000  0.000  0.000  0.000  0.975  0.000  0.977
 
band     6 # energy    3.64611172 # occ.  1.00000000
 
ion      s     py     pz     px    dxy    dyz    dz2    dxz  x2-y2    tot
    1  0.000  0.000  0.000  0.000  0.000  0.489  0.000  0.000  0.000  0.489
    2  0.000  0.000  0.000  0.000  0.000  0.489  0.000  0.000  0.000  0.489
tot    0.000  0.000  0.000  0.000  0.000  0.978  0.000  0.000  0.000  0.978
 
band     7 # energy    4.65718094 # occ.  1.00000000
 
ion      s     py     pz     px    dxy    dyz    dz2    dxz  x2-y2    tot
    1  0.000  0.000  0.000  0.000  0.000  0.000  0.362  0.000  0.121  0.482
    2  0.000  0.000  0.000  0.000  0.000  0.000  0.362  0.000  0.121  0.482
tot    0.000  0.000  0.000  0.000  0.000  0.000  0.724  0.000  0.241  0.965
 
band     8 # energy    4.83600845 # occ.  1.00000000
 
ion      s     py     pz     px    dxy    dyz    dz2    dxz  x2-y2    tot
    1  0.000  0.000  0.000  0.000  0.000  0.000  0.122  0.000  0.365  0.486
    2  0.000  0.000  0.000  0.000  0.000  0.000  0.122  0.000  0.365  0.486
tot    0.000  0.000  0.000  0.000  0.000  0.000  0.243  0.000  0.729  0.972
 
band     9 # energy    5.76916476 # occ.  0.89978582
 
ion      s     py     pz     px    dxy    dyz    dz2    dxz  x2-y2    tot
    1  0.000  0.006  0.000  0.000  0.484  0.000  0.000  0.000  0.000  0.490
    2  0.000  0.006  0.000  0.000  0.484  0.000  0.000  0.000  0.000  0.490
tot    0.000  0.012  0.000  0.000  0.969  0.000  0.000  0.000  0.000  0.981
 
band    10 # energy    5.76916626 # occ.  0.89978212
 
ion      s     py     pz     px    dxy    dyz    dz2    dxz  x2-y2    tot
    1  0.000  0.000  0.006  0.000  0.000  0.000  0.000  0.484  0.000  0.490
    2  0.000  0.000  0.006  0.000  0.000  0.000  0.000  0.484  0.000  0.490
tot    0.000  0.000  0.012  0.000  0.000  0.000  0.000  0.969  0.000  0.981
 
band    11 # energy    5.91786102 # occ.  0.34519109
 
ion      s     py     pz     px    dxy    dyz    dz2    dxz  x2-y2    tot
    1  0.000  0.000  0.000  0.000  0.000  0.493  0.000  0.000  0.000  0.493
    2  0.000  0.000  0.000  0.000  0.000  0.493  0.000  0.000  0.000  0.493
tot    0.000  0.000  0.000  0.000  0.000  0.986  0.000  0.000  0.000  0.986
 
band    12 # energy   14.07500765 # occ.  0.00000000
 
ion      s     py     pz     px    dxy    dyz    dz2    dxz  x2-y2    tot
    1  0.038  0.000  0.000  0.299  0.000  0.000  0.015  0.000  0.044  0.397
    2  0.038  0.000  0.000  0.299  0.000  0.000  0.015  0.000  0.044  0.397
tot    0.077  0.000  0.000  0.598  0.000  0.000  0.030  0.000  0.089  0.794
 
band    13 # energy   16.37608785 # occ.  0.00000000
 
ion      s     py     pz     px    dxy    dyz    dz2    dxz  x2-y2    tot
    1  0.000  0.365  0.000  0.000  0.021  0.000  0.000  0.000  0.000  0.385
    2  0.000  0.365  0.000  0.000  0.021  0.000  0.000  0.000  0.000  0.385
tot    0.000  0.729  0.000  0.000  0.041  0.000  0.000  0.000  0.000  0.770
 
band    14 # energy   16.37608807 # occ.  0.00000000
 
ion      s     py     pz     px    dxy    dyz    dz2    dxz  x2-y2    tot
    1  0.000  0.000  0.365  0.000  0.000  0.000  0.000  0.021  0.000  0.385
    2  0.000  0.000  0.365  0.000  0.000  0.000  0.000  0.021  0.000  0.385
tot    0.000  0.000  0.729  0.000  0.000  0.000  0.000  0.041  0.000  0.770
 
band    15 # energy   21.65402720 # occ.  0.00000000
 
ion      s     py     pz     px    dxy    dyz    dz2    dxz  x2-y2    tot
    1  0.000  0.000  0.000  0.000  0.000  0.000  0.353  0.000  0.118  0.470
    2  0.000  0.000  0.000  0.000  0.000  0.000  0.353  0.000  0.118  0.470
tot    0.000  0.000  0.000  0.000  0.000  0.000  0.705  0.000  0.235  0.941
 
band    16 # energy   22.76345373 # occ.  0.00000000
 
ion      s     py     pz     px    dxy    dyz    dz2    dxz  x2-y2    tot
    1  0.032  0.000  0.000  0.014  0.000  0.000  0.098  0.000  0.294  0.439
    2  0.032  0.000  0.000  0.014  0.000  0.000  0.098  0.000  0.294  0.439
tot    0.064  0.000  0.000  0.028  0.000  0.000  0.196  0.000  0.589  0.878
 
band    17 # energy   27.73396669 # occ.  0.00000000
 
ion      s     py     pz     px    dxy    dyz    dz2    dxz  x2-y2    tot
    1  0.318  0.000  0.000  0.058  0.000  0.000  0.005  0.000  0.015  0.396
    2  0.318  0.000  0.000  0.058  0.000  0.000  0.005  0.000  0.015  0.396
tot    0.635  0.000  0.000  0.117  0.000  0.000  0.010  0.000  0.030  0.792
 
band    18 # energy   29.35516949 # occ.  0.00000000
 
ion      s     py     pz     px    dxy    dyz    dz2    dxz  x2-y2    tot
    1  0.000  0.000  0.000  0.000  0.000  0.000  0.093  0.000  0.031  0.124
    2  0.000  0.000  0.000  0.000  0.000  0.000  0.093  0.000  0.031  0.124
tot    0.000  0.000  0.000  0.000  0.000  0.000  0.186  0.000  0.062  0.247
 
band    19 # energy   30.62426097 # occ.  0.00000000
 
ion      s     py     pz     px    dxy    dyz    dz2    dxz  x2-y2    tot
    1  0.000  0.010  0.000  0.000  0.113  0.000  0.000  0.000  0.000  0.122
    2  0.000  0.010  0.000  0.000  0.113  0.000  0.000  0.000  0.000  0.122
tot    0.000  0.019  0.000  0.000  0.225  0.000  0.000  0.000  0.000  0.245
 
band    20 # energy   30.62426121 # occ.  0.00000000
 
ion      s     py     pz     px    dxy    dyz    dz2    dxz  x2-y2    tot
    1  0.000  0.000  0.010  0.000  0.000  0.000  0.000  0.113  0.000  0.122
    2  0.000  0.000  0.010  0.000  0.000  0.000  0.000  0.113  0.000  0.122
tot    0.000  0.000  0.019  0.000  0.000  0.000  0.000  0.225  0.000  0.245
 

 k-point     4 :    0.17647059 0.00000000 0.00000000     weight = 0.00122125

band     1 # energy   -1.95136466 # occ.  1.00000000
 
ion      s     py     pz     px    dxy    dyz    dz2    dxz  x2-y2    tot
    1  0.344  0.000  0.000  0.023  0.000  0.000  0.000  0.000  0.001  0.368
    2  0.344  0.000  0.000  0.023  0.000  0.000  0.000  0.000  0.001  0.368
tot    0.689  0.000  0.000  0.045  0.000  0.000  0.001  0.000  0.002  0.737
 
band     2 # energy    1.26630173 # occ.  1.00000000
 
ion      s     py     pz     px    dxy    dyz    dz2    dxz  x2-y2    tot
    1  0.002  0.000  0.000  0.017  0.000  0.000  0.105  0.000  0.314  0.437
    2  0.002  0.000  0.000  0.017  0.000  0.000  0.105  0.000  0.314  0.437
tot    0.003  0.000  0.000  0.034  0.000  0.000  0.209  0.000  0.627  0.874
 
band     3 # energy    1.27606481 # occ.  1.00000000
 
ion      s     py     pz     px    dxy    dyz    dz2    dxz  x2-y2    tot
    1  0.000  0.000  0.000  0.000  0.000  0.000  0.330  0.000  0.110  0.440
    2  0.000  0.000  0.000  0.000  0.000  0.000  0.330  0.000  0.110  0.440
tot    0.000  0.000  0.000  0.000  0.000  0.000  0.659  0.000  0.220  0.879
 
band     4 # energy    3.57099512 # occ.  1.00000000
 
ion      s     py     pz     px    dxy    dyz    dz2    dxz  x2-y2    tot
    1  0.000  0.002  0.000  0.000  0.485  0.000  0.000  0.000  0.000  0.487
    2  0.000  0.002  0.000  0.000  0.485  0.000  0.000  0.000  0.000  0.487
tot    0.000  0.005  0.000  0.000  0.969  0.000  0.000  0.000  0.000  0.974
 
band     5 # energy    3.57099597 # occ.  1.00000000
 
ion      s     py     pz     px    dxy    dyz    dz2    dxz  x2-y2    tot
    1  0.000  0.000  0.002  0.000  0.000  0.000  0.000  0.485  0.000  0.487
    2  0.000  0.000  0.002  0.000  0.000  0.000  0.000  0.485  0.000  0.487
tot    0.000  0.000  0.005  0.000  0.000  0.000  0.000  0.969  0.000  0.974
 
band     6 # energy    3.74239334 # occ.  1.00000000
 
ion      s     py     pz     px    dxy    dyz    dz2    dxz  x2-y2    tot
    1  0.000  0.000  0.000  0.000  0.000  0.489  0.000  0.000  0.000  0.489
    2  0.000  0.000  0.000  0.000  0.000  0.489  0.000  0.000  0.000  0.489
tot    0.000  0.000  0.000  0.000  0.000  0.977  0.000  0.000  0.000  0.977
 
band     7 # energy    4.50023507 # occ.  1.00000000
 
ion      s     py     pz     px    dxy    dyz    dz2    dxz  x2-y2    tot
    1  0.000  0.000  0.000  0.000  0.000  0.000  0.359  0.000  0.120  0.479
    2  0.000  0.000  0.000  0.000  0.000  0.000  0.359  0.000  0.120  0.479
tot    0.000  0.000  0.000  0.000  0.000  0.000  0.719  0.000  0.240  0.959
 
band     8 # energy    4.89735180 # occ.  1.00000000
 
ion      s     py     pz     px    dxy    dyz    dz2    dxz  x2-y2    tot
    1  0.001  0.000  0.000  0.000  0.000  0.000  0.122  0.000  0.365  0.487
    2  0.001  0.000  0.000  0.000  0.000  0.000  0.122  0.000  0.365  0.487
tot    0.002  0.000  0.000  0.000  0.000  0.000  0.243  0.000  0.729  0.975
 
band     9 # energy    5.51583758 # occ.  1.01353935
 
ion      s     py     pz     px    dxy    dyz    dz2    dxz  x2-y2    tot
    1  0.000  0.011  0.000  0.000  0.476  0.000  0.000  0.000  0.000  0.487
    2  0.000  0.011  0.000  0.000  0.476  0.000  0.000  0.000  0.000  0.487
tot    0.000  0.022  0.000  0.000  0.952  0.000  0.000  0.000  0.000  0.974
 
band    10 # energy    5.51583898 # occ.  1.01353961
 
ion      s     py     pz     px    dxy    dyz    dz2    dxz  x2-y2    tot
    1  0.000  0.000  0.011  0.000  0.000  0.000  0.000  0.476  0.000  0.487
    2  0.000  0.000  0.011  0.000  0.000  0.000  0.000  0.476  0.000  0.487
tot    0.000  0.000  0.022  0.000  0.000  0.000  0.000  0.952  0.000  0.974
 
band    11 # energy    5.81388517 # occ.  0.76551465
 
ion      s     py     pz     px    dxy    dyz    dz2    dxz  x2-y2    tot
    1  0.000  0.000  0.000  0.000  0.000  0.492  0.000  0.000  0.000  0.492
    2  0.000  0.000  0.000  0.000  0.000  0.492  0.000  0.000  0.000  0.492
tot    0.000  0.000  0.000  0.000  0.000  0.984  0.000  0.000  0.000  0.984
 
band    12 # energy   12.60597145 # occ.  0.00000000
 
ion      s     py     pz     px    dxy    dyz    dz2    dxz  x2-y2    tot
    1  0.065  0.000  0.000  0.257  0.000  0.000  0.021  0.000  0.063  0.406
    2  0.065  0.000  0.000  0.257  0.000  0.000  0.021  0.000  0.063  0.406
tot    0.129  0.000  0.000  0.514  0.000  0.000  0.042  0.000  0.127  0.812
 
band    13 # energy   17.00539362 # occ.  0.00000000
 
ion      s     py     pz     px    dxy    dyz    dz2    dxz  x2-y2    tot
    1  0.000  0.352  0.000  0.000  0.043  0.000  0.000  0.000  0.000  0.394
    2  0.000  0.352  0.000  0.000  0.043  0.000  0.000  0.000  0.000  0.394
tot    0.000  0.704  0.000  0.000  0.085  0.000  0.000  0.000  0.000  0.789
 
band    14 # energy   17.00539394 # occ.  0.00000000
 
ion      s     py     pz     px    dxy    dyz    dz2    dxz  x2-y2    tot
    1  0.000  0.000  0.352  0.000  0.000  0.000  0.000  0.043  0.000  0.394
    2  0.000  0.000  0.352  0.000  0.000  0.000  0.000  0.043  0.000  0.394
tot    0.000  0.000  0.704  0.000  0.000  0.000  0.000  0.085  0.000  0.789
 
band    15 # energy   21.76205368 # occ.  0.00000000
 
ion      s     py     pz     px    dxy    dyz    dz2    dxz  x2-y2    tot
    1  0.000  0.000  0.000  0.000  0.000  0.000  0.347  0.000  0.116  0.463
    2  0.000  0.000  0.000  0.000  0.000  0.000  0.347  0.000  0.116  0.463
tot    0.000  0.000  0.000  0.000  0.000  0.000  0.694  0.000  0.231  0.925
 
band    16 # energy   23.40859293 # occ.  0.00000000
 
ion      s     py     pz     px    dxy    dyz    dz2    dxz  x2-y2    tot
    1  0.085  0.000  0.000  0.003  0.000  0.000  0.080  0.000  0.239  0.406
    2  0.085  0.000  0.000  0.003  0.000  0.000  0.080  0.000  0.239  0.406
tot    0.169  0.000  0.000  0.005  0.000  0.000  0.159  0.000  0.478  0.813
 
band    17 # energy   28.17536353 # occ.  0.00000000
 
ion      s     py     pz     px    dxy    dyz    dz2    dxz  x2-y2    tot
    1  0.000  0.000  0.000  0.000  0.000  0.000  0.135  0.000  0.045  0.180
    2  0.000  0.000  0.000  0.000  0.000  0.000  0.135  0.000  0.045  0.180
tot    0.000  0.000  0.000  0.000  0.000  0.000  0.269  0.000  0.090  0.359
 
band    18 # energy   29.11433585 # occ.  0.00000000
 
ion      s     py     pz     px    dxy    dyz    dz2    dxz  x2-y2    tot
    1  0.234  0.000  0.000  0.105  0.000  0.000  0.016  0.000  0.049  0.405
    2  0.234  0.000  0.000  0.105  0.000  0.000  0.016  0.000  0.049  0.405
tot    0.469  0.000  0.000  0.211  0.000  0.000  0.033  0.000  0.098  0.811
 
band    19 # energy   30.02238728 # occ.  0.00000000
 
ion      s     py     pz     px    dxy    dyz    dz2    dxz  x2-y2    tot
    1  0.000  0.041  0.000  0.000  0.221  0.000  0.000  0.000  0.000  0.262
    2  0.000  0.041  0.000  0.000  0.221  0.000  0.000  0.000  0.000  0.262
tot    0.000  0.082  0.000  0.000  0.441  0.000  0.000  0.000  0.000  0.524
 
band    20 # energy   30.02238778 # occ.  0.00000000
 
ion      s     py     pz     px    dxy    dyz    dz2    dxz  x2-y2    tot
    1  0.000  0.000  0.041  0.000  0.000  0.000  0.000  0.221  0.000  0.262
    2  0.000  0.000  0.041  0.000  0.000  0.000  0.000  0.221  0.000  0.262
tot    0.000  0.000  0.082  0.000  0.000  0.000  0.000  0.441  0.000  0.524
 

 k-point     5 :    0.23529412 0.00000000 0.00000000     weight = 0.00122125

band     1 # energy   -1.47919814 # occ.  1.00000000
 
ion      s     py     pz     px    dxy    dyz    dz2    dxz  x2-y2    tot
    1  0.326  0.000  0.000  0.039  0.000  0.000  0.001  0.000  0.003  0.369
    2  0.326  0.000  0.000  0.039  0.000  0.000  0.001  0.000  0.003  0.369
tot    0.651  0.000  0.000  0.078  0.000  0.000  0.002  0.000  0.007  0.738
 
band     2 # energy    1.42669064 # occ.  1.00000000
 
ion      s     py     pz     px    dxy    dyz    dz2    dxz  x2-y2    tot
    1  0.006  0.000  0.000  0.030  0.000  0.000  0.100  0.000  0.300  0.435
    2  0.006  0.000  0.000  0.030  0.000  0.000  0.100  0.000  0.300  0.435
tot    0.011  0.000  0.000  0.059  0.000  0.000  0.200  0.000  0.600  0.870
 
band     3 # energy    1.48034231 # occ.  1.00000000
 