<?xml version="1.0" encoding="ISO-8859-1"?>
<modeling>
 <generator>
  <i name="program" type="string">vasp </i>
  <i name="version" type="string">6.2.0  </i>
  <i name="subversion" type="string">18Jan21 (build Aug 12 2022 13:00:08) complex                          parallel </i>
  <i name="platform" type="string">LinuxIFC </i>
  <i name="date" type="string">2024 11 04 </i>
  <i name="time" type="string">04:27:30 </i>
 </generator>
 <incar>
  <i type="int" name="ISTART">     0</i>
  <i type="string" name="PREC">Accurate      (Accurate strictly avoids</i>
  <i type="logical" name="ADDGRID"> T  </i>
  <i type="int" name="ISPIN">     2</i>
  <i type="int" name="NELM">    90</i>
  <i type="int" name="NELMIN">     6</i>
  <i type="int" name="IBRION">     2</i>
  <i name="EDIFF">      0.00000100</i>
  <i name="EDIFFG">     -0.00200000</i>
  <i type="int" name="NSW">   100</i>
  <i type="int" name="ISIF">     3</i>
  <i type="int" name="ISYM">     2</i>
  <i name="ENCUT">    350.00000000</i>
  <v name="MAGMOM">      5.00000000      5.00000000</v>
  <i type="logical" name="LREAL"> F  </i>
  <i type="int" name="ISMEAR">     1</i>
  <i name="SIGMA">      0.20000000</i>
  <i name="KSPACING">      0.13000000</i>
  <i type="int" name="LMAXMIX">     4</i>
  <i type="int" name="LORBIT">    11</i>
  <i type="logical" name="LASPH"> T  </i>
  <i type="logical" name="GGA_COMPAT"> F  </i>
  <i type="int" name="VOSKOWN">     1</i>
 </incar>
 <primitive_cell>
  <structure name="primitive_cell" >
   <crystal>
    <varray name="basis" >
     <v>       1.43151775       1.43151775      -1.43151775 </v>
     <v>      -1.43151775       1.43151775       1.43151775 </v>
     <v>       1.43151775      -1.43151775       1.43151775 </v>
    </varray>
    <i name="volume">     11.73411129 </i>
    <varray name="rec_basis" >
     <v>       0.34927964       0.34927964       0.00000000 </v>
     <v>       0.00000000       0.34927964       0.34927964 </v>
     <v>       0.34927964      -0.00000000       0.34927964 </v>
    </varray>
   </crystal>
   <varray name="positions" >
    <v>       0.00000000       0.00000000       0.00000000 </v>
   </varray>
  </structure>
  <varray name="primitive_index" >
   <v type="int" >        1 </v>
  </varray>
 </primitive_cell>
 <kpoints>
  <generation param="Gamma">
   <v type="int" name="divisions">      17       17       17 </v>
   <v name="usershift">      0.00000000       0.00000000       0.00000000 </v>
   <v name="genvec1">      0.05882353       0.00000000       0.00000000 </v>
   <v name="genvec2">      0.00000000       0.05882353       0.00000000 </v>
   <v name="genvec3">      0.00000000       0.00000000       0.05882353 </v>
   <v name="shift">      0.00000000       0.00000000       0.00000000 </v>
  </generation>
  <varray name="kpointlist" >
   <v>       0.00000000       0.00000000       0.00000000 </v>
   <v>       0.05882353      -0.00000000       0.00000000 </v>
   <v>       0.11764706       0.00000000       0.00000000 </v>
   <v>       0.17647059       0.00000000       0.00000000 </v>
   <v>       0.23529412       0.00000000       0.00000000 </v>
   <v>       0.29411765      -0.00000000       0.00000000 </v>
   <v>       0.35294118       0.00000000       0.00000000 </v>
   <v>       0.41176471       0.00000000       0.00000000 </v>
   <v>       0.47058824       0.00000000       0.00000000 </v>
   <v>       0.05882353       0.05882353       0.00000000 </v>
   <v>       0.11764706       0.05882353       0.00000000 </v>
   <v>       0.17647059       0.05882353       0.00000000 </v>
   <v>       0.23529412       0.05882353       0.00000000 </v>
   <v>       0.29411765       0.05882353       0.00000000 </v>
   <v>       0.35294118       0.05882353       0.00000000 </v>
   <v>       0.41176471       0.05882353       0.00000000 </v>
   <v>       0.47058824       0.05882353       0.00000000 </v>
   <v>       0.11764706       0.11764706       0.00000000 </v>
   <v>       0.17647059       0.11764706       0.00000000 </v>
   <v>       0.23529412       0.11764706       0.00000000 </v>
   <v>       0.29411765       0.11764706       0.00000000 </v>
   <v>       0.35294118       0.11764706       0.00000000 </v>
   <v>       0.41176471       0.11764706       0.00000000 </v>
   <v>       0.47058824       0.11764706       0.00000000 </v>
   <v>       0.17647059       0.17647059       0.00000000 </v>
   <v>       0.23529412       0.17647059       0.00000000 </v>
   <v>       0.29411765       0.17647059       0.00000000 </v>
   <v>       0.35294118       0.17647059       0.00000000 </v>
   <v>       0.41176471       0.17647059       0.00000000 </v>
   <v>       0.47058824       0.17647059       0.00000000 </v>
   <v>       0.23529412       0.23529412       0.00000000 </v>
   <v>       0.29411765       0.23529412       0.00000000 </v>
   <v>       0.35294118       0.23529412       0.00000000 </v>
   <v>       0.41176471       0.23529412       0.00000000 </v>
   <v>       0.47058824       0.23529412       0.00000000 </v>
   <v>       0.29411765       0.29411765       0.00000000 </v>
   <v>       0.35294118       0.29411765       0.00000000 </v>
   <v>       0.41176471       0.29411765       0.00000000 </v>
   <v>       0.47058824       0.29411765       0.00000000 </v>
   <v>       0.35294118       0.35294118       0.00000000 </v>
   <v>       0.41176471       0.35294118       0.00000000 </v>
   <v>       0.47058824       0.35294118       0.00000000 </v>
   <v>       0.41176471       0.41176471       0.00000000 </v>
   <v>       0.47058824       0.41176471       0.00000000 </v>
   <v>       0.47058824       0.47058824       0.00000000 </v>
   <v>       0.05882353       0.05882353       0.05882353 </v>
   <v>       0.11764706       0.05882353       0.05882353 </v>
   <v>       0.17647059       0.05882353       0.05882353 </v>
   <v>       0.23529412       0.05882353       0.05882353 </v>
   <v>       0.29411765       0.05882353       0.05882353 </v>
   <v>       0.35294118       0.05882353       0.05882353 </v>
   <v>       0.41176471       0.05882353       0.05882353 </v>
   <v>       0.47058824       0.05882353       0.05882353 </v>
   <v>       0.11764706       0.11764706       0.05882353 </v>
   <v>       0.17647059       0.11764706       0.05882353 </v>
   <v>       0.23529412       0.11764706       0.05882353 </v>
   <v>       0.29411765       0.11764706       0.05882353 </v>
   <v>       0.35294118       0.11764706       0.05882353 </v>
   <v>       0.41176471       0.11764706       0.05882353 </v>
   <v>       0.47058824       0.11764706       0.05882353 </v>
   <v>       0.17647059       0.17647059       0.05882353 </v>
   <v>       0.23529412       0.17647059       0.05882353 </v>
   <v>       0.29411765       0.17647059       0.05882353 </v>
   <v>       0.35294118       0.17647059       0.05882353 </v>
   <v>       0.41176471       0.17647059       0.05882353 </v>
   <v>       0.47058824       0.17647059       0.05882353 </v>
   <v>       0.23529412       0.23529412       0.05882353 </v>
   <v>       0.29411765       0.23529412       0.05882353 </v>
   <v>       0.35294118       0.23529412       0.05882353 </v>
   <v>       0.41176471       0.23529412       0.05882353 </v>
   <v>       0.47058824       0.23529412       0.05882353 </v>
   <v>       0.29411765       0.29411765       0.05882353 </v>
   <v>       0.35294118       0.29411765       0.05882353 </v>
   <v>       0.41176471       0.29411765       0.05882353 </v>
   <v>       0.47058824       0.29411765       0.05882353 </v>
   <v>       0.35294118       0.35294118       0.05882353 </v>
   <v>       0.41176471       0.35294118       0.05882353 </v>
   <v>       0.47058824       0.35294118       0.05882353 </v>
   <v>       0.41176471       0.41176471       0.05882353 </v>
   <v>       0.47058824       0.41176471       0.05882353 </v>
   <v>       0.47058824       0.47058824       0.05882353 </v>
   <v>       0.11764706       0.11764706       0.11764706 </v>
   <v>       0.17647059       0.11764706       0.11764706 </v>
   <v>       0.23529412       0.11764706       0.11764706 </v>
   <v>       0.29411765       0.11764706       0.11764706 </v>
   <v>       0.35294118       0.11764706       0.11764706 </v>
   <v>       0.41176471       0.11764706       0.11764706 </v>
   <v>       0.47058824       0.11764706       0.11764706 </v>
   <v>       0.17647059       0.17647059       0.11764706 </v>
   <v>       0.23529412       0.17647059       0.11764706 </v>
   <v>       0.29411765       0.17647059       0.11764706 </v>
   <v>       0.35294118       0.17647059       0.11764706 </v>
   <v>       0.41176471       0.17647059       0.11764706 </v>
   <v>       0.47058824       0.17647059       0.11764706 </v>
   <v>       0.23529412       0.23529412       0.11764706 </v>
   <v>       0.29411765       0.23529412       0.11764706 </v>
   <v>       0.35294118       0.23529412       0.11764706 </v>
   <v>       0.41176471       0.23529412       0.11764706 </v>
   <v>       0.47058824       0.23529412       0.11764706 </v>
   <v>       0.29411765       0.29411765       0.11764706 </v>
   <v>       0.35294118       0.29411765       0.11764706 </v>
   <v>       0.41176471       0.29411765       0.11764706 </v>
   <v>       0.47058824       0.29411765       0.11764706 </v>
   <v>       0.35294118       0.35294118       0.11764706 </v>
   <v>       0.41176471       0.35294118       0.11764706 </v>
   <v>       0.47058824       0.35294118       0.11764706 </v>
   <v>       0.41176471       0.41176471       0.11764706 </v>
   <v>       0.47058824       0.41176471       0.11764706 </v>
   <v>       0.47058824       0.47058824       0.11764706 </v>
   <v>       0.17647059       0.17647059       0.17647059 </v>
   <v>       0.23529412       0.17647059       0.17647059 </v>
   <v>       0.29411765       0.17647059       0.17647059 </v>
   <v>       0.35294118       0.17647059       0.17647059 </v>
   <v>       0.41176471       0.17647059       0.17647059 </v>
   <v>       0.47058824       0.17647059       0.17647059 </v>
   <v>       0.23529412       0.23529412       0.17647059 </v>
   <v>       0.29411765       0.23529412       0.17647059 </v>
   <v>       0.35294118       0.23529412       0.17647059 </v>
   <v>       0.41176471       0.23529412       0.17647059 </v>
   <v>       0.47058824       0.23529412       0.17647059 </v>
   <v>       0.29411765       0.29411765       0.17647059 </v>
   <v>       0.35294118       0.29411765       0.17647059 </v>
   <v>       0.41176471       0.29411765       0.17647059 </v>
   <v>       0.47058824       0.29411765       0.17647059 </v>
   <v>       0.35294118       0.35294118       0.17647059 </v>
   <v>       0.41176471       0.35294118       0.17647059 </v>
   <v>       0.47058824       0.35294118       0.17647059 </v>
   <v>       0.41176471       0.41176471       0.17647059 </v>
   <v>       0.47058824       0.41176471       0.17647059 </v>
   <v>       0.47058824       0.47058824       0.17647059 </v>
   <v>       0.23529412       0.23529412       0.23529412 </v>
   <v>       0.29411765       0.23529412       0.23529412 </v>
   <v>       0.35294118       0.23529412       0.23529412 </v>
   <v>       0.41176471       0.23529412       0.23529412 </v>
   <v>       0.47058824       0.23529412       0.23529412 </v>
   <v>       0.29411765       0.29411765       0.23529412 </v>
   <v>       0.35294118       0.29411765       0.23529412 </v>
   <v>       0.41176471       0.29411765       0.23529412 </v>
   <v>       0.47058824       0.29411765       0.23529412 </v>
   <v>       0.35294118       0.35294118       0.23529412 </v>
   <v>       0.41176471       0.35294118       0.23529412 </v>
   <v>       0.47058824       0.35294118       0.23529412 </v>
   <v>       0.41176471       0.41176471       0.23529412 </v>
   <v>       0.47058824       0.41176471       0.23529412 </v>
   <v>       0.47058824       0.47058824       0.23529412 </v>
   <v>       0.29411765       0.29411765       0.29411765 </v>
   <v>       0.35294118       0.29411765       0.29411765 </v>
   <v>       0.41176471       0.29411765       0.29411765 </v>
   <v>       0.47058824       0.29411765       0.29411765 </v>
   <v>       0.35294118       0.35294118       0.29411765 </v>
   <v>       0.41176471       0.35294118       0.29411765 </v>
   <v>       0.47058824       0.35294118       0.29411765 </v>
   <v>       0.41176471       0.41176471       0.29411765 </v>
   <v>       0.47058824       0.41176471       0.29411765 </v>
   <v>       0.47058824       0.47058824       0.29411765 </v>
   <v>       0.35294118       0.35294118       0.35294118 </v>
   <v>       0.41176471       0.35294118       0.35294118 </v>
   <v>       0.47058824       0.35294118       0.35294118 </v>
   <v>       0.41176471       0.41176471       0.35294118 </v>
   <v>       0.47058824       0.41176471       0.35294118 </v>
   <v>       0.47058824       0.47058824       0.35294118 </v>
   <v>       0.41176471       0.41176471       0.41176471 </v>
   <v>       0.47058824       0.41176471       0.41176471 </v>
   <v>       0.47058824       0.47058824       0.41176471 </v>
   <v>       0.47058824       0.47058824       0.47058824 </v>
  </varray>
  <varray name="weights" >
   <v>       0.00020354 </v>
   <v>       0.00122125 </v>
   <v>       0.00122125 </v>
   <v>       0.00122125 </v>
   <v>       0.00122125 </v>
   <v>       0.00122125 </v>
   <v>       0.00122125 </v>
   <v>       0.00122125 </v>
   <v>       0.00122125 </v>
   <v>       0.00244250 </v>
   <v>       0.00488500 </v>
   <v>       0.00488500 </v>
   <v>       0.00488500 </v>
   <v>       0.00488500 </v>
   <v>       0.00488500 </v>
   <v>       0.00488500 </v>
   <v>       0.00488500 </v>
   <v>       0.00244250 </v>
   <v>       0.00488500 </v>
   <v>       0.00488500 </v>
   <v>       0.00488500 </v>
   <v>       0.00488500 </v>
   <v>       0.00488500 </v>
   <v>       0.00488500 </v>
   <v>       0.00244250 </v>
   <v>       0.00488500 </v>
   <v>       0.00488500 </v>
   <v>       0.00488500 </v>
   <v>       0.00488500 </v>
   <v>       0.00488500 </v>
   <v>       0.00244250 </v>
   <v>       0.00488500 </v>
   <v>       0.00488500 </v>
   <v>       0.00488500 </v>
   <v>       0.00488500 </v>
   <v>       0.00244250 </v>
   <v>       0.00488500 </v>
   <v>       0.00488500 </v>
   <v>       0.00488500 </v>
   <v>       0.00244250 </v>
   <v>       0.00488500 </v>
   <v>       0.00488500 </v>
   <v>       0.00244250 </v>
   <v>       0.00488500 </v>
   <v>       0.00244250 </v>
   <v>       0.00162833 </v>
   <v>       0.00488500 </v>
   <v>       0.00488500 </v>
   <v>       0.00488500 </v>
   <v>       0.00488500 </v>
   <v>       0.00488500 </v>
   <v>       0.00488500 </v>
   <v>       0.00488500 </v>
   <v>       0.00488500 </v>
   <v>       0.00977000 </v>
   <v>       0.00977000 </v>
   <v>       0.00977000 </v>
   <v>       0.00977000 </v>
   <v>       0.00977000 </v>
   <v>       0.00977000 </v>
   <v>       0.00488500 </v>
   <v>       0.00977000 </v>
   <v>       0.00977000 </v>
   <v>       0.00977000 </v>
   <v>       0.00977000 </v>
   <v>       0.00977000 </v>
   <v>       0.00488500 </v>
   <v>       0.00977000 </v>
   <v>       0.00977000 </v>
   <v>       0.00977000 </v>
   <v>       0.00977000 </v>
   <v>       0.00488500 </v>
   <v>       0.00977000 </v>
   <v>       0.00977000 </v>
   <v>       0.00977000 </v>
   <v>       0.00488500 </v>
   <v>       0.00977000 </v>
   <v>       0.00977000 </v>
   <v>       0.00488500 </v>
   <v>       0.00977000 </v>
   <v>       0.00488500 </v>
   <v>       0.00162833 </v>
   <v>       0.00488500 </v>
   <v>       0.00488500 </v>
   <v>       0.00488500 </v>
   <v>       0.00488500 </v>
   <v>       0.00488500 </v>
   <v>       0.00488500 </v>
   <v>       0.00488500 </v>
   <v>       0.00977000 </v>
   <v>       0.00977000 </v>
   <v>       0.00977000 </v>
   <v>       0.00977000 </v>
   <v>       0.00977000 </v>
   <v>       0.00488500 </v>
   <v>       0.00977000 </v>
   <v>       0.00977000 </v>
   <v>       0.00977000 </v>
   <v>       0.00977000 </v>
   <v>       0.00488500 </v>
   <v>       0.00977000 </v>
   <v>       0.00977000 </v>
   <v>       0.00977000 </v>
   <v>       0.00488500 </v>
   <v>       0.00977000 </v>
   <v>       0.00977000 </v>
   <v>       0.00488500 </v>
   <v>       0.00977000 </v>
   <v>       0.00488500 </v>
   <v>       0.00162833 </v>
   <v>       0.00488500 </v>
   <v>       0.00488500 </v>
   <v>       0.00488500 </v>
   <v>       0.00488500 </v>
   <v>       0.00488500 </v>
   <v>       0.00488500 </v>
   <v>       0.00977000 </v>
   <v>       0.00977000 </v>
   <v>       0.00977000 </v>
   <v>       0.00977000 </v>
   <v>       0.00488500 </v>
   <v>       0.00977000 </v>
   <v>       0.00977000 </v>
   <v>       0.00977000 </v>
   <v>       0.00488500 </v>
   <v>       0.00977000 </v>
   <v>       0.00977000 </v>
   <v>       0.00488500 </v>
   <v>       0.00977000 </v>
   <v>       0.00488500 </v>
   <v>       0.00162833 </v>
   <v>       0.00488500 </v>
   <v>       0.00488500 </v>
   <v>       0.00488500 </v>
   <v>       0.00488500 </v>
   <v>       0.00488500 </v>
   <v>       0.00977000 </v>
   <v>       0.00977000 </v>
   <v>       0.00977000 </v>
   <v>       0.00488500 </v>
   <v>       0.00977000 </v>
   <v>       0.00977000 </v>
   <v>       0.00488500 </v>
   <v>       0.00977000 </v>
   <v>       0.00488500 </v>
   <v>       0.00162833 </v>
   <v>       0.00488500 </v>
   <v>       0.00488500 </v>
   <v>       0.00488500 </v>
   <v>       0.00488500 </v>
   <v>       0.00977000 </v>
   <v>       0.00977000 </v>
   <v>       0.00488500 </v>
   <v>       0.00977000 </v>
   <v>       0.00488500 </v>
   <v>       0.00162833 </v>
   <v>       0.00488500 </v>
   <v>       0.00488500 </v>
   <v>       0.00488500 </v>
   <v>       0.00977000 </v>
   <v>       0.00488500 </v>
   <v>       0.00162833 </v>
   <v>       0.00488500 </v>
   <v>       0.00488500 </v>
   <v>       0.00162833 </v>
  </varray>
 </kpoints>
 <parameters>
  <separator name="general" >
   <i type="string" name="SYSTEM">unknown system</i>
   <i type="logical" name="LCOMPAT"> F  </i>
  </separator>
  <separator name="electronic" >
   <i type="string" name="PREC">accura</i>
   <i name="ENMAX">    350.00000000</i>
   <i name="ENAUG">    511.36800000</i>
   <i name="EDIFF">      0.00000100</i>
   <i type="int" name="IALGO">    38</i>
   <i type="int" name="IWAVPR">    11</i>
   <i type="int" name="NBANDS">    20</i>
   <i type="int" name="NBANDSLOW">    -1</i>
   <i type="int" name="NBANDSHIGH">    -1</i>
   <i name="NELECT">     16.00000000</i>
   <i type="int" name="TURBO">     0</i>
   <i type="int" name="IRESTART">     0</i>
   <i type="int" name="NREBOOT">     0</i>
   <i type="int" name="NMIN">     0</i>
   <i name="EREF">      0.00000000</i>
   <separator name="electronic smearing" >
    <i type="int" name="ISMEAR">     1</i>
    <i name="SIGMA">      0.20000000</i>
    <i name="KSPACING">      0.13000000</i>
    <i type="logical" name="KGAMMA"> T  </i>
    <i type="logical" name="KBLOWUP"> T  </i>
   </separator>
   <separator name="electronic projectors" >
    <i type="logical" name="LREAL"> F  </i>
    <v name="ROPT">      0.00000000</v>
    <i type="int" name="LMAXPAW">  -100</i>
    <i type="int" name="LMAXMIX">     4</i>
    <i type="logical" name="NLSPLINE"> F  </i>
   </separator>
   <separator name="electronic startup" >
    <i type="int" name="ISTART">     0</i>
    <i type="int" name="ICHARG">     2</i>
    <i type="int" name="INIWAV">     1</i>
   </separator>
   <separator name="electronic spin" >
    <i type="int" name="ISPIN">     2</i>
    <i type="logical" name="LNONCOLLINEAR"> F  </i>
    <v name="MAGMOM">      5.00000000      5.00000000</v>
    <i name="NUPDOWN">     -1.00000000</i>
    <i type="logical" name="LSORBIT"> F  </i>
    <v name="SAXIS">      0.00000000      0.00000000      1.00000000</v>
    <i type="logical" name="LSPIRAL"> F  </i>
    <v name="QSPIRAL">      0.00000000      0.00000000      0.00000000</v>
    <i type="logical" name="LZEROZ"> F  </i>
   </separator>
   <separator name="electronic exchange-correlation" >
    <i type="logical" name="LASPH"> T  </i>
    <i type="logical" name="LMETAGGA"> F  </i>
   </separator>
   <separator name="electronic convergence" >
    <i type="int" name="NELM">    90</i>
    <i type="int" name="NELMDL">    -5</i>
    <i type="int" name="NELMIN">     6</i>
    <i name="ENINI">    350.00000000</i>
    <separator name="electronic convergence detail" >
     <i type="logical" name="LDIAG"> T  </i>
     <i type="logical" name="LSUBROT"> F  </i>
     <i name="WEIMIN">      0.00100000</i>
     <i name="EBREAK">      0.00000001</i>
     <i name="DEPER">      0.30000000</i>
     <i type="int" name="NRMM">     4</i>
     <i name="TIME">      0.40000000</i>
    </separator>
   </separator>
   <separator name="electronic mixer" >
    <i name="AMIX">      0.40000000</i>
    <i name="BMIX">      1.00000000</i>
    <i name="AMIN">      0.10000000</i>
    <i name="AMIX_MAG">      1.60000000</i>
    <i name="BMIX_MAG">      1.00000000</i>
    <separator name="electronic mixer details" >
     <i type="int" name="IMIX">     4</i>
     <i type="logical" name="MIXFIRST"> F  </i>
     <i type="int" name="MAXMIX">   -45</i>
     <i name="WC">    100.00000000</i>
     <i type="int" name="INIMIX">     1</i>
     <i type="int" name="MIXPRE">     1</i>
     <i type="int" name="MREMOVE">     5</i>
    </separator>
   </separator>
   <separator name="electronic dipolcorrection" >
    <i type="logical" name="LDIPOL"> F  </i>
    <i type="logical" name="LMONO"> F  </i>
    <i type="int" name="IDIPOL">     0</i>
    <i name="EPSILON">      1.00000000</i>
    <v name="DIPOL">   -100.00000000   -100.00000000   -100.00000000</v>
    <i name="EFIELD">      0.00000000</i>
   </separator>
  </separator>
  <separator name="grids" >
   <i type="int" name="NGX">    18</i>
   <i type="int" name="NGY">    18</i>
   <i type="int" name="NGZ">    18</i>
   <i type="int" name="NGXF">    36</i>
   <i type="int" name="NGYF">    36</i>
   <i type="int" name="NGZF">    36</i>
   <i type="logical" name="ADDGRID"> T  </i>
  </separator>
  <separator name="ionic" >
   <i type="int" name="NSW">   100</i>
   <i type="int" name="IBRION">     2</i>
   <i type="int" name="MDALGO">     0</i>
   <i type="int" name="ISIF">     3</i>
   <i name="PSTRESS">      0.00000000</i>
   <i name="EDIFFG">     -0.00200000</i>
   <i type="int" name="NFREE">     1</i>
   <i name="POTIM">      0.50000000</i>
   <i name="SMASS">     -3.00000000</i>
   <i name="SCALEE">      1.00000000</i>
  </separator>
  <separator name="ionic md" >
   <i name="TEBEG">      0.00010000</i>
   <i name="TEEND">      0.00010000</i>
   <i type="int" name="NBLOCK">     1</i>
   <i type="int" name="KBLOCK">   100</i>
   <i type="int" name="NPACO">   256</i>
   <i name="APACO">     16.00000000</i>
  </separator>
  <separator name="symmetry" >
   <i type="int" name="ISYM">     2</i>
   <i name="SYMPREC">      0.00001000</i>
  </separator>
  <separator name="dos" >
   <i type="int" name="LORBIT">    11</i>
   <v name="RWIGS">     -1.00000000</v>
   <i type="int" name="NEDOS">   301</i>
   <i name="EMIN">     10.00000000</i>
   <i name="EMAX">    -10.00000000</i>
   <i name="EFERMI">      0.00000000</i>
  </separator>
  <separator name="writing" >
   <i type="int" name="NWRITE">     2</i>
   <i type="logical" name="LWAVE"> T  </i>
   <i type="logical" name="LDOWNSAMPLE"> F  </i>
   <i type="logical" name="LCHARG"> T  </i>
   <i type="logical" name="LPARD"> F  </i>
   <i type="logical" name="LVTOT"> F  </i>
   <i type="logical" name="LVHAR"> F  </i>
   <i type="logical" name="LELF"> F  </i>
   <i type="logical" name="LOPTICS"> F  </i>
   <v name="STM">      0.00000000      0.00000000      0.00000000      0.00000000      0.00000000      0.00000000      0.00000000</v>
  </separator>
  <separator name="performance" >
   <i type="int" name="NPAR">     4</i>
   <i type="int" name="NSIM">     4</i>
   <i type="int" name="NBLK">    -1</i>
   <i type="logical" name="LPLANE"> T  </i>
   <i type="logical" name="LSCALAPACK"> T  </i>
   <i type="logical" name="LSCAAWARE"> F  </i>
   <i type="logical" name="LSCALU"> F  </i>
   <i type="logical" name="LASYNC"> F  </i>
   <i type="logical" name="LORBITALREAL"> F  </i>
  </separator>
  <separator name="miscellaneous" >
   <i type="int" name="IDIOT">     3</i>
   <i type="int" name="PHON_NSTRUCT">    -1</i>
   <i type="logical" name="LMUSIC"> F  </i>
   <v name="POMASS">     55.84700000</v>
   <v name="DARWINR">      0.00000000</v>
   <v name="DARWINV">      1.00000000</v>
   <i type="logical" name="LCORR"> T  </i>
  </separator>
  <i type="logical" name="GGA_COMPAT"> F  </i>
  <i type="logical" name="LBERRY"> F  </i>
  <i type="int" name="ICORELEVEL">     0</i>
  <i type="logical" name="LDAU"> F  </i>
  <i type="int" name="I_CONSTRAINED_M">     0</i>
  <separator name="electronic exchange-correlation" >
   <i type="string" name="GGA">--</i>
   <i type="int" name="VOSKOWN">     1</i>
   <i type="logical" name="LHFCALC"> F  </i>
   <i type="string" name="PRECFOCK"></i>
   <i type="logical" name="LSYMGRAD"> F  </i>
   <i type="logical" name="LHFONE"> F  </i>
   <i type="logical" name="LRHFCALC"> F  </i>
   <i type="logical" name="LTHOMAS"> F  </i>
   <i type="logical" name="LMODELHF"> F  </i>
   <i type="logical" name="LFOCKACE"> F  </i>
   <i name="ENCUT4O">     -1.00000000</i>
   <i type="int" name="EXXOEP">     0</i>
   <i type="int" name="FOURORBIT">     0</i>
   <i name="AEXX">      0.00000000</i>
   <i name="HFALPHA">      0.00000000</i>
   <i name="MCALPHA">      0.00000000</i>
   <i name="ALDAX">      1.00000000</i>
   <i name="AGGAX">      1.00000000</i>
   <i name="ALDAC">      1.00000000</i>
   <i name="AGGAC">      1.00000000</i>
   <i type="int" name="NKREDX">     1</i>
   <i type="int" name="NKREDY">     1</i>
   <i type="int" name="NKREDZ">     1</i>
   <i type="logical" name="SHIFTRED"> F  </i>
   <i type="logical" name="ODDONLY"> F  </i>
   <i type="logical" name="EVENONLY"> F  </i>
   <i type="int" name="LMAXFOCK">     0</i>
   <i type="int" name="NMAXFOCKAE">     0</i>
   <i type="logical" name="LFOCKAEDFT"> F  </i>
   <i name="HFSCREEN">      0.00000000</i>
   <i name="HFSCREENC">      0.00000000</i>
   <i type="int" name="NBANDSGWLOW">     0</i>
  </separator>
  <separator name="vdW DFT" >
   <i type="logical" name="LUSE_VDW"> F  </i>
   <i name="Zab_VDW">     -0.84910000</i>
   <i name="PARAM1">      0.12340000</i>
   <i name="PARAM2">      1.00000000</i>
   <i name="PARAM3">      0.00000000</i>
  </separator>
  <separator name="model GW" >
   <i type="int" name="MODEL_GW">     0</i>
   <i name="MODEL_EPS0">      7.04046678</i>
   <i name="MODEL_ALPHA">      1.00000000</i>
  </separator>
  <separator name="linear response parameters" >
   <i type="logical" name="LEPSILON"> F  </i>
   <i type="logical" name="LRPA"> F  </i>
   <i type="logical" name="LNABLA"> F  </i>
   <i type="logical" name="LVEL"> F  </i>
   <i type="int" name="KINTER">     0</i>
   <i name="CSHIFT">      0.10000000</i>
   <i name="OMEGAMAX">     -1.00000000</i>
   <i name="DEG_THRESHOLD">      0.00200000</i>
   <i name="RTIME">     -0.10000000</i>
   <i name="WPLASMAI">      0.00000000</i>
   <v name="DFIELD">      0.00000000      0.00000000      0.00000000</v>
   <v name="WPLASMA">      0.00000000      0.00000000      0.00000000      0.00000000      0.00000000      0.00000000      0.00000000      0.00000000      0.00000000</v>
  </separator>
  <separator name="orbital magnetization" >
   <i type="logical" name="NUCIND"> F  </i>
   <v name="MAGPOS">      0.00000000      0.00000000      0.00000000</v>
   <i type="logical" name="LNICSALL"> T  </i>
   <i type="logical" name="ORBITALMAG"> F  </i>
   <i type="logical" name="LMAGBLOCH"> F  </i>
   <i type="logical" name="LCHIMAG"> F  </i>
   <i type="logical" name="LGAUGE"> T  </i>
   <i type="int" name="MAGATOM">     0</i>
   <v name="MAGDIPOL">      0.00000000      0.00000000      0.00000000</v>
   <v name="AVECCONST">      0.00000000      0.00000000      0.00000000</v>
  </separator>
  <separator name="response functions" >
   <i type="logical" name="LFINITE_TEMPERATURE"> F  </i>
   <i type="logical" name="LADDER"> F  </i>
   <i type="logical" name="LRPAFORCE"> F  </i>
   <i type="logical" name="LFXC"> F  </i>
   <i type="logical" name="LHARTREE"> T  </i>
   <i type="int" name="IBSE">     0</i>
   <v type="int" name="KPOINT">    -1     0     0     0</v>
   <i type="logical" name="LTCTC"> F  </i>
   <i type="logical" name="LTCTE"> F  </i>
   <i type="logical" name="LTETE"> F  </i>
   <i type="logical" name="LTRIPLET"> F  </i>
   <i type="logical" name="LFXCEPS"> F  </i>
   <i type="logical" name="LFXHEG"> F  </i>
   <i type="int" name="NATURALO">     2</i>
   <i type="logical" name="LHOLEGF"> F  </i>
   <i type="logical" name="L2ORDER"> F  </i>
   <i type="logical" name="LDMP1"> F  </i>
   <i type="logical" name="LMP2LT"> F  </i>
   <i type="logical" name="LSMP2LT"> F  </i>
   <i type="logical" name="LGWLF"> F  </i>
   <i name="ENCUTGW">     -2.00000000</i>
   <i name="ENCUTGWSOFT">     -2.00000000</i>
   <i name="ENCUTLF">     -1.00000000</i>
   <i type="logical" name="LESF_SPLINES"> F  </i>
   <i type="int" name="LMAXMP2">    -1</i>
   <i name="SCISSOR">      0.00000000</i>
   <i type="int" name="NOMEGA">     0</i>
   <i type="int" name="NOMEGAR">     0</i>
   <i type="int" name="NBANDSGW">    -1</i>
   <i type="int" name="NBANDSO">    -1</i>
   <i type="int" name="NBANDSV">    -1</i>
   <i type="int" name="NELM">    90</i>
   <i type="int" name="NELMHF">     1</i>
   <i type="int" name="DIM">     3</i>
   <i type="int" name="IESPILON">     4</i>
   <i type="int" name="ANTIRES">     0</i>
   <i name="OMEGAMAX">    -30.00000000</i>
   <i name="OMEGAMIN">    -30.00000000</i>
   <i name="OMEGATL">   -200.00000000</i>
   <i type="int" name="OMEGAGRID">     0</i>
   <i name="CSHIFT">     -0.10000000</i>
   <i type="logical" name="LSELFENERGY"> F  </i>
   <i type="logical" name="LSPECTRAL"> F  </i>
   <i type="logical" name="LSPECTRALGW"> F  </i>
   <i type="logical" name="LSINGLES"> F  </i>
   <i type="logical" name="LFERMIGW"> F  </i>
   <i type="logical" name="ODDONLYGW"> F  </i>
   <i type="logical" name="EVENONLYGW"> F  </i>
   <i type="int" name="NKREDLFX">     1</i>
   <i type="int" name="NKREDLFY">     1</i>
   <i type="int" name="NKREDLFZ">     1</i>
   <i type="int" name="MAXMEM">  2800</i>
   <i type="int" name="TELESCOPE">     0</i>
   <i type="int" name="NTAUPAR">    -1</i>
   <i type="int" name="NOMEGAPAR">    -1</i>
   <i name="DAMP_NEWTON">      0.80000001</i>
   <i name="LAMBDA">      1.00000000</i>
  </separator>
  <separator name="External order field" >
   <i name="OFIELD_KAPPA">      0.00000000</i>
   <v name="OFIELD_K">      0.00000000      0.00000000      0.00000000</v>
   <i name="OFIELD_Q6_NEAR">      0.00000000</i>
   <i name="OFIELD_Q6_FAR">      0.00000000</i>
   <i name="OFIELD_A">      0.00000000</i>
  </separator>
 </parameters>
 <atominfo>
  <atoms>       2 </atoms>
  <types>       1 </types>
  <array name="atoms" >
   <dimension dim="1">ion</dimension>
   <field type="string">element</field>
   <field type="int">atomtype</field>
   <set>
    <rc><c>Fe</c><c>   1</c></rc>
    <rc><c>Fe</c><c>   1</c></rc>
   </set>
  </array>
  <array name="atomtypes" >
   <dimension dim="1">type</dimension>
   <field type="int">atomspertype</field>
   <field type="string">element</field>
   <field>mass</field>
   <field>valence</field>
   <field type="string">pseudopotential</field>
   <set>
    <rc><c>   2</c><c>Fe</c><c>     55.84700000</c><c>      8.00000000</c><c>  PAW_PBE Fe 06Sep2000                  </c></rc>
   </set>
  </array>
 </atominfo>
 <structure name="initialpos" >
  <crystal>
   <varray name="basis" >
    <v>       2.86303550       0.00000000       0.00000000 </v>
    <v>       0.00000000       2.86303550       0.00000000 </v>
    <v>       0.00000000       0.00000000       2.86303550 </v>
   </varray>
   <i name="volume">     23.46822259 </i>
   <varray name="rec_basis" >
    <v>       0.34927964      -0.00000000       0.00000000 </v>
    <v>       0.00000000       0.34927964       0.00000000 </v>
    <v>      -0.00000000      -0.00000000       0.34927964 </v>
   </varray>
  </crystal>
  <varray name="positions" >
   <v>       0.00000000       0.00000000       0.00000000 </v>
   <v>       0.50000000       0.50000000       0.50000000 </v>
  </varray>
 </structure>
 <calculation>
  <scstep>
   <time name="dav">    5.28    5.29</time>
   <time name="total">    7.17    7.18</time>
   <energy>
    <i name="alphaZ">    117.79976220 </i>
    <i name="ewald">  -1171.43779597 </i>
    <i name="hartreedc">   -228.04061711 </i>
    <i name="XCdc">     14.27160946 </i>
    <i name="pawpsdc">   1103.49540010 </i>
    <i name="pawaedc">  -1119.11610375 </i>
    <i name="eentropy">      0.00125080 </i>
    <i name="bandstr">    156.73488422 </i>
    <i name="atom">   1188.58965621 </i>
    <i name="e_fr_energy">     62.29804616 </i>
    <i name="e_wo_entrp">     62.29679536 </i>
    <i name="e_0_energy">     62.29762923 </i>
   </energy>
  </scstep>
  <scstep>
   <time name="dav">    4.88    4.90</time>
   <time name="total">    4.89    4.91</time>
   <energy>
    <i name="e_fr_energy">    -13.45836333 </i>
    <i name="e_wo_entrp">    -13.45923469 </i>
    <i name="e_0_energy">    -13.45865378 </i>
   </energy>
  </scstep>
  <scstep>
   <time name="dav">    5.28    5.30</time>
   <time name="total">    5.29    5.31</time>
   <energy>
    <i name="e_fr_energy">    -16.06665623 </i>
    <i name="e_wo_entrp">    -16.06733843 </i>
    <i name="e_0_energy">    -16.06688363 </i>
   </energy>
  </scstep>
  <scstep>
   <time name="dav">    5.12    5.14</time>
   <time name="total">    5.14    5.16</time>
   <energy>
    <i name="e_fr_energy">    -16.08611700 </i>
    <i name="e_wo_entrp">    -16.08677749 </i>
    <i name="e_0_energy">    -16.08633716 </i>
   </energy>
  </scstep>
  <scstep>
   <time name="dav">    5.23    5.25</time>
   <time name="total">    5.55    5.57</time>
   <energy>
    <i name="e_fr_energy">    -16.08635756 </i>
    <i name="e_wo_entrp">    -16.08701795 </i>
    <i name="e_0_energy">    -16.08657769 </i>
   </energy>
  </scstep>
  <scstep>
   <time name="dav">    5.21    5.22</time>
   <time name="total">    7.08    7.10</time>
   <energy>
    <i name="e_fr_energy">    -16.56751808 </i>
    <i name="e_wo_entrp">    -16.56765935 </i>
    <i name="e_0_energy">    -16.56756517 </i>
   </energy>
  </scstep>
  <scstep>
   <time name="dav">    5.50    5.51</time>
   <time name="total">    7.39    7.42</time>
   <energy>
    <i name="e_fr_energy">    -16.50630323 </i>
    <i name="e_wo_entrp">    -16.50454823 </i>
    <i name="e_0_energy">    -16.50571823 </i>
   </energy>
  </scstep>
  <scstep>
   <time name="dav">    5.88    5.89</time>
   <time name="total">    7.76    7.78</time>
   <energy>
    <i name="e_fr_energy">    -16.48981418 </i>
    <i name="e_wo_entrp">    -16.48810604 </i>
    <i name="e_0_energy">    -16.48924480 </i>
   </energy>
  </scstep>
  <scstep>
   <time name="dav">    6.67    6.68</time>
   <time name="total">    8.55    8.58</time>
   <energy>
    <i name="e_fr_energy">    -16.47865137 </i>
    <i name="e_wo_entrp">    -16.47712544 </i>
    <i name="e_0_energy">    -16.47814273 </i>
   </energy>
  </scstep>
  <scstep>
   <time name="dav">    5.54    5.54</time>
   <time name="total">    7.43    7.45</time>
   <energy>
    <i name="e_fr_energy">    -16.47826521 </i>
    <i name="e_wo_entrp">    -16.47678463 </i>
    <i name="e_0_energy">    -16.47777168 </i>
   </energy>
  </scstep>
  <scstep>
   <time name="dav">    5.59    5.60</time>
   <time name="total">    7.48    7.51</time>
   <energy>
    <i name="e_fr_energy">    -16.47830076 </i>
    <i name="e_wo_entrp">    -16.47683491 </i>
    <i name="e_0_energy">    -16.47781214 </i>
   </energy>
  </scstep>
  <scstep>
   <time name="dav">    5.04    5.05</time>
   <time name="total">    6.92    6.94</time>
   <energy>
    <i name="e_fr_energy">    -16.47828945 </i>
    <i name="e_wo_entrp">    -16.47682961 </i>
    <i name="e_0_energy">    -16.47780284 </i>
   </energy>
  </scstep>
  <scstep>
   <time name="dav">    4.31    4.31</time>
   <time name="total">    6.18    6.20</time>
   <energy>
    <i name="e_fr_energy">    -16.47829046 </i>
    <i name="e_wo_entrp">    -16.47683175 </i>
    <i name="e_0_energy">    -16.47780422 </i>
   </energy>
  </scstep>
  <scstep>
   <time name="dav">    3.41    3.41</time>
   <time name="total">    5.03    5.05</time>
   <energy>
    <i name="alphaZ">    117.79976220 </i>
    <i name="ewald">  -1171.43779597 </i>
    <i name="hartreedc">   -195.16267167 </i>
    <i name="XCdc">      8.53434151 </i>
    <i name="pawpsdc">   1412.33438772 </i>
    <i name="pawaedc">  -1430.31159114 </i>
    <i name="eentropy">     -0.00146107 </i>
    <i name="bandstr">     53.17708246 </i>
    <i name="atom">   1188.58965621 </i>
    <i name="e_fr_energy">    -16.47828975 </i>
    <i name="e_wo_entrp">    -16.47682868 </i>
    <i name="e_0_energy">    -16.47780272 </i>
   </energy>
  </scstep>
  <structure>
   <crystal>
    <varray name="basis" >
     <v>       2.86303550       0.00000000       0.00000000 </v>
     <v>       0.00000000       2.86303550       0.00000000 </v>
     <v>       0.00000000       0.00000000       2.86303550 </v>
    </varray>
    <i name="volume">     23.46822259 </i>
    <varray name="rec_basis" >
     <v>       0.34927964      -0.00000000       0.00000000 </v>
     <v>       0.00000000       0.34927964       0.00000000 </v>
     <v>      -0.00000000      -0.00000000       0.34927964 </v>
    </varray>
   </crystal>
   <varray name="positions" >
    <v>       0.00000000       0.00000000       0.00000000 </v>
    <v>       0.50000000       0.50000000       0.50000000 </v>
   </varray>
  </structure>
  <varray name="forces" >
   <v>       0.00000000       0.00000000       0.00000000 </v>
   <v>      -0.00000000      -0.00000000      -0.00000000 </v>
  </varray>
  <varray name="stress" >
   <v>     -64.78627564      -0.00000000      -0.00000000 </v>
   <v>      -0.00000000     -64.78627564      -0.00000000 </v>
   <v>      -0.00000000      -0.00000000     -64.78627564 </v>
  </varray>
  <energy>
   <i name="e_fr_energy">    -16.47828975 </i>
   <i name="e_wo_entrp">    -16.47682868 </i>
   <i name="e_0_energy">    -16.47780272 </i>
  </energy>
  <time name="totalsc">   98.46   99.86</time>
 </calculation>
 <calculation>
  <scstep>
   <time name="dav">    5.16    5.17</time>
   <time name="total">    7.03    7.05</time>
   <energy>
    <i name="alphaZ">    126.27419381 </i>
    <i name="ewald">  -1198.88068252 </i>
    <i name="hartreedc">   -199.73582962 </i>
    <i name="XCdc">      9.89090693 </i>
    <i name="pawpsdc">   1412.30903057 </i>
    <i name="pawaedc">  -1430.28463740 </i>
    <i name="eentropy">     -0.00039034 </i>
    <i name="bandstr">     74.58956889 </i>
    <i name="atom">   1188.58965621 </i>
    <i name="e_fr_energy">    -17.24818346 </i>
    <i name="e_wo_entrp">    -17.24779312 </i>
    <i name="e_0_energy">    -17.24805335 </i>
   </energy>
  </scstep>
  <scstep>
   <time name="dav">    5.15    5.15</time>
   <time name="total">    7.02    7.05</time>
   <energy>
    <i name="e_fr_energy">    -16.53097776 </i>
    <i name="e_wo_entrp">    -16.53007055 </i>
    <i name="e_0_energy">    -16.53067535 </i>
   </energy>
  </scstep>
  <scstep>
   <time name="dav">    5.49    5.50</time>
   <time name="total">    7.36    7.39</time>
   <energy>
    <i name="e_fr_energy">    -16.49495518 </i>
    <i name="e_wo_entrp">    -16.49368970 </i>
    <i name="e_0_energy">    -16.49453335 </i>
   </energy>
  </scstep>
  <scstep>
   <time name="dav">    5.71    5.73</time>
   <time name="total">    7.58    7.62</time>
   <energy>
    <i name="e_fr_energy">    -16.48737971 </i>
    <i name="e_wo_entrp">    -16.48614606 </i>
    <i name="e_0_energy">    -16.48696849 </i>
   </energy>
  </scstep>
  <scstep>
   <time name="dav">    5.74    5.76</time>
   <time name="total">    7.61    7.65</time>
   <energy>
    <i name="e_fr_energy">    -16.48136251 </i>
    <i name="e_wo_entrp">    -16.48004054 </i>
    <i name="e_0_energy">    -16.48092185 </i>
   </energy>
  </scstep>
  <scstep>
   <time name="dav">    5.37    5.39</time>
   <time name="total">    7.24    7.28</time>
   <energy>
    <i name="e_fr_energy">    -16.48147019 </i>
    <i name="e_wo_entrp">    -16.48013173 </i>
    <i name="e_0_energy">    -16.48102404 </i>
   </energy>
  </scstep>
  <scstep>
   <time name="dav">    4.94    4.95</time>
   <time name="total">    6.81    6.84</time>
   <energy>
    <i name="e_fr_energy">    -16.48147746 </i>
    <i name="e_wo_entrp">    -16.48015491 </i>
    <i name="e_0_energy">    -16.48103661 </i>
   </energy>
  </scstep>
  <scstep>
   <time name="dav">    4.84    4.85</time>
   <time name="total">    6.71    6.74</time>
   <energy>
    <i name="e_fr_energy">    -16.48147438 </i>
    <i name="e_wo_entrp">    -16.48015216 </i>
    <i name="e_0_energy">    -16.48103364 </i>
   </energy>
  </scstep>
  <scstep>
   <time name="dav">    3.30    3.30</time>
   <time name="total">    4.90    4.92</time>
   <energy>
    <i name="alphaZ">    126.27419381 </i>
    <i name="ewald">  -1198.88068252 </i>
    <i name="hartreedc">   -184.43408774 </i>
    <i name="XCdc">      8.69852100 </i>
    <i name="pawpsdc">   1475.52739924 </i>
    <i name="pawaedc">  -1493.93014446 </i>
    <i name="eentropy">     -0.00132383 </i>
    <i name="bandstr">     61.67499483 </i>
    <i name="atom">   1188.58965621 </i>
    <i name="e_fr_energy">    -16.48147345 </i>
    <i name="e_wo_entrp">    -16.48014962 </i>
    <i name="e_0_energy">    -16.48103218 </i>
   </energy>
  </scstep>
  <structure>
   <crystal>
    <varray name="basis" >
     <v>       2.79749940      -0.00000000       0.00000000 </v>
     <v>       0.00000000       2.79749940       0.00000000 </v>
     <v>      -0.00000000      -0.00000000       2.79749940 </v>
    </varray>
    <i name="volume">     21.89323849 </i>
    <varray name="rec_basis" >
     <v>       0.35746210      -0.00000000       0.00000000 </v>
     <v>       0.00000000       0.35746210       0.00000000 </v>
     <v>      -0.00000000      -0.00000000       0.35746210 </v>
    </varray>
   </crystal>
   <varray name="positions" >
    <v>       0.00000000       0.00000000       0.00000000 </v>
    <v>       0.50000000       0.50000000       0.50000000 </v>
   </varray>
  </structure>
  <varray name="forces" >
   <v>       0.00000000      -0.00000000      -0.00000000 </v>
   <v>      -0.00000000       0.00000000       0.00000000 </v>
  </varray>
  <varray name="stress" >
   <v>      67.43250350       0.00000000       0.00000000 </v>
   <v>       0.00000000      67.43250350       0.00000000 </v>
   <v>       0.00000000       0.00000000      67.43250350 </v>
  </varray>
  <energy>
   <i name="e_fr_energy">    -16.48147345 </i>
   <i name="e_wo_entrp">    -16.48014962 </i>
   <i name="e_0_energy">    -16.48103218 </i>
  </energy>
  <time name="totalsc">   68.45   69.20</time>
 </calculation>
 <calculation>
  <scstep>
   <time name="dav">    5.14    5.20</time>
   <time name="total">    7.01    7.08</time>
   <energy>
    <i name="alphaZ">    122.22209952 </i>
    <i name="ewald">  -1185.91712628 </i>
    <i name="hartreedc">   -182.44289389 </i>
    <i name="XCdc">      8.07852382 </i>
    <i name="pawpsdc">   1475.55799852 </i>
    <i name="pawaedc">  -1493.95831174 </i>
    <i name="eentropy">     -0.00159706 </i>
    <i name="bandstr">     51.20314966 </i>
    <i name="atom">   1188.58965621 </i>
    <i name="e_fr_energy">    -16.66850125 </i>
    <i name="e_wo_entrp">    -16.66690419 </i>
    <i name="e_0_energy">    -16.66796890 </i>
   </energy>
  </scstep>
  <scstep>
   <time name="dav">    5.17    5.17</time>
   <time name="total">    7.04    7.06</time>
   <energy>
    <i name="e_fr_energy">    -16.51429003 </i>
    <i name="e_wo_entrp">    -16.51244140 </i>
    <i name="e_0_energy">    -16.51367382 </i>
   </energy>
  </scstep>
  <scstep>
   <time name="dav">    5.47    5.47</time>
   <time name="total">    7.33    7.36</time>
   <energy>
    <i name="e_fr_energy">    -16.49949234 </i>
    <i name="e_wo_entrp">    -16.49778385 </i>
    <i name="e_0_energy">    -16.49892284 </i>
   </energy>
  </scstep>
  <scstep>
   <time name="dav">    6.07    6.07</time>
   <time name="total">    7.94    7.97</time>
   <energy>
    <i name="e_fr_energy">    -16.49762990 </i>
    <i name="e_wo_entrp">    -16.49594591 </i>
    <i name="e_0_energy">    -16.49706857 </i>
   </energy>
  </scstep>
  <scstep>
   <time name="dav">    5.47    5.48</time>
   <time name="total">    7.34    7.37</time>
   <energy>
    <i name="e_fr_energy">    -16.49615821 </i>
    <i name="e_wo_entrp">    -16.49440782 </i>
    <i name="e_0_energy">    -16.49557474 </i>
   </energy>
  </scstep>
  <scstep>
   <time name="dav">    4.99    5.00</time>
   <time name="total">    6.86    6.88</time>
   <energy>
    <i name="e_fr_energy">    -16.49618310 </i>
    <i name="e_wo_entrp">    -16.49443324 </i>
    <i name="e_0_energy">    -16.49559982 </i>
   </energy>
  </scstep>
  <scstep>
   <time name="dav">    4.98    4.98</time>
   <time name="total">    6.85    6.87</time>
   <energy>
    <i name="e_fr_energy">    -16.49618877 </i>
    <i name="e_wo_entrp">    -16.49443762 </i>
    <i name="e_0_energy">    -16.49560505 </i>
   </energy>
  </scstep>
  <scstep>
   <time name="dav">    3.51    3.52</time>
   <time name="total">    5.38    5.41</time>
   <energy>
    <i name="e_fr_energy">    -16.49619177 </i>
    <i name="e_wo_entrp">    -16.49444142 </i>
    <i name="e_0_energy">    -16.49560832 </i>
   </energy>
  </scstep>
  <scstep>
   <time name="dav">    3.28    3.28</time>
   <time name="total">    4.87    4.89</time>
   <energy>
    <i name="alphaZ">    122.22209952 </i>
    <i name="ewald">  -1185.91712628 </i>
    <i name="hartreedc">   -189.42992493 </i>
    <i name="XCdc">      8.61789510 </i>
    <i name="pawpsdc">   1444.47633598 </i>
    <i name="pawaedc">  -1462.66425427 </i>
    <i name="eentropy">     -0.00175038 </i>
    <i name="bandstr">     57.61087724 </i>
    <i name="atom">   1188.58965621 </i>
    <i name="e_fr_energy">    -16.49619180 </i>
    <i name="e_wo_entrp">    -16.49444142 </i>
    <i name="e_0_energy">    -16.49560834 </i>
   </energy>
  </scstep>
  <structure>
   <crystal>
    <varray name="basis" >
     <v>       2.82807957      -0.00000000       0.00000000 </v>
     <v>       0.00000000       2.82807957       0.00000000 </v>
     <v>      -0.00000000      -0.00000000       2.82807957 </v>
    </varray>
    <i name="volume">     22.61907667 </i>
    <varray name="rec_basis" >
     <v>       0.35359684      -0.00000000       0.00000000 </v>
     <v>       0.00000000       0.35359684       0.00000000 </v>
     <v>      -0.00000000      -0.00000000       0.35359684 </v>
    </varray>
   </crystal>
   <varray name="positions" >
    <v>       0.00000000       0.00000000       0.00000000 </v>
    <v>       0.50000000       0.50000000       0.50000000 </v>
   </varray>
  </structure>
  <varray name="forces" >
   <v>      -0.00000000      -0.00000000      -0.00000000 </v>
   <v>       0.00000000       0.00000000       0.00000000 </v>
  </varray>
  <varray name="stress" >
   <v>      -0.19607450       0.00000000      -0.00000000 </v>
   <v>       0.00000000      -0.19607450       0.00000000 </v>
   <v>      -0.00000000       0.00000000      -0.19607450 </v>
  </varray>
  <energy>
   <i name="e_fr_energy">    -16.49619180 </i>
   <i name="e_wo_entrp">    -16.49444142 </i>
   <i name="e_0_energy">    -16.49560834 </i>
  </energy>
  <time name="totalsc">   67.09   69.04</time>
  <eigenvalues>
   <array>
    <dimension dim="1">band</dimension>
    <dimension dim="2">kpoint</dimension>
    <dimension dim="3">spin</dimension>
    <field>eigene</field>
    <field>occ</field>
    <set>
     <set comment="spin 1">
      <set comment="kpoint 1">
       <r>   -2.5880    1.0000 </r>
       <r>    1.0030    1.0000 </r>
       <r>    1.0030    1.0000 </r>
       <r>    3.5674    1.0000 </r>
       <r>    3.5674    1.0000 </r>
       <r>    3.5674    1.0000 </r>
       <r>    4.7857    1.0000 </r>
       <r>    4.7857    1.0000 </r>
       <r>    6.0032    0.0742 </r>
       <r>    6.0032    0.0742 </r>
       <r>    6.0032    0.0742 </r>
       <r>   15.8392    0.0000 </r>
       <r>   15.8392    0.0000 </r>
       <r>   15.8392    0.0000 </r>
       <r>   21.5702    0.0000 </r>
       <r>   21.5702    0.0000 </r>
       <r>   26.7347    0.0000 </r>
       <r>   30.9386    0.0000 </r>
       <r>   30.9386    0.0000 </r>
       <r>   30.9386    0.0000 </r>
      </set>
      <set comment="kpoint 2">
       <r>   -2.5157    1.0000 </r>
       <r>    1.0341    1.0000 </r>
       <r>    1.0355    1.0000 </r>
       <r>    3.5667    1.0000 </r>
       <r>    3.5667    1.0000 </r>
       <r>    3.5872    1.0000 </r>
       <r>    4.7533    1.0000 </r>
       <r>    4.7985    1.0000 </r>
       <r>    5.9418    0.2537 </r>
       <r>    5.9418    0.2537 </r>
       <r>    5.9818    0.1264 </r>
       <r>   15.3050    0.0000 </r>
       <r>   15.9766    0.0000 </r>
       <r>   15.9766    0.0000 </r>
       <r>   21.5912    0.0000 </r>
       <r>   21.9788    0.0000 </r>
       <r>   26.9664    0.0000 </r>
       <r>   30.4310    0.0000 </r>
       <r>   30.8783    0.0000 </r>
       <r>   30.8783    0.0000 </r>
      </set>
      <set comment="kpoint 3">
       <r>   -2.3012    1.0000 </r>
       <r>    1.1259    1.0000 </r>
       <r>    1.1279    1.0000 </r>
       <r>    3.5662    1.0000 </r>
       <r>    3.5662    1.0000 </r>
       <r>    3.6461    1.0000 </r>
       <r>    4.6572    1.0000 </r>
       <r>    4.8360    1.0000 </r>
       <r>    5.7692    0.8998 </r>
       <r>    5.7692    0.8998 </r>
       <r>    5.9179    0.3452 </r>
       <r>   14.0750    0.0000 </r>
       <r>   16.3761    0.0000 </r>
       <r>   16.3761    0.0000 </r>
       <r>   21.6540    0.0000 </r>
       <r>   22.7635    0.0000 </r>
       <r>   27.7340    0.0000 </r>
       <r>   29.3552    0.0000 </r>
       <r>   30.6243    0.0000 </r>
       <r>   30.6243    0.0000 </r>
      </set>
      <set comment="kpoint 4">
       <r>   -1.9514    1.0000 </r>
       <r>    1.2663    1.0000 </r>
       <r>    1.2761    1.0000 </r>
       <r>    3.5710    1.0000 </r>
       <r>    3.5710    1.0000 </r>
       <r>    3.7424    1.0000 </r>
       <r>    4.5002    1.0000 </r>
       <r>    4.8974    1.0000 </r>
       <r>    5.5158    1.0135 </r>
       <r>    5.5158    1.0135 </r>
       <r>    5.8139    0.7655 </r>
       <r>   12.6060    0.0000 </r>
       <r>   17.0054    0.0000 </r>
       <r>   17.0054    0.0000 </r>
       <r>   21.7621    0.0000 </r>
       <r>   23.4086    0.0000 </r>
       <r>   28.1754    0.0000 </r>
       <r>   29.1143    0.0000 </r>
       <r>   30.0224    0.0000 </r>
       <r>   30.0224    0.0000 </r>
      </set>
      <set comment="kpoint 5">
       <r>   -1.4792    1.0000 </r>
       <r>    1.4267    1.0000 </r>
       <r>    1.4803    1.0000 </r>
       <r>    3.5873    1.0000 </r>
       <r>    3.5873    1.0000 </r>
       <r>    3.8731    1.0000 </r>
       <r>    4.2873    1.0000 </r>
       <r>    4.9809    1.0000 </r>
       <r>    5.2180    1.0000 </r>
       <r>    5.2180    1.0000 </r>
       <r>    5.6738    1.0283 </r>
       <r>   11.1077   -0.0000 </r>
       <r>   17.8254    0.0000 </r>
       <r>   17.8254    0.0000 </r>
       <r>   21.9200    0.0000 </r>
       <r>   23.8397    0.0000 </r>
       <r>   27.0535    0.0000 </r>
       <r>   29.0356    0.0000 </r>
       <r>   29.0356    0.0000 </r>
       <r>   30.9652    0.0000 </r>
      </set>
      <set comment="kpoint 6">
       <r>   -0.9060    1.0000 </r>
       <r>    1.5734    1.0000 </r>
       <r>    1.7327    1.0000 </r>
       <r>    3.6233    1.0000 </r>
       <r>    3.6233    1.0000 </r>
       <r>    4.0252    1.0000 </r>
       <r>    4.0344    1.0000 </r>
       <r>    4.9079    1.0000 </r>
       <r>    4.9079    1.0000 </r>
       <r>    5.0905    1.0000 </r>
       <r>    5.5029    1.0113 </r>
       <r>    9.6780   -0.0000 </r>
       <r>   18.7992    0.0000 </r>
       <r>   18.7992    0.0000 </r>
       <r>   22.1344    0.0000 </r>
       <r>   24.1752    0.0000 </r>
       <r>   26.0403    0.0000 </r>
       <r>   27.7988    0.0000 </r>
       <r>   27.7988    0.0000 </r>
       <r>   29.5652    0.0000 </r>
      </set>
      <set comment="kpoint 7">
       <r>   -0.2661    1.0000 </r>
       <r>    1.6580    1.0000 </r>
       <r>    2.0254    1.0000 </r>
       <r>    3.6875    1.0000 </r>
       <r>    3.6875    1.0000 </r>
       <r>    3.7235    1.0000 </r>
       <r>    4.2212    1.0000 </r>
       <r>    4.6105    1.0000 </r>
       <r>    4.6105    1.0000 </r>
       <r>    5.2411    1.0000 </r>
       <r>    5.3074    1.0002 </r>
       <r>    8.3820   -0.0000 </r>
       <r>   19.8966    0.0000 </r>
       <r>   19.8966    0.0000 </r>
       <r>   22.4137    0.0000 </r>
       <r>   24.5247    0.0000 </r>
       <r>   25.1519    0.0000 </r>
       <r>   26.4499    0.0000 </r>
       <r>   26.4499    0.0000 </r>
       <r>   28.2990    0.0000 </r>
      </set>
      <set comment="kpoint 8">
       <r>    0.3856    1.0000 </r>
       <r>    1.6190    1.0000 </r>
       <r>    2.3492    1.0000 </r>
       <r>    3.3927    1.0000 </r>
       <r>    3.7872    1.0000 </r>
       <r>    3.7872    1.0000 </r>
       <r>    4.3422    1.0000 </r>
       <r>    4.3422    1.0000 </r>
       <r>    4.4276    1.0000 </r>
       <r>    5.0944    1.0000 </r>
       <r>    5.4685    1.0066 </r>
       <r>    7.2798   -0.0000 </r>
       <r>   21.0923    0.0000 </r>
       <r>   21.0923    0.0000 </r>
       <r>   22.7677    0.0000 </r>
       <r>   24.3882    0.0000 </r>
       <r>   24.9616    0.0000 </r>
       <r>   25.0685    0.0000 </r>
       <r>   25.0685    0.0000 </r>
       <r>   27.1967    0.0000 </r>
      </set>
      <set comment="kpoint 9">
       <r>    0.9693    1.0000 </r>
       <r>    1.3965    1.0000 </r>
       <r>    2.6932    1.0000 </r>
       <r>    3.0454    1.0000 </r>
       <r>    3.9283    1.0000 </r>
       <r>    3.9283    1.0000 </r>
       <r>    4.1134    1.0000 </r>
       <r>    4.1134    1.0000 </r>
       <r>    4.6470    1.0000 </r>
       <r>    4.8718    1.0000 </r>
       <r>    5.8372    0.6789 </r>
       <r>    6.4257   -0.0004 </r>
       <r>   22.3663    0.0000 </r>
       <r>   22.3663    0.0000 </r>
       <r>   23.2075    0.0000 </r>
       <r>   23.6984    0.0000 </r>
       <r>   23.6984    0.0000 </r>
       <r>   23.7445    0.0000 </r>
       <r>   25.5347    0.0000 </r>
       <r>   26.2749    0.0000 </r>
      </set>
      <set comment="kpoint 10">
       <r>   -2.4439    1.0000 </r>
       <r>    1.0646    1.0000 </r>
       <r>    1.0677    1.0000 </r>
       <r>    3.5278    1.0000 </r>
       <r>    3.5645    1.0000 </r>
       <r>    3.6450    1.0000 </r>
       <r>    4.7461    1.0000 </r>
       <r>    4.7888    1.0000 </r>
       <r>    5.8314    0.7013 </r>
       <r>    5.8801    0.5020 </r>
       <r>    6.0125    0.0550 </r>
       <r>   15.3177    0.0000 </r>
       <r>   15.5549    0.0000 </r>
       <r>   16.1107    0.0000 </r>
       <r>   21.8020    0.0000 </r>
       <r>   22.2233    0.0000 </r>
       <r>   27.1828    0.0000 </r>
       <r>   29.9859    0.0000 </r>
       <r>   30.7288    0.0000 </r>
       <r>   30.8366    0.0000 </r>
      </set>
      <set comment="kpoint 11">
       <r>   -2.2307    1.0000 </r>
       <r>    1.1535    1.0000 </r>
       <r>    1.1617    1.0000 </r>
       <r>    3.4962    1.0000 </r>
       <r>    3.5598    1.0000 </r>
       <r>    3.7348    1.0000 </r>
       <r>    4.6652    1.0000 </r>
       <r>    4.8194    1.0000 </r>
       <r>    5.6268    1.0352 </r>
       <r>    5.7080    1.0044 </r>
       <r>    5.9896    0.1061 </r>
       <r>   14.1691    0.0000 </r>
       <r>   15.8434    0.0000 </r>
       <r>   16.5012    0.0000 </r>
       <r>   21.9377    0.0000 </r>
       <r>   23.0054    0.0000 </r>
       <r>   27.9077    0.0000 </r>
       <r>   28.9140    0.0000 </r>
       <r>   30.4000    0.0000 </r>
       <r>   30.6332    0.0000 </r>
      </set>
      <set comment="kpoint 12">
       <r>   -1.8833    1.0000 </r>
       <r>    1.2932    1.0000 </r>
       <r>    1.3082    1.0000 </r>
       <r>    3.4801    1.0000 </r>
       <r>    3.5565    1.0000 </r>
       <r>    3.8510    1.0000 </r>
       <r>    4.5209    1.0000 </r>
       <r>    4.8814    1.0000 </r>
       <r>    5.3613    1.0007 </r>
       <r>    5.4568    1.0053 </r>
       <r>    5.9100    0.3768 </r>
       <r>   12.6983    0.0000 </r>
       <r>   16.4300    0.0000 </r>
       <r>   17.1186    0.0000 </r>
       <r>   22.0742    0.0000 </r>
       <r>   23.7114    0.0000 </r>
       <r>   27.6945    0.0000 </r>
       <r>   29.2378    0.0000 </r>
       <r>   29.7420    0.0000 </r>
       <r>   30.0801    0.0000 </r>
      </set>
      <set comment="kpoint 13">
       <r>   -1.4151    1.0000 </r>
       <r>    1.4555    1.0000 </r>
       <r>    1.5060    1.0000 </r>
       <r>    3.4825    1.0000 </r>
       <r>    3.5589    1.0000 </r>
       <r>    3.9941    1.0000 </r>
       <r>    4.3286    1.0000 </r>
       <r>    4.9663    1.0000 </r>
       <r>    5.0617    1.0000 </r>
       <r>    5.1644    1.0000 </r>
       <r>    5.7850    0.8577 </r>
       <r>   11.1958   -0.0000 </r>
       <r>   17.1897    0.0000 </r>
       <r>   17.9259    0.0000 </r>
       <r>   22.2625    0.0000 </r>
       <r>   24.2032    0.0000 </r>
       <r>   26.5002    0.0000 </r>
       <r>   28.7578    0.0000 </r>
       <r>   29.1084    0.0000 </r>
       <r>   31.0869    0.0000 </r>
      </set>
      <set comment="kpoint 14">
       <r>   -0.8477    1.0000 </r>
       <r>    1.6019    1.0000 </r>
       <r>    1.7517    1.0000 </r>
       <r>    3.5090    1.0000 </r>
       <r>    3.5617    1.0000 </r>
       <r>    4.1095    1.0000 </r>
       <r>    4.1629    1.0000 </r>
       <r>    4.7549    1.0000 </r>
       <r>    4.8653    1.0000 </r>
       <r>    5.0770    1.0000 </r>
       <r>    5.6235    1.0349 </r>
       <r>    9.7601   -0.0000 </r>
       <r>   18.0780    0.0000 </r>
       <r>   18.8880    0.0000 </r>
       <r>   22.5175    0.0000 </r>
       <r>   24.5986    0.0000 </r>
       <r>   25.3713    0.0000 </r>
       <r>   27.6177    0.0000 </r>
       <r>   27.8677    0.0000 </r>
       <r>   30.4493    0.0000 </r>
      </set>
      <set comment="kpoint 15">
       <r>   -0.2163    1.0000 </r>
       <r>    1.6837    1.0000 </r>
       <r>    2.0364    1.0000 </r>
       <r>    3.5124    1.0000 </r>
       <r>    3.5661    1.0000 </r>
       <r>    3.9322    1.0000 </r>
       <r>    4.3539    1.0000 </r>
       <r>    4.4622    1.0000 </r>
       <r>    4.5869    1.0000 </r>
       <r>    5.2295    1.0000 </r>
       <r>    5.4342    1.0035 </r>
       <r>    8.4542   -0.0000 </r>
       <r>   19.0567    0.0000 </r>
       <r>   19.9751    0.0000 </r>
       <r>   22.8540    0.0000 </r>
       <r>   24.2999    0.0000 </r>
       <r>   25.0140    0.0000 </r>
       <r>   26.4796    0.0000 </r>
       <r>   26.5131    0.0000 </r>
       <r>   29.1721    0.0000 </r>
      </set>
      <set comment="kpoint 16">
       <r>    0.4245    1.0000 </r>
       <r>    1.6409    1.0000 </r>
       <r>    2.3495    1.0000 </r>
       <r>    3.3096    1.0000 </r>
       <r>    3.6600    1.0000 </r>
       <r>    3.9127    1.0000 </r>
       <r>    4.1994    1.0000 </r>
       <r>    4.3477    1.0000 </r>
       <r>    4.5623    1.0000 </r>
       <r>    5.2255    1.0000 </r>
       <r>    5.4633    1.0060 </r>
       <r>    7.3357   -0.0000 </r>
       <r>   20.0918    0.0000 </r>
       <r>   21.1629    0.0000 </r>
       <r>   23.2571    0.0000 </r>
       <r>   23.2903    0.0000 </r>
       <r>   25.1291    0.0000 </r>
       <r>   25.4435    0.0000 </r>
       <r>   25.5273    0.0000 </r>
       <r>   28.0174    0.0000 </r>
      </set>
      <set comment="kpoint 17">
       <r>    0.9969    1.0000 </r>
       <r>    1.4176    1.0000 </r>
       <r>    2.6789    1.0000 </r>
       <r>    3.0081    1.0000 </r>
       <r>    3.7957    1.0000 </r>
       <r>    3.9757    1.0000 </r>
       <r>    4.0066    1.0000 </r>
       <r>    4.1548    1.0000 </r>
       <r>    4.7817    1.0000 </r>
       <r>    5.0053    1.0000 </r>
       <r>    5.8470    0.6400 </r>
       <r>    6.4587   -0.0002 </r>
       <r>   21.1521    0.0000 </r>
       <r>   22.2114    0.0000 </r>
       <r>   22.4305    0.0000 </r>
       <r>   23.7593    0.0000 </r>
       <r>   23.8513    0.0000 </r>
       <r>   24.5631    0.0000 </r>
       <r>   26.1869    0.0000 </r>
       <r>   27.0165    0.0000 </r>
      </set>
      <set comment="kpoint 18">
       <r>   -2.0217    1.0000 </r>
       <r>    1.2328    1.0000 </r>
       <r>    1.2611    1.0000 </r>
       <r>    3.4159    1.0000 </r>
       <r>    3.5426    1.0000 </r>
       <r>    3.8718    1.0000 </r>
       <r>    4.6580    1.0000 </r>
       <r>    4.7993    1.0000 </r>
       <r>    5.3751    1.0010 </r>
       <r>    5.5384    1.0181 </r>
       <r>    6.0386    0.0126 </r>
       <r>   14.1512    0.0000 </r>
       <r>   14.9440    0.0000 </r>
       <r>   16.8678    0.0000 </r>
       <r>   22.2521    0.0000 </r>
       <r>   23.7877    0.0000 </r>
       <r>   27.8322    0.0000 </r>
       <r>   28.5022    0.0000 </r>
       <r>   29.9822    0.0000 </r>
       <r>   30.5860    0.0000 </r>
      </set>
      <set comment="kpoint 19">
       <r>   -1.6821    1.0000 </r>
       <r>    1.3570    1.0000 </r>
       <r>    1.4151    1.0000 </r>
       <r>    3.3553    1.0000 </r>
       <r>    3.5210    1.0000 </r>
       <r>    4.0296    1.0000 </r>
       <r>    4.5693    1.0000 </r>
       <r>    4.8416    1.0000 </r>
       <r>    5.0795    1.0000 </r>
       <r>    5.2958    1.0001 </r>
       <r>    6.0234    0.0353 </r>
       <r>   12.9125    0.0000 </r>
       <r>   15.2295    0.0000 </r>
       <r>   17.4522    0.0000 </r>
       <r>   22.4470    0.0000 </r>
       <r>   24.6595    0.0000 </r>
       <r>   26.5504    0.0000 </r>
       <r>   29.3306    0.0000 </r>
       <r>   29.6595    0.0000 </r>
       <r>   30.2253    0.0000 </r>
      </set>
      <set comment="kpoint 20">
       <r>   -1.2264    1.0000 </r>
       <r>    1.5081    1.0000 </r>
       <r>    1.6108    1.0000 </r>
       <r>    3.3199    1.0000 </r>
       <r>    3.4980    1.0000 </r>
       <r>    4.2062    1.0000 </r>
       <r>    4.4277    1.0000 </r>
       <r>    4.7660    1.0000 </r>
       <r>    4.9256    1.0000 </r>
       <r>    5.0216    1.0000 </r>
       <r>    5.9493    0.2272 </r>
       <r>   11.4238    0.0000 </r>
       <r>   15.8906    0.0000 </r>
       <r>   18.2239    0.0000 </r>
       <r>   22.6461    0.0000 </r>
       <r>   25.2588    0.0000 </r>
       <r>   25.3287    0.0000 </r>
       <r>   28.4309    0.0000 </r>
       <r>   29.3238    0.0000 </r>
       <r>   31.3717    0.0000 </r>
      </set>
      <set comment="kpoint 21">
       <r>   -0.6782    1.0000 </r>
       <r>    1.6487    1.0000 </r>
       <r>    1.8411    1.0000 </r>
       <r>    3.3150    1.0000 </r>
       <r>    3.4637    1.0000 </r>
       <r>    4.2763    1.0000 </r>
       <r>    4.3999    1.0000 </r>
       <r>    4.4565    1.0000 </r>
       <r>    4.7558    1.0000 </r>
       <r>    5.0378    1.0000 </r>
       <r>    5.8264    0.7202 </r>
       <r>    9.9786   -0.0000 </r>
       <r>   16.6857    0.0000 </r>
       <r>   19.1524    0.0000 </r>
       <r>   22.8920    0.0000 </r>
       <r>   24.0093    0.0000 </r>
       <r>   25.8736    0.0000 </r>
       <r>   27.4189    0.0000 </r>
       <r>   28.0717    0.0000 </r>
       <r>   32.0489    0.0000 </r>
      </set>
      <set comment="kpoint 22">
       <r>   -0.0747    1.0000 </r>
       <r>    1.7227    1.0000 </r>
       <r>    2.1030    1.0000 </r>
       <r>    3.3465    1.0000 </r>
       <r>    3.3818    1.0000 </r>
       <r>    4.1677    1.0000 </r>
       <r>    4.1685    1.0000 </r>
       <r>    4.5310    1.0000 </r>
       <r>    4.6077    1.0000 </r>
       <r>    5.1949    1.0000 </r>
       <r>    5.6651    1.0314 </r>
       <r>    8.6490   -0.0000 </r>
       <r>   17.5696    0.0000 </r>
       <r>   20.2100    0.0000 </r>
       <r>   22.8128    0.0000 </r>
       <r>   23.2066    0.0000 </r>
       <r>   26.4201    0.0000 </r>
       <r>   26.4251    0.0000 </r>
       <r>   26.6995    0.0000 </r>
       <r>   30.8334    0.0000 </r>
      </set>
      <set comment="kpoint 23">
       <r>    0.5289    1.0000 </r>
       <r>    1.6724    1.0000 </r>
       <r>    2.3880    1.0000 </r>
       <r>    3.2125    1.0000 </r>
       <r>    3.4193    1.0000 </r>
       <r>    3.9146    1.0000 </r>
       <r>    4.1445    1.0000 </r>
       <r>    4.3666    1.0000 </r>
       <r>    4.8253    1.0000 </r>
       <r>    5.4472    1.0045 </r>
       <r>    5.4752    1.0073 </r>
       <r>    7.4892   -0.0000 </r>
       <r>   18.5190    0.0000 </r>
       <r>   21.3736    0.0000 </r>
       <r>   21.6675    0.0000 </r>
       <r>   23.6091    0.0000 </r>
       <r>   25.3078    0.0000 </r>
       <r>   25.5259    0.0000 </r>
       <r>   27.0477    0.0000 </r>
       <r>   29.7006    0.0000 </r>
      </set>
      <set comment="kpoint 24">
       <r>    1.0614    1.0000 </r>
       <r>    1.4546    1.0000 </r>
       <r>    2.6826    1.0000 </r>
       <r>    2.9669    1.0000 </r>
       <r>    3.5374    1.0000 </r>
       <r>    3.7028    1.0000 </r>
       <r>    4.1865    1.0000 </r>
       <r>    4.2589    1.0000 </r>
       <r>    5.0470    1.0000 </r>
       <r>    5.2663    1.0001 </r>
       <r>    5.8758    0.5202 </r>
       <r>    6.5523   -0.0000 </r>
       <r>   19.5213    0.0000 </r>
       <r>   20.5710    0.0000 </r>
       <r>   22.6231    0.0000 </r>
       <r>   23.9405    0.0000 </r>
       <r>   24.1197    0.0000 </r>
       <r>   24.7551    0.0000 </r>
       <r>   27.7970    0.0000 </r>
       <r>   28.6825    0.0000 </r>
      </set>
      <set comment="kpoint 25">
       <r>   -1.3570    1.0000 </r>
       <r>    1.4525    1.0000 </r>
       <r>    1.5827    1.0000 </r>
       <r>    3.2493    1.0000 </r>
       <r>    3.4797    1.0000 </r>
       <r>    4.2278    1.0000 </r>
       <r>    4.5951    1.0000 </r>
       <r>    4.7624    1.0000 </r>
       <r>    4.8185    1.0000 </r>
       <r>    5.0717    1.0000 </r>
       <r>    6.0782   -0.0238 </r>
       <r>   12.7831    0.0000 </r>
       <r>   14.3408    0.0000 </r>
       <r>   17.9900    0.0000 </r>
       <r>   22.6629    0.0000 </r>
       <r>   25.2028    0.0000 </r>
       <r>   25.8310    0.0000 </r>
       <r>   28.7852    0.0000 </r>
       <r>   30.2875    0.0000 </r>
       <r>   30.5223    0.0000 </r>
      </set>
      <set comment="kpoint 26">
       <r>   -0.9251    1.0000 </r>
       <r>    1.5641    1.0000 </r>
       <r>    1.7945    1.0000 </r>
       <r>    3.1718    1.0000 </r>
       <r>    3.4437    1.0000 </r>
       <r>    4.4387    1.0000 </r>
       <r>    4.4391    1.0000 </r>
       <r>    4.5395    1.0000 </r>
       <r>    4.8328    1.0000 </r>
       <r>    4.8716    1.0000 </r>
       <r>    6.0689   -0.0180 </r>
       <r>   11.6413    0.0000 </r>
       <r>   14.5874    0.0000 </r>
       <r>   18.7098    0.0000 </r>
       <r>   22.8514    0.0000 </r>
       <r>   23.8430    0.0000 </r>
       <r>   26.8095    0.0000 </r>
       <r>   28.0364    0.0000 </r>
       <r>   29.6690    0.0000 </r>
       <r>   31.9479    0.0000 </r>
      </set>
      <set comment="kpoint 27">
       <r>   -0.4143    1.0000 </r>
       <r>    1.6620    1.0000 </r>
       <r>    2.0335    1.0000 </r>
       <r>    3.1293    1.0000 </r>
       <r>    3.4091    1.0000 </r>
       <r>    4.1292    1.0000 </r>
       <r>    4.4513    1.0000 </r>
       <r>    4.6226    1.0000 </r>
       <r>    4.6588    1.0000 </r>
       <r>    4.9778    1.0000 </r>
       <r>    6.0010    0.0790 </r>
       <r>   10.2467   -0.0000 </r>
       <r>   15.2564    0.0000 </r>
       <r>   19.5869    0.0000 </r>
       <r>   22.5278    0.0000 </r>
       <r>   23.0711    0.0000 </r>
       <r>   27.1647    0.0000 </r>
       <r>   27.5697    0.0000 </r>
       <r>   28.4017    0.0000 </r>
       <r>   32.3222    0.0000 </r>
      </set>
      <set comment="kpoint 28">
       <r>    0.1339    1.0000 </r>
       <r>    1.7022    1.0000 </r>
       <r>    2.2861    1.0000 </r>
       <r>    3.1278    1.0000 </r>
       <r>    3.3486    1.0000 </r>
       <r>    3.8479    1.0000 </r>
       <r>    4.3924    1.0000 </r>
       <r>    4.4753    1.0000 </r>
       <r>    4.8843    1.0000 </r>
       <r>    5.1379    1.0000 </r>
       <r>    5.8833    0.4885 </r>
       <r>    8.9062   -0.0000 </r>
       <r>   16.0659    0.0000 </r>
       <r>   20.5978    0.0000 </r>
       <r>   21.2752    0.0000 </r>
       <r>   23.3510    0.0000 </r>
       <r>   26.2829    0.0000 </r>
       <r>   26.9977    0.0000 </r>
       <r>   28.2470    0.0000 </r>
       <r>   32.5204    0.0000 </r>
      </set>
      <set comment="kpoint 29">
       <r>    0.6634    1.0000 </r>
       <r>    1.6397    1.0000 </r>
       <r>    2.5450    1.0000 </r>
       <r>    3.1721    1.0000 </r>
       <r>    3.2259    1.0000 </r>
       <r>    3.6061    1.0000 </r>
       <r>    4.3830    1.0000 </r>
       <r>    4.4036    1.0000 </r>
       <r>    5.1101    1.0000 </r>
       <r>    5.4193    1.0026 </r>
       <r>    5.7259    0.9829 </r>
       <r>    7.7014   -0.0000 </r>
       <r>   16.9641    0.0000 </r>
       <r>   20.0917    0.0000 </r>
       <r>   21.7217    0.0000 </r>
       <r>   23.7142    0.0000 </r>
       <r>   25.4692    0.0000 </r>
       <r>   25.5961    0.0000 </r>
       <r>   28.9493    0.0000 </r>
       <r>   31.5456    0.0000 </r>
      </set>
      <set comment="kpoint 30">
       <r>    1.1150    1.0000 </r>
       <r>    1.4459    1.0000 </r>
       <r>    2.8001    1.0000 </r>
       <r>    3.0353    1.0000 </r>
       <r>    3.2659    1.0000 </r>
       <r>    3.4109    1.0000 </r>
       <r>    4.3881    1.0000 </r>
       <r>    4.3894    1.0000 </r>
       <r>    5.3307    1.0004 </r>
       <r>    5.5387    1.0182 </r>
       <r>    5.9204    0.3351 </r>
       <r>    6.6889   -0.0000 </r>
       <r>   17.9364    0.0000 </r>
       <r>   18.9788    0.0000 </r>
       <r>   22.9401    0.0000 </r>
       <r>   24.1802    0.0000 </r>
       <r>   24.2369    0.0000 </r>
       <r>   24.7639    0.0000 </r>
       <r>   29.7276    0.0000 </r>
       <r>   30.5972    0.0000 </r>
      </set>
      <set comment="kpoint 31">
       <r>   -0.5335    1.0000 </r>
       <r>    1.6161    1.0000 </r>
       <r>    2.0313    1.0000 </r>
       <r>    3.0533    1.0000 </r>
       <r>    3.4217    1.0000 </r>
       <r>    4.1135    1.0000 </r>
       <r>    4.6104    1.0000 </r>
       <r>    4.6482    1.0000 </r>
       <r>    4.6788    1.0000 </r>
       <r>    4.8473    1.0000 </r>
       <r>    6.1261   -0.0355 </r>
       <r>   11.3849    0.0000 </r>
       <r>   13.8840    0.0000 </r>
       <r>   19.3684    0.0000 </r>
       <r>   22.4314    0.0000 </r>
       <r>   23.0173    0.0000 </r>
       <r>   27.4808    0.0000 </r>
       <r>   28.1982    0.0000 </r>
       <r>   30.0078    0.0000 </r>
       <r>   30.5536    0.0000 </r>
      </set>
      <set comment="kpoint 32">
       <r>   -0.0863    1.0000 </r>
       <r>    1.6428    1.0000 </r>
       <r>    2.2981    1.0000 </r>
       <r>    2.9726    1.0000 </r>
       <r>    3.4367    1.0000 </r>
       <r>    3.8090    1.0000 </r>
       <r>    4.5115    1.0000 </r>
       <r>    4.6015    1.0000 </r>
       <r>    4.9114    1.0000 </r>
       <r>    4.9203    1.0000 </r>
       <r>    6.1199   -0.0353 </r>
       <r>   10.3734   -0.0000 </r>
       <r>   14.1000    0.0000 </r>
       <r>   20.1823    0.0000 </r>
       <r>   21.0758    0.0000 </r>
       <r>   23.2063    0.0000 </r>
       <r>   26.7899    0.0000 </r>
       <r>   28.8290    0.0000 </r>
       <r>   29.3021    0.0000 </r>
       <r>   30.8221    0.0000 </r>
      </set>
      <set comment="kpoint 33">
       <r>    0.3687    1.0000 </r>
       <r>    1.6201    1.0000 </r>
       <r>    2.5729    1.0000 </r>
       <r>    2.9365    1.0000 </r>
       <r>    3.4568    1.0000 </r>
       <r>    3.5388    1.0000 </r>
       <r>    4.4492    1.0000 </r>
       <r>    4.5864    1.0000 </r>
       <r>    5.0611    1.0000 </r>
       <r>    5.1580    1.0000 </r>
       <r>    6.0556   -0.0068 </r>
       <r>    9.1234   -0.0000 </r>
       <r>   14.7399    0.0000 </r>
       <r>   19.7960    0.0000 </r>
       <r>   21.1329    0.0000 </r>
       <r>   23.4501    0.0000 </r>
       <r>   26.0497    0.0000 </r>
       <r>   27.3799    0.0000 </r>
       <r>   30.1768    0.0000 </r>
       <r>   31.5120    0.0000 </r>
      </set>
      <set comment="kpoint 34">
       <r>    0.7807    1.0000 </r>
       <r>    1.5298    1.0000 </r>
       <r>    2.8386    1.0000 </r>
       <r>    2.9499    1.0000 </r>
       <r>    3.3129    1.0000 </r>
       <r>    3.4151    1.0000 </r>
       <r>    4.4604    1.0000 </r>
       <r>    4.5929    1.0000 </r>
       <r>    5.3781    1.0011 </r>
       <r>    5.3858    1.0013 </r>
       <r>    5.9410    0.2566 </r>
       <r>    7.9118   -0.0000 </r>
       <r>   15.5521    0.0000 </r>
       <r>   18.6001    0.0000 </r>
       <r>   22.2025    0.0000 </r>
       <r>   23.7717    0.0000 </r>
       <r>   25.3405    0.0000 </r>
       <r>   25.9761    0.0000 </r>
       <r>   30.9575    0.0000 </r>
       <r>   32.3058    0.0000 </r>
      </set>
      <set comment="kpoint 35">
       <r>    1.1153    1.0000 </r>
       <r>    1.3635    1.0000 </r>
       <r>    3.0164    1.0000 </r>
       <r>    3.0806    1.0000 </r>
       <r>    3.1377    1.0000 </r>
       <r>    3.2819    1.0000 </r>
       <r>    4.5155    1.0000 </r>
       <r>    4.5716    1.0000 </r>
       <r>    5.5974    1.0312 </r>
       <r>    5.7854    0.8566 </r>
       <r>    5.9727    0.1523 </r>
       <r>    6.8384   -0.0000 </r>
       <r>   16.4750    0.0000 </r>
       <r>   17.4924    0.0000 </r>
       <r>   23.3753    0.0000 </r>
       <r>   24.1888    0.0000 </r>
       <r>   24.6373    0.0000 </r>
       <r>   24.7126    0.0000 </r>
       <r>   31.7181    0.0000 </r>
       <r>   32.4531    0.0000 </r>
      </set>
      <set comment="kpoint 36">
       <r>    0.2620    1.0000 </r>
       <r>    1.5903    1.0000 </r>
       <r>    2.6034    1.0000 </r>
       <r>    2.8554    1.0000 </r>
       <r>    3.5150    1.0000 </r>
       <r>    3.5638    1.0000 </r>
       <r>    4.4557    1.0000 </r>
       <r>    4.6941    1.0000 </r>
       <r>    4.8836    1.0000 </r>
       <r>    5.1753    1.0000 </r>
       <r>    6.1760   -0.0287 </r>
       <r>   10.0206   -0.0000 </r>
       <r>   13.5838    0.0000 </r>
       <r>   19.6970    0.0000 </r>
       <r>   20.9269    0.0000 </r>
       <r>   23.3595    0.0000 </r>
       <r>   26.2936    0.0000 </r>
       <r>   28.9603    0.0000 </r>
       <r>   29.7779    0.0000 </r>
       <r>   30.8429    0.0000 </r>
      </set>
      <set comment="kpoint 37">
       <r>    0.5844    1.0000 </r>
       <r>    1.5029    1.0000 </r>
       <r>    2.7850    1.0000 </r>
       <r>    2.9202    1.0000 </r>
       <r>    3.2601    1.0000 </r>
       <r>    3.7403    1.0000 </r>
       <r>    4.4670    1.0000 </r>
       <r>    4.7320    1.0000 </r>
       <r>    4.9741    1.0000 </r>
       <r>    5.4166    1.0025 </r>
       <r>    6.1695   -0.0300 </r>
       <r>    9.1279   -0.0000 </r>
       <r>   13.7841    0.0000 </r>
       <r>   18.4096    0.0000 </r>
       <r>   21.8071    0.0000 </r>
       <r>   23.5604    0.0000 </r>
       <r>   25.7255    0.0000 </r>
       <r>   27.7459    0.0000 </r>
       <r>   30.2421    0.0000 </r>
       <r>   32.0557    0.0000 </r>
      </set>
      <set comment="kpoint 38">
       <r>    0.8526    1.0000 </r>
       <r>    1.3847    1.0000 </r>
       <r>    2.7671    1.0000 </r>
       <r>    3.0533    1.0000 </r>
       <r>    3.2228    1.0000 </r>
       <r>    3.8052    1.0000 </r>
       <r>    4.5342    1.0000 </r>
       <r>    4.7529    1.0000 </r>
       <r>    5.3211    1.0003 </r>
       <r>    5.6378    1.0354 </r>
       <r>    6.1052   -0.0336 </r>
       <r>    8.0313   -0.0000 </r>
       <r>   14.3865    0.0000 </r>
       <r>   17.2247    0.0000 </r>
       <r>   22.8086    0.0000 </r>
       <r>   23.8301    0.0000 </r>
       <r>   25.1524    0.0000 </r>
       <r>   26.4048    0.0000 </r>
       <r>   30.9979    0.0000 </r>
       <r>   32.9363    0.0000 </r>
      </set>
      <set comment="kpoint 39">
       <r>    1.0663    1.0000 </r>
       <r>    1.2397    1.0000 </r>
       <r>    2.8050    1.0000 </r>
       <r>    2.9006    1.0000 </r>
       <r>    3.4896    1.0000 </r>
       <r>    3.6984    1.0000 </r>
       <r>    4.6285    1.0000 </r>
       <r>    4.7130    1.0000 </r>
       <r>    5.8315    0.7009 </r>
       <r>    5.9899    0.1054 </r>
       <r>    6.0179    0.0448 </r>
       <r>    6.9563   -0.0000 </r>
       <r>   15.1970    0.0000 </r>
       <r>   16.1505    0.0000 </r>
       <r>   23.9177    0.0000 </r>
       <r>   24.1843    0.0000 </r>
       <r>   24.6283    0.0000 </r>
       <r>   25.1211    0.0000 </r>
       <r>   31.8604    0.0000 </r>
       <r>   32.8115    0.0000 </r>
      </set>
      <set comment="kpoint 40">
       <r>    0.7555    1.0000 </r>
       <r>    1.3712    1.0000 </r>
       <r>    2.6818    1.0000 </r>
       <r>    3.0241    1.0000 </r>
       <r>    3.2900    1.0000 </r>
       <r>    4.1549    1.0000 </r>
       <r>    4.5276    1.0000 </r>
       <r>    4.8324    1.0000 </r>
       <r>    4.9223    1.0000 </r>
       <r>    5.6521    1.0343 </r>
       <r>    6.2211   -0.0184 </r>
       <r>    8.7248   -0.0000 </r>
       <r>   13.4067    0.0000 </r>
       <r>   17.1360    0.0000 </r>
       <r>   22.6100    0.0000 </r>
       <r>   23.7085    0.0000 </r>
       <r>   25.3343    0.0000 </r>
       <r>   27.6551    0.0000 </r>
       <r>   29.6075    0.0000 </r>
       <r>   33.2012    0.0000 </r>
      </set>
      <set comment="kpoint 41">
       <r>    0.8873    1.0000 </r>
       <r>    1.2387    1.0000 </r>
       <r>    2.6328    1.0000 </r>
       <r>    2.8390    1.0000 </r>
       <r>    3.6477    1.0000 </r>
       <r>    4.3513    1.0000 </r>
       <r>    4.6189    1.0000 </r>
       <r>    4.8603    1.0000 </r>
       <r>    5.2541    1.0000 </r>
       <r>    5.8565    0.6009 </r>
       <r>    6.2108   -0.0207 </r>
       <r>    7.9378   -0.0000 </r>
       <r>   13.6017    0.0000 </r>
       <r>   15.9918    0.0000 </r>
       <r>   23.5289    0.0000 </r>
       <r>   23.9124    0.0000 </r>
       <r>   24.9190    0.0000 </r>
       <r>   26.7602    0.0000 </r>
       <r>   29.9539    0.0000 </r>
       <r>   32.6284    0.0000 </r>
      </set>
      <set comment="kpoint 42">
       <r>    1.0011    1.0000 </r>
       <r>    1.1151    1.0000 </r>
       <r>    2.6419    1.0000 </r>
       <r>    2.7107    1.0000 </r>
       <r>    3.9643    1.0000 </r>
       <r>    4.2156    1.0000 </r>
       <r>    4.7215    1.0000 </r>
       <r>    4.8099    1.0000 </r>
       <r>    6.0225    0.0369 </r>
[...]
       </set>
       <set comment="band 16">
        <r>  0.0000  0.0841  0.0000  0.0841  0.0000  0.1095  0.0000  0.1095  0.0011 </r>
        <r>  0.0000  0.0841  0.0000  0.0841  0.0000  0.1095  0.0000  0.1095  0.0011 </r>
       </set>
       <set comment="band 17">
        <r>  0.2439  0.0008  0.1221  0.0008  0.0237  0.0006  0.0057  0.0006  0.0000 </r>
        <r>  0.2439  0.0008  0.1221  0.0008  0.0237  0.0006  0.0057  0.0006  0.0000 </r>
       </set>
       <set comment="band 18">
        <r>  0.1571  0.0288  0.0933  0.0288  0.0241  0.0280  0.0031  0.0280  0.0000 </r>
        <r>  0.1571  0.0288  0.0933  0.0288  0.0241  0.0280  0.0031  0.0280  0.0000 </r>
       </set>
       <set comment="band 19">
        <r>  0.0003  0.0001  0.0036  0.0001  0.0033  0.0632  0.0196  0.0632  0.0000 </r>
        <r>  0.0003  0.0001  0.0036  0.0001  0.0033  0.0632  0.0196  0.0632  0.0000 </r>
       </set>
       <set comment="band 20">
        <r>  0.0000  0.0000  0.0000  0.0000  0.0000  0.0679  0.0000  0.0679  0.0008 </r>
        <r>  0.0000  0.0000  0.0000  0.0000  0.0000  0.0679  0.0000  0.0679  0.0008 </r>
       </set>
      </set>
      <set comment="kpoint 162">
       <set comment="band 1">
        <r>  0.0166  0.0092  0.0092  0.0092  0.1383  0.1382  0.0000  0.1382  0.0000 </r>
        <r>  0.0166  0.0092  0.0092  0.0092  0.1383  0.1382  0.0000  0.1382  0.0000 </r>
       </set>
       <set comment="band 2">
        <r>  0.0369  0.0406  0.0407  0.0406  0.0881  0.0878  0.0000  0.0878  0.0000 </r>
        <r>  0.0369  0.0406  0.0407  0.0406  0.0881  0.0878  0.0000  0.0878  0.0000 </r>
       </set>
       <set comment="band 3">
        <r>  0.0000  0.0076  0.0329  0.0090  0.2619  0.0712  0.0133  0.0603  0.0000 </r>
        <r>  0.0000  0.0076  0.0329  0.0090  0.2619  0.0712  0.0133  0.0603  0.0000 </r>
       </set>
       <set comment="band 4">
        <r>  0.0000  0.0254  0.0000  0.0240  0.0001  0.1912  0.0000  0.2020  0.0133 </r>
        <r>  0.0000  0.0254  0.0000  0.0240  0.0001  0.1912  0.0000  0.2020  0.0133 </r>
       </set>
       <set comment="band 5">
        <r>  0.0000  0.0155  0.0650  0.0170  0.2081  0.0545  0.0294  0.0497  0.0000 </r>
        <r>  0.0000  0.0155  0.0650  0.0170  0.2081  0.0545  0.0294  0.0497  0.0000 </r>
       </set>
       <set comment="band 6">
        <r>  0.0000  0.0495  0.0000  0.0480  0.0000  0.1537  0.0000  0.1585  0.0294 </r>
        <r>  0.0000  0.0495  0.0000  0.0480  0.0000  0.1537  0.0000  0.1585  0.0294 </r>
       </set>
       <set comment="band 7">
        <r>  0.0000  0.0001  0.0002  0.0000  0.0277  0.0051  0.4474  0.0090  0.0029 </r>
        <r>  0.0000  0.0001  0.0002  0.0000  0.0277  0.0051  0.4474  0.0090  0.0029 </r>
       </set>
       <set comment="band 8">
        <r>  0.0000  0.0001  0.0000  0.0002  0.0002  0.0228  0.0029  0.0189  0.4474 </r>
        <r>  0.0000  0.0001  0.0000  0.0002  0.0002  0.0228  0.0029  0.0189  0.4474 </r>
       </set>
       <set comment="band 9">
        <r>  0.0000  0.0000  0.0000  0.0000  0.0118  0.0022  0.4716  0.0039  0.0033 </r>
        <r>  0.0000  0.0000  0.0000  0.0000  0.0118  0.0022  0.4716  0.0039  0.0033 </r>
       </set>
       <set comment="band 10">
        <r>  0.0000  0.0000  0.0000  0.0000  0.0001  0.0097  0.0033  0.0080  0.4716 </r>
        <r>  0.0000  0.0000  0.0000  0.0000  0.0001  0.0097  0.0033  0.0080  0.4716 </r>
       </set>
       <set comment="band 11">
        <r>  0.0387  0.0394  0.0394  0.0394  0.0949  0.0949  0.0000  0.0949  0.0000 </r>
        <r>  0.0387  0.0394  0.0394  0.0394  0.0949  0.0949  0.0000  0.0949  0.0000 </r>
       </set>
       <set comment="band 12">
        <r>  0.0000  0.0287  0.1225  0.0326  0.1444  0.0384  0.0197  0.0338  0.0000 </r>
        <r>  0.0000  0.0287  0.1225  0.0326  0.1444  0.0384  0.0197  0.0338  0.0000 </r>
       </set>
       <set comment="band 13">
        <r>  0.0000  0.0938  0.0000  0.0899  0.0000  0.1060  0.0000  0.1106  0.0197 </r>
        <r>  0.0000  0.0938  0.0000  0.0899  0.0000  0.1060  0.0000  0.1106  0.0197 </r>
       </set>
       <set comment="band 14">
        <r>  0.2690  0.0055  0.0055  0.0055  0.0435  0.0435  0.0000  0.0435  0.0000 </r>
        <r>  0.2690  0.0055  0.0055  0.0055  0.0435  0.0435  0.0000  0.0435  0.0000 </r>
       </set>
       <set comment="band 15">
        <r>  0.0000  0.0252  0.1161  0.0330  0.1431  0.0407  0.0113  0.0311  0.0000 </r>
        <r>  0.0000  0.0252  0.1161  0.0330  0.1431  0.0407  0.0113  0.0311  0.0000 </r>
       </set>
       <set comment="band 16">
        <r>  0.0000  0.0910  0.0002  0.0832  0.0002  0.1025  0.0000  0.1122  0.0113 </r>
        <r>  0.0000  0.0910  0.0002  0.0832  0.0002  0.1025  0.0000  0.1122  0.0113 </r>
       </set>
       <set comment="band 17">
        <r>  0.3240  0.0258  0.0258  0.0258  0.0000  0.0000  0.0000  0.0000  0.0000 </r>
        <r>  0.3240  0.0258  0.0258  0.0258  0.0000  0.0000  0.0000  0.0000  0.0000 </r>
       </set>
       <set comment="band 18">
        <r>  0.1095  0.0559  0.0559  0.0559  0.0367  0.0367  0.0000  0.0367  0.0000 </r>
        <r>  0.1095  0.0559  0.0559  0.0559  0.0367  0.0367  0.0000  0.0367  0.0000 </r>
       </set>
       <set comment="band 19">
        <r>  0.0000  0.0093  0.0001  0.0071  0.0005  0.0231  0.0010  0.0300  0.0802 </r>
        <r>  0.0000  0.0093  0.0001  0.0071  0.0005  0.0231  0.0010  0.0300  0.0802 </r>
       </set>
       <set comment="band 20">
        <r>  0.0000  0.0018  0.0109  0.0039  0.0352  0.0126  0.0802  0.0057  0.0010 </r>
        <r>  0.0000  0.0018  0.0109  0.0039  0.0352  0.0126  0.0802  0.0057  0.0010 </r>
       </set>
      </set>
      <set comment="kpoint 163">
       <set comment="band 1">
        <r>  0.0134  0.0183  0.0183  0.0036  0.1540  0.0913  0.0006  0.1539  0.0019 </r>
        <r>  0.0134  0.0183  0.0183  0.0036  0.1540  0.0913  0.0006  0.1539  0.0019 </r>
       </set>
       <set comment="band 2">
        <r>  0.0131  0.0284  0.0284  0.0011  0.1556  0.0617  0.0015  0.1554  0.0045 </r>
        <r>  0.0131  0.0284  0.0284  0.0011  0.1556  0.0617  0.0015  0.1554  0.0045 </r>
       </set>
       <set comment="band 3">
        <r>  0.0000  0.0320  0.0320  0.0000  0.1847  0.0000  0.0130  0.1848  0.0043 </r>
        <r>  0.0000  0.0320  0.0320  0.0000  0.1847  0.0000  0.0130  0.1848  0.0043 </r>
       </set>
       <set comment="band 4">
        <r>  0.0000  0.0400  0.0400  0.0000  0.1713  0.0000  0.0169  0.1713  0.0056 </r>
        <r>  0.0000  0.0400  0.0400  0.0000  0.1713  0.0000  0.0169  0.1713  0.0056 </r>
       </set>
       <set comment="band 5">
        <r>  0.0092  0.0118  0.0118  0.0789  0.0116  0.3023  0.0000  0.0116  0.0001 </r>
        <r>  0.0092  0.0118  0.0118  0.0789  0.0116  0.3023  0.0000  0.0116  0.0001 </r>
       </set>
       <set comment="band 6">
        <r>  0.0019  0.0141  0.0141  0.0765  0.0254  0.2715  0.0023  0.0254  0.0069 </r>
        <r>  0.0019  0.0141  0.0141  0.0765  0.0254  0.2715  0.0023  0.0254  0.0069 </r>
       </set>
       <set comment="band 7">
        <r>  0.0000  0.0001  0.0001  0.0000  0.0157  0.0000  0.3465  0.0157  0.1147 </r>
        <r>  0.0000  0.0001  0.0001  0.0000  0.0157  0.0000  0.3465  0.0157  0.1147 </r>
       </set>
       <set comment="band 8">
        <r>  0.0000  0.0000  0.0000  0.0000  0.0119  0.0000  0.3524  0.0118  0.1166 </r>
        <r>  0.0000  0.0000  0.0000  0.0000  0.0119  0.0000  0.3524  0.0118  0.1166 </r>
       </set>
       <set comment="band 9">
        <r>  0.0000  0.0000  0.0000  0.0001  0.0056  0.0061  0.1183  0.0056  0.3575 </r>
        <r>  0.0000  0.0000  0.0000  0.0001  0.0056  0.0061  0.1183  0.0056  0.3575 </r>
       </set>
       <set comment="band 10">
        <r>  0.0000  0.0000  0.0000  0.0000  0.0041  0.0003  0.1205  0.0042  0.3642 </r>
        <r>  0.0000  0.0000  0.0000  0.0000  0.0041  0.0003  0.1205  0.0042  0.3642 </r>
       </set>
       <set comment="band 11">
        <r>  0.0330  0.0373  0.0373  0.0632  0.0780  0.1048  0.0004  0.0780  0.0012 </r>
        <r>  0.0330  0.0373  0.0373  0.0632  0.0780  0.1048  0.0004  0.0780  0.0012 </r>
       </set>
       <set comment="band 12">
        <r>  0.0164  0.0351  0.0351  0.0937  0.0597  0.1172  0.0020  0.0597  0.0059 </r>
        <r>  0.0164  0.0351  0.0351  0.0937  0.0597  0.1172  0.0020  0.0597  0.0059 </r>
       </set>
       <set comment="band 13">
        <r>  0.0000  0.0917  0.0917  0.0000  0.1078  0.0000  0.0120  0.1078  0.0040 </r>
        <r>  0.0000  0.0917  0.0917  0.0000  0.1078  0.0000  0.0120  0.1078  0.0040 </r>
       </set>
       <set comment="band 14">
        <r>  0.0000  0.0901  0.0901  0.0000  0.1077  0.0000  0.0100  0.1077  0.0033 </r>
        <r>  0.0000  0.0901  0.0901  0.0000  0.1077  0.0000  0.0100  0.1077  0.0033 </r>
       </set>
       <set comment="band 15">
        <r>  0.2213  0.0024  0.0024  0.0471  0.0316  0.0745  0.0000  0.0316  0.0000 </r>
        <r>  0.2213  0.0024  0.0024  0.0471  0.0316  0.0745  0.0000  0.0316  0.0000 </r>
       </set>
       <set comment="band 16">
        <r>  0.1211  0.0052  0.0052  0.1037  0.0318  0.1030  0.0005  0.0318  0.0015 </r>
        <r>  0.1211  0.0052  0.0052  0.1037  0.0318  0.1030  0.0005  0.0318  0.0015 </r>
       </set>
       <set comment="band 17">
        <r>  0.2243  0.0525  0.0525  0.0084  0.0150  0.0275  0.0004  0.0150  0.0012 </r>
        <r>  0.2243  0.0525  0.0525  0.0084  0.0150  0.0275  0.0004  0.0150  0.0012 </r>
       </set>
       <set comment="band 18">
        <r>  0.1463  0.0568  0.0568  0.0353  0.0287  0.0385  0.0001  0.0287  0.0004 </r>
        <r>  0.1463  0.0568  0.0568  0.0353  0.0287  0.0385  0.0001  0.0287  0.0004 </r>
       </set>
       <set comment="band 19">
        <r>  0.0000  0.0052  0.0052  0.0000  0.0297  0.0000  0.0382  0.0297  0.0127 </r>
        <r>  0.0000  0.0052  0.0052  0.0000  0.0297  0.0000  0.0382  0.0297  0.0127 </r>
       </set>
       <set comment="band 20">
        <r>  0.0000  0.0018  0.0018  0.0000  0.0220  0.0000  0.0137  0.0220  0.0046 </r>
        <r>  0.0000  0.0018  0.0018  0.0000  0.0220  0.0000  0.0137  0.0220  0.0046 </r>
       </set>
      </set>
      <set comment="kpoint 164">
       <set comment="band 1">
        <r>  0.0087  0.0078  0.0366  0.0078  0.2210  0.0831  0.0048  0.0831  0.0000 </r>
        <r>  0.0087  0.0078  0.0366  0.0078  0.2210  0.0831  0.0048  0.0831  0.0000 </r>
       </set>
       <set comment="band 2">
        <r>  0.0090  0.0001  0.0700  0.0001  0.3539  0.0003  0.0123  0.0003  0.0000 </r>
        <r>  0.0090  0.0001  0.0700  0.0001  0.3539  0.0003  0.0123  0.0003  0.0000 </r>
       </set>
       <set comment="band 3">
        <r>  0.0000  0.0261  0.0000  0.0261  0.0000  0.2012  0.0000  0.2012  0.0015 </r>
        <r>  0.0000  0.0261  0.0000  0.0261  0.0000  0.2012  0.0000  0.2012  0.0015 </r>
       </set>
       <set comment="band 4">
        <r>  0.0009  0.0184  0.0341  0.0184  0.1327  0.1174  0.0097  0.1174  0.0000 </r>
        <r>  0.0009  0.0184  0.0341  0.0184  0.1327  0.1174  0.0097  0.1174  0.0000 </r>
       </set>
       <set comment="band 5">
        <r>  0.0031  0.0520  0.0005  0.0520  0.0001  0.1650  0.0005  0.1650  0.0000 </r>
        <r>  0.0031  0.0520  0.0005  0.0520  0.0001  0.1650  0.0005  0.1650  0.0000 </r>
       </set>
       <set comment="band 6">
        <r>  0.0000  0.0521  0.0000  0.0521  0.0000  0.1657  0.0000  0.1657  0.0034 </r>
        <r>  0.0000  0.0521  0.0000  0.0521  0.0000  0.1657  0.0000  0.1657  0.0034 </r>
       </set>
       <set comment="band 7">
        <r>  0.0000  0.0000  0.0001  0.0000  0.0189  0.0008  0.4726  0.0008  0.0000 </r>
        <r>  0.0000  0.0000  0.0001  0.0000  0.0189  0.0008  0.4726  0.0008  0.0000 </r>
       </set>
       <set comment="band 8">
        <r>  0.0000  0.0000  0.0000  0.0000  0.0171  0.0003  0.4753  0.0003  0.0000 </r>
        <r>  0.0000  0.0000  0.0000  0.0000  0.0171  0.0003  0.4753  0.0003  0.0000 </r>
       </set>
       <set comment="band 9">
        <r>  0.0000  0.0000  0.0000  0.0000  0.0000  0.0025  0.0000  0.0025  0.4885 </r>
        <r>  0.0000  0.0000  0.0000  0.0000  0.0000  0.0025  0.0000  0.0025  0.4885 </r>
       </set>
       <set comment="band 10">
        <r>  0.0000  0.0000  0.0000  0.0000  0.0000  0.0010  0.0000  0.0010  0.4916 </r>
        <r>  0.0000  0.0000  0.0000  0.0000  0.0000  0.0010  0.0000  0.0010  0.4916 </r>
       </set>
       <set comment="band 11">
        <r>  0.0216  0.0677  0.0223  0.0677  0.0443  0.1005  0.0005  0.1005  0.0000 </r>
        <r>  0.0216  0.0677  0.0223  0.0677  0.0443  0.1005  0.0005  0.1005  0.0000 </r>
       </set>
       <set comment="band 12">
        <r>  0.0000  0.0906  0.0000  0.0906  0.0000  0.1177  0.0000  0.1177  0.0024 </r>
        <r>  0.0000  0.0906  0.0000  0.0906  0.0000  0.1177  0.0000  0.1177  0.0024 </r>
       </set>
       <set comment="band 13">
        <r>  0.0553  0.0071  0.1262  0.0071  0.2030  0.0056  0.0097  0.0056  0.0000 </r>
        <r>  0.0553  0.0071  0.1262  0.0071  0.2030  0.0056  0.0097  0.0056  0.0000 </r>
       </set>
       <set comment="band 14">
        <r>  0.0532  0.0215  0.1018  0.0215  0.1691  0.0198  0.0081  0.0198  0.0000 </r>
        <r>  0.0532  0.0215  0.1018  0.0215  0.1691  0.0198  0.0081  0.0198  0.0000 </r>
       </set>
       <set comment="band 15">
        <r>  0.1256  0.0539  0.0020  0.0539  0.0022  0.0840  0.0004  0.0840  0.0000 </r>
        <r>  0.1256  0.0539  0.0020  0.0539  0.0022  0.0840  0.0004  0.0840  0.0000 </r>
       </set>
       <set comment="band 16">
        <r>  0.0000  0.0877  0.0000  0.0877  0.0000  0.1116  0.0000  0.1116  0.0013 </r>
        <r>  0.0000  0.0877  0.0000  0.0877  0.0000  0.1116  0.0000  0.1116  0.0013 </r>
       </set>
       <set comment="band 17">
        <r>  0.3162  0.0016  0.0641  0.0016  0.0162  0.0001  0.0012  0.0001  0.0000 </r>
        <r>  0.3162  0.0016  0.0641  0.0016  0.0162  0.0001  0.0012  0.0001  0.0000 </r>
       </set>
       <set comment="band 18">
        <r>  0.2120  0.0272  0.0604  0.0272  0.0230  0.0231  0.0007  0.0231  0.0000 </r>
        <r>  0.2120  0.0272  0.0604  0.0272  0.0230  0.0231  0.0007  0.0231  0.0000 </r>
       </set>
       <set comment="band 19">
        <r>  0.0001  0.0006  0.0035  0.0006  0.0087  0.0343  0.0195  0.0343  0.0000 </r>
        <r>  0.0001  0.0006  0.0035  0.0006  0.0087  0.0343  0.0195  0.0343  0.0000 </r>
       </set>
       <set comment="band 20">
        <r>  0.0000  0.0003  0.0000  0.0003  0.0000  0.0353  0.0000  0.0353  0.0010 </r>
        <r>  0.0000  0.0003  0.0000  0.0003  0.0000  0.0353  0.0000  0.0353  0.0010 </r>
       </set>
      </set>
      <set comment="kpoint 165">
       <set comment="band 1">
        <r>  0.0026  0.0197  0.0198  0.0197  0.1304  0.1303  0.0000  0.1303  0.0000 </r>
        <r>  0.0026  0.0197  0.0198  0.0197  0.1304  0.1303  0.0000  0.1303  0.0000 </r>
       </set>
       <set comment="band 2">
        <r>  0.0000  0.0102  0.0451  0.0124  0.2541  0.0698  0.0020  0.0573  0.0000 </r>
        <r>  0.0000  0.0102  0.0451  0.0124  0.2541  0.0698  0.0020  0.0573  0.0000 </r>
       </set>
       <set comment="band 3">
        <r>  0.0000  0.0349  0.0000  0.0327  0.0002  0.1843  0.0000  0.1967  0.0020 </r>
        <r>  0.0000  0.0349  0.0000  0.0327  0.0002  0.1843  0.0000  0.1967  0.0020 </r>
       </set>
       <set comment="band 4">
        <r>  0.0000  0.0129  0.0566  0.0156  0.2381  0.0654  0.0026  0.0540  0.0000 </r>
        <r>  0.0000  0.0129  0.0566  0.0156  0.2381  0.0654  0.0026  0.0540  0.0000 </r>
       </set>
       <set comment="band 5">
        <r>  0.0000  0.0439  0.0000  0.0411  0.0002  0.1730  0.0000  0.1844  0.0026 </r>
        <r>  0.0000  0.0439  0.0000  0.0411  0.0002  0.1730  0.0000  0.1844  0.0026 </r>
       </set>
       <set comment="band 6">
        <r>  0.0035  0.0313  0.0312  0.0313  0.1146  0.1148  0.0000  0.1148  0.0000 </r>
        <r>  0.0035  0.0313  0.0312  0.0313  0.1146  0.1148  0.0000  0.1148  0.0000 </r>
       </set>
       <set comment="band 7">
        <r>  0.0000  0.0000  0.0000  0.0000  0.0025  0.0004  0.4863  0.0008  0.0036 </r>
        <r>  0.0000  0.0000  0.0000  0.0000  0.0025  0.0004  0.4863  0.0008  0.0036 </r>
       </set>
       <set comment="band 8">
        <r>  0.0000  0.0000  0.0000  0.0000  0.0000  0.0020  0.0036  0.0017  0.4863 </r>
        <r>  0.0000  0.0000  0.0000  0.0000  0.0000  0.0020  0.0036  0.0017  0.4863 </r>
       </set>
       <set comment="band 9">
        <r>  0.0000  0.0000  0.0000  0.0000  0.0018  0.0003  0.4873  0.0006  0.0036 </r>
        <r>  0.0000  0.0000  0.0000  0.0000  0.0018  0.0003  0.4873  0.0006  0.0036 </r>
       </set>
       <set comment="band 10">
        <r>  0.0000  0.0000  0.0000  0.0000  0.0000  0.0015  0.0036  0.0012  0.4873 </r>
        <r>  0.0000  0.0000  0.0000  0.0000  0.0000  0.0015  0.0036  0.0012  0.4873 </r>
       </set>
       <set comment="band 11">
        <r>  0.0180  0.0554  0.0554  0.0554  0.0783  0.0783  0.0000  0.0783  0.0000 </r>
        <r>  0.0180  0.0554  0.0554  0.0554  0.0783  0.0783  0.0000  0.0783  0.0000 </r>
       </set>
       <set comment="band 12">
        <r>  0.0000  0.0256  0.1213  0.0355  0.1528  0.0447  0.0019  0.0322  0.0000 </r>
        <r>  0.0000  0.0256  0.1213  0.0355  0.1528  0.0447  0.0019  0.0322  0.0000 </r>
       </set>
       <set comment="band 13">
        <r>  0.0000  0.0960  0.0003  0.0861  0.0003  0.1084  0.0000  0.1210  0.0019 </r>
        <r>  0.0000  0.0960  0.0003  0.0861  0.0003  0.1084  0.0000  0.1210  0.0019 </r>
       </set>
       <set comment="band 14">
        <r>  0.0000  0.0247  0.1198  0.0358  0.1503  0.0449  0.0015  0.0309  0.0000 </r>
        <r>  0.0000  0.0247  0.1198  0.0358  0.1503  0.0449  0.0015  0.0309  0.0000 </r>
       </set>
       <set comment="band 15">
        <r>  0.0000  0.0955  0.0003  0.0844  0.0004  0.1059  0.0000  0.1198  0.0015 </r>
        <r>  0.0000  0.0955  0.0003  0.0844  0.0004  0.1059  0.0000  0.1198  0.0015 </r>
       </set>
       <set comment="band 16">
        <r>  0.0907  0.0415  0.0415  0.0415  0.0649  0.0649  0.0000  0.0649  0.0000 </r>
        <r>  0.0907  0.0415  0.0415  0.0415  0.0649  0.0649  0.0000  0.0649  0.0000 </r>
       </set>
       <set comment="band 17">
        <r>  0.3842  0.0061  0.0061  0.0061  0.0009  0.0009  0.0000  0.0009  0.0000 </r>
        <r>  0.3842  0.0061  0.0061  0.0061  0.0009  0.0009  0.0000  0.0009  0.0000 </r>
       </set>
       <set comment="band 18">
        <r>  0.3122  0.0187  0.0187  0.0187  0.0113  0.0113  0.0000  0.0113  0.0000 </r>
        <r>  0.3122  0.0187  0.0187  0.0187  0.0113  0.0113  0.0000  0.0113  0.0000 </r>
       </set>
       <set comment="band 19">
        <r>  0.0000  0.0003  0.0010  0.0004  0.0068  0.0026  0.0032  0.0021  0.0004 </r>
        <r>  0.0000  0.0003  0.0010  0.0004  0.0068  0.0026  0.0032  0.0021  0.0004 </r>
       </set>
       <set comment="band 20">
        <r>  0.0000  0.0031  0.0005  0.0028  0.0034  0.0192  0.0016  0.0210  0.0122 </r>
        <r>  0.0000  0.0031  0.0005  0.0028  0.0034  0.0192  0.0016  0.0210  0.0122 </r>
       </set>
      </set>
     </set>
    </set>
   </array>
  </projected>
 </calculation>
 <structure name="finalpos" >
  <crystal>
   <varray name="basis" >
    <v>       2.82807957      -0.00000000       0.00000000 </v>
    <v>       0.00000000       2.82807957       0.00000000 </v>
    <v>      -0.00000000      -0.00000000       2.82807957 </v>
   </varray>
   <i name="volume">     22.61907667 </i>
   <varray name="rec_basis" >
    <v>       0.35359684      -0.00000000       0.00000000 </v>
    <v>       0.00000000       0.35359684       0.00000000 </v>
    <v>      -0.00000000      -0.00000000       0.35359684 </v>
   </varray>
  </crystal>
  <varray name="positions" >
   <v>       0.00000000       0.00000000       0.00000000 </v>
   <v>       0.50000000       0.50000000       0.50000000 </v>
  </varray>
 </structure>
</modeling>
