unknown system                          
   1.00000000000000     
     2.796734   -0.000000    0.000000
     0.000000    2.796734    0.000000
    -0.000000   -0.000000    2.796734
   Fe
     2
Direct
  0.000000  0.000000  0.000000
  0.500000  0.500000  0.500000
 
   40   40   40
  199.01      194.97      183.33      165.37      143.01      118.44      93.805      70.960      51.254      35.467    
  23.803      15.968      11.286      8.8463      7.6478      6.8588      6.2709      5.8806      5.6412      5.5179    
  5.4788      5.5179      5.6412      5.8806      6.2709      6.8588      7.6478      8.8463      11.286      15.968    
  23.803      35.467      51.254      70.960      93.805      118.44      143.01      165.37      183.33      194.97    
  194.97      191.03      179.65      162.10      140.23      116.17      92.039      69.642      50.316      34.835    
  23.406      15.744      11.176      8.8041      7.6307      6.8470      6.2644      5.8776      5.6407      5.5185    
  5.4799      5.5185      5.6407      5.8776      6.2644      6.8470      7.6307      8.8041      11.176      15.744    
  23.406      34.835      50.316      69.642      92.039      116.17      140.23      162.10      179.65      191.03    
  183.33      179.65      169.04      152.65      132.17      109.60      86.907      65.807      47.583      32.996    
  22.256      15.097      10.865      8.6849      7.5801      6.8119      6.2454      5.8688      5.6395      5.5202    
  5.4834      5.5202      5.6395      5.8688      6.2454      6.8119      7.5801      8.6849      10.865      15.097    
  22.256      32.996      47.583      65.807      86.907      109.60      132.17      152.65      169.04      179.65    
  165.37      162.10      152.65      138.00      119.65      99.359      78.882      59.797      43.302      30.123    
  20.475      14.109      10.400      8.5081      7.4969      6.7544      6.2149      5.8551      5.6382      5.5237    
  5.4895      5.5237      5.6382      5.8551      6.2149      6.7544      7.4969      8.5081      10.400      14.109    
  20.475      30.123      43.302      59.797      78.882      99.359      119.65      138.00      152.65      162.10    
  143.01      140.23      132.17      119.65      103.91      86.422      68.709      52.165      37.872      26.503    
  18.259      12.907      9.8522      8.2971      7.3816      6.6770      6.1748      5.8383      5.6372      5.5295    
  5.4983      5.5295      5.6372      5.8383      6.1748      6.6770      7.3816      8.2971      9.8522      12.907    
  18.259      26.503      37.872      52.165      68.709      86.422      103.91      119.65      132.17      140.23    
  118.44      116.17      109.60      99.359      86.422      71.987      57.324      43.620      31.819      22.509    
  15.864      11.646      9.2987      8.0672      7.2340      6.5847      6.1262      5.8203      5.6364      5.5381    
  5.5091      5.5381      5.6364      5.8203      6.1262      6.5847      7.2340      8.0672      9.2987      11.646    
  15.864      22.509      31.819      43.620      57.324      71.987      86.422      99.359      109.60      116.17    
  93.805      92.039      86.907      78.882      68.709      57.324      45.750      34.958      25.735      18.565    
  13.564      10.482      8.7988      7.8176      7.0594      6.4819      6.0721      5.8020      5.6359      5.5488    
  5.5210      5.5488      5.6359      5.8020      6.0721      6.4819      7.0594      7.8176      8.7988      10.482    
  13.564      18.565      25.735      34.958      45.750      57.324      68.709      78.882      86.907      92.039    
  70.960      69.642      65.807      59.797      52.165      43.620      34.958      26.942      20.191      15.060    
  11.595      9.5281      8.3628      7.5399      6.8710      6.3719      6.0166      5.7824      5.6361      5.5592    
  5.5339      5.5592      5.6361      5.7824      6.0166      6.3719      6.8710      7.5399      8.3628      9.5281    
  11.595      15.060      20.191      26.942      34.958      43.620      52.165      59.797      65.807      69.642    
  51.254      50.316      47.583      43.302      37.872      31.819      25.735      20.191      15.628      12.277    
  10.096      8.8066      7.9519      7.2427      6.6810      6.2596      5.9626      5.7614      5.6363      5.5670    
  5.5460      5.5670      5.6363      5.7614      5.9626      6.2596      6.6810      7.2427      7.9519      8.8066    
  10.096      12.277      15.628      20.191      25.735      31.819      37.872      43.302      47.583      50.316    
  35.467      34.835      32.996      30.123      26.503      22.509      18.565      15.060      12.277      10.312    
  9.0636      8.2311      7.5353      6.9525      6.4951      6.1533      5.9084      5.7407      5.6327      5.5728    
  5.5534      5.5728      5.6327      5.7407      5.9084      6.1533      6.4951      6.9525      7.5353      8.2311    
  9.0636      10.312      12.277      15.060      18.565      22.509      26.503      30.123      32.996      34.835    
  23.803      23.406      22.256      20.475      18.259      15.864      13.564      11.595      10.096      9.0636    
  8.3304      7.6964      7.1392      6.6823      6.3238      6.0542      5.8571      5.7183      5.6260      5.5733    
  5.5560      5.5733      5.6260      5.7183      5.8571      6.0542      6.3238      6.6823      7.1392      7.6964    
  8.3304      9.0636      10.096      11.595      13.564      15.864      18.259      20.475      22.256      23.406    
  15.968      15.744      15.097      14.109      12.907      11.646      10.482      9.5281      8.8066      8.2311    
  7.6964      7.2058      6.7861      6.4422      6.1719      5.9640      5.8078      5.6933      5.6149      5.5686    
  5.5534      5.5686      5.6149      5.6933      5.8078      5.9640      6.1719      6.4422      6.7861      7.2058    
  7.6964      8.2311      8.8066      9.5281      10.482      11.646      12.907      14.109      15.097      15.744    
  11.286      11.176      10.865      10.400      9.8522      9.2987      8.7988      8.3628      7.9519      7.5353    
  7.1392      6.7861      6.4845      6.2377      6.0394      5.8826      5.7601      5.6669      5.6001      5.5597    
  5.5460      5.5597      5.6001      5.6669      5.7601      5.8826      6.0394      6.2377      6.4845      6.7861    
  7.1392      7.5353      7.9519      8.3628      8.7988      9.2987      9.8522      10.400      10.865      11.176    
  8.8463      8.8041      8.6849      8.5081      8.2971      8.0672      7.8176      7.5399      7.2427      6.9525    
  6.6823      6.4422      6.2377      6.0666      5.9254      5.8094      5.7142      5.6377      5.5811      5.5458    
  5.5339      5.5458      5.5811      5.6377      5.7142      5.8094      5.9254      6.0666      6.2377      6.4422    
  6.6823      6.9525      7.2427      7.5399      7.8176      8.0672      8.2971      8.5081      8.6849      8.8041    
  7.6478      7.6307      7.5801      7.4969      7.3816      7.2340      7.0594      6.8710      6.6810      6.4951    
  6.3238      6.1719      6.0394      5.9254      5.8275      5.7421      5.6681      5.6068      5.5603      5.5311    
  5.5210      5.5311      5.5603      5.6068      5.6681      5.7421      5.8275      5.9254      6.0394      6.1719    
  6.3238      6.4951      6.6810      6.8710      7.0594      7.2340      7.3816      7.4969      7.5801      7.6307    
  6.8588      6.8470      6.8119      6.7544      6.6770      6.5847      6.4819      6.3719      6.2596      6.1533    
  6.0542      5.9640      5.8826      5.8094      5.7421      5.6798      5.6243      5.5770      5.5405      5.5171    
  5.5091      5.5171      5.5405      5.5770      5.6243      5.6798      5.7421      5.8094      5.8826      5.9640    
  6.0542      6.1533      6.2596      6.3719      6.4819      6.5847      6.6770      6.7544      6.8119      6.8470    
  6.2709      6.2644      6.2454      6.2149      6.1748      6.1262      6.0721      6.0166      5.9626      5.9084    
  5.8571      5.8078      5.7601      5.7142      5.6681      5.6243      5.5841      5.5494      5.5220      5.5044    
  5.4983      5.5044      5.5220      5.5494      5.5841      5.6243      5.6681      5.7142      5.7601      5.8078    
  5.8571      5.9084      5.9626      6.0166      6.0721      6.1262      6.1748      6.2149      6.2454      6.2644    
  5.8806      5.8776      5.8688      5.8551      5.8383      5.8203      5.8020      5.7824      5.7614      5.7407    
  5.7183      5.6933      5.6669      5.6377      5.6068      5.5770      5.5494      5.5251      5.5060      5.4937    
  5.4895      5.4937      5.5060      5.5251      5.5494      5.5770      5.6068      5.6377      5.6669      5.6933    
  5.7183      5.7407      5.7614      5.7824      5.8020      5.8203      5.8383      5.8551      5.8688      5.8776    
  5.6412      5.6407      5.6395      5.6382      5.6372      5.6364      5.6359      5.6361      5.6363      5.6327    
  5.6260      5.6149      5.6001      5.5811      5.5603      5.5405      5.5220      5.5060      5.4936      5.4860    
  5.4834      5.4860      5.4936      5.5060      5.5220      5.5405      5.5603      5.5811      5.6001      5.6149    
  5.6260      5.6327      5.6363      5.6361      5.6359      5.6364      5.6372      5.6382      5.6395      5.6407    
  5.5179      5.5185      5.5202      5.5237      5.5295      5.5381      5.5488      5.5592      5.5670      5.5728    
  5.5733      5.5686      5.5597      5.5458      5.5311      5.5171      5.5044      5.4937      5.4860      5.4814    
  5.4799      5.4814      5.4860      5.4937      5.5044      5.5171      5.5311      5.5458      5.5597      5.5686    
  5.5733      5.5728      5.5670      5.5592      5.5488      5.5381      5.5295      5.5237      5.5202      5.5185    
  5.4788      5.4799      5.4834      5.4895      5.4983      5.5091      5.5210      5.5339      5.5460      5.5534    
  5.5560      5.5534      5.5460      5.5339      5.5210      5.5091      5.4983      5.4895      5.4834      5.4799    
  5.4788      5.4799      5.4834      5.4895      5.4983      5.5091      5.5210      5.5339      5.5460      5.5534    
  5.5560      5.5534      5.5460      5.5339      5.5210      5.5091      5.4983      5.4895      5.4834      5.4799    
  5.5179      5.5185      5.5202      5.5237      5.5295      5.5381      5.5488      5.5592      5.5670      5.5728    
  5.5733      5.5686      5.5597      5.5458      5.5311      5.5171      5.5044      5.4937      5.4860      5.4814    
  5.4799      5.4814      5.4860      5.4937      5.5044      5.5171      5.5311      5.5458      5.5597      5.5686    
  5.5733      5.5728      5.5670      5.5592      5.5488      5.5381      5.5295      5.5237      5.5202      5.5185    
  5.6412      5.6407      5.6395      5.6382      5.6372      5.6364      5.6359      5.6361      5.6363      5.6327    
  5.6260      5.6149      5.6001      5.5811      5.5603      5.5405      5.5220      5.5060      5.4936      5.4860    
  5.4834      5.4860      5.4936      5.5060      5.5220      5.5405      5.5603      5.5811      5.6001      5.6149    
  5.6260      5.6327      5.6363      5.6361      5.6359      5.6364      5.6372      5.6382      5.6395      5.6407    
  5.8806      5.8776      5.8688      5.8551      5.8383      5.8203      5.8020      5.7824      5.7614      5.7407    
  5.7183      5.6933      5.6669      5.6377      5.6068      5.5770      5.5494      5.5251      5.5060      5.4937    
  5.4895      5.4937      5.5060      5.5251      5.5494      5.5770      5.6068      5.6377      5.6669      5.6933    
  5.7183      5.7407      5.7614      5.7824      5.8020      5.8203      5.8383      5.8551      5.8688      5.8776    
  6.2709      6.2644      6.2454      6.2149      6.1748      6.1262      6.0721      6.0166      5.9626      5.9084    
  5.8571      5.8078      5.7601      5.7142      5.6681      5.6243      5.5841      5.5494      5.5220      5.5044    
  5.4983      5.5044      5.5220      5.5494      5.5841      5.6243      5.6681      5.7142      5.7601      5.8078    
  5.8571      5.9084      5.9626      6.0166      6.0721      6.1262      6.1748      6.2149      6.2454      6.2644    
  6.8588      6.8470      6.8119      6.7544      6.6770      6.5847      6.4819      6.3719      6.2596      6.1533    
  6.0542      5.9640      5.8826      5.8094      5.7421      5.6798      5.6243      5.5770      5.5405      5.5171    
  5.5091      5.5171      5.5405      5.5770      5.6243      5.6798      5.7421      5.8094      5.8826      5.9640    
  6.0542      6.1533      6.2596      6.3719      6.4819      6.5847      6.6770      6.7544      6.8119      6.8470    
  7.6478      7.6307      7.5801      7.4969      7.3816      7.2340      7.0594      6.8710      6.6810      6.4951    
  6.3238      6.1719      6.0394      5.9254      5.8275      5.7421      5.6681      5.6068      5.5603      5.5311    
  5.5210      5.5311      5.5603      5.6068      5.6681      5.7421      5.8275      5.9254      6.0394      6.1719    
  6.3238      6.4951      6.6810      6.8710      7.0594      7.2340      7.3816      7.4969      7.5801      7.6307    
  8.8463      8.8041      8.6849      8.5081      8.2971      8.0672      7.8176      7.5399      7.2427      6.9525    
  6.6823      6.4422      6.2377      6.0666      5.9254      5.8094      5.7142      5.6377      5.5811      5.5458    
  5.5339      5.5458      5.5811      5.6377      5.7142      5.8094      5.9254      6.0666      6.2377      6.4422    
  6.6823      6.9525      7.2427      7.5399      7.8176      8.0672      8.2971      8.5081      8.6849      8.8041    
  11.286      11.176      10.865      10.400      9.8522      9.2987      8.7988      8.3628      7.9519      7.5353    
  7.1392      6.7861      6.4845      6.2377      6.0394      5.8826      5.7601      5.6669      5.6001      5.5597    
  5.5460      5.5597      5.6001      5.6669      5.7601      5.8826      6.0394      6.2377      6.4845      6.7861    
  7.1392      7.5353      7.9519      8.3628      8.7988      9.2987      9.8522      10.400      10.865      11.176    
  15.968      15.744      15.097      14.109      12.907      11.646      10.482      9.5281      8.8066      8.2311    
  7.6964      7.2058      6.7861      6.4422      6.1719      5.9640      5.8078      5.6933      5.6149      5.5686    
  5.5534      5.5686      5.6149      5.6933      5.8078      5.9640      6.1719      6.4422      6.7861      7.2058    
  7.6964      8.2311      8.8066      9.5281      10.482      11.646      12.907      14.109      15.097      15.744    
  23.803      23.406      22.256      20.475      18.259      15.864      13.564      11.595      10.096      9.0636    
  8.3304      7.6964      7.1392      6.6823      6.3238      6.0542      5.8571      5.7183      5.6260      5.5733    
  5.5560      5.5733      5.6260      5.7183      5.8571      6.0542      6.3238      6.6823      7.1392      7.6964    
  8.3304      9.0636      10.096      11.595      13.564      15.864      18.259      20.475      22.256      23.406    
  35.467      34.835      32.996      30.123      26.503      22.509      18.565      15.060      12.277      10.312    
  9.0636      8.2311      7.5353      6.9525      6.4951      6.1533      5.9084      5.7407      5.6327      5.5728    
  5.5534      5.5728      5.6327      5.7407      5.9084      6.1533      6.4951      6.9525      7.5353      8.2311    
  9.0636      10.312      12.277      15.060      18.565      22.509      26.503      30.123      32.996      34.835    
  51.254      50.316      47.583      43.302      37.872      31.819      25.735      20.191      15.628      12.277    
  10.096      8.8066      7.9519      7.2427      6.6810      6.2596      5.9626      5.7614      5.6363      5.5670    
  5.5460      5.5670      5.6363      5.7614      5.9626      6.2596      6.6810      7.2427      7.9519      8.8066    
  10.096      12.277      15.628      20.191      25.735      31.819      37.872      43.302      47.583      50.316    
  70.960      69.642      65.807      59.797      52.165      43.620      34.958      26.942      20.191      15.060    
  11.595      9.5281      8.3628      7.5399      6.8710      6.3719      6.0166      5.7824      5.6361      5.5592    
  5.5339      5.5592      5.6361      5.7824      6.0166      6.3719      6.8710      7.5399      8.3628      9.5281    
  11.595      15.060      20.191      26.942      34.958      43.620      52.165      59.797      65.807      69.642    
  93.805      92.039      86.907      78.882      68.709      57.324      45.750      34.958      25.735      18.565    
  13.564      10.482      8.7988      7.8176      7.0594      6.4819      6.0721      5.8020      5.6359      5.5488    
  5.5210      5.5488      5.6359      5.8020      6.0721      6.4819      7.0594      7.8176      8.7988      10.482    
  13.564      18.565      25.735      34.958      45.750      57.324      68.709      78.882      86.907      92.039    
  118.44      116.17      109.60      99.359      86.422      71.987      57.324      43.620      31.819      22.509    
  15.864      11.646      9.2987      8.0672      7.2340      6.5847      6.1262      5.8203      5.6364      5.5381    
  5.5091      5.5381      5.6364      5.8203      6.1262      6.5847      7.2340      8.0672      9.2987      11.646    
  15.864      22.509      31.819      43.620      57.324      71.987      86.422      99.359      109.60      116.17    
  143.01      140.23      132.17      119.65      103.91      86.422      68.709      52.165      37.872      26.503    
  18.259      12.907      9.8522      8.2971      7.3816      6.6770      6.1748      5.8383      5.6372      5.5295    
  5.4983      5.5295      5.6372      5.8383      6.1748      6.6770      7.3816      8.2971      9.8522      12.907    
  18.259      26.503      37.872      52.165      68.709      86.422      103.91      119.65      132.17      140.23    
  165.37      162.10      152.65      138.00      119.65      99.359      78.882      59.797      43.302      30.123    
  20.475      14.109      10.400      8.5081      7.4969      6.7544      6.2149      5.8551      5.6382      5.5237    
  5.4895      5.5237      5.6382      5.8551      6.2149      6.7544      7.4969      8.5081      10.400      14.109    
  20.475      30.123      43.302      59.797      78.882      99.359      119.65      138.00      152.65      162.10    
  183.33      179.65      169.04      152.65      132.17      109.60      86.907      65.807      47.583      32.996    
  22.256      15.097      10.865      8.6849      7.5801      6.8119      6.2454      5.8688      5.6395      5.5202    
  5.4834      5.5202      5.6395      5.8688      6.2454      6.8119      7.5801      8.6849      10.865      15.097    
  22.256      32.996      47.583      65.807      86.907      109.60      132.17      152.65      169.04      179.65    
  194.97      191.03      179.65      162.10      140.23      116.17      92.039      69.642      50.316      34.835    
  23.406      15.744      11.176      8.8041      7.6307      6.8470      6.2644      5.8776      5.6407      5.5185    
  5.4799      5.5185      5.6407      5.8776      6.2644      6.8470      7.6307      8.8041      11.176      15.744    
  23.406      34.835      50.316      69.642      92.039      116.17      140.23      162.10      179.65      191.03    
  194.97      191.03      179.65      162.10      140.23      116.17      92.039      69.642      50.316      34.835    
  23.406      15.744      11.176      8.8041      7.6307      6.8470      6.2644      5.8776      5.6407      5.5185    
  5.4799      5.5185      5.6407      5.8776      6.2644      6.8470      7.6307      8.8041      11.176      15.744    
  23.406      34.835      50.316      69.642      92.039      116.17      140.23      162.10      179.65      191.03    
  191.03      187.18      176.06      158.90      137.51      113.95      90.307      68.348      49.395      34.213    
  23.017      15.524      11.070      8.7637      7.6141      6.8357      6.2584      5.8750      5.6406      5.5194    
  5.4814      5.5194      5.6406      5.8750      6.2584      6.8357      7.6141      8.7637      11.070      15.524    
  23.017      34.213      49.395      68.348      90.307      113.95      137.51      158.90      176.06      187.18    
  179.65      176.06      165.69      149.65      129.62      107.51      85.271      64.582      46.710      32.408    
  21.891      14.893      10.769      8.6492      7.5650      6.8018      6.2406      5.8673      5.6406      5.5223    
  5.4860      5.5223      5.6406      5.8673      6.2406      6.8018      7.5650      8.6492      10.769      14.893    
  21.891      32.408      46.710      64.582      85.271      107.51      129.62      149.65      165.69      176.06    
  162.10      158.90      149.65      135.32      117.36      97.471      77.396      58.681      42.506      29.590    
  20.147      13.930      10.319      8.4794      7.4839      6.7464      6.2123      5.8556      5.6410      5.5274    
  5.4937      5.5274      5.6410      5.8556      6.2123      6.7464      7.4839      8.4794      10.319      13.930    
  20.147      29.590      42.506      58.681      77.396      97.471      117.36      135.32      149.65      158.90    
  140.23      137.51      129.62      117.36      101.93      84.784      67.414      51.189      37.176      26.041    
  17.980      12.760      9.7899      8.2759      7.3710      6.6718      6.1745      5.8411      5.6421      5.5352    
  5.5044      5.5352      5.6421      5.8411      6.1745      6.6718      7.3710      8.2759      9.7899      12.760    
  17.980      26.041      37.176      51.189      67.414      84.784      101.93      117.36      129.62      137.51    
  116.17      113.95      107.51      97.471      84.784      70.625      56.244      42.806      31.242      22.132    
  15.643      11.536      9.2561      8.0526      7.2260      6.5828      6.1286      5.8257      5.6434      5.5461    
  5.5171      5.5461      5.6434      5.8257      6.1286      6.5828      7.2260      8.0526      9.2561      11.536    
  15.643      22.132      31.242      42.806      56.244      70.625      84.784      97.471      107.51      113.95    
  92.039      90.307      85.271      77.396      67.414      56.244      44.892      34.313      25.285      18.278    
  13.404      10.409      8.7733      7.8075      7.0550      6.4833      6.0772      5.8099      5.6450      5.5588    
  5.5311      5.5588      5.6450      5.8099      6.0772      6.4833      7.0550      7.8075      8.7733      10.409    
  13.404      18.278      25.285      34.313      44.892      56.244      67.414      77.396      85.271      90.307    
  69.642      68.348      64.582      58.681      51.189      42.806      34.313      26.465      19.866      14.862    
  11.492      9.4866      8.3489      7.5333      6.8707      6.3764      6.0248      5.7925      5.6474      5.5708    
  5.5458      5.5708      5.6474      5.7925      6.0248      6.3764      6.8707      7.5333      8.3489      9.4866    
  11.492      14.862      19.866      26.465      34.313      42.806      51.189      58.681      64.582      68.348    
  50.316      49.395      46.710      42.506      37.176      31.242      25.285      19.866      15.415      12.157    
  10.040      8.7870      7.9436      7.2406      6.6847      6.2674      5.9732      5.7737      5.6494      5.5805    
  5.5597      5.5805      5.6494      5.7737      5.9732      6.2674      6.6847      7.2406      7.9436      8.7870    
  10.040      12.157      15.415      19.866      25.285      31.242      37.176      42.506      46.710      49.395    
  34.835      34.213      32.408      29.590      26.041      22.132      18.278      14.862      12.157      10.251    
  9.0397      8.2215      7.5318      6.9552      6.5024      6.1642      5.9216      5.7552      5.6477      5.5880    
  5.5686      5.5880      5.6477      5.7552      5.9216      6.1642      6.5024      6.9552      7.5318      8.2215    
  9.0397      10.251      12.157      14.862      18.278      22.132      26.041      29.590      32.408      34.213    
  23.406      23.017      21.891      20.147      17.980      15.643      13.404      11.492      10.040      9.0397    
  8.3202      7.6921      7.1410      6.6891      6.3348      6.0678      5.8724      5.7345      5.6429      5.5905    
  5.5733      5.5905      5.6429      5.7345      5.8724      6.0678      6.3348      6.6891      7.1410      7.6921    
  8.3202      9.0397      10.040      11.492      13.404      15.643      17.980      20.147      21.891      23.017    
  15.744      15.524      14.893      13.930      12.760      11.536      10.409      9.4866      8.7870      8.2215    
  7.6921      7.2073      6.7926      6.4531      6.1857      5.9800      5.8256      5.7122      5.6342      5.5880    
  5.5728      5.5880      5.6342      5.7122      5.8256      5.9800      6.1857      6.4531      6.7926      7.2073    
  7.6921      8.2215      8.7870      9.4866      10.409      11.536      12.760      13.930      14.893      15.524    
  11.176      11.070      10.769      10.319      9.7899      9.2561      8.7733      8.3489      7.9436      7.5318    
  7.1410      6.7926      6.4954      6.2516      6.0560      5.9016      5.7800      5.6872      5.6207      5.5805    
  5.5670      5.5805      5.6207      5.6872      5.7800      5.9016      6.0560      6.2516      6.4954      6.7926    
  7.1410      7.5318      7.9436      8.3489      8.7733      9.2561      9.7899      10.319      10.769      11.070    
  8.8041      8.7637      8.6492      8.4794      8.2759      8.0526      7.8075      7.5333      7.2406      6.9552    
  6.6891      6.4531      6.2516      6.0835      5.9448      5.8297      5.7355      5.6606      5.6053      5.5708    
  5.5592      5.5708      5.6053      5.6606      5.7355      5.8297      5.9448      6.0835      6.2516      6.4531    
  6.6891      6.9552      7.2406      7.5333      7.8075      8.0526      8.2759      8.4794      8.6492      8.7637    
  7.6307      7.6141      7.5650      7.4839      7.3710      7.2260      7.0550      6.8707      6.6847      6.5024    
  6.3348      6.1857      6.0560      5.9448      5.8479      5.7645      5.6930      5.6335      5.5878      5.5588    
  5.5488      5.5588      5.5878      5.6335      5.6930      5.7645      5.8479      5.9448      6.0560      6.1857    
  6.3348      6.5024      6.6847      6.8707      7.0550      7.2260      7.3710      7.4839      7.5650      7.6141    
  6.8470      6.8357      6.8018      6.7464      6.6718      6.5828      6.4833      6.3764      6.2674      6.1642    
  6.0678      5.9800      5.9016      5.8297      5.7645      5.7054      5.6518      5.6054      5.5692      5.5461    
  5.5381      5.5461      5.5692      5.6054      5.6518      5.7054      5.7645      5.8297      5.9016      5.9800    
  6.0678      6.1642      6.2674      6.3764      6.4833      6.5828      6.6718      6.7464      6.8018      6.8357    
  6.2644      6.2584      6.2406      6.2123      6.1745      6.1286      6.0772      6.0248      5.9732      5.9216    
  5.8724      5.8256      5.7800      5.7355      5.6930      5.6518      5.6128      5.5787      5.5521      5.5352    
  5.5295      5.5352      5.5521      5.5787      5.6128      5.6518      5.6930      5.7355      5.7800      5.8256    
  5.8724      5.9216      5.9732      6.0248      6.0772      6.1286      6.1745      6.2123      6.2406      6.2584    
  5.8776      5.8750      5.8673      5.8556      5.8411      5.8257      5.8099      5.7925      5.7737      5.7552    
  5.7345      5.7122      5.6872      5.6606      5.6335      5.6054      5.5787      5.5557      5.5383      5.5274    
  5.5237      5.5274      5.5383      5.5557      5.5787      5.6054      5.6335      5.6606      5.6872      5.7122    
  5.7345      5.7552      5.7737      5.7925      5.8099      5.8257      5.8411      5.8556      5.8673      5.8750    
  5.6407      5.6406      5.6406      5.6410      5.6421      5.6434      5.6450      5.6474      5.6494      5.6477    
  5.6429      5.6342      5.6207      5.6053      5.5878      5.5692      5.5521      5.5383      5.5283      5.5223    
  5.5202      5.5223      5.5283      5.5383      5.5521      5.5692      5.5878      5.6053      5.6207      5.6342    
  5.6429      5.6477      5.6494      5.6474      5.6450      5.6434      5.6421      5.6410      5.6406      5.6406    
  5.5185      5.5194      5.5223      5.5274      5.5352      5.5461      5.5588      5.5708      5.5805      5.5880    
  5.5905      5.5880      5.5805      5.5708      5.5588      5.5461      5.5352      5.5274      5.5223      5.5194    
  5.5185      5.5194      5.5223      5.5274      5.5352      5.5461      5.5588      5.5708      5.5805      5.5880    
  5.5905      5.5880      5.5805      5.5708      5.5588      5.5461      5.5352      5.5274      5.5223      5.5194    
  5.4799      5.4814      5.4860      5.4937      5.5044      5.5171      5.5311      5.5458      5.5597      5.5686    
  5.5733      5.5728      5.5670      5.5592      5.5488      5.5381      5.5295      5.5237      5.5202      5.5185    
  5.5179      5.5185      5.5202      5.5237      5.5295      5.5381      5.5488      5.5592      5.5670      5.5728    
  5.5733      5.5686      5.5597      5.5458      5.5311      5.5171      5.5044      5.4937      5.4860      5.4814    
  5.5185      5.5194      5.5223      5.5274      5.5352      5.5461      5.5588      5.5708      5.5805      5.5880    