unknown system                          
   1.00000000000000     
     2.828254   -0.000000    0.000000
     0.000000    2.828254    0.000000
    -0.000000   -0.000000    2.828254
   Fe
     2
Direct
  0.000000  0.000000  0.000000
  0.500000  0.500000  0.500000
 
   40   40   40
 0.19158878498E+03 0.18779775807E+03 0.17684901995E+03 0.15993640454E+03 0.13881756527E+03
 0.11552425780E+03 0.92066907101E+02 0.70179620190E+02 0.51154427166E+02 0.35759934845E+02
 0.24237968852E+02 0.16363044585E+02 0.11551370914E+02 0.89795219714E+01 0.77274582032E+01
 0.69551989683E+01 0.63739848733E+01 0.59850594999E+01 0.57433385957E+01 0.56192664782E+01
 0.55790160017E+01 0.56192664782E+01 0.57433385957E+01 0.59850594999E+01 0.63739848733E+01
 0.69551989683E+01 0.77274582032E+01 0.89795219714E+01 0.11551370914E+02 0.16363044585E+02
 0.24237968852E+02 0.35759934845E+02 0.51154427166E+02 0.70179620190E+02 0.92066907101E+02
 0.11552425780E+03 0.13881756527E+03 0.15993640454E+03 0.17684901995E+03 0.18779775807E+03
 0.18779775807E+03 0.18409258168E+03 0.17338928804E+03 0.15684811216E+03 0.13617985570E+03
 0.11336607356E+03 0.90373716230E+02 0.68906515311E+02 0.50240588031E+02 0.35137140497E+02
 0.23841342279E+02 0.16134002311E+02 0.11436525046E+02 0.89336435722E+01 0.77103611323E+01
 0.69442150491E+01 0.63676995047E+01 0.59823435877E+01 0.57430537922E+01 0.56201633988E+01
 0.55803583754E+01 0.56201633988E+01 0.57430537922E+01 0.59823435877E+01 0.63676995047E+01
 0.69442150491E+01 0.77103611323E+01 0.89336435722E+01 0.11436525046E+02 0.16134002311E+02
 0.23841342279E+02 0.35137140497E+02 0.50240588031E+02 0.68906515311E+02 0.90373716230E+02
 0.11336607356E+03 0.13617985570E+03 0.15684811216E+03 0.17338928804E+03 0.18409258168E+03
 0.17684901995E+03 0.17338928804E+03 0.16338717811E+03 0.14790893950E+03 0.12853209557E+03
 0.10709794393E+03 0.85449052605E+02 0.65200440943E+02 0.47576534092E+02 0.33324570330E+02
 0.22691100365E+02 0.15473202478E+02 0.11108970596E+02 0.88038527990E+01 0.76605813180E+01
 0.69111531570E+01 0.63495034598E+01 0.59742694036E+01 0.57424780390E+01 0.56226974832E+01
 0.55845311125E+01 0.56226974832E+01 0.57424780390E+01 0.59742694036E+01 0.63495034598E+01
 0.69111531570E+01 0.76605813180E+01 0.88038527990E+01 0.11108970596E+02 0.15473202478E+02
 0.22691100365E+02 0.33324570330E+02 0.47576534092E+02 0.65200440943E+02 0.85449052605E+02
 0.10709794393E+03 0.12853209557E+03 0.14790893950E+03 0.16338717811E+03 0.17338928804E+03
 0.15993640454E+03 0.15684811216E+03 0.14790893950E+03 0.13404571346E+03 0.11663878011E+03
 0.97319066660E+02 0.77742031499E+02 0.59387259522E+02 0.43398762023E+02 0.30489078753E+02
 0.20904080367E+02 0.14460202324E+02 0.10616330543E+02 0.86122320776E+01 0.75802795258E+01
 0.68565630612E+01 0.63203082051E+01 0.59617229935E+01 0.57421342041E+01 0.56273736327E+01
 0.55918035393E+01 0.56273736327E+01 0.57421342041E+01 0.59617229935E+01 0.63203082051E+01
 0.68565630612E+01 0.75802795258E+01 0.86122320776E+01 0.10616330543E+02 0.14460202324E+02
 0.20904080367E+02 0.30489078753E+02 0.43398762023E+02 0.59387259522E+02 0.77742031499E+02
 0.97319066660E+02 0.11663878011E+03 0.13404571346E+03 0.14790893950E+03 0.15684811216E+03
 0.13881756527E+03 0.13617985570E+03 0.12853209557E+03 0.11663878011E+03 0.10164848264E+03
 0.84944023609E+02 0.67955191516E+02 0.51991835545E+02 0.38087387789E+02 0.26904234419E+02
 0.18671908439E+02 0.13219825679E+02 0.10031389185E+02 0.83866140671E+01 0.74707091663E+01
 0.67819342733E+01 0.62818966097E+01 0.59457102550E+01 0.57425112935E+01 0.56342094529E+01
 0.56021653160E+01 0.56342094529E+01 0.57425112935E+01 0.59457102550E+01 0.62818966097E+01
 0.67819342733E+01 0.74707091663E+01 0.83866140671E+01 0.10031389185E+02 0.13219825679E+02
 0.18671908439E+02 0.26904234419E+02 0.38087387789E+02 0.51991835545E+02 0.67955191516E+02
 0.84944023609E+02 0.10164848264E+03 0.11663878011E+03 0.12853209557E+03 0.13617985570E+03
 0.11552425780E+03 0.11336607356E+03 0.10709794393E+03 0.97319066660E+02 0.84944023609E+02
 0.71097153798E+02 0.56970805587E+02 0.43685561617E+02 0.32144854934E+02 0.22930438166E+02
 0.16242689323E+02 0.11908080067E+02 0.94362235857E+01 0.81488716418E+01 0.73311678143E+01
 0.66914819787E+01 0.62353013562E+01 0.59281611909E+01 0.57433001233E+01 0.56438057470E+01
 0.56147590062E+01 0.56438057470E+01 0.57433001233E+01 0.59281611909E+01 0.62353013562E+01
 0.66914819787E+01 0.73311678143E+01 0.81488716418E+01 0.94362235857E+01 0.11908080067E+02
 0.16242689323E+02 0.22930438166E+02 0.32144854934E+02 0.43685561617E+02 0.56970805587E+02
 0.71097153798E+02 0.84944023609E+02 0.97319066660E+02 0.10709794393E+03 0.11336607356E+03
 0.92066907101E+02 0.90373716230E+02 0.85449052605E+02 0.77742031499E+02 0.67955191516E+02
 0.56970805587E+02 0.45752629504E+02 0.35222109106E+02 0.26134521793E+02 0.18973496889E+02
 0.13887041609E+02 0.10682031474E+02 0.88995320929E+01 0.79025190861E+01 0.71636202001E+01
 0.65904820309E+01 0.61824831128E+01 0.59102746370E+01 0.57438547816E+01 0.56554439083E+01
 0.56281666517E+01 0.56554439083E+01 0.57438547816E+01 0.59102746370E+01 0.61824831128E+01
 0.65904820309E+01 0.71636202001E+01 0.79025190861E+01 0.88995320929E+01 0.10682031474E+02
 0.13887041609E+02 0.18973496889E+02 0.26134521793E+02 0.35222109106E+02 0.45752629504E+02
 0.56970805587E+02 0.67955191516E+02 0.77742031499E+02 0.85449052605E+02 0.90373716230E+02
 0.70179620190E+02 0.68906515311E+02 0.65200440943E+02 0.59387259522E+02 0.51991835545E+02
 0.43685561617E+02 0.35222109106E+02 0.27328899959E+02 0.20606883998E+02 0.15418006718E+02
 0.11842756216E+02 0.96641452150E+01 0.84450206528E+01 0.76363576495E+01 0.69787514840E+01
 0.64826514693E+01 0.61268376256E+01 0.58916568593E+01 0.57443279988E+01 0.56671819830E+01
 0.56416764873E+01 0.56671819830E+01 0.57443279988E+01 0.58916568593E+01 0.61268376256E+01
 0.64826514693E+01 0.69787514840E+01 0.76363576495E+01 0.84450206528E+01 0.96641452150E+01
 0.11842756216E+02 0.15418006718E+02 0.20606883998E+02 0.27328899959E+02 0.35222109106E+02
 0.43685561617E+02 0.51991835545E+02 0.59387259522E+02 0.65200440943E+02 0.68906515311E+02
 0.51154427166E+02 0.50240588031E+02 0.47576534092E+02 0.43398762023E+02 0.38087387789E+02
 0.32144854934E+02 0.26134521793E+02 0.20606883998E+02 0.15996764515E+02 0.12550253667E+02
 0.10260974498E+02 0.88970800094E+01 0.80401010402E+01 0.73482730475E+01 0.67910997730E+01
 0.63711366311E+01 0.60725100200E+01 0.58707261024E+01 0.57446664077E+01 0.56756890802E+01
 0.56543072008E+01 0.56756890802E+01 0.57446664077E+01 0.58707261024E+01 0.60725100200E+01
 0.63711366311E+01 0.67910997730E+01 0.73482730475E+01 0.80401010402E+01 0.88970800094E+01
 0.10260974498E+02 0.12550253667E+02 0.15996764515E+02 0.20606883998E+02 0.26134521793E+02
 0.32144854934E+02 0.38087387789E+02 0.43398762023E+02 0.47576534092E+02 0.50240588031E+02
 0.35759934845E+02 0.35137140497E+02 0.33324570330E+02 0.30489078753E+02 0.26904234419E+02
 0.22930438166E+02 0.18973496889E+02 0.15418006718E+02 0.12550253667E+02 0.10488618811E+02
 0.91626255971E+01 0.83150579015E+01 0.76376745886E+01 0.70618555425E+01 0.66070323368E+01
 0.62639089309E+01 0.60182778974E+01 0.58494700725E+01 0.57417012824E+01 0.56815162378E+01
 0.56625471539E+01 0.56815162378E+01 0.57417012824E+01 0.58494700725E+01 0.60182778974E+01
 0.62639089309E+01 0.66070323368E+01 0.70618555425E+01 0.76376745886E+01 0.83150579015E+01
 0.91626255971E+01 0.10488618811E+02 0.12550253667E+02 0.15418006718E+02 0.18973496889E+02
 0.22930438166E+02 0.26904234419E+02 0.30489078753E+02 0.33324570330E+02 0.35137140497E+02
 0.24237968852E+02 0.23841342279E+02 0.22691100365E+02 0.20904080367E+02 0.18671908439E+02
 0.16242689323E+02 0.13887041609E+02 0.11842756216E+02 0.10260974498E+02 0.91626255971E+01
 0.84133183355E+01 0.77963241602E+01 0.72479064286E+01 0.67941415820E+01 0.64349902857E+01
 0.61642561728E+01 0.59658440797E+01 0.58267917307E+01 0.57344552820E+01 0.56822854726E+01
 0.56649965551E+01 0.56822854726E+01 0.57344552820E+01 0.58267917307E+01 0.59658440797E+01
 0.61642561728E+01 0.64349902857E+01 0.67941415820E+01 0.72479064286E+01 0.77963241602E+01
 0.84133183355E+01 0.91626255971E+01 0.10260974498E+02 0.11842756216E+02 0.13887041609E+02
 0.16242689323E+02 0.18671908439E+02 0.20904080367E+02 0.22691100365E+02 0.23841342279E+02
 0.16363044585E+02 0.16134002311E+02 0.15473202478E+02 0.14460202324E+02 0.13219825679E+02
 0.11908080067E+02 0.10682031474E+02 0.96641452150E+01 0.88970800094E+01 0.83150579015E+01
 0.77963241602E+01 0.73142106726E+01 0.68977789164E+01 0.65536982117E+01 0.62820904356E+01
 0.60725866095E+01 0.59156682222E+01 0.58012465677E+01 0.57233792314E+01 0.56774841116E+01
 0.56625471539E+01 0.56774841116E+01 0.57233792314E+01 0.58012465677E+01 0.59156682222E+01
 0.60725866095E+01 0.62820904356E+01 0.65536982117E+01 0.68977789164E+01 0.73142106726E+01
 0.77963241602E+01 0.83150579015E+01 0.88970800094E+01 0.96641452150E+01 0.10682031474E+02
 0.11908080067E+02 0.13219825679E+02 0.14460202324E+02 0.15473202478E+02 0.16134002311E+02
 0.11551370914E+02 0.11436525046E+02 0.11108970596E+02 0.10616330543E+02 0.10031389185E+02
 0.94362235857E+01 0.88995320929E+01 0.84450206528E+01 0.80401010402E+01 0.76376745886E+01
 0.72479064286E+01 0.68977789164E+01 0.65961824478E+01 0.63480063746E+01 0.61478661261E+01
 0.59901740472E+01 0.58673616810E+01 0.57743431017E+01 0.57078702667E+01 0.56678650298E+01
 0.56543072008E+01 0.56678650298E+01 0.57078702667E+01 0.57743431017E+01 0.58673616810E+01
 0.59901740472E+01 0.61478661261E+01 0.63480063746E+01 0.65961824478E+01 0.68977789164E+01
 0.72479064286E+01 0.76376745886E+01 0.80401010402E+01 0.84450206528E+01 0.88995320929E+01
 0.94362235857E+01 0.10031389185E+02 0.10616330543E+02 0.11108970596E+02 0.11436525046E+02
 0.89795219714E+01 0.89336435722E+01 0.88038527990E+01 0.86122320776E+01 0.83866140671E+01
 0.81488716418E+01 0.79025190861E+01 0.76363576495E+01 0.73482730475E+01 0.70618555425E+01
 0.67941415820E+01 0.65536982117E+01 0.63480063746E+01 0.61750496070E+01 0.60328079883E+01
 0.59159710056E+01 0.58203738075E+01 0.57441361316E+01 0.56880721667E+01 0.56533634835E+01
 0.56416764873E+01 0.56533634835E+01 0.56880721667E+01 0.57441361316E+01 0.58203738075E+01
 0.59159710056E+01 0.60328079883E+01 0.61750496070E+01 0.63480063746E+01 0.65536982117E+01
 0.67941415820E+01 0.70618555425E+01 0.73482730475E+01 0.76363576495E+01 0.79025190861E+01
 0.81488716418E+01 0.83866140671E+01 0.86122320776E+01 0.88038527990E+01 0.89336435722E+01
 0.77274582032E+01 0.77103611323E+01 0.76605813180E+01 0.75802795258E+01 0.74707091663E+01
 0.73311678143E+01 0.71636202001E+01 0.69787514840E+01 0.67910997730E+01 0.66070323368E+01
 0.64349902857E+01 0.62820904356E+01 0.61478661261E+01 0.60328079883E+01 0.59338278912E+01
 0.58477136191E+01 0.57737361149E+01 0.57129949298E+01 0.56669913029E+01 0.56381020590E+01
 0.56281666517E+01 0.56381020590E+01 0.56669913029E+01 0.57129949298E+01 0.57737361149E+01
 0.58477136191E+01 0.59338278912E+01 0.60328079883E+01 0.61478661261E+01 0.62820904356E+01
 0.64349902857E+01 0.66070323368E+01 0.67910997730E+01 0.69787514840E+01 0.71636202001E+01
 0.73311678143E+01 0.74707091663E+01 0.75802795258E+01 0.76605813180E+01 0.77103611323E+01
 0.69551989683E+01 0.69442150491E+01 0.69111531570E+01 0.68565630612E+01 0.67819342733E+01
 0.66914819787E+01 0.65904820309E+01 0.64826514693E+01 0.63711366311E+01 0.62639089309E+01
 0.61642561728E+01 0.60725866095E+01 0.59901740472E+01 0.59159710056E+01 0.58477136191E+01
 0.57852045785E+01 0.57298398459E+01 0.56827241334E+01 0.56462001199E+01 0.56227886623E+01
 0.56147590062E+01 0.56227886623E+01 0.56462001199E+01 0.56827241334E+01 0.57298398459E+01
 0.57852045785E+01 0.58477136191E+01 0.59159710056E+01 0.59901740472E+01 0.60725866095E+01
 0.61642561728E+01 0.62639089309E+01 0.63711366311E+01 0.64826514693E+01 0.65904820309E+01
 0.66914819787E+01 0.67819342733E+01 0.68565630612E+01 0.69111531570E+01 0.69442150491E+01
 0.63739848733E+01 0.63676995047E+01 0.63495034598E+01 0.63203082051E+01 0.62818966097E+01
 0.62353013562E+01 0.61824831128E+01 0.61268376256E+01 0.60725100200E+01 0.60182778974E+01
 0.59658440797E+01 0.59156682222E+01 0.58673616810E+01 0.58203738075E+01 0.57737361149E+01
 0.57298398459E+01 0.56894144832E+01 0.56542156338E+01 0.56262924948E+01 0.56084195270E+01
 0.56021653160E+01 0.56084195270E+01 0.56262924948E+01 0.56542156338E+01 0.56894144832E+01
 0.57298398459E+01 0.57737361149E+01 0.58203738075E+01 0.58673616810E+01 0.59156682222E+01
 0.59658440797E+01 0.60182778974E+01 0.60725100200E+01 0.61268376256E+01 0.61824831128E+01
 0.62353013562E+01 0.62818966097E+01 0.63203082051E+01 0.63495034598E+01 0.63676995047E+01
 0.59850594999E+01 0.59823435877E+01 0.59742694036E+01 0.59617229935E+01 0.59457102550E+01
 0.59281611909E+01 0.59102746370E+01 0.58916568593E+01 0.58707261024E+01 0.58494700725E+01
 0.58267917307E+01 0.58012465677E+01 0.57743431017E+01 0.57441361316E+01 0.57129949298E+01
 0.56827241334E+01 0.56542156338E+01 0.56288324239E+01 0.56088884490E+01 0.55961353799E+01
 0.55918035393E+01 0.55961353799E+01 0.56088884490E+01 0.56288324239E+01 0.56542156338E+01
 0.56827241334E+01 0.57129949298E+01 0.57441361316E+01 0.57743431017E+01 0.58012465677E+01
 0.58267917307E+01 0.58494700725E+01 0.58707261024E+01 0.58916568593E+01 0.59102746370E+01
 0.59281611909E+01 0.59457102550E+01 0.59617229935E+01 0.59742694036E+01 0.59823435877E+01
 0.57433385957E+01 0.57430537922E+01 0.57424780390E+01 0.57421342041E+01 0.57425112935E+01
 0.57433001233E+01 0.57438547816E+01 0.57443279988E+01 0.57446664077E+01 0.57417012824E+01
 0.57344552820E+01 0.57233792314E+01 0.57078702667E+01 0.56880721667E+01 0.56669913029E+01
 0.56462001199E+01 0.56262924948E+01 0.56088884490E+01 0.55955661290E+01 0.55873313175E+01
 0.55845311125E+01 0.55873313175E+01 0.55955661290E+01 0.56088884490E+01 0.56262924948E+01
 0.56462001199E+01 0.56669913029E+01 0.56880721667E+01 0.57078702667E+01 0.57233792314E+01
 0.57344552820E+01 0.57417012824E+01 0.57446664077E+01 0.57443279988E+01 0.57438547816E+01
 0.57433001233E+01 0.57425112935E+01 0.57421342041E+01 0.57424780390E+01 0.57430537922E+01
 0.56192664782E+01 0.56201633988E+01 0.56226974832E+01 0.56273736327E+01 0.56342094529E+01
 0.56438057470E+01 0.56554439083E+01 0.56671819830E+01 0.56756890802E+01 0.56815162378E+01
 0.56822854726E+01 0.56774841116E+01 0.56678650298E+01 0.56533634835E+01 0.56381020590E+01
 0.56227886623E+01 0.56084195270E+01 0.55961353799E+01 0.55873313175E+01 0.55820185800E+01
 0.55803583754E+01 0.55820185800E+01 0.55873313175E+01 0.55961353799E+01 0.56084195270E+01
 0.56227886623E+01 0.56381020590E+01 0.56533634835E+01 0.56678650298E+01 0.56774841116E+01
 0.56822854726E+01 0.56815162378E+01 0.56756890802E+01 0.56671819830E+01 0.56554439083E+01
 0.56438057470E+01 0.56342094529E+01 0.56273736327E+01 0.56226974832E+01 0.56201633988E+01
 0.55790160017E+01 0.55803583754E+01 0.55845311125E+01 0.55918035393E+01 0.56021653160E+01
 0.56147590062E+01 0.56281666517E+01 0.56416764873E+01 0.56543072008E+01 0.56625471539E+01
 0.56649965551E+01 0.56625471539E+01 0.56543072008E+01 0.56416764873E+01 0.56281666517E+01
 0.56147590062E+01 0.56021653160E+01 0.55918035393E+01 0.55845311125E+01 0.55803583754E+01
 0.55790160017E+01 0.55803583754E+01 0.55845311125E+01 0.55918035393E+01 0.56021653160E+01
 0.56147590062E+01 0.56281666517E+01 0.56416764873E+01 0.56543072008E+01 0.56625471539E+01
 0.56649965551E+01 0.56625471539E+01 0.56543072008E+01 0.56416764873E+01 0.56281666517E+01
 0.56147590062E+01 0.56021653160E+01 0.55918035393E+01 0.55845311125E+01 0.55803583754E+01
 0.56192664782E+01 0.56201633988E+01 0.56226974832E+01 0.56273736327E+01 0.56342094529E+01
 0.56438057470E+01 0.56554439083E+01 0.56671819830E+01 0.56756890802E+01 0.56815162378E+01
 0.56822854726E+01 0.56774841116E+01 0.56678650298E+01 0.56533634835E+01 0.56381020590E+01
 0.56227886623E+01 0.56084195270E+01 0.55961353799E+01 0.55873313175E+01 0.55820185800E+01
 0.55803583754E+01 0.55820185800E+01 0.55873313175E+01 0.55961353799E+01 0.56084195270E+01
 0.56227886623E+01 0.56381020590E+01 0.56533634835E+01 0.56678650298E+01 0.56774841116E+01
 0.56822854726E+01 0.56815162378E+01 0.56756890802E+01 0.56671819830E+01 0.56554439083E+01
 0.56438057470E+01 0.56342094529E+01 0.56273736327E+01 0.56226974832E+01 0.56201633988E+01
 0.57433385957E+01 0.57430537922E+01 0.57424780390E+01 0.57421342041E+01 0.57425112935E+01
 0.57433001233E+01 0.57438547816E+01 0.57443279988E+01 0.57446664077E+01 0.57417012824E+01
 0.57344552820E+01 0.57233792314E+01 0.57078702667E+01 0.56880721667E+01 0.56669913029E+01
 0.56462001199E+01 0.56262924948E+01 0.56088884490E+01 0.55955661290E+01 0.55873313175E+01
 0.55845311125E+01 0.55873313175E+01 0.55955661290E+01 0.56088884490E+01 0.56262924948E+01
 0.56462001199E+01 0.56669913029E+01 0.56880721667E+01 0.57078702667E+01 0.57233792314E+01
 0.57344552820E+01 0.57417012824E+01 0.57446664077E+01 0.57443279988E+01 0.57438547816E+01
 0.57433001233E+01 0.57425112935E+01 0.57421342041E+01 0.57424780390E+01 0.57430537922E+01
 0.59850594999E+01 0.59823435877E+01 0.59742694036E+01 0.59617229935E+01 0.59457102550E+01
 0.59281611909E+01 0.59102746370E+01 0.58916568593E+01 0.58707261024E+01 0.58494700725E+01
 0.58267917307E+01 0.58012465677E+01 0.57743431017E+01 0.57441361316E+01 0.57129949298E+01
 0.56827241334E+01 0.56542156338E+01 0.56288324239E+01 0.56088884490E+01 0.55961353799E+01
 0.55918035393E+01 0.55961353799E+01 0.56088884490E+01 0.56288324239E+01 0.56542156338E+01
 0.56827241334E+01 0.57129949298E+01 0.57441361316E+01 0.57743431017E+01 0.58012465677E+01
 0.58267917307E+01 0.58494700725E+01 0.58707261024E+01 0.58916568593E+01 0.59102746370E+01
 0.59281611909E+01 0.59457102550E+01 0.59617229935E+01 0.59742694036E+01 0.59823435877E+01
 0.63739848733E+01 0.63676995047E+01 0.63495034598E+01 0.63203082051E+01 0.62818966097E+01
 0.62353013562E+01 0.61824831128E+01 0.61268376256E+01 0.60725100200E+01 0.60182778974E+01
 0.59658440797E+01 0.59156682222E+01 0.58673616810E+01 0.58203738075E+01 0.57737361149E+01
 0.57298398459E+01 0.56894144832E+01 0.56542156338E+01 0.56262924948E+01 0.56084195270E+01
 0.56021653160E+01 0.56084195270E+01 0.56262924948E+01 0.56542156338E+01 0.56894144832E+01
 0.57298398459E+01 0.57737361149E+01 0.58203738075E+01 0.58673616810E+01 0.59156682222E+01
 0.59658440797E+01 0.60182778974E+01 0.60725100200E+01 0.61268376256E+01 0.61824831128E+01
 0.62353013562E+01 0.62818966097E+01 0.63203082051E+01 0.63495034598E+01 0.63676995047E+01
 0.69551989683E+01 0.69442150491E+01 0.69111531570E+01 0.68565630612E+01 0.67819342733E+01
 0.66914819787E+01 0.65904820309E+01 0.64826514693E+01 0.63711366311E+01 0.62639089309E+01
 0.61642561728E+01 0.60725866095E+01 0.59901740472E+01 0.59159710056E+01 0.58477136191E+01
 0.57852045785E+01 0.57298398459E+01 0.56827241334E+01 0.56462001199E+01 0.56227886623E+01
 0.56147590062E+01 0.56227886623E+01 0.56462001199E+01 0.56827241334E+01 0.57298398459E+01
 0.57852045785E+01 0.58477136191E+01 0.59159710056E+01 0.59901740472E+01 0.60725866095E+01
 0.61642561728E+01 0.62639089309E+01 0.63711366311E+01 0.64826514693E+01 0.65904820309E+01
 0.66914819787E+01 0.67819342733E+01 0.68565630612E+01 0.69111531570E+01 0.69442150491E+01
 0.77274582032E+01 0.77103611323E+01 0.76605813180E+01 0.75802795258E+01 0.74707091663E+01
 0.73311678143E+01 0.71636202001E+01 0.69787514840E+01 0.67910997730E+01 0.66070323368E+01
 0.64349902857E+01 0.62820904356E+01 0.61478661261E+01 0.60328079883E+01 0.59338278912E+01
 0.58477136191E+01 0.57737361149E+01 0.57129949298E+01 0.56669913029E+01 0.56381020590E+01
 0.56281666517E+01 0.56381020590E+01 0.56669913029E+01 0.57129949298E+01 0.57737361149E+01
 0.58477136191E+01 0.59338278912E+01 0.60328079883E+01 0.61478661261E+01 0.62820904356E+01
 0.64349902857E+01 0.66070323368E+01 0.67910997730E+01 0.69787514840E+01 0.71636202001E+01
 0.73311678143E+01 0.74707091663E+01 0.75802795258E+01 0.76605813180E+01 0.77103611323E+01
 0.89795219714E+01 0.89336435722E+01 0.88038527990E+01 0.86122320776E+01 0.83866140671E+01
 0.81488716418E+01 0.79025190861E+01 0.76363576495E+01 0.73482730475E+01 0.70618555425E+01
 0.67941415820E+01 0.65536982117E+01 0.63480063746E+01 0.61750496070E+01 0.60328079883E+01
 0.59159710056E+01 0.58203738075E+01 0.57441361316E+01 0.56880721667E+01 0.56533634835E+01
 0.56416764873E+01 0.56533634835E+01 0.56880721667E+01 0.57441361316E+01 0.58203738075E+01
 0.59159710056E+01 0.60328079883E+01 0.61750496070E+01 0.63480063746E+01 0.65536982117E+01
 0.67941415820E+01 0.70618555425E+01 0.73482730475E+01 0.76363576495E+01 0.79025190861E+01
 0.81488716418E+01 0.83866140671E+01 0.86122320776E+01 0.88038527990E+01 0.89336435722E+01
 0.11551370914E+02 0.11436525046E+02 0.11108970596E+02 0.10616330543E+02 0.10031389185E+02
 0.94362235857E+01 0.88995320929E+01 0.84450206528E+01 0.80401010402E+01 0.76376745886E+01
 0.72479064286E+01 0.68977789164E+01 0.65961824478E+01 0.63480063746E+01 0.61478661261E+01
 0.59901740472E+01 0.58673616810E+01 0.57743431017E+01 0.57078702667E+01 0.56678650298E+01
 0.56543072008E+01 0.56678650298E+01 0.57078702667E+01 0.57743431017E+01 0.58673616810E+01
 0.59901740472E+01 0.61478661261E+01 0.63480063746E+01 0.65961824478E+01 0.68977789164E+01
 0.72479064286E+01 0.76376745886E+01 0.80401010402E+01 0.84450206528E+01 0.88995320929E+01
 0.94362235857E+01 0.10031389185E+02 0.10616330543E+02 0.11108970596E+02 0.11436525046E+02
 0.16363044585E+02 0.16134002311E+02 0.15473202478E+02 0.14460202324E+02 0.13219825679E+02
 0.11908080067E+02 0.10682031474E+02 0.96641452150E+01 0.88970800094E+01 0.83150579015E+01
 0.77963241602E+01 0.73142106726E+01 0.68977789164E+01 0.65536982117E+01 0.62820904356E+01
 0.60725866095E+01 0.59156682222E+01 0.58012465677E+01 0.57233792314E+01 0.56774841116E+01
 0.56625471539E+01 0.56774841116E+01 0.57233792314E+01 0.58012465677E+01 0.59156682222E+01
 0.60725866095E+01 0.62820904356E+01 0.65536982117E+01 0.68977789164E+01 0.73142106726E+01
 0.77963241602E+01 0.83150579015E+01 0.88970800094E+01 0.96641452150E+01 0.10682031474E+02
 0.11908080067E+02 0.13219825679E+02 0.14460202324E+02 0.15473202478E+02 0.16134002311E+02
 0.24237968852E+02 0.23841342279E+02 0.22691100365E+02 0.20904080367E+02 0.18671908439E+02
 0.16242689323E+02 0.13887041609E+02 0.11842756216E+02 0.10260974498E+02 0.91626255971E+01
 0.84133183355E+01 0.77963241602E+01 0.72479064286E+01 0.67941415820E+01 0.64349902857E+01
 0.61642561728E+01 0.59658440797E+01 0.58267917307E+01 0.57344552820E+01 0.56822854726E+01
 0.56649965551E+01 0.56822854726E+01 0.57344552820E+01 0.58267917307E+01 0.59658440797E+01
 0.61642561728E+01 0.64349902857E+01 0.67941415820E+01 0.72479064286E+01 0.77963241602E+01
 0.84133183355E+01 0.91626255971E+01 0.10260974498E+02 0.11842756216E+02 0.13887041609E+02
 0.16242689323E+02 0.18671908439E+02 0.20904080367E+02 0.22691100365E+02 0.23841342279E+02
 0.35759934845E+02 0.35137140497E+02 0.33324570330E+02 0.30489078753E+02 0.26904234419E+02
 0.22930438166E+02 0.18973496889E+02 0.15418006718E+02 0.12550253667E+02 0.10488618811E+02
 0.91626255971E+01 0.83150579015E+01 0.76376745886E+01 0.70618555425E+01 0.66070323368E+01
 0.62639089309E+01 0.60182778974E+01 0.58494700725E+01 0.57417012824E+01 0.56815162378E+01
 0.56625471539E+01 0.56815162378E+01 0.57417012824E+01 0.58494700725E+01 0.60182778974E+01
 0.62639089309E+01 0.66070323368E+01 0.70618555425E+01 0.76376745886E+01 0.83150579015E+01
 0.91626255971E+01 0.10488618811E+02 0.12550253667E+02 0.15418006718E+02 0.18973496889E+02
 0.22930438166E+02 0.26904234419E+02 0.30489078753E+02 0.33324570330E+02 0.35137140497E+02
 0.51154427166E+02 0.50240588031E+02 0.47576534092E+02 0.43398762023E+02 0.38087387789E+02
 0.32144854934E+02 0.26134521793E+02 0.20606883998E+02 0.15996764515E+02 0.12550253667E+02
 0.10260974498E+02 0.88970800094E+01 0.80401010402E+01 0.73482730475E+01 0.67910997730E+01
 0.63711366311E+01 0.60725100200E+01 0.58707261024E+01 0.57446664077E+01 0.56756890802E+01
 0.56543072008E+01 0.56756890802E+01 0.57446664077E+01 0.58707261024E+01 0.60725100200E+01
 0.63711366311E+01 0.67910997730E+01 0.73482730475E+01 0.80401010402E+01 0.88970800094E+01
 0.10260974498E+02 0.12550253667E+02 0.15996764515E+02 0.20606883998E+02 0.26134521793E+02
 0.32144854934E+02 0.38087387789E+02 0.43398762023E+02 0.47576534092E+02 0.50240588031E+02
 0.70179620190E+02 0.68906515311E+02 0.65200440943E+02 0.59387259522E+02 0.51991835545E+02
 0.43685561617E+02 0.35222109106E+02 0.27328899959E+02 0.20606883998E+02 0.15418006718E+02
 0.11842756216E+02 0.96641452150E+01 0.84450206528E+01 0.76363576495E+01 0.69787514840E+01
 0.64826514693E+01 0.61268376256E+01 0.58916568593E+01 0.57443279988E+01 0.56671819830E+01
 0.56416764873E+01 0.56671819830E+01 0.57443279988E+01 0.58916568593E+01 0.61268376256E+01
 0.64826514693E+01 0.69787514840E+01 0.76363576495E+01 0.84450206528E+01 0.96641452150E+01
 0.11842756216E+02 0.15418006718E+02 0.20606883998E+02 0.27328899959E+02 0.35222109106E+02
 0.43685561617E+02 0.51991835545E+02 0.59387259522E+02 0.65200440943E+02 0.68906515311E+02
 0.92066907101E+02 0.90373716230E+02 0.85449052605E+02 0.77742031499E+02 0.67955191516E+02
 0.56970805587E+02 0.45752629504E+02 0.35222109106E+02 0.26134521793E+02 0.18973496889E+02
 0.13887041609E+02 0.10682031474E+02 0.88995320929E+01 0.79025190861E+01 0.71636202001E+01
 0.65904820309E+01 0.61824831128E+01 0.59102746370E+01 0.57438547816E+01 0.56554439083E+01
 0.56281666517E+01 0.56554439083E+01 0.57438547816E+01 0.59102746370E+01 0.61824831128E+01
 0.65904820309E+01 0.71636202001E+01 0.79025190861E+01 0.88995320929E+01 0.10682031474E+02
 0.13887041609E+02 0.18973496889E+02 0.26134521793E+02 0.35222109106E+02 0.45752629504E+02
 0.56970805587E+02 0.67955191516E+02 0.77742031499E+02 0.85449052605E+02 0.90373716230E+02
 0.11552425780E+03 0.11336607356E+03 0.10709794393E+03 0.97319066660E+02 0.84944023609E+02
 0.71097153798E+02 0.56970805587E+02 0.43685561617E+02 0.32144854934E+02 0.22930438166E+02
 0.16242689323E+02 0.11908080067E+02 0.94362235857E+01 0.81488716418E+01 0.73311678143E+01
 0.66914819787E+01 0.62353013562E+01 0.59281611909E+01 0.57433001233E+01 0.56438057470E+01
 0.56147590062E+01 0.56438057470E+01 0.57433001233E+01 0.59281611909E+01 0.62353013562E+01
 0.66914819787E+01 0.73311678143E+01 0.81488716418E+01 0.94362235857E+01 0.11908080067E+02
 0.16242689323E+02 0.22930438166E+02 0.32144854934E+02 0.43685561617E+02 0.56970805587E+02
 0.71097153798E+02 0.84944023609E+02 0.97319066660E+02 0.10709794393E+03 0.11336607356E+03
 0.13881756527E+03 0.13617985570E+03 0.12853209557E+03 0.11663878011E+03 0.10164848264E+03
 0.84944023609E+02 0.67955191516E+02 0.51991835545E+02 0.38087387789E+02 0.26904234419E+02
 0.18671908439E+02 0.13219825679E+02 0.10031389185E+02 0.83866140671E+01 0.74707091663E+01
 0.67819342733E+01 0.62818966097E+01 0.59457102550E+01 0.57425112935E+01 0.56342094529E+01
 0.56021653160E+01 0.56342094529E+01 0.57425112935E+01 0.59457102550E+01 0.62818966097E+01
 0.67819342733E+01 0.74707091663E+01 0.83866140671E+01 0.10031389185E+02 0.13219825679E+02
 0.18671908439E+02 0.26904234419E+02 0.38087387789E+02 0.51991835545E+02 0.67955191516E+02
 0.84944023609E+02 0.10164848264E+03 0.11663878011E+03 0.12853209557E+03 0.13617985570E+03
 0.15993640454E+03 0.15684811216E+03 0.14790893950E+03 0.13404571346E+03 0.11663878011E+03
 0.97319066660E+02 0.77742031499E+02 0.59387259522E+02 0.43398762023E+02 0.30489078753E+02
 0.20904080367E+02 0.14460202324E+02 0.10616330543E+02 0.86122320776E+01 0.75802795258E+01
 0.68565630612E+01 0.63203082051E+01 0.59617229935E+01 0.57421342041E+01 0.56273736327E+01
 0.55918035393E+01 0.56273736327E+01 0.57421342041E+01 0.59617229935E+01 0.63203082051E+01
 0.68565630612E+01 0.75802795258E+01 0.86122320776E+01 0.10616330543E+02 0.14460202324E+02
 0.20904080367E+02 0.30489078753E+02 0.43398762023E+02 0.59387259522E+02 0.77742031499E+02
 0.97319066660E+02 0.11663878011E+03 0.13404571346E+03 0.14790893950E+03 0.15684811216E+03
 0.17684901995E+03 0.17338928804E+03 0.16338717811E+03 0.14790893950E+03 0.12853209557E+03
 0.10709794393E+03 0.85449052605E+02 0.65200440943E+02 0.47576534092E+02 0.33324570330E+02
 0.22691100365E+02 0.15473202478E+02 0.11108970596E+02 0.88038527990E+01 0.76605813180E+01
 0.69111531570E+01 0.63495034598E+01 0.59742694036E+01 0.57424780390E+01 0.56226974832E+01
 0.55845311125E+01 0.56226974832E+01 0.57424780390E+01 0.59742694036E+01 0.63495034598E+01
 0.69111531570E+01 0.76605813180E+01 0.88038527990E+01 0.11108970596E+02 0.15473202478E+02
 0.22691100365E+02 0.33324570330E+02 0.47576534092E+02 0.65200440943E+02 0.85449052605E+02
 0.10709794393E+03 0.12853209557E+03 0.14790893950E+03 0.16338717811E+03 0.17338928804E+03
 0.18779775807E+03 0.18409258168E+03 0.17338928804E+03 0.15684811216E+03 0.13617985570E+03
 0.11336607356E+03 0.90373716230E+02 0.68906515311E+02 0.50240588031E+02 0.35137140497E+02
 0.23841342279E+02 0.16134002311E+02 0.11436525046E+02 0.89336435722E+01 0.77103611323E+01
 0.69442150491E+01 0.63676995047E+01 0.59823435877E+01 0.57430537922E+01 0.56201633988E+01
 0.55803583754E+01 0.56201633988E+01 0.57430537922E+01 0.59823435877E+01 0.63676995047E+01
 0.69442150491E+01 0.77103611323E+01 0.89336435722E+01 0.11436525046E+02 0.16134002311E+02
 0.23841342279E+02 0.35137140497E+02 0.50240588031E+02 0.68906515311E+02 0.90373716230E+02
 0.11336607356E+03 0.13617985570E+03 0.15684811216E+03 0.17338928804E+03 0.18409258168E+03
 0.18779775807E+03 0.18409258168E+03 0.17338928804E+03 0.15684811216E+03 0.13617985570E+03
 0.11336607356E+03 0.90373716230E+02 0.68906515311E+02 0.50240588031E+02 0.35137140497E+02
 0.23841342279E+02 0.16134002311E+02 0.11436525046E+02 0.89336435722E+01 0.77103611323E+01
 0.69442150491E+01 0.63676995047E+01 0.59823435877E+01 0.57430537922E+01 0.56201633988E+01
 0.55803583754E+01 0.56201633988E+01 0.57430537922E+01 0.59823435877E+01 0.63676995047E+01
 0.69442150491E+01 0.77103611323E+01 0.89336435722E+01 0.11436525046E+02 0.16134002311E+02