   2   2   1   0
  0.1173411E+02  0.2863036E-09  0.2863036E-09  0.2863036E-09  0.5000000E-15
  1.000000000000000E-004
  CAR 
 unknown system                          
     45.26042690     -4.86564465  301      5.86834413      1.00000000
     -4.866  0.0000E+00  0.0000E+00  0.0000E+00  0.0000E+00
     -4.699  0.0000E+00  0.0000E+00  0.0000E+00  0.0000E+00
     -4.531  0.0000E+00  0.0000E+00  0.0000E+00  0.0000E+00
     -4.364  0.0000E+00  0.0000E+00  0.0000E+00  0.0000E+00
     -4.197 -0.2878E-32  0.0000E+00 -0.4808E-33  0.0000E+00
     -4.030 -0.8948E-27 -0.4721E-32 -0.1495E-27 -0.7889E-33
     -3.863 -0.6825E-22 -0.1393E-26 -0.1140E-22 -0.2328E-27
     -3.696 -0.1239E-17 -0.1008E-21 -0.2070E-18 -0.1685E-22
     -3.529 -0.5647E-14 -0.1736E-17 -0.9438E-15 -0.2901E-18
     -3.362 -0.6387E-11 -0.7509E-14 -0.1068E-11 -0.1255E-14
     -3.195 -0.1824E-08 -0.8057E-11 -0.3059E-09 -0.1347E-11
     -3.028 -0.1349E-06 -0.2184E-08 -0.2284E-07 -0.3663E-09
     -2.861 -0.2511E-05 -0.1533E-06 -0.4424E-06 -0.2598E-07
     -2.694 -0.6091E-05 -0.2697E-05 -0.1460E-05 -0.4767E-06
     -2.526  0.6460E-04 -0.5601E-05  0.9334E-05 -0.1413E-05
     -2.359  0.2303E-03  0.6965E-04  0.4781E-04  0.1022E-04
     -2.192  0.3638E-03  0.2338E-03  0.1086E-03  0.4929E-04
     -2.025  0.5344E-03  0.3648E-03  0.1979E-03  0.1103E-03
     -1.858  0.4657E-03  0.5323E-03  0.2757E-03  0.1992E-03
     -1.691  0.7024E-03  0.4552E-03  0.3930E-03  0.2753E-03
     -1.524  0.7555E-03  0.6927E-03  0.5193E-03  0.3910E-03
     -1.357  0.8075E-03  0.7375E-03  0.6542E-03  0.5142E-03
     -1.190  0.7275E-03  0.7895E-03  0.7758E-03  0.6461E-03
     -1.023  0.1044E-02  0.7043E-03  0.9501E-03  0.7638E-03
     -0.856  0.1230E-02  0.9516E-03  0.1156E-02  0.9228E-03
     -0.688  0.1011E-02  0.1185E-02  0.1325E-02  0.1121E-02
     -0.521  0.1000E-02  0.1043E-02  0.1492E-02  0.1295E-02
     -0.354  0.1515E-02  0.8014E-03  0.1745E-02  0.1429E-02
     -0.187  0.1632E-02  0.1319E-02  0.2018E-02  0.1649E-02
     -0.020  0.1535E-02  0.1498E-02  0.2274E-02  0.1900E-02
      0.147  0.1582E-02  0.1420E-02  0.2538E-02  0.2137E-02
      0.314  0.1930E-02  0.1227E-02  0.2861E-02  0.2342E-02
      0.481  0.2444E-02  0.1587E-02  0.3269E-02  0.2607E-02
      0.648  0.2727E-02  0.1550E-02  0.3725E-02  0.2866E-02
      0.815  0.3175E-02  0.1938E-02  0.4255E-02  0.3190E-02
      0.982  0.5904E-02  0.2179E-02  0.5242E-02  0.3554E-02
      1.149  0.1059E-01  0.1972E-02  0.7011E-02  0.3884E-02
      1.317  0.1157E-01  0.1761E-02  0.8945E-02  0.4178E-02
      1.484  0.1412E-01  0.2711E-02  0.1130E-01  0.4631E-02
      1.651  0.1811E-01  0.3015E-02  0.1433E-01  0.5135E-02
      1.818  0.1798E-01  0.3053E-02  0.1734E-01  0.5645E-02
      1.985  0.1367E-01  0.3676E-02  0.1962E-01  0.6259E-02
      2.152  0.9723E-02  0.4539E-02  0.2124E-01  0.7017E-02
      2.319  0.8580E-02  0.6325E-02  0.2268E-01  0.8074E-02
      2.486  0.1892E-01  0.7828E-02  0.2584E-01  0.9382E-02
      2.653  0.3031E-01  0.6605E-02  0.3090E-01  0.1049E-01
      2.820  0.2400E-01  0.7369E-02  0.3491E-01  0.1172E-01
      2.987  0.2013E-01  0.9285E-02  0.3828E-01  0.1327E-01
      3.155  0.2237E-01  0.1165E-01  0.4201E-01  0.1522E-01
      3.322  0.2823E-01  0.1299E-01  0.4673E-01  0.1739E-01
      3.489  0.2714E-01  0.1115E-01  0.5126E-01  0.1925E-01
      3.656  0.1653E-01  0.8168E-02  0.5403E-01  0.2061E-01
      3.823  0.9411E-02  0.5486E-02  0.5560E-01  0.2153E-01
      3.990  0.8418E-02  0.9864E-02  0.5701E-01  0.2318E-01
      4.157  0.9011E-02  0.2089E-01  0.5851E-01  0.2667E-01
      4.324  0.1192E-01  0.2641E-01  0.6050E-01  0.3108E-01
      4.491  0.1859E-01  0.2444E-01  0.6361E-01  0.3516E-01
      4.658  0.3070E-01  0.2274E-01  0.6874E-01  0.3896E-01
      4.825  0.4285E-01  0.2253E-01  0.7590E-01  0.4273E-01
      4.992  0.5044E-01  0.2423E-01  0.8433E-01  0.4678E-01
      5.160  0.3594E-01  0.2336E-01  0.9033E-01  0.5068E-01
      5.327  0.1886E-01  0.1904E-01  0.9348E-01  0.5386E-01
      5.494  0.1664E-01  0.1309E-01  0.9626E-01  0.5605E-01
      5.661  0.1401E-01  0.6492E-02  0.9860E-01  0.5714E-01
      5.828  0.1487E-01  0.5441E-02  0.1011E+00  0.5804E-01
      5.995  0.1559E-01  0.4751E-02  0.1037E+00  0.5884E-01
      6.162  0.9854E-02  0.5441E-02  0.1053E+00  0.5975E-01
      6.329  0.4577E-02  0.5921E-02  0.1061E+00  0.6074E-01
      6.496  0.2259E-02  0.8673E-02  0.1065E+00  0.6219E-01
      6.663  0.2712E-02  0.1190E-01  0.1069E+00  0.6417E-01
      6.830  0.3534E-02  0.1495E-01  0.1075E+00  0.6667E-01
      6.998  0.3256E-02  0.1775E-01  0.1081E+00  0.6964E-01
      7.165  0.2390E-02  0.2255E-01  0.1085E+00  0.7341E-01
      7.332  0.3032E-02  0.2674E-01  0.1090E+00  0.7787E-01
      7.499  0.3450E-02  0.2527E-01  0.1096E+00  0.8210E-01
      7.666  0.2067E-02  0.3187E-01  0.1099E+00  0.8742E-01
      7.833  0.2152E-02  0.4795E-01  0.1103E+00  0.9543E-01
      8.000  0.3138E-02  0.3286E-01  0.1108E+00  0.1009E+00
      8.167  0.3329E-02  0.1666E-01  0.1113E+00  0.1037E+00
      8.334  0.2845E-02  0.1145E-01  0.1118E+00  0.1056E+00
      8.501  0.2673E-02  0.6167E-02  0.1123E+00  0.1067E+00
      8.668  0.2090E-02  0.4143E-02  0.1126E+00  0.1073E+00
      8.835  0.1863E-02  0.4610E-02  0.1129E+00  0.1081E+00
      9.003  0.2567E-02  0.4396E-02  0.1133E+00  0.1088E+00
      9.170  0.2602E-02  0.3768E-02  0.1138E+00  0.1095E+00
      9.337  0.2368E-02  0.2644E-02  0.1142E+00  0.1099E+00
      9.504  0.2471E-02  0.3262E-02  0.1146E+00  0.1105E+00
      9.671  0.2674E-02  0.4855E-02  0.1150E+00  0.1113E+00
      9.838  0.1979E-02  0.3704E-02  0.1154E+00  0.1119E+00
     10.005  0.1672E-02  0.2245E-02  0.1156E+00  0.1123E+00
     10.172  0.1774E-02  0.2238E-02  0.1159E+00  0.1126E+00
     10.339  0.2144E-02  0.3406E-02  0.1163E+00  0.1132E+00
     10.506  0.1313E-02  0.3493E-02  0.1165E+00  0.1138E+00
     10.673  0.1296E-02  0.2432E-02  0.1167E+00  0.1142E+00
     10.841  0.2465E-02  0.2365E-02  0.1172E+00  0.1146E+00
     11.008  0.2125E-02  0.3196E-02  0.1175E+00  0.1151E+00
     11.175  0.1822E-02  0.2273E-02  0.1178E+00  0.1155E+00
     11.342  0.1182E-02  0.1765E-02  0.1180E+00  0.1158E+00
     11.509  0.1173E-02  0.2363E-02  0.1182E+00  0.1162E+00
     11.676  0.1158E-02  0.1940E-02  0.1184E+00  0.1165E+00
     11.843  0.4235E-03  0.1738E-02  0.1185E+00  0.1168E+00
     12.010  0.9832E-03  0.2522E-02  0.1186E+00  0.1172E+00
     12.177  0.1428E-02  0.2168E-02  0.1189E+00  0.1176E+00
     12.344  0.1011E-02  0.1713E-02  0.1190E+00  0.1179E+00
     12.511  0.9716E-03  0.1177E-02  0.1192E+00  0.1181E+00
     12.678  0.8613E-03  0.1132E-02  0.1193E+00  0.1183E+00
     12.846  0.9006E-03  0.1032E-02  0.1195E+00  0.1184E+00
     13.013  0.6009E-03  0.1142E-02  0.1196E+00  0.1186E+00
     13.180  0.2974E-03  0.1808E-02  0.1196E+00  0.1189E+00
     13.347  0.1436E-02  0.1439E-02  0.1199E+00  0.1192E+00
     13.514  0.3622E-02  0.5866E-03  0.1205E+00  0.1193E+00
     13.681  0.5200E-02  0.5608E-03  0.1214E+00  0.1194E+00
     13.848  0.5578E-02  0.8945E-03  0.1223E+00  0.1195E+00
     14.015  0.4969E-02  0.5117E-03  0.1231E+00  0.1196E+00
     14.182  0.3906E-02  0.2428E-03  0.1238E+00  0.1196E+00
     14.349  0.3595E-02  0.1385E-03  0.1244E+00  0.1197E+00
     14.516  0.3752E-02  0.1287E-02  0.1250E+00  0.1199E+00
     14.684  0.3095E-02  0.4051E-02  0.1255E+00  0.1206E+00
     14.851  0.3063E-02  0.5961E-02  0.1260E+00  0.1216E+00
     15.018  0.3055E-02  0.7058E-02  0.1265E+00  0.1227E+00
     15.185  0.2743E-02  0.6052E-02  0.1270E+00  0.1237E+00
     15.352  0.3578E-02  0.3211E-02  0.1276E+00  0.1243E+00
     15.519  0.3488E-02  0.3191E-02  0.1282E+00  0.1248E+00
     15.686  0.2929E-02  0.4159E-02  0.1287E+00  0.1255E+00
     15.853  0.4307E-02  0.4363E-02  0.1294E+00  0.1262E+00
     16.020  0.4348E-02  0.4286E-02  0.1301E+00  0.1270E+00
     16.187  0.3808E-02  0.2643E-02  0.1308E+00  0.1274E+00
     16.354  0.3388E-02  0.3339E-02  0.1313E+00  0.1280E+00
     16.521  0.3574E-02  0.3728E-02  0.1319E+00  0.1286E+00
     16.689  0.4075E-02  0.4782E-02  0.1326E+00  0.1294E+00
     16.856  0.3721E-02  0.4770E-02  0.1332E+00  0.1302E+00
     17.023  0.3639E-02  0.3897E-02  0.1338E+00  0.1308E+00
     17.190  0.3485E-02  0.4389E-02  0.1344E+00  0.1316E+00
     17.357  0.4922E-02  0.4219E-02  0.1352E+00  0.1323E+00
     17.524  0.4570E-02  0.2796E-02  0.1360E+00  0.1327E+00
     17.691  0.2460E-02  0.3520E-02  0.1364E+00  0.1333E+00
     17.858  0.2364E-02  0.4357E-02  0.1368E+00  0.1340E+00
     18.025  0.3682E-02  0.4135E-02  0.1374E+00  0.1347E+00
     18.192  0.3365E-02  0.5323E-02  0.1380E+00  0.1356E+00
     18.359  0.3929E-02  0.4599E-02  0.1386E+00  0.1364E+00
     18.527  0.5752E-02  0.2247E-02  0.1396E+00  0.1368E+00
     18.694  0.4077E-02  0.2258E-02  0.1403E+00  0.1371E+00
     18.861  0.2527E-02  0.3234E-02  0.1407E+00  0.1377E+00
     19.028  0.3532E-02  0.4721E-02  0.1413E+00  0.1385E+00
     19.195  0.2268E-02  0.5075E-02  0.1417E+00  0.1393E+00
     19.362  0.1287E-02  0.4843E-02  0.1419E+00  0.1401E+00
     19.529  0.4204E-02  0.3665E-02  0.1426E+00  0.1407E+00
     19.696  0.5634E-02  0.2875E-02  0.1435E+00  0.1412E+00
     19.863  0.4556E-02  0.2429E-02  0.1443E+00  0.1416E+00
     20.030  0.4607E-02  0.2106E-02  0.1451E+00  0.1420E+00
     20.197  0.2503E-02  0.4097E-02  0.1455E+00  0.1427E+00
     20.364  0.1510E-02  0.4894E-02  0.1457E+00  0.1435E+00
     20.532  0.2531E-02  0.5139E-02  0.1462E+00  0.1443E+00
     20.699  0.3302E-02  0.4764E-02  0.1467E+00  0.1451E+00
     20.866  0.3063E-02  0.1965E-02  0.1472E+00  0.1455E+00
     21.033  0.3535E-02  0.2509E-02  0.1478E+00  0.1459E+00
     21.200  0.5149E-02  0.3065E-02  0.1487E+00  0.1464E+00
     21.367  0.4880E-02  0.2752E-02  0.1495E+00  0.1469E+00
     21.534  0.3464E-02  0.3303E-02  0.1501E+00  0.1474E+00
     21.701  0.1965E-02  0.4378E-02  0.1504E+00  0.1481E+00
     21.868  0.1402E-02  0.5501E-02  0.1506E+00  0.1491E+00
     22.035  0.3369E-02  0.4171E-02  0.1512E+00  0.1498E+00
     22.202  0.4013E-02  0.2942E-02  0.1519E+00  0.1503E+00
     22.370  0.3946E-02  0.1362E-02  0.1525E+00  0.1505E+00
     22.537  0.4972E-02  0.2440E-02  0.1533E+00  0.1509E+00
     22.704  0.5036E-02  0.3821E-02  0.1542E+00  0.1515E+00
     22.871  0.4896E-02  0.3755E-02  0.1550E+00  0.1522E+00
     23.038  0.4354E-02  0.4160E-02  0.1557E+00  0.1528E+00
     23.205  0.3232E-02  0.5248E-02  0.1563E+00  0.1537E+00
     23.372  0.2969E-02  0.5460E-02  0.1568E+00  0.1546E+00
     23.539  0.4234E-02  0.4305E-02  0.1575E+00  0.1554E+00
     23.706  0.5668E-02  0.3713E-02  0.1584E+00  0.1560E+00
     23.873  0.5082E-02  0.4400E-02  0.1593E+00  0.1567E+00
     24.040  0.5014E-02  0.4318E-02  0.1601E+00  0.1574E+00
     24.207  0.7022E-02  0.4764E-02  0.1613E+00  0.1582E+00
     24.375  0.5464E-02  0.6597E-02  0.1622E+00  0.1593E+00
     24.542  0.4033E-02  0.7114E-02  0.1629E+00  0.1605E+00
     24.709  0.3915E-02  0.5883E-02  0.1635E+00  0.1615E+00
     24.876  0.4209E-02  0.4278E-02  0.1642E+00  0.1622E+00
     25.043  0.4094E-02  0.4370E-02  0.1649E+00  0.1629E+00
     25.210  0.5380E-02  0.4529E-02  0.1658E+00  0.1637E+00
     25.377  0.5961E-02  0.3722E-02  0.1668E+00  0.1643E+00
     25.544  0.6084E-02  0.5069E-02  0.1678E+00  0.1652E+00
     25.711  0.6124E-02  0.5732E-02  0.1688E+00  0.1661E+00
     25.878  0.5658E-02  0.5374E-02  0.1698E+00  0.1670E+00
     26.045  0.3803E-02  0.6996E-02  0.1704E+00  0.1682E+00
     26.213  0.3031E-02  0.6724E-02  0.1709E+00  0.1693E+00
     26.380  0.4393E-02  0.4067E-02  0.1717E+00  0.1700E+00
     26.547  0.6095E-02  0.3274E-02  0.1727E+00  0.1705E+00
     26.714  0.6099E-02  0.4146E-02  0.1737E+00  0.1712E+00
     26.881  0.5824E-02  0.5193E-02  0.1747E+00  0.1721E+00
     27.048  0.4384E-02  0.5846E-02  0.1754E+00  0.1731E+00
     27.215  0.4153E-02  0.5930E-02  0.1761E+00  0.1741E+00
     27.382  0.3310E-02  0.5867E-02  0.1767E+00  0.1751E+00
     27.549  0.2828E-02  0.4777E-02  0.1771E+00  0.1759E+00
     27.716  0.3584E-02  0.2831E-02  0.1777E+00  0.1763E+00
     27.883  0.3248E-02  0.3317E-02  0.1783E+00  0.1769E+00
     28.050  0.3858E-02  0.4120E-02  0.1789E+00  0.1776E+00
     28.218  0.4329E-02  0.2603E-02  0.1796E+00  0.1780E+00
     28.385  0.4000E-02  0.2442E-02  0.1803E+00  0.1784E+00
     28.552  0.3549E-02  0.4442E-02  0.1809E+00  0.1792E+00
     28.719  0.2805E-02  0.5647E-02  0.1814E+00  0.1801E+00
     28.886  0.2906E-02  0.3267E-02  0.1819E+00  0.1806E+00
     29.053  0.2094E-02  0.2310E-02  0.1822E+00  0.1810E+00
     29.220  0.2177E-02  0.3180E-02  0.1826E+00  0.1816E+00
     29.387  0.2257E-02  0.3212E-02  0.1829E+00  0.1821E+00
     29.554  0.3180E-02  0.2359E-02  0.1835E+00  0.1825E+00
     29.721  0.3987E-02  0.2396E-02  0.1841E+00  0.1829E+00
     29.888  0.3170E-02  0.2374E-02  0.1847E+00  0.1833E+00
     30.056  0.3110E-02  0.3690E-02  0.1852E+00  0.1839E+00
     30.223  0.4068E-02  0.4259E-02  0.1859E+00  0.1846E+00
     30.390  0.4514E-02  0.2844E-02  0.1866E+00  0.1851E+00
     30.557  0.5502E-02  0.3583E-02  0.1875E+00  0.1857E+00
     30.724  0.5802E-02  0.5517E-02  0.1885E+00  0.1866E+00
     30.891  0.6681E-02  0.5233E-02  0.1896E+00  0.1875E+00
     31.058  0.6290E-02  0.5864E-02  0.1907E+00  0.1885E+00
     31.225  0.5835E-02  0.6627E-02  0.1917E+00  0.1896E+00
     31.392  0.4912E-02  0.5636E-02  0.1925E+00  0.1905E+00
     31.559  0.4284E-02  0.6109E-02  0.1932E+00  0.1915E+00
     31.726  0.3813E-02  0.5553E-02  0.1938E+00  0.1925E+00
     31.893  0.3061E-02  0.3734E-02  0.1943E+00  0.1931E+00
     32.061  0.3974E-02  0.4716E-02  0.1950E+00  0.1939E+00
     32.228  0.3205E-02  0.4903E-02  0.1955E+00  0.1947E+00
     32.395  0.1642E-02  0.2817E-02  0.1958E+00  0.1952E+00
     32.562  0.1151E-02  0.2258E-02  0.1960E+00  0.1955E+00
     32.729  0.1000E-02  0.1565E-02  0.1962E+00  0.1958E+00
     32.896  0.1914E-02  0.1432E-02  0.1965E+00  0.1960E+00
     33.063  0.1384E-02  0.2459E-02  0.1967E+00  0.1965E+00
     33.230  0.7488E-03  0.1275E-02  0.1969E+00  0.1967E+00
     33.397  0.1168E-02  0.5918E-03  0.1970E+00  0.1968E+00
     33.564  0.1423E-02  0.1627E-02  0.1973E+00  0.1970E+00
     33.731  0.1395E-02  0.2090E-02  0.1975E+00  0.1974E+00
     33.899  0.7784E-03  0.1164E-02  0.1977E+00  0.1976E+00
     34.066  0.7374E-03  0.5650E-03  0.1978E+00  0.1977E+00
     34.233  0.8461E-03  0.7296E-03  0.1979E+00  0.1978E+00
     34.400  0.3322E-03  0.6811E-03  0.1980E+00  0.1979E+00
     34.567  0.6489E-04  0.3468E-03  0.1980E+00  0.1980E+00
     34.734  0.4924E-04  0.6420E-04  0.1980E+00  0.1980E+00
     34.901  0.7837E-03  0.4590E-03  0.1981E+00  0.1981E+00
     35.068  0.1021E-02  0.9729E-03  0.1983E+00  0.1982E+00
     35.235  0.2843E-03  0.5911E-03  0.1983E+00  0.1983E+00
     35.402  0.5467E-04  0.1834E-03  0.1983E+00  0.1984E+00
     35.569  0.9237E-03  0.7976E-03  0.1985E+00  0.1985E+00
     35.736  0.1121E-02  0.1107E-02  0.1987E+00  0.1987E+00
     35.904  0.7825E-03  0.8719E-03  0.1988E+00  0.1988E+00
     36.071  0.5175E-03  0.5538E-03  0.1989E+00  0.1989E+00
     36.238  0.1400E-03  0.1412E-04  0.1989E+00  0.1989E+00
     36.405  0.5048E-03  0.3359E-03  0.1990E+00  0.1990E+00
     36.572  0.2987E-03  0.5616E-03  0.1991E+00  0.1991E+00
     36.739  0.2419E-03  0.3183E-03  0.1991E+00  0.1991E+00
     36.906  0.9994E-04  0.4295E-04  0.1991E+00  0.1991E+00
     37.073  0.8360E-04  0.5432E-04  0.1991E+00  0.1991E+00
     37.240  0.5182E-03  0.4989E-03  0.1992E+00  0.1992E+00
     37.407  0.2848E-03  0.3219E-03  0.1993E+00  0.1993E+00
     37.574 -0.4990E-04 -0.4620E-04  0.1993E+00  0.1993E+00
     37.742  0.5532E-04  0.1463E-03  0.1993E+00  0.1993E+00
     37.909  0.8173E-03  0.8525E-03  0.1994E+00  0.1994E+00
     38.076  0.8017E-03  0.7188E-03  0.1995E+00  0.1995E+00
     38.243  0.2158E-03  0.2792E-03  0.1996E+00  0.1996E+00
     38.410  0.2428E-03  0.1690E-03  0.1996E+00  0.1996E+00
     38.577  0.1983E-03  0.1400E-03  0.1997E+00  0.1996E+00
     38.744  0.1122E-03  0.1347E-03  0.1997E+00  0.1997E+00
     38.911 -0.5402E-05 -0.7863E-06  0.1997E+00  0.1997E+00
     39.078 -0.1393E-04 -0.4556E-05  0.1997E+00  0.1997E+00
     39.245  0.1356E-03  0.1888E-03  0.1997E+00  0.1997E+00
     39.412  0.2643E-03  0.2306E-03  0.1997E+00  0.1997E+00
     39.579  0.4875E-04  0.7290E-05  0.1997E+00  0.1997E+00
     39.747 -0.2206E-04  0.6887E-04  0.1997E+00  0.1997E+00
     39.914  0.1300E-03  0.2718E-03  0.1998E+00  0.1998E+00
     40.081  0.2634E-03  0.9699E-04  0.1998E+00  0.1998E+00
     40.248  0.4340E-04 -0.8183E-05  0.1998E+00  0.1998E+00
     40.415  0.8100E-04  0.1881E-03  0.1998E+00  0.1998E+00
     40.582  0.2596E-03  0.2532E-03  0.1999E+00  0.1999E+00
     40.749  0.1596E-03  0.2611E-03  0.1999E+00  0.1999E+00
     40.916  0.2593E-03  0.1602E-03  0.1999E+00  0.2000E+00
     41.083  0.1083E-03 -0.4907E-05  0.2000E+00  0.2000E+00
     41.250 -0.1182E-04 -0.5545E-05  0.2000E+00  0.2000E+00
     41.417 -0.3118E-05 -0.2341E-06  0.2000E+00  0.2000E+00
     41.585 -0.8743E-07 -0.1928E-08  0.2000E+00  0.2000E+00
     41.752 -0.5045E-09 -0.3573E-11  0.2000E+00  0.2000E+00
     41.919 -0.6648E-12 -0.1883E-13  0.2000E+00  0.2000E+00
     42.086 -0.6524E-12 -0.2399E-10  0.2000E+00  0.2000E+00
     42.253 -0.4585E-09 -0.7779E-08  0.2000E+00  0.2000E+00
     42.420 -0.7336E-07 -0.5535E-06  0.2000E+00  0.2000E+00
     42.587 -0.2389E-05 -0.6724E-05  0.2000E+00  0.2000E+00
     42.754 -0.7235E-05  0.1810E-04  0.2000E+00  0.2000E+00
     42.921  0.8231E-04  0.1613E-03  0.2000E+00  0.2000E+00
     43.088  0.1791E-03  0.1173E-03  0.2000E+00  0.2000E+00
     43.255  0.4133E-04 -0.1657E-05  0.2000E+00  0.2000E+00
     43.422 -0.8216E-05 -0.3944E-05  0.2000E+00  0.2000E+00
     43.590 -0.1094E-05 -0.1780E-06  0.2000E+00  0.2000E+00
     43.757 -0.2126E-07 -0.1555E-08  0.2000E+00  0.2000E+00
     43.924 -0.8805E-10 -0.3064E-11  0.2000E+00  0.2000E+00
     44.091 -0.8416E-13 -0.1422E-14  0.2000E+00  0.2000E+00
     44.258 -0.1912E-16 -0.1890E-18  0.2000E+00  0.2000E+00
     44.425  0.0000E+00  0.0000E+00  0.2000E+00  0.2000E+00
     44.592  0.0000E+00  0.0000E+00  0.2000E+00  0.2000E+00
     44.759  0.0000E+00  0.0000E+00  0.2000E+00  0.2000E+00
     44.926  0.0000E+00  0.0000E+00  0.2000E+00  0.2000E+00
     45.093  0.0000E+00  0.0000E+00  0.2000E+00  0.2000E+00
     45.260  0.0000E+00  0.0000E+00  0.2000E+00  0.2000E+00
     45.26042690     -4.86564465  301      5.86834413      1.00000000
     -4.866  0.0000E+00  0.0000E+00  0.0000E+00  0.0000E+00  0.0000E+00  0.0000E+00  0.0000E+00  0.0000E+00  0.0000E+00  0.0000E+00  0.0000E+00  0.0000E+00  0.0000E+00  0.0000E+00  0.0000E+00  0.0000E+00  0.0000E+00  0.0000E+00
     -4.699  0.0000E+00  0.0000E+00  0.0000E+00  0.0000E+00  0.0000E+00  0.0000E+00  0.0000E+00  0.0000E+00  0.0000E+00  0.0000E+00  0.0000E+00  0.0000E+00  0.0000E+00  0.0000E+00  0.0000E+00  0.0000E+00  0.0000E+00  0.0000E+00
     -4.531  0.0000E+00  0.0000E+00  0.0000E+00  0.0000E+00  0.0000E+00  0.0000E+00  0.0000E+00  0.0000E+00  0.0000E+00  0.0000E+00  0.0000E+00  0.0000E+00  0.0000E+00  0.0000E+00  0.0000E+00  0.0000E+00  0.0000E+00  0.0000E+00
     -4.364  0.0000E+00  0.0000E+00  0.0000E+00  0.0000E+00  0.0000E+00  0.0000E+00  0.0000E+00  0.0000E+00  0.0000E+00  0.0000E+00  0.0000E+00  0.0000E+00  0.0000E+00  0.0000E+00  0.0000E+00  0.0000E+00  0.0000E+00  0.0000E+00
     -4.197 -0.1058E-30  0.0000E+00 -0.9314E-36  0.0000E+00 -0.9314E-36  0.0000E+00 -0.9314E-36  0.0000E+00 -0.1738E-43  0.0000E+00 -0.1738E-43  0.0000E+00 -0.1034E-37  0.0000E+00 -0.1738E-43  0.0000E+00 -0.1034E-37  0.0000E+00
     -4.030 -0.3289E-25 -0.1735E-30 -0.6319E-30 -0.1528E-35 -0.6319E-30 -0.1528E-35 -0.6319E-30 -0.1528E-35 -0.2789E-34 -0.1271E-42 -0.2789E-34 -0.1271E-42 -0.7009E-32 -0.1194E-37 -0.2789E-34 -0.1271E-42 -0.7009E-32 -0.1194E-37
     -3.863 -0.2508E-20 -0.5119E-25 -0.1050E-24 -0.9871E-30 -0.1050E-24 -0.9871E-30 -0.1050E-24 -0.9871E-30 -0.1004E-28 -0.3057E-34 -0.1004E-28 -0.3057E-34 -0.1162E-26 -0.7700E-32 -0.1004E-28 -0.3057E-34 -0.1162E-26 -0.7700E-32
     -3.696 -0.4552E-16 -0.3705E-20 -0.4269E-20 -0.1561E-24 -0.4269E-20 -0.1561E-24 -0.4269E-20 -0.1561E-24 -0.8836E-24 -0.1051E-28 -0.8836E-24 -0.1051E-28 -0.4711E-22 -0.1216E-26 -0.8836E-24 -0.1051E-28 -0.4711E-22 -0.1216E-26
     -3.529 -0.2074E-12 -0.6377E-16 -0.4097E-16 -0.6043E-20 -0.4097E-16 -0.6043E-20 -0.4097E-16 -0.6043E-20 -0.1841E-19 -0.8844E-24 -0.1841E-19 -0.8844E-24 -0.4487E-18 -0.4690E-22 -0.1841E-19 -0.8844E-24 -0.4487E-18 -0.4690E-22
     -3.362 -0.2345E-09 -0.2757E-12 -0.9870E-13 -0.5518E-16 -0.9870E-13 -0.5518E-16 -0.9870E-13 -0.5518E-16 -0.9528E-16 -0.1761E-19 -0.9528E-16 -0.1761E-19 -0.1064E-14 -0.4249E-18 -0.9528E-16 -0.1761E-19 -0.1064E-14 -0.4249E-18
     -3.195 -0.6688E-07 -0.2957E-09 -0.5825E-10 -0.1265E-12 -0.5825E-10 -0.1265E-12 -0.5825E-10 -0.1265E-12 -0.1190E-12 -0.8709E-16 -0.1190E-12 -0.8709E-16 -0.6061E-12 -0.9578E-15 -0.1190E-12 -0.8709E-16 -0.6061E-12 -0.9578E-15
     -3.028 -0.4932E-05 -0.8005E-07 -0.8458E-08 -0.7101E-10 -0.8458E-08 -0.7101E-10 -0.8458E-08 -0.7101E-10 -0.3547E-10 -0.1039E-12 -0.3547E-10 -0.1039E-12 -0.8181E-10 -0.5187E-12 -0.3547E-10 -0.1039E-12 -0.8181E-10 -0.5187E-12
     -2.861 -0.9141E-04 -0.5603E-05 -0.2965E-06 -0.9804E-08 -0.2965E-06 -0.9804E-08 -0.2965E-06 -0.9804E-08 -0.2452E-08 -0.2957E-10 -0.2452E-08 -0.2957E-10 -0.2494E-08 -0.6641E-10 -0.2452E-08 -0.2957E-10 -0.2494E-08 -0.6641E-10
     -2.694 -0.2179E-03 -0.9814E-04 -0.2007E-05 -0.3260E-06 -0.2007E-05 -0.3260E-06 -0.2007E-05 -0.3260E-06 -0.3470E-07 -0.1948E-08 -0.3470E-07 -0.1948E-08 -0.1514E-07 -0.1909E-08 -0.3470E-07 -0.1948E-08 -0.1514E-07 -0.1909E-08
     -2.526  0.2360E-02 -0.1996E-03  0.4907E-05 -0.2047E-05  0.4907E-05 -0.2047E-05  0.4907E-05 -0.2047E-05 -0.2726E-07 -0.2600E-07 -0.2726E-07 -0.2600E-07 -0.4248E-07 -0.1063E-07 -0.2726E-07 -0.2600E-07 -0.4248E-07 -0.1063E-07
     -2.359  0.8340E-02  0.2542E-02  0.4151E-04  0.5720E-05  0.4151E-04  0.5720E-05  0.4151E-04  0.5720E-05  0.4279E-06 -0.1244E-07  0.4279E-06 -0.1244E-07  0.7591E-07 -0.2726E-07  0.4279E-06 -0.1244E-07  0.7591E-07 -0.2726E-07
     -2.192  0.1294E-01  0.8462E-02  0.1428E-03  0.4321E-04  0.1428E-03  0.4321E-04  0.1428E-03  0.4321E-04  0.2903E-05  0.3335E-06  0.2903E-05  0.3335E-06  0.3420E-05  0.7370E-07  0.2903E-05  0.3335E-06  0.3420E-05  0.7370E-07
     -2.025  0.1874E-01  0.1296E-01  0.2952E-03  0.1463E-03  0.2952E-03  0.1463E-03  0.2952E-03  0.1463E-03  0.9877E-05  0.2130E-05  0.9877E-05  0.2130E-05  0.6947E-05  0.2442E-05  0.9877E-05  0.2130E-05  0.6947E-05  0.2442E-05
     -1.858  0.1604E-01  0.1865E-01  0.3431E-03  0.2971E-03  0.3431E-03  0.2971E-03  0.3431E-03  0.2971E-03  0.1972E-04  0.7003E-05  0.1972E-04  0.7003E-05  0.9432E-05  0.4788E-05  0.1972E-04  0.7003E-05  0.9432E-05  0.4788E-05
     -1.691  0.2365E-01  0.1567E-01  0.6804E-03  0.3390E-03  0.6804E-03  0.3390E-03  0.6804E-03  0.3390E-03  0.3788E-04  0.1353E-04  0.3788E-04  0.1353E-04  0.4088E-04  0.6106E-05  0.3788E-04  0.1353E-04  0.4088E-04  0.6106E-05
     -1.524  0.2505E-01  0.2332E-01  0.8370E-03  0.6771E-03  0.8370E-03  0.6771E-03  0.8370E-03  0.6771E-03  0.6007E-04  0.2589E-04  0.6007E-04  0.2589E-04  0.5910E-04  0.2665E-04  0.6007E-04  0.2589E-04  0.5910E-04  0.2665E-04
     -1.357  0.2617E-01  0.2449E-01  0.1049E-02  0.8214E-03  0.1049E-02  0.8214E-03  0.1049E-02  0.8214E-03  0.1277E-03  0.3830E-04  0.1277E-03  0.3830E-04  0.6148E-04  0.3814E-04  0.1277E-03  0.3830E-04  0.6148E-04  0.3814E-04
     -1.190  0.2315E-01  0.2563E-01  0.1061E-02  0.1041E-02  0.1061E-02  0.1041E-02  0.1061E-02  0.1041E-02  0.1232E-03  0.8304E-04  0.1232E-03  0.8304E-04  0.9754E-04  0.3835E-04  0.1232E-03  0.8304E-04  0.9754E-04  0.3835E-04
     -1.023  0.3219E-01  0.2252E-01  0.1762E-02  0.1028E-02  0.1762E-02  0.1028E-02  0.1762E-02  0.1028E-02  0.2225E-03  0.7998E-04  0.2225E-03  0.7998E-04  0.2499E-03  0.5446E-04  0.2225E-03  0.7998E-04  0.2499E-03  0.5446E-04
     -0.856  0.3722E-01  0.2954E-01  0.2209E-02  0.1628E-02  0.2209E-02  0.1628E-02  0.2209E-02  0.1628E-02  0.3777E-03  0.1262E-03  0.3777E-03  0.1262E-03  0.3293E-03  0.1410E-03  0.3777E-03  0.1262E-03  0.3293E-03  0.1410E-03
     -0.688  0.2995E-01  0.3618E-01  0.1949E-02  0.2163E-02  0.1949E-02  0.2163E-02  0.1949E-02  0.2163E-02  0.4232E-03  0.2221E-03  0.4232E-03  0.2221E-03  0.2502E-03  0.1921E-03  0.4232E-03  0.2221E-03  0.2502E-03  0.1921E-03
     -0.521  0.2845E-01  0.3124E-01  0.2111E-02  0.2056E-02  0.2111E-02  0.2056E-02  0.2111E-02  0.2056E-02  0.5954E-03  0.2636E-03  0.5954E-03  0.2636E-03  0.3832E-03  0.1641E-03  0.5954E-03  0.2636E-03  0.3832E-03  0.1641E-03
     -0.354  0.4186E-01  0.2338E-01  0.3423E-02  0.1717E-02  0.3423E-02  0.1717E-02  0.3423E-02  0.1717E-02  0.8716E-03  0.2825E-03  0.8716E-03  0.2825E-03  0.9417E-03  0.1356E-03  0.8716E-03  0.2825E-03  0.9417E-03  0.1356E-03
     -0.187  0.4373E-01  0.3733E-01  0.3912E-02  0.3075E-02  0.3912E-02  0.3075E-02  0.3912E-02  0.3075E-02  0.1127E-02  0.4810E-03  0.1127E-02  0.4810E-03  0.1149E-02  0.4379E-03  0.1127E-02  0.4810E-03  0.1149E-02  0.4379E-03
     -0.020  0.3949E-01  0.4154E-01  0.3712E-02  0.3701E-02  0.3712E-02  0.3701E-02  0.3712E-02  0.3701E-02  0.1606E-02  0.5674E-03  0.1606E-02  0.5674E-03  0.1241E-02  0.5862E-03  0.1606E-02  0.5674E-03  0.1241E-02  0.5862E-03
      0.147  0.3878E-01  0.3839E-01  0.3934E-02  0.3684E-02  0.3934E-02  0.3684E-02  0.3934E-02  0.3684E-02  0.2229E-02  0.6953E-03  0.2229E-02  0.6953E-03  0.1409E-02  0.6009E-03  0.2229E-02  0.6953E-03  0.1409E-02  0.6009E-03
      0.314  0.4503E-01  0.3204E-01  0.5076E-02  0.3286E-02  0.5076E-02  0.3286E-02  0.5076E-02  0.3286E-02  0.2770E-02  0.9105E-03  0.2770E-02  0.9105E-03  0.2508E-02  0.5689E-03  0.2770E-02  0.9105E-03  0.2508E-02  0.5689E-03
      0.481  0.5348E-01  0.4029E-01  0.6487E-02  0.4451E-02  0.6487E-02  0.4451E-02  0.6487E-02  0.4451E-02  0.4004E-02  0.1367E-02  0.4004E-02  0.1367E-02  0.4493E-02  0.7661E-03  0.4004E-02  0.1367E-02  0.4493E-02  0.7661E-03
      0.648  0.5636E-01  0.3813E-01  0.7177E-02  0.4649E-02  0.7177E-02  0.4649E-02  0.7177E-02  0.4649E-02  0.6009E-02  0.1151E-02  0.6009E-02  0.1151E-02  0.4926E-02  0.1181E-02  0.6009E-02  0.1151E-02  0.4926E-02  0.1181E-02
      0.815  0.5741E-01  0.4555E-01  0.7046E-02  0.5952E-02  0.7046E-02  0.5952E-02  0.7046E-02  0.5952E-02  0.1109E-01  0.1803E-02  0.1109E-01  0.1803E-02  0.7212E-02  0.1958E-02  0.1109E-01  0.1803E-02  0.7212E-02  0.1958E-02
      0.982  0.7469E-01  0.4971E-01  0.8784E-02  0.6767E-02  0.8784E-02  0.6767E-02  0.8784E-02  0.6767E-02  0.2907E-01  0.2657E-02  0.2907E-01  0.2657E-02  0.2844E-01  0.2062E-02  0.2907E-01  0.2657E-02  0.2844E-01  0.2062E-02
      1.149  0.1052E+00  0.4334E-01  0.1308E-01  0.6207E-02  0.1308E-01  0.6207E-02  0.1308E-01  0.6207E-02  0.5194E-01  0.2927E-02  0.5194E-01  0.2927E-02  0.7335E-01  0.1955E-02  0.5194E-01  0.2927E-02  0.7335E-01  0.1955E-02
      1.317  0.8516E-01  0.3640E-01  0.1161E-01  0.5419E-02  0.1161E-01  0.5419E-02  0.1161E-01  0.5419E-02  0.5514E-01  0.3351E-02  0.5514E-01  0.3351E-02  0.1054E+00  0.2271E-02  0.5514E-01  0.3351E-02  0.1054E+00  0.2271E-02
      1.484  0.8148E-01  0.5323E-01  0.1546E-01  0.8775E-02  0.1546E-01  0.8775E-02  0.1546E-01  0.8775E-02  0.6048E-01  0.5173E-02  0.6048E-01  0.5173E-02  0.1499E+00  0.4322E-02  0.6048E-01  0.5173E-02  0.1499E+00  0.4322E-02
      1.651  0.7972E-01  0.5621E-01  0.2069E-01  0.9787E-02  0.2069E-01  0.9787E-02  0.2069E-01  0.9787E-02  0.6679E-01  0.6102E-02  0.6679E-01  0.6102E-02  0.2215E+00  0.6012E-02  0.6679E-01  0.6102E-02  0.2215E+00  0.6012E-02
      1.818  0.6233E-01  0.5279E-01  0.2099E-01  0.9304E-02  0.2099E-01  0.9304E-02  0.2099E-01  0.9304E-02  0.6938E-01  0.8069E-02  0.6938E-01  0.8069E-02  0.2256E+00  0.6928E-02  0.6938E-01  0.8069E-02  0.2256E+00  0.6928E-02
      1.985  0.3989E-01  0.5844E-01  0.1449E-01  0.1033E-01  0.1449E-01  0.1033E-01  0.1449E-01  0.1033E-01  0.7335E-01  0.1288E-01  0.7335E-01  0.1288E-01  0.1502E+00  0.8507E-02  0.7335E-01  0.1288E-01  0.1502E+00  0.8507E-02
      2.152  0.1918E-01  0.6231E-01  0.9246E-02  0.1011E-01  0.9246E-02  0.1011E-01  0.9246E-02  0.1011E-01  0.6202E-01  0.2037E-01  0.6202E-01  0.2037E-01  0.1009E+00  0.1475E-01  0.6202E-01  0.2037E-01  0.1009E+00  0.1475E-01
      2.319  0.9955E-02  0.7438E-01  0.8893E-02  0.1260E-01  0.8893E-02  0.1260E-01  0.8893E-02  0.1260E-01  0.5435E-01  0.3148E-01  0.5435E-01  0.3148E-01  0.9291E-01  0.2620E-01  0.5435E-01  0.3148E-01  0.9291E-01  0.2620E-01
      2.486  0.2982E-02  0.8538E-01  0.1592E-01  0.1526E-01  0.1592E-01  0.1526E-01  0.1592E-01  0.1526E-01  0.1949E+00  0.4128E-01  0.1949E+00  0.4128E-01  0.1186E+00  0.3377E-01  0.1949E+00  0.4128E-01  0.1186E+00  0.3377E-01
      2.653  0.3295E-02  0.6425E-01  0.2229E-01  0.1183E-01  0.2229E-01  0.1183E-01  0.2229E-01  0.1183E-01  0.3395E+00  0.3914E-01  0.3395E+00  0.3914E-01  0.1596E+00  0.2904E-01  0.3395E+00  0.3914E-01  0.1596E+00  0.2904E-01
      2.820  0.5903E-02  0.6053E-01  0.1626E-01  0.1396E-01  0.1626E-01  0.1396E-01  0.1626E-01  0.1396E-01  0.2689E+00  0.4134E-01  0.2689E+00  0.4134E-01  0.1279E+00  0.4083E-01  0.2689E+00  0.4134E-01  0.1279E+00  0.4083E-01
      2.987  0.9194E-02  0.5849E-01  0.1778E-01  0.1656E-01  0.1778E-01  0.1656E-01  0.1778E-01  0.1656E-01  0.2226E+00  0.4259E-01  0.2226E+00  0.4259E-01  0.1024E+00  0.7675E-01  0.2226E+00  0.4259E-01  0.1024E+00  0.7675E-01
      3.155  0.1284E-01  0.5045E-01  0.2598E-01  0.1883E-01  0.2598E-01  0.1883E-01  0.2598E-01  0.1883E-01  0.2445E+00  0.4670E-01  0.2445E+00  0.4670E-01  0.1055E+00  0.1227E+00  0.2445E+00  0.4670E-01  0.1055E+00  0.1227E+00
      3.322  0.1886E-01  0.4198E-01  0.3428E-01  0.1956E-01  0.3428E-01  0.1956E-01  0.3428E-01  0.1956E-01  0.3094E+00  0.4859E-01  0.3094E+00  0.4859E-01  0.1294E+00  0.1528E+00  0.3094E+00  0.4859E-01  0.1294E+00  0.1528E+00
      3.489  0.1856E-01  0.2887E-01  0.3079E-01  0.1566E-01  0.3079E-01  0.1566E-01  0.3079E-01  0.1566E-01  0.2998E+00  0.5195E-01  0.2998E+00  0.5195E-01  0.1266E+00  0.1235E+00  0.2998E+00  0.5195E-01  0.1266E+00  0.1235E+00