    2    2  100    2
  0.1173411E+02  0.2863035E-09  0.2863035E-09  0.2863035E-09  0.5000000E-15
  1.000000000000000E-004
  CAR 
 unknown system                          
     16    120     20
 
  0.0000000E+00  0.0000000E+00  0.0000000E+00  0.2962963E-03
    1       -2.587187     -2.426310   1.000000   1.000000
    2        0.998262      2.809636   1.000000   1.000000
    3        0.998262      2.809777   1.000000   1.000000
    4        3.560896      5.457425   1.000000   1.006675
    5        3.560897      5.457557   1.000000   1.006690
    6        3.560897      5.457568   1.000000   1.006691
    7        4.778110      7.521147   1.000000  -0.000000
    8        4.778111      7.521310   1.000000  -0.000000
    9        5.994376      8.164564   0.066910  -0.000000
   10        5.994378      8.164688   0.066907  -0.000000
   11        5.994378      8.164700   0.066907  -0.000000
   12       15.837351     16.101321   0.000000   0.000000
   13       15.837351     16.101321   0.000000   0.000000
   14       15.837351     16.101324   0.000000   0.000000
   15       21.563859     22.615754   0.000000   0.000000
   16       21.563861     22.615766   0.000000   0.000000
   17       26.729481     27.827760   0.000000   0.000000
   18       30.936634     30.679430   0.000000   0.000000
   19       30.936634     30.679430   0.000000   0.000000
   20       30.936634     30.679430   0.000000   0.000000
 
  0.6666667E-01  0.1540744E-32  0.0000000E+00  0.1777778E-02
    1       -2.494479     -2.333218   1.000000   1.000000
    2        1.037881      2.843200   1.000000   1.000000
    3        1.039647      2.856702   1.000000   1.000000
    4        3.559650      5.452663   1.000000   1.006155
    5        3.559651      5.452807   1.000000   1.006170
    6        3.585869      5.485048   1.000000   1.010372
    7        4.736585      7.467075   1.000000  -0.000000
    8        4.794514      7.542004   1.000000  -0.000000
    9        5.915686      8.060726   0.305770  -0.000000
   10        5.915687      8.060861   0.305764  -0.000000
   11        5.966664      8.133548   0.134551  -0.000000
   12       15.166149     15.546820   0.000000   0.000000
   13       16.013323     16.303156   0.000000   0.000000
   14       16.013323     16.303157   0.000000   0.000000
   15       21.590428     22.634171   0.000000   0.000000
   16       22.070629     23.024107   0.000000   0.000000
   17       27.029510     28.113022   0.000000   0.000000
   18       30.303471     30.128706   0.000000   0.000000
   19       30.856510     30.639000   0.000000   0.000000
   20       30.856510     30.639001   0.000000   0.000000
 
  0.1333333E+00  0.0000000E+00  0.0000000E+00  0.1777778E-02
    1       -2.220032     -2.056996   1.000000   1.000000
    2        1.155357      2.931998   1.000000   1.000000
    3        1.156520      2.996460   1.000000   1.000000
    4        3.559937      5.443289   1.000000   1.005224
    5        3.559938      5.443431   1.000000   1.005237
    6        3.661188      5.568031   1.000000   1.027582
    7        4.613702      7.307138   1.000000  -0.000000
    8        4.842677      7.601628   1.000000  -0.000000
    9        5.699425      7.782608   1.000593  -0.000000
   10        5.699426      7.782740   1.000592  -0.000000
   11        5.884909      8.041747   0.430173  -0.000000
   12       13.692027     14.275704   0.000000   0.000000
   13       16.520724     16.874587   0.000000   0.000000
   14       16.520724     16.874590   0.000000   0.000000
   15       21.671729     22.691016   0.000000   0.000000
   16       22.953109     23.774803   0.000000   0.000000
   17       28.037700     28.989894   0.000000   0.000000
   18       29.037296     29.065073   0.000000   0.000000
   19       30.499833     30.425361   0.000000   0.000000
   20       30.499834     30.425364   0.000000   0.000000
 
  0.2000000E+00 -0.6162976E-32  0.0000000E+00  0.1777778E-02
    1       -1.775658     -1.607292   1.000000   1.000000
    2        1.325064      3.038833   1.000000   1.000000
    3        1.346757      3.224952   1.000000   1.000000
    4        3.568703      5.438136   1.000000   1.004762
    5        3.568704      5.438277   1.000000   1.004774
    6        3.783578      5.702986   1.000000   0.996588
    7        4.414206      7.048227   1.000000  -0.000000
    8        4.920236      7.402264   1.000000  -0.000000
    9        5.392068      7.402394   1.001935  -0.000000
   10        5.392070      7.692836   1.001935  -0.000000
   11        5.753089      7.893851   0.909084  -0.000000
   12       12.000430     12.796088   0.000000   0.000000
   13       17.309983     17.740089   0.000000   0.000000
   14       17.309983     17.740093   0.000000   0.000000
   15       21.812507     22.791049   0.000000   0.000000
   16       23.595276     24.336665   0.000000   0.000000
   17       27.711419     27.783979   0.000000   0.000000
   18       29.662780     29.827413   0.000000   0.000000
   19       29.662780     29.827418   0.000000   0.000000
   20       29.812885     30.749981   0.000000   0.000000
 
  0.2666667E+00  0.0000000E+00  0.0000000E+00  0.1777778E-02
    1       -1.183846     -1.001406   1.000000   1.000000
    2        1.505190      3.099270   1.000000   1.000000
    3        1.604389      3.534284   1.000000   1.000000
    4        3.596663      5.450711   1.000000   1.005951
    5        3.596663      5.450851   1.000000   1.005965
    6        3.948316      5.884856   1.000000   0.430395
    7        4.146251      6.702126   1.000000  -0.000000
    8        5.027883      6.989078   1.000000  -0.000000
    9        5.044783      6.989208   1.000000  -0.000000
   10        5.044785      7.696933   1.000000  -0.000000
   11        5.577401      7.806368   1.029615  -0.000000
   12       10.328939     11.372059  -0.000000   0.000000
   13       18.324559     18.824392   0.000000   0.000000
   14       18.324559     18.824396   0.000000   0.000000
   15       22.020502     22.942200   0.000000   0.000000
   16       24.017427     24.691272   0.000000   0.000000
   17       26.493991     26.685221   0.000000   0.000000
   18       28.391265     28.770971   0.000000   0.000000
   19       28.391266     28.770977   0.000000   0.000000
   20       30.200801     30.620358   0.000000   0.000000
 
  0.3333333E+00  0.0000000E+00  0.0000000E+00  0.1777778E-02
    1       -0.483787     -0.266966   1.000000   1.000000
    2        1.636441      3.022142   1.000000   1.000000
    3        1.918684      3.914414   1.000000   1.000000
    4        3.655571      5.495721   1.000000   1.012126
    5        3.655572      5.495859   1.000000   1.012150
    6        3.821481      6.106601   1.000000  -0.035277
    7        4.148891      6.285429   1.000000  -0.006008
    8        4.699774      6.592875   1.000000  -0.000002
    9        4.699776      6.593005   1.000000  -0.000002
   10        5.177044      7.460701   1.000006  -0.000000
   11        5.366300      7.935432   1.001106  -0.000000
   12        8.791583     10.153673  -0.000000  -0.000000
   13       19.515059     20.069738   0.000000   0.000000
   14       19.515059     20.069742   0.000000   0.000000
   15       22.306580     23.155740   0.000000   0.000000
   16       24.397109     24.998372   0.000000   0.000000
   17       25.429911     25.741660   0.000000   0.000000
   18       26.900490     27.411501   0.000000   0.000000
   19       26.900491     27.411507   0.000000   0.000000
   20       28.700778     29.109505   0.000000   0.000000
 
  0.4000000E+00  0.0000000E+00  0.0000000E+00  0.1777778E-02
    1        0.257543      0.553006   1.000000   1.000000
    2        1.636840      2.716160   1.000000   1.000000
    3        2.277153      4.351724   1.000000   1.000000
    4        3.454584      5.588139   1.000000   1.031735
    5        3.757242      5.588275   1.000000   1.031759
    6        3.757243      5.818736   1.000000   0.702920
    7        4.377320      6.243868   1.000000  -0.011631
    8        4.385955      6.244000   1.000000  -0.011609
    9        4.385956      6.359628   1.000000  -0.001404
   10        5.129956      7.196779   1.000001  -0.000000
   11        5.406831      8.087383   1.002619  -0.000000
   12        7.477072      9.238162  -0.000000  -0.000000
   13       20.842191     21.434155   0.000000   0.000000
   14       20.842192     21.434156   0.000000   0.000000
   15       22.684246     23.446104   0.000000   0.000000
   16       24.526854     24.959566   0.000000   0.000000
   17       24.860731     25.390041   0.000000   0.000000
   18       25.339499     25.918746   0.000000   0.000000
   19       25.339500     25.918751   0.000000   0.000000
   20       27.399925     27.808438   0.000000   0.000000
 
  0.4666667E+00 -0.1232595E-31  0.0000000E+00  0.1777778E-02
    1        0.933464      1.391589   1.000000   1.000000
    2        1.415832      2.150359   1.000000   1.000000
    3        2.664206      4.828783   1.000000   1.000000
    4        3.062832      5.325393   1.000000   1.000421
    5        3.910634      5.739734   1.000000   0.938397
    6        3.910635      5.739869   1.000000   0.938125
    7        4.120425      5.957722   1.000000   0.160451
    8        4.120426      5.957855   1.000000   0.160053
    9        4.624118      6.633561   1.000000  -0.000000
   10        4.878729      6.916762   1.000000  -0.000000
   11        5.799605      8.297517   0.772691  -0.000000
   12        6.468282      8.644697  -0.000094  -0.000000
   13       22.274331     22.884888   0.000000   0.000000
   14       22.274331     22.884888   0.000000   0.000000
   15       23.169060     23.830537   0.000000   0.000000
   16       23.777786     24.328384   0.000000   0.000000
   17       23.783400     24.391610   0.000000   0.000000
   18       23.783401     24.391612   0.000000   0.000000
   19       25.488018     25.956605   0.000000   0.000000
   20       26.327359     26.754737   0.000000   0.000000
 
  0.6666667E-01  0.6666667E-01  0.0000000E+00  0.3555556E-02
    1       -2.402484     -2.240720   1.000000   1.000000
    2        1.076797      2.885100   1.000000   1.000000
    3        1.081239      2.894754   1.000000   1.000000
    4        3.510393      5.396746   1.000000   1.002133
    5        3.556613      5.446182   1.000000   1.005498
    6        3.659953      5.565239   1.000000   1.026954
    7        4.728313      7.454816   1.000000  -0.000000
    8        4.782219      7.525852   1.000000  -0.000000
    9        5.775588      7.890978   0.849562  -0.000000
   10        5.837265      7.957600   0.629762  -0.000000
   11        6.005997      8.177645   0.044291  -0.000000
   12       15.183789     15.604523   0.000000   0.000000
   13       15.481145     15.872613   0.000000   0.000000
   14       16.183884     16.496106   0.000000   0.000000
   15       21.851560     22.841476   0.000000   0.000000
   16       22.386019     23.283312   0.000000   0.000000
   17       27.304723     28.377287   0.000000   0.000000
   18       29.743088     29.669918   0.000000   0.000000
   19       30.661070     30.462911   0.000000   0.000000
   20       30.807140     30.618128   0.000000   0.000000
 
  0.1333333E+00  0.6666667E-01  0.0000000E+00  0.7111111E-02
    1       -2.130268     -1.966364   1.000000   1.000000
    2        1.188921      2.977800   1.000000   1.000000
    3        1.201247      3.028111   1.000000   1.000000
    4        3.470476      5.345223   1.000000   1.000680
    5        3.549439      5.429346   1.000000   1.004051
    6        3.774425      5.689639   1.000000   1.010260
    7        4.627294      7.320327   1.000000  -0.000000
    8        4.821609      7.574152   1.000000  -0.000000
    9        5.521249      7.577966   1.017029  -0.000000
   10        5.622053      7.682438   1.035451  -0.000000
   11        5.976795      8.143003   0.107584  -0.000000
   12       13.810232     14.417800   0.000000   0.000000
   13       15.843060     16.311524   0.000000   0.000000
   14       16.677284     17.045874   0.000000   0.000000
   15       22.020385     22.970742   0.000000   0.000000
   16       23.289497     24.061723   0.000000   0.000000
   17       28.245212     28.533495   0.000000   0.000000
   18       28.468048     29.271186   0.000000   0.000000
   19       30.207930     30.131040   0.000000   0.000000
   20       30.528905     30.458108   0.000000   0.000000
 
  0.2000000E+00  0.6666667E-01  0.0000000E+00  0.7111111E-02
    1       -1.690111     -1.520033   1.000000   1.000000
    2        1.359435      3.085465   1.000000   1.000000
    3        1.385964      3.249909   1.000000   1.000000
    4        3.452805      5.313561   1.000000   1.000313
    5        3.545014      5.411971   1.000000   1.002901
    6        3.921548      5.849913   1.000000   0.577624
    7        4.449030      7.081863   1.000000  -0.000000
    8        4.900714      7.192113   1.000000  -0.000000
    9        5.201361      7.311861   1.000013  -0.000000
   10        5.319024      7.667914   1.000359  -0.000000
   11        5.875944      8.026576   0.467867  -0.000000
   12       12.115687     12.928535   0.000000   0.000000
   13       16.566348     17.112826   0.000000   0.000000
   14       17.448607     17.886020   0.000000   0.000000
   15       22.198846     23.102799   0.000000   0.000000
   16       24.022158     24.714168   0.000000   0.000000
   17       27.074093     27.268022   0.000000   0.000000
   18       29.323416     29.439207   0.000000   0.000000
   19       29.749395     29.911532   0.000000   0.000000
   20       29.951279     30.892386   0.000000   0.000000
 
  0.2666667E+00  0.6666667E-01  0.0000000E+00  0.7111111E-02
    1       -1.105266     -0.919361   1.000000   1.000000
    2        1.541206      3.144801   1.000000   1.000000
    3        1.634115      3.549398   1.000000   1.000000
    4        3.463216      5.309272   1.000000   1.000280
    5        3.544999      5.404134   1.000000   1.002481
    6        4.101261      6.046641   1.000000  -0.009894
    7        4.220615      6.766166   1.000000  -0.000000
    8        4.854442      6.785333   1.000000  -0.000000
    9        4.983041      6.921873   1.000000  -0.000000
   10        5.009947      7.785052   1.000000  -0.000000
   11        5.719049      7.847976   0.975059  -0.000000
   12       10.437438     11.488540  -0.000000   0.000000
   13       17.485356     18.101773   0.000000   0.000000
   14       18.445292     18.947216   0.000000   0.000000
   15       22.449188     23.290731   0.000000   0.000000
   16       24.530685     25.160238   0.000000   0.000000
   17       25.733865     26.057907   0.000000   0.000000
   18       28.115697     28.382104   0.000000   0.000000
   19       28.483095     28.866093   0.000000   0.000000
   20       31.264904     31.670733   0.000000   0.000000
 
  0.3333333E+00  0.6666667E-01  0.0000000E+00  0.7111111E-02
    1       -0.416000     -0.192399   1.000000   1.000000
    2        1.669839      3.063706   1.000000   1.000000
    3        1.937630      3.914398   1.000000   1.000000
    4        3.509926      5.342939   1.000000   1.000644
    5        3.515936      5.407112   1.000000   1.002634
    6        3.999471      6.276767   1.000000  -0.006961
    7        4.310454      6.398402   1.000000  -0.000576
    8        4.514785      6.404301   1.000000  -0.000500
    9        4.660581      6.568288   1.000000  -0.000004
   10        5.161043      7.622841   1.000003  -0.000000
   11        5.519596      7.917636   1.016684  -0.000000
   12        8.888501     10.244670  -0.000000  -0.000000
   13       18.539384     19.207897   0.000000   0.000000
   14       19.620074     20.173861   0.000000   0.000000
   15       22.793459     23.556372   0.000000   0.000000
   16       24.470061     24.925242   0.000000   0.000000
   17       25.000168     25.565977   0.000000   0.000000
   18       26.836106     27.187246   0.000000   0.000000
   19       26.983609     27.497762   0.000000   0.000000
   20       29.781719     30.204070   0.000000   0.000000
 
  0.4000000E+00  0.6666667E-01  0.0000000E+00  0.7111111E-02
    1        0.310068      0.617514   1.000000   1.000000
    2        1.664612      2.754327   1.000000   1.000000
    3        2.281784      4.327425   1.000000   1.000000
    4        3.337452      5.375372   1.000000   1.001353
    5        3.602188      5.426638   1.000000   1.003850
    6        3.927136      6.058537   1.000000  -0.019261
    7        4.207953      6.074519   1.000000  -0.028042
    8        4.384713      6.280474   1.000000  -0.006540
    9        4.543039      6.533714   1.000000  -0.000013
   10        5.290325      7.365511   1.000170  -0.000000
   11        5.397683      8.074340   1.002175  -0.000000
   12        7.553310      9.293625  -0.000000  -0.000000
   13       19.678712     20.375697   0.000000   0.000000
   14       20.934577     21.524371   0.000000   0.000000
   15       23.255662     23.829984   0.000000   0.000000
   16       23.256924     23.926492   0.000000   0.000000
   17       25.417442     25.997461   0.000000   0.000000
   18       25.566791     26.066531   0.000000   0.000000
   19       25.655657     26.073780   0.000000   0.000000
   20       28.431917     28.861247   0.000000   0.000000
 
  0.4666667E+00  0.6666667E-01  0.0000000E+00  0.7111111E-02
    1        0.969121      1.444147   1.000000   1.000000
    2        1.441838      2.192385   1.000000   1.000000
    3        2.649002      4.761162   1.000000   1.000000
    4        3.015460      5.156838   1.000000   1.000003
    5        3.747520      5.570509   1.000000   1.028131
    6        3.949778      5.780753   1.000000   0.834144
    7        4.012256      5.958100   1.000000   0.159317
    8        4.169745      6.066543   1.000000  -0.024167
    9        4.790754      6.808438   1.000000  -0.000000
   10        5.043522      7.089759   1.000000  -0.000000
   11        5.810594      8.295065   0.733434  -0.000000
   12        6.512680      8.664997  -0.000026  -0.000000
   13       20.862282     21.557980   0.000000   0.000000
   14       22.059328     22.715653   0.000000   0.000000
   15       22.357663     22.966016   0.000000   0.000000
   16       23.861674     24.438967   0.000000   0.000000
   17       23.866311     24.468698   0.000000   0.000000
   18       24.659173     25.141017   0.000000   0.000000
   19       26.309672     26.773072   0.000000   0.000000
   20       27.264868     27.704083   0.000000   0.000000
 
  0.1333333E+00  0.1333333E+00  0.0000000E+00  0.3555556E-02
    1       -1.865329     -1.697942   1.000000   1.000000
    2        1.285051      3.111496   1.000000   1.000000
    3        1.329862      3.111742   1.000000   1.000000
    4        3.369200      5.227319   1.000000   1.000028
    5        3.523361      5.392767   1.000000   1.001964
    6        3.947909      5.879152   1.000000   0.454343
    7        4.628044      7.214853   1.000000  -0.000000
    8        4.795816      7.306552   1.000000  -0.000000
    9        5.213581      7.420690   1.000019  -0.000000
   10        5.412649      7.541774   1.002940  -0.000000
   11        6.039088      8.214603  -0.002543  -0.000000
   12       13.792740     14.464044   0.000000   0.000000
   13       14.770232     15.421494   0.000000   0.000000
   14       17.133832     17.541105   0.000000   0.000000
   15       22.363114     23.247354   0.000000   0.000000
   16       24.289621     24.943265   0.000000   0.000000
   17       27.154640     27.382476   0.000000   0.000000
   18       28.978382     29.645160   0.000000   0.000000
   19       29.689542     29.987536   0.000000   0.000000
   20       30.503449     30.469125   0.000000   0.000000
 
  0.2000000E+00  0.1333333E+00  0.0000000E+00  0.7111111E-02
    1       -1.438857     -1.262213   1.000000   1.000000
    2        1.430721      3.209928   1.000000   1.000000
    3        1.525176      3.324424   1.000000   1.000000
    4        3.296023      5.136478   1.000000   1.000001
    5        3.492311      5.346003   1.000000   1.000693
    6        4.145975      6.095514   1.000000  -0.034088
    7        4.529216      6.806056   1.000000  -0.000000
    8        4.851127      7.084983   1.000000  -0.000000
    9        4.863038      7.158291   1.000000  -0.000000
   10        5.126847      7.606402   1.000001  -0.000000
   11        6.019250      8.190298   0.022517  -0.000000
   12       12.375994     13.221178   0.000000   0.000000
   13       15.123533     15.855418   0.000000   0.000000
   14       17.856596     18.314349   0.000000   0.000000
   15       22.583719     23.412926   0.000000   0.000000
   16       25.289381     25.858318   0.000000   0.000000
   17       25.666276     26.023708   0.000000   0.000000
   18       28.877617     28.934260   0.000000   0.000000
   19       29.986188     30.133869   0.000000   0.000000
   20       30.433318     31.383487   0.000000   0.000000
 
  0.2666667E+00  0.1333333E+00  0.0000000E+00  0.7111111E-02
    1       -0.876992     -0.678106   1.000000   1.000000
    2        1.593397      3.254844   1.000000   1.000000
    3        1.767746      3.604600   1.000000   1.000000
    4        3.259503      5.083283   1.000000   1.000000
    5        3.457377      5.298897   1.000000   1.000214
    6        4.364879      6.335086   1.000000  -0.002356
    7        4.377516      6.397045   1.000000  -0.000596
    8        4.505426      6.763986   1.000000  -0.000000
    9        4.827221      6.920249   1.000000  -0.000000
   10        4.959551      7.725995   1.000000  -0.000000
   11        5.925589      8.081011   0.268427  -0.000000
   12       10.711043     11.771842  -0.000000   0.000000
   13       15.916810     16.699168   0.000000   0.000000
   14       18.803310     19.311773   0.000000   0.000000
   15       22.826362     23.589489   0.000000   0.000000
   16       24.197832     24.670920   0.000000   0.000000
   17       26.031589     26.553734   0.000000   0.000000
   18       27.818444     27.979885   0.000000   0.000000
   19       28.755239     29.147441   0.000000   0.000000
   20       32.540219     33.443967   0.000000   0.000000
 
  0.3333333E+00  0.1333333E+00  0.0000000E+00  0.7111111E-02
    1       -0.224174      0.024601   1.000000   1.000000
    2        1.708290      3.155538   1.000000   1.000000
    3        2.046477      3.936521   1.000000   1.000000
    4        3.267755      5.077696   1.000000   1.000000
    5        3.390105      5.246851   1.000000   1.000051
    6        4.168405      6.019544   1.000000   0.022082
    7        4.246258      6.523269   1.000000  -0.000019
    8        4.569352      6.594398   1.000000  -0.000002
    9        4.600891      6.654198   1.000000  -0.000000
   10        5.113815      7.866121   1.000001  -0.000000
   11        5.772221      7.904686   0.859265  -0.000000
   12        9.140577     10.473714  -0.000000  -0.000000
   13       16.859042     17.668156   0.000000   0.000000
   14       19.933011     20.484895   0.000000   0.000000
   15       22.794586     23.372183   0.000000   0.000000
   16       23.140025     23.823187   0.000000   0.000000
   17       26.682103     26.951748   0.000000   0.000000
   18       26.706325     27.165706   0.000000   0.000000
   19       27.227722     27.751801   0.000000   0.000000
   20       31.685817     32.097007   0.000000   0.000000
 
  0.4000000E+00  0.1333333E+00  0.0000000E+00  0.7111111E-02
    1        0.449120      0.801157   1.000000   1.000000
    2        1.691358      2.838715   1.000000   1.000000
    3        2.354149      4.298498   1.000000   1.000000
    4        3.234748      5.129736   1.000000   1.000001
    5        3.328741      5.153539   1.000000   1.000003
    6        3.872439      5.695100   1.000000   1.005103
    7        4.200671      6.381206   1.000000  -0.000865
    8        4.390010      6.427681   1.000000  -0.000278
    9        4.848608      6.868009   1.000000  -0.000000
   10        5.369762      7.679549   1.001195  -0.000000
   11        5.574211      8.034911   1.028938  -0.000000
   12        7.756348      9.437695  -0.000000  -0.000000
   13       17.899458     18.709085   0.000000   0.000000
   14       21.210388     21.794328   0.000000   0.000000
   15       21.464221     22.130762   0.000000   0.000000
   16       23.556053     24.148603   0.000000   0.000000
   17       25.646675     26.004128   0.000000   0.000000
   18       25.681432     26.229087   0.000000   0.000000
   19       27.392019     27.841749   0.000000   0.000000
   20       30.402277     30.810855   0.000000   0.000000
 
  0.4666667E+00  0.1333333E+00  0.0000000E+00  0.7111111E-02
    1        1.046983      1.586799   1.000000   1.000000
    2        1.476379      2.296031   1.000000   1.000000
    3        2.674890      4.656912   1.000000   1.000000
    4        2.981833      4.959647   1.000000   1.000000
    5        3.448645      5.247611   1.000000   1.000052
    6        3.630187      5.435859   1.000000   1.004569
    7        4.230761      6.312228   1.000000  -0.003695
    8        4.289308      6.312742   1.000000  -0.003659
    9        5.100235      7.147585   1.000000  -0.000000
   10        5.345774      7.422161   1.000689  -0.000000
   11        5.842460      8.284908   0.608515  -0.000000
   12        6.635844      8.717972  -0.000000  -0.000000
   13       19.017369     19.801941   0.000000   0.000000
   14       20.205771     20.941967   0.000000   0.000000
   15       22.605832     23.207979   0.000000   0.000000
   16       24.093489     24.601656   0.000000   0.000000
   17       24.103894     24.697083   0.000000   0.000000
   18       24.808567     25.214696   0.000000   0.000000
   19       28.236529     28.661816   0.000000   0.000000
   20       29.241873     29.654075   0.000000   0.000000
 
  0.2000000E+00  0.2000000E+00  0.0000000E+00  0.3555556E-02
    1       -1.038988     -0.845937   1.000000   1.000000
    2        1.527951      3.321588   1.000000   1.000000
    3        1.742721      3.489134   1.000000   1.000000
    4        3.166349      4.985344   1.000000   1.000000
    5        3.442320      5.265698   1.000000   1.000087
    6        4.391401      6.365135   1.000000  -0.001244
    7        4.494284      6.386695   1.000000  -0.000761
    8        4.583761      6.818341   1.000000  -0.000000
    9        4.821063      7.191188   1.000000  -0.000000
   10        4.878429      7.573481   1.000000  -0.000000
   11        6.087795      8.268974  -0.032499  -0.000000
   12       12.219443     13.101467   0.000000   0.000000
   13       14.134288     15.041604   0.000000   0.000000
   14       18.512459     18.999443   0.000000   0.000000
   15       22.803253     23.570502   0.000000   0.000000
   16       24.094540     24.572820   0.000000   0.000000
   17       26.737445     27.193106   0.000000   0.000000
   18       28.256917     28.319507   0.000000   0.000000
   19       30.164873     30.296603   0.000000   0.000000
   20       31.452454     32.395648   0.000000   0.000000
 
  0.2666667E+00  0.2000000E+00  0.0000000E+00  0.7111111E-02
    1       -0.523133     -0.292961   1.000000   1.000000
    2        1.624204      3.329153   1.000000   1.000000
    3        2.009896      3.752836   1.000000   1.000000
    4        3.078193      4.877581   1.000000   1.000000
    5        3.412142      5.191897   1.000000   1.000009
    6        4.132669      5.980749   1.000000   0.097756
    7        4.538280      6.608292   1.000000  -0.000001
    8        4.644060      6.647975   1.000000  -0.000000
    9        4.648255      7.089533   1.000000  -0.000000
   10        4.891289      7.650504   1.000000  -0.000000
   11        6.074598      8.252297  -0.028075  -0.000000
   12       10.953949     11.999794  -0.000000   0.000000
   13       14.440703     15.397541   0.000000   0.000000
   14       19.386681     19.906358   0.000000   0.000000
   15       22.550103     23.130789   0.000000   0.000000
   16       23.017658     23.712748   0.000000   0.000000
   17       27.412286     27.520371   0.000000   0.000000
   18       27.882793     28.283509   0.000000   0.000000
   19       29.197093     29.602450   0.000000   0.000000
   20       31.469353     32.031781   0.000000   0.000000
 
  0.3333333E+00  0.2000000E+00  0.0000000E+00  0.7111111E-02
    1        0.055305      0.363044   1.000000   1.000000
    2        1.673399      3.195070   1.000000   1.000000
    3        2.299858      4.059247   1.000000   1.000000
    4        3.040937      4.824494   1.000000   1.000000
    5        3.383438      5.126542   1.000000   1.000001
    6        3.802940      5.616192   1.000000   1.035268
    7        4.476214      6.514134   1.000000  -0.000025
    8        4.481787      6.920558   1.000000  -0.000000
    9        4.909923      6.937117   1.000000  -0.000000
   10        5.038925      7.788593   1.000000  -0.000000
   11        5.987836      8.151000   0.081129  -0.000000
   12        9.435226     10.716862  -0.000000  -0.000000
   13       15.231768     16.188376   0.000000   0.000000
   14       20.447528     20.998252   0.000000   0.000000
   15       21.083353     21.756159   0.000000   0.000000
   16       23.290072     23.899748   0.000000   0.000000
   17       26.471574     26.641528   0.000000   0.000000
   18       27.612480     28.156395   0.000000   0.000000
   19       28.769700     29.152497   0.000000   0.000000
   20       32.129789     32.592336   0.000000   0.000000
 
  0.4000000E+00  0.2000000E+00  0.0000000E+00  0.7111111E-02
    1        0.621334      1.073638   1.000000   1.000000
    2        1.621928      2.883158   1.000000   1.000000
    3        2.592469      4.375807   1.000000   1.000000
    4        3.062737      4.835947   1.000000   1.000000
    5        3.297712      5.044164   1.000000   1.000000
    6        3.522606      5.311450   1.000000   1.000296