PROCAR lm decomposed
# of k-points:  120         # of bands:   20         # of ions:    2

 k-point     1 :    0.00000000 0.00000000 0.00000000     weight = 0.00029630

band     1 # energy   -2.58718685 # occ.  1.00000000
 
ion      s     py     pz     px    dxy    dyz    dz2    dxz  x2-y2    tot
    1  0.368  0.000  0.000  0.000  0.000  0.000  0.000  0.000  0.000  0.368
    2  0.368  0.000  0.000  0.000  0.000  0.000  0.000  0.000  0.000  0.368
tot    0.735  0.000  0.000  0.000  0.000  0.000  0.000  0.000  0.000  0.735
 
band     2 # energy    0.99826232 # occ.  1.00000000
 
ion      s     py     pz     px    dxy    dyz    dz2    dxz  x2-y2    tot
    1  0.000  0.000  0.000  0.000  0.000  0.000  0.144  0.000  0.295  0.439
    2  0.000  0.000  0.000  0.000  0.000  0.000  0.144  0.000  0.295  0.439
tot    0.000  0.000  0.000  0.000  0.000  0.000  0.287  0.000  0.590  0.877
 
band     3 # energy    0.99826248 # occ.  1.00000000
 
ion      s     py     pz     px    dxy    dyz    dz2    dxz  x2-y2    tot
    1  0.000  0.000  0.000  0.000  0.000  0.000  0.295  0.000  0.144  0.439
    2  0.000  0.000  0.000  0.000  0.000  0.000  0.295  0.000  0.144  0.439
tot    0.000  0.000  0.000  0.000  0.000  0.000  0.590  0.000  0.287  0.877
 
band     4 # energy    3.56089647 # occ.  1.00000000
 
ion      s     py     pz     px    dxy    dyz    dz2    dxz  x2-y2    tot
    1  0.000  0.000  0.000  0.000  0.489  0.000  0.000  0.000  0.000  0.489
    2  0.000  0.000  0.000  0.000  0.489  0.000  0.000  0.000  0.000  0.489
tot    0.000  0.000  0.000  0.000  0.979  0.000  0.000  0.000  0.000  0.979
 
band     5 # energy    3.56089736 # occ.  1.00000000
 
ion      s     py     pz     px    dxy    dyz    dz2    dxz  x2-y2    tot
    1  0.000  0.000  0.000  0.000  0.000  0.005  0.000  0.485  0.000  0.489
    2  0.000  0.000  0.000  0.000  0.000  0.005  0.000  0.485  0.000  0.489
tot    0.000  0.000  0.000  0.000  0.000  0.009  0.000  0.970  0.000  0.979
 
band     6 # energy    3.56089738 # occ.  1.00000000
 
ion      s     py     pz     px    dxy    dyz    dz2    dxz  x2-y2    tot
    1  0.000  0.000  0.000  0.000  0.000  0.485  0.000  0.005  0.000  0.489
    2  0.000  0.000  0.000  0.000  0.000  0.485  0.000  0.005  0.000  0.489
tot    0.000  0.000  0.000  0.000  0.000  0.970  0.000  0.009  0.000  0.979
 
band     7 # energy    4.77810989 # occ.  1.00000000
 
ion      s     py     pz     px    dxy    dyz    dz2    dxz  x2-y2    tot
    1  0.000  0.000  0.000  0.000  0.000  0.000  0.482  0.000  0.004  0.485
    2  0.000  0.000  0.000  0.000  0.000  0.000  0.482  0.000  0.004  0.485
tot    0.000  0.000  0.000  0.000  0.000  0.000  0.963  0.000  0.007  0.971
 
band     8 # energy    4.77811088 # occ.  1.00000000
 
ion      s     py     pz     px    dxy    dyz    dz2    dxz  x2-y2    tot
    1  0.000  0.000  0.000  0.000  0.000  0.000  0.004  0.000  0.482  0.485
    2  0.000  0.000  0.000  0.000  0.000  0.000  0.004  0.000  0.482  0.485
tot    0.000  0.000  0.000  0.000  0.000  0.000  0.007  0.000  0.963  0.971
 
band     9 # energy    5.99437644 # occ.  0.06691022
 
ion      s     py     pz     px    dxy    dyz    dz2    dxz  x2-y2    tot
    1  0.000  0.000  0.000  0.000  0.494  0.000  0.000  0.000  0.000  0.494
    2  0.000  0.000  0.000  0.000  0.494  0.000  0.000  0.000  0.000  0.494
tot    0.000  0.000  0.000  0.000  0.988  0.000  0.000  0.000  0.000  0.988
 
band    10 # energy    5.99437808 # occ.  0.06690680
 
ion      s     py     pz     px    dxy    dyz    dz2    dxz  x2-y2    tot
    1  0.000  0.000  0.000  0.000  0.000  0.002  0.000  0.492  0.000  0.494
    2  0.000  0.000  0.000  0.000  0.000  0.002  0.000  0.492  0.000  0.494
tot    0.000  0.000  0.000  0.000  0.000  0.003  0.000  0.985  0.000  0.988
 
band    11 # energy    5.99437810 # occ.  0.06690676
 
ion      s     py     pz     px    dxy    dyz    dz2    dxz  x2-y2    tot
    1  0.000  0.000  0.000  0.000  0.000  0.492  0.000  0.002  0.000  0.494
    2  0.000  0.000  0.000  0.000  0.000  0.492  0.000  0.002  0.000  0.494
tot    0.000  0.000  0.000  0.000  0.000  0.985  0.000  0.003  0.000  0.988
 
band    12 # energy   15.83735079 # occ.  0.00000000
 
ion      s     py     pz     px    dxy    dyz    dz2    dxz  x2-y2    tot
    1  0.000  0.003  0.000  0.374  0.000  0.000  0.000  0.000  0.000  0.377
    2  0.000  0.003  0.000  0.374  0.000  0.000  0.000  0.000  0.000  0.377
tot    0.000  0.005  0.000  0.748  0.000  0.000  0.000  0.000  0.000  0.753
 
band    13 # energy   15.83735089 # occ.  0.00000000
 
ion      s     py     pz     px    dxy    dyz    dz2    dxz  x2-y2    tot
    1  0.000  0.374  0.000  0.003  0.000  0.000  0.000  0.000  0.000  0.377
    2  0.000  0.374  0.000  0.003  0.000  0.000  0.000  0.000  0.000  0.377
tot    0.000  0.748  0.000  0.005  0.000  0.000  0.000  0.000  0.000  0.753
 
band    14 # energy   15.83735099 # occ.  0.00000000
 
ion      s     py     pz     px    dxy    dyz    dz2    dxz  x2-y2    tot
    1  0.000  0.000  0.377  0.000  0.000  0.000  0.000  0.000  0.000  0.377
    2  0.000  0.000  0.377  0.000  0.000  0.000  0.000  0.000  0.000  0.377
tot    0.000  0.000  0.753  0.000  0.000  0.000  0.000  0.000  0.000  0.753
 
band    15 # energy   21.56385887 # occ.  0.00000000
 
ion      s     py     pz     px    dxy    dyz    dz2    dxz  x2-y2    tot
    1  0.000  0.000  0.000  0.000  0.000  0.000  0.477  0.000  0.000  0.477
    2  0.000  0.000  0.000  0.000  0.000  0.000  0.477  0.000  0.000  0.477
tot    0.000  0.000  0.000  0.000  0.000  0.000  0.954  0.000  0.000  0.954
 
band    16 # energy   21.56386061 # occ.  0.00000000
 
ion      s     py     pz     px    dxy    dyz    dz2    dxz  x2-y2    tot
    1  0.000  0.000  0.000  0.000  0.000  0.000  0.000  0.000  0.477  0.477
    2  0.000  0.000  0.000  0.000  0.000  0.000  0.000  0.000  0.477  0.477
tot    0.000  0.000  0.000  0.000  0.000  0.000  0.000  0.000  0.954  0.954
 
band    17 # energy   26.72948101 # occ.  0.00000000
 
ion      s     py     pz     px    dxy    dyz    dz2    dxz  x2-y2    tot
    1  0.391  0.000  0.000  0.000  0.000  0.000  0.000  0.000  0.000  0.391
    2  0.391  0.000  0.000  0.000  0.000  0.000  0.000  0.000  0.000  0.391
tot    0.782  0.000  0.000  0.000  0.000  0.000  0.000  0.000  0.000  0.782
 
band    18 # energy   30.93663433 # occ.  0.00000000
 
ion      s     py     pz     px    dxy    dyz    dz2    dxz  x2-y2    tot
    1  0.000  0.000  0.000  0.000  0.000  0.000  0.000  0.000  0.000  0.000
    2  0.000  0.000  0.000  0.000  0.000  0.000  0.000  0.000  0.000  0.000
tot    0.000  0.000  0.000  0.000  0.000  0.000  0.000  0.000  0.000  0.000
 
band    19 # energy   30.93663433 # occ.  0.00000000
 
ion      s     py     pz     px    dxy    dyz    dz2    dxz  x2-y2    tot
    1  0.000  0.000  0.000  0.000  0.000  0.000  0.000  0.000  0.000  0.000
    2  0.000  0.000  0.000  0.000  0.000  0.000  0.000  0.000  0.000  0.000
tot    0.000  0.000  0.000  0.000  0.000  0.000  0.000  0.000  0.000  0.000
 
band    20 # energy   30.93663433 # occ.  0.00000000
 
ion      s     py     pz     px    dxy    dyz    dz2    dxz  x2-y2    tot
    1  0.000  0.000  0.000  0.000  0.000  0.000  0.000  0.000  0.000  0.000
    2  0.000  0.000  0.000  0.000  0.000  0.000  0.000  0.000  0.000  0.000
tot    0.000  0.000  0.000  0.000  0.000  0.000  0.000  0.000  0.000  0.000
 

 k-point     2 :    0.06666667 0.00000000 0.00000000     weight = 0.00177778

band     1 # energy   -2.49447863 # occ.  1.00000000
 
ion      s     py     pz     px    dxy    dyz    dz2    dxz  x2-y2    tot
    1  0.364  0.000  0.000  0.003  0.000  0.000  0.000  0.000  0.000  0.368
    2  0.364  0.000  0.000  0.003  0.000  0.000  0.000  0.000  0.000  0.368
tot    0.729  0.000  0.000  0.007  0.000  0.000  0.000  0.000  0.000  0.735
 
band     2 # energy    1.03788061 # occ.  1.00000000
 
ion      s     py     pz     px    dxy    dyz    dz2    dxz  x2-y2    tot
    1  0.000  0.000  0.000  0.000  0.000  0.000  0.329  0.000  0.110  0.439
    2  0.000  0.000  0.000  0.000  0.000  0.000  0.329  0.000  0.110  0.439
tot    0.000  0.000  0.000  0.000  0.000  0.000  0.658  0.000  0.219  0.878
 
band     3 # energy    1.03964680 # occ.  1.00000000
 
ion      s     py     pz     px    dxy    dyz    dz2    dxz  x2-y2    tot
    1  0.000  0.000  0.000  0.002  0.000  0.000  0.109  0.000  0.327  0.439
    2  0.000  0.000  0.000  0.002  0.000  0.000  0.109  0.000  0.327  0.439
tot    0.000  0.000  0.000  0.005  0.000  0.000  0.218  0.000  0.654  0.877
 
band     4 # energy    3.55965012 # occ.  1.00000000
 
ion      s     py     pz     px    dxy    dyz    dz2    dxz  x2-y2    tot
    1  0.000  0.000  0.000  0.000  0.489  0.000  0.000  0.000  0.000  0.489
    2  0.000  0.000  0.000  0.000  0.489  0.000  0.000  0.000  0.000  0.489
tot    0.000  0.001  0.000  0.000  0.978  0.000  0.000  0.000  0.000  0.978
 
band     5 # energy    3.55965100 # occ.  1.00000000
 
ion      s     py     pz     px    dxy    dyz    dz2    dxz  x2-y2    tot
    1  0.000  0.000  0.000  0.000  0.000  0.000  0.000  0.489  0.000  0.489
    2  0.000  0.000  0.000  0.000  0.000  0.000  0.000  0.489  0.000  0.489
tot    0.000  0.000  0.001  0.000  0.000  0.000  0.000  0.978  0.000  0.978
 
band     6 # energy    3.58586911 # occ.  1.00000000
 
ion      s     py     pz     px    dxy    dyz    dz2    dxz  x2-y2    tot
    1  0.000  0.000  0.000  0.000  0.000  0.489  0.000  0.000  0.000  0.489
    2  0.000  0.000  0.000  0.000  0.000  0.489  0.000  0.000  0.000  0.489
tot    0.000  0.000  0.000  0.000  0.000  0.979  0.000  0.000  0.000  0.979
 
band     7 # energy    4.73658538 # occ.  1.00000000
 
ion      s     py     pz     px    dxy    dyz    dz2    dxz  x2-y2    tot
    1  0.000  0.000  0.000  0.000  0.000  0.000  0.363  0.000  0.121  0.484
    2  0.000  0.000  0.000  0.000  0.000  0.000  0.363  0.000  0.121  0.484
tot    0.000  0.000  0.000  0.000  0.000  0.000  0.727  0.000  0.242  0.969
 
band     8 # energy    4.79451372 # occ.  1.00000000
 
ion      s     py     pz     px    dxy    dyz    dz2    dxz  x2-y2    tot
    1  0.000  0.000  0.000  0.000  0.000  0.000  0.121  0.000  0.364  0.486
    2  0.000  0.000  0.000  0.000  0.000  0.000  0.121  0.000  0.364  0.486
tot    0.000  0.000  0.000  0.000  0.000  0.000  0.243  0.000  0.728  0.971
 
band     9 # energy    5.91568557 # occ.  0.30576973
 
ion      s     py     pz     px    dxy    dyz    dz2    dxz  x2-y2    tot
    1  0.000  0.002  0.000  0.000  0.491  0.000  0.000  0.000  0.000  0.493
    2  0.000  0.002  0.000  0.000  0.491  0.000  0.000  0.000  0.000  0.493
tot    0.000  0.004  0.000  0.000  0.981  0.000  0.000  0.000  0.000  0.986
 
band    10 # energy    5.91568717 # occ.  0.30576357
 
ion      s     py     pz     px    dxy    dyz    dz2    dxz  x2-y2    tot
    1  0.000  0.000  0.002  0.000  0.000  0.000  0.000  0.491  0.000  0.493
    2  0.000  0.000  0.002  0.000  0.000  0.000  0.000  0.491  0.000  0.493
tot    0.000  0.000  0.004  0.000  0.000  0.000  0.000  0.981  0.000  0.986
 
band    11 # energy    5.96666392 # occ.  0.13455125
 
ion      s     py     pz     px    dxy    dyz    dz2    dxz  x2-y2    tot
    1  0.000  0.000  0.000  0.000  0.000  0.494  0.000  0.000  0.000  0.494
    2  0.000  0.000  0.000  0.000  0.000  0.494  0.000  0.000  0.000  0.494
tot    0.000  0.000  0.000  0.000  0.000  0.988  0.000  0.000  0.000  0.988
 
band    12 # energy   15.16614916 # occ.  0.00000000
 
ion      s     py     pz     px    dxy    dyz    dz2    dxz  x2-y2    tot
    1  0.016  0.000  0.000  0.341  0.000  0.000  0.007  0.000  0.022  0.386
    2  0.016  0.000  0.000  0.341  0.000  0.000  0.007  0.000  0.022  0.386
tot    0.032  0.000  0.000  0.681  0.000  0.000  0.015  0.000  0.045  0.773
 
band    13 # energy   16.01332281 # occ.  0.00000000
 
ion      s     py     pz     px    dxy    dyz    dz2    dxz  x2-y2    tot
    1  0.000  0.372  0.000  0.000  0.007  0.000  0.000  0.000  0.000  0.379
    2  0.000  0.372  0.000  0.000  0.007  0.000  0.000  0.000  0.000  0.379
tot    0.000  0.745  0.000  0.000  0.014  0.000  0.000  0.000  0.000  0.759
 
band    14 # energy   16.01332294 # occ.  0.00000000
 
ion      s     py     pz     px    dxy    dyz    dz2    dxz  x2-y2    tot
    1  0.000  0.000  0.372  0.000  0.000  0.000  0.000  0.007  0.000  0.379
    2  0.000  0.000  0.372  0.000  0.000  0.000  0.000  0.007  0.000  0.379
tot    0.000  0.000  0.745  0.000  0.000  0.000  0.000  0.014  0.000  0.759
 
band    15 # energy   21.59042849 # occ.  0.00000000
 
ion      s     py     pz     px    dxy    dyz    dz2    dxz  x2-y2    tot
    1  0.000  0.000  0.000  0.000  0.000  0.000  0.356  0.000  0.119  0.475
    2  0.000  0.000  0.000  0.000  0.000  0.000  0.356  0.000  0.119  0.475
tot    0.000  0.000  0.000  0.000  0.000  0.000  0.712  0.000  0.237  0.950
 
band    16 # energy   22.07062902 # occ.  0.00000000
 
ion      s     py     pz     px    dxy    dyz    dz2    dxz  x2-y2    tot
    1  0.005  0.000  0.000  0.014  0.000  0.000  0.111  0.000  0.332  0.462
    2  0.005  0.000  0.000  0.014  0.000  0.000  0.111  0.000  0.332  0.462
tot    0.010  0.000  0.000  0.028  0.000  0.000  0.222  0.000  0.665  0.924
 
band    17 # energy   27.02950958 # occ.  0.00000000
 
ion      s     py     pz     px    dxy    dyz    dz2    dxz  x2-y2    tot
    1  0.369  0.000  0.000  0.020  0.000  0.000  0.001  0.000  0.002  0.392
    2  0.369  0.000  0.000  0.020  0.000  0.000  0.001  0.000  0.002  0.392
tot    0.738  0.000  0.000  0.040  0.000  0.000  0.001  0.000  0.004  0.783
 
band    18 # energy   30.30347114 # occ.  0.00000000
 
ion      s     py     pz     px    dxy    dyz    dz2    dxz  x2-y2    tot
    1  0.000  0.000  0.000  0.000  0.000  0.000  0.046  0.000  0.015  0.061
    2  0.000  0.000  0.000  0.000  0.000  0.000  0.046  0.000  0.015  0.061
tot    0.000  0.000  0.000  0.000  0.000  0.000  0.092  0.000  0.031  0.123
 
band    19 # energy   30.85650991 # occ.  0.00000000
 
ion      s     py     pz     px    dxy    dyz    dz2    dxz  x2-y2    tot
    1  0.000  0.001  0.000  0.000  0.037  0.000  0.000  0.000  0.000  0.038
    2  0.000  0.001  0.000  0.000  0.037  0.000  0.000  0.000  0.000  0.038
tot    0.000  0.002  0.000  0.000  0.073  0.000  0.000  0.000  0.000  0.075
 
band    20 # energy   30.85650999 # occ.  0.00000000
 
ion      s     py     pz     px    dxy    dyz    dz2    dxz  x2-y2    tot
    1  0.000  0.000  0.001  0.000  0.000  0.000  0.000  0.037  0.000  0.038
    2  0.000  0.000  0.001  0.000  0.000  0.000  0.000  0.037  0.000  0.038
tot    0.000  0.000  0.002  0.000  0.000  0.000  0.000  0.073  0.000  0.075
 

 k-point     3 :    0.13333333 0.00000000 0.00000000     weight = 0.00177778

band     1 # energy   -2.22003238 # occ.  1.00000000
 
ion      s     py     pz     px    dxy    dyz    dz2    dxz  x2-y2    tot
    1  0.354  0.000  0.000  0.013  0.000  0.000  0.000  0.000  0.000  0.368
    2  0.354  0.000  0.000  0.013  0.000  0.000  0.000  0.000  0.000  0.368
tot    0.709  0.000  0.000  0.026  0.000  0.000  0.000  0.000  0.001  0.736
 
band     2 # energy    1.15535723 # occ.  1.00000000
 
ion      s     py     pz     px    dxy    dyz    dz2    dxz  x2-y2    tot
    1  0.000  0.000  0.000  0.000  0.000  0.000  0.330  0.000  0.110  0.439
    2  0.000  0.000  0.000  0.000  0.000  0.000  0.330  0.000  0.110  0.439
tot    0.000  0.000  0.000  0.000  0.000  0.000  0.659  0.000  0.220  0.879
 
band     3 # energy    1.15651997 # occ.  1.00000000
 
ion      s     py     pz     px    dxy    dyz    dz2    dxz  x2-y2    tot
    1  0.001  0.000  0.000  0.010  0.000  0.000  0.107  0.000  0.321  0.438
    2  0.001  0.000  0.000  0.010  0.000  0.000  0.107  0.000  0.321  0.438
tot    0.001  0.000  0.000  0.019  0.000  0.000  0.214  0.000  0.642  0.876
 
band     4 # energy    3.55993714 # occ.  1.00000000
 
ion      s     py     pz     px    dxy    dyz    dz2    dxz  x2-y2    tot
    1  0.000  0.001  0.000  0.000  0.487  0.000  0.000  0.000  0.000  0.488
    2  0.000  0.001  0.000  0.000  0.487  0.000  0.000  0.000  0.000  0.488
tot    0.000  0.003  0.000  0.000  0.974  0.000  0.000  0.000  0.000  0.976
 
band     5 # energy    3.55993802 # occ.  1.00000000
 
ion      s     py     pz     px    dxy    dyz    dz2    dxz  x2-y2    tot
    1  0.000  0.000  0.001  0.000  0.000  0.000  0.000  0.487  0.000  0.488
    2  0.000  0.000  0.001  0.000  0.000  0.000  0.000  0.487  0.000  0.488
tot    0.000  0.000  0.003  0.000  0.000  0.000  0.000  0.974  0.000  0.976
 
band     6 # energy    3.66118823 # occ.  1.00000000
 
ion      s     py     pz     px    dxy    dyz    dz2    dxz  x2-y2    tot
    1  0.000  0.000  0.000  0.000  0.000  0.489  0.000  0.000  0.000  0.489
    2  0.000  0.000  0.000  0.000  0.000  0.489  0.000  0.000  0.000  0.489
tot    0.000  0.000  0.000  0.000  0.000  0.978  0.000  0.000  0.000  0.978
 
band     7 # energy    4.61370150 # occ.  1.00000000
 
ion      s     py     pz     px    dxy    dyz    dz2    dxz  x2-y2    tot
    1  0.000  0.000  0.000  0.000  0.000  0.000  0.361  0.000  0.120  0.482
    2  0.000  0.000  0.000  0.000  0.000  0.000  0.361  0.000  0.120  0.482
tot    0.000  0.000  0.000  0.000  0.000  0.000  0.723  0.000  0.241  0.964
 
band     8 # energy    4.84267742 # occ.  1.00000000
 
ion      s     py     pz     px    dxy    dyz    dz2    dxz  x2-y2    tot
    1  0.000  0.000  0.000  0.000  0.000  0.000  0.122  0.000  0.365  0.487
    2  0.000  0.000  0.000  0.000  0.000  0.000  0.122  0.000  0.365  0.487
tot    0.001  0.000  0.000  0.000  0.000  0.000  0.243  0.000  0.729  0.973
 
band     9 # energy    5.69942487 # occ.  1.00059332
 
ion      s     py     pz     px    dxy    dyz    dz2    dxz  x2-y2    tot
    1  0.000  0.007  0.000  0.000  0.482  0.000  0.000  0.000  0.000  0.490
    2  0.000  0.007  0.000  0.000  0.482  0.000  0.000  0.000  0.000  0.490
tot    0.000  0.014  0.000  0.000  0.965  0.000  0.000  0.000  0.000  0.979
 
band    10 # energy    5.69942638 # occ.  1.00059168
 
ion      s     py     pz     px    dxy    dyz    dz2    dxz  x2-y2    tot
    1  0.000  0.000  0.007  0.000  0.000  0.000  0.000  0.482  0.000  0.490
    2  0.000  0.000  0.007  0.000  0.000  0.000  0.000  0.482  0.000  0.490
tot    0.000  0.000  0.014  0.000  0.000  0.000  0.000  0.965  0.000  0.979
 
band    11 # energy    5.88490910 # occ.  0.43017299
 
ion      s     py     pz     px    dxy    dyz    dz2    dxz  x2-y2    tot
    1  0.000  0.000  0.000  0.000  0.000  0.493  0.000  0.000  0.000  0.493
    2  0.000  0.000  0.000  0.000  0.000  0.493  0.000  0.000  0.000  0.493
tot    0.000  0.000  0.000  0.000  0.000  0.986  0.000  0.000  0.000  0.986
 
band    12 # energy   13.69202736 # occ.  0.00000000
 
ion      s     py     pz     px    dxy    dyz    dz2    dxz  x2-y2    tot
    1  0.046  0.000  0.000  0.287  0.000  0.000  0.017  0.000  0.050  0.399
    2  0.046  0.000  0.000  0.287  0.000  0.000  0.017  0.000  0.050  0.399
tot    0.091  0.000  0.000  0.574  0.000  0.000  0.033  0.000  0.100  0.799
 
band    13 # energy   16.52072401 # occ.  0.00000000
 
ion      s     py     pz     px    dxy    dyz    dz2    dxz  x2-y2    tot
    1  0.000  0.361  0.000  0.000  0.026  0.000  0.000  0.000  0.000  0.387
    2  0.000  0.361  0.000  0.000  0.026  0.000  0.000  0.000  0.000  0.387
tot    0.000  0.722  0.000  0.000  0.052  0.000  0.000  0.000  0.000  0.774
 
band    14 # energy   16.52072425 # occ.  0.00000000
 
ion      s     py     pz     px    dxy    dyz    dz2    dxz  x2-y2    tot
    1  0.000  0.000  0.361  0.000  0.000  0.000  0.000  0.026  0.000  0.387
    2  0.000  0.000  0.361  0.000  0.000  0.000  0.000  0.026  0.000  0.387
tot    0.000  0.000  0.722  0.000  0.000  0.000  0.000  0.052  0.000  0.774
 
band    15 # energy   21.67172859 # occ.  0.00000000
 
ion      s     py     pz     px    dxy    dyz    dz2    dxz  x2-y2    tot
    1  0.000  0.000  0.000  0.000  0.000  0.000  0.352  0.000  0.117  0.469
    2  0.000  0.000  0.000  0.000  0.000  0.000  0.352  0.000  0.117  0.469
tot    0.000  0.000  0.000  0.000  0.000  0.000  0.704  0.000  0.235  0.938
 
band    16 # energy   22.95310880 # occ.  0.00000000
 
ion      s     py     pz     px    dxy    dyz    dz2    dxz  x2-y2    tot
    1  0.045  0.000  0.000  0.011  0.000  0.000  0.094  0.000  0.281  0.431
    2  0.045  0.000  0.000  0.011  0.000  0.000  0.094  0.000  0.281  0.431
tot    0.091  0.000  0.000  0.022  0.000  0.000  0.187  0.000  0.562  0.862
 
band    17 # energy   28.03769991 # occ.  0.00000000
 
ion      s     py     pz     px    dxy    dyz    dz2    dxz  x2-y2    tot
    1  0.296  0.000  0.000  0.072  0.000  0.000  0.007  0.000  0.022  0.398
    2  0.296  0.000  0.000  0.072  0.000  0.000  0.007  0.000  0.022  0.398
tot    0.593  0.000  0.000  0.144  0.000  0.000  0.015  0.000  0.045  0.796
 
band    18 # energy   29.03729625 # occ.  0.00000000
 
ion      s     py     pz     px    dxy    dyz    dz2    dxz  x2-y2    tot
    1  0.000  0.000  0.000  0.000  0.000  0.000  0.105  0.000  0.035  0.141
    2  0.000  0.000  0.000  0.000  0.000  0.000  0.105  0.000  0.035  0.141
tot    0.000  0.000  0.000  0.000  0.000  0.000  0.211  0.000  0.070  0.281
 
band    19 # energy   30.49983331 # occ.  0.00000000
 
ion      s     py     pz     px    dxy    dyz    dz2    dxz  x2-y2    tot
    1  0.000  0.016  0.000  0.000  0.142  0.000  0.000  0.000  0.000  0.158
    2  0.000  0.016  0.000  0.000  0.142  0.000  0.000  0.000  0.000  0.158
tot    0.000  0.031  0.000  0.000  0.285  0.000  0.000  0.000  0.000  0.316
 
band    20 # energy   30.49983362 # occ.  0.00000000
 
ion      s     py     pz     px    dxy    dyz    dz2    dxz  x2-y2    tot
    1  0.000  0.000  0.016  0.000  0.000  0.000  0.000  0.142  0.000  0.158
    2  0.000  0.000  0.016  0.000  0.000  0.000  0.000  0.142  0.000  0.158
tot    0.000  0.000  0.031  0.000  0.000  0.000  0.000  0.285  0.000  0.316
 

 k-point     4 :    0.20000000-0.00000000 0.00000000     weight = 0.00177778

band     1 # energy   -1.77565837 # occ.  1.00000000
 
ion      s     py     pz     px    dxy    dyz    dz2    dxz  x2-y2    tot
    1  0.337  0.000  0.000  0.029  0.000  0.000  0.001  0.000  0.002  0.368
    2  0.337  0.000  0.000  0.029  0.000  0.000  0.001  0.000  0.002  0.368
tot    0.675  0.000  0.000  0.057  0.000  0.000  0.001  0.000  0.003  0.737
 
band     2 # energy    1.32506414 # occ.  1.00000000
 
ion      s     py     pz     px    dxy    dyz    dz2    dxz  x2-y2    tot
    1  0.003  0.000  0.000  0.022  0.000  0.000  0.103  0.000  0.309  0.437
    2  0.003  0.000  0.000  0.022  0.000  0.000  0.103  0.000  0.309  0.437
tot    0.006  0.000  0.000  0.043  0.000  0.000  0.206  0.000  0.618  0.873
 
band     3 # energy    1.34675721 # occ.  1.00000000
 
ion      s     py     pz     px    dxy    dyz    dz2    dxz  x2-y2    tot
    1  0.000  0.000  0.000  0.000  0.000  0.000  0.330  0.000  0.110  0.440
    2  0.000  0.000  0.000  0.000  0.000  0.000  0.330  0.000  0.110  0.440
tot    0.000  0.000  0.000  0.000  0.000  0.000  0.661  0.000  0.220  0.881
 
band     4 # energy    3.56870317 # occ.  1.00000000
 
ion      s     py     pz     px    dxy    dyz    dz2    dxz  x2-y2    tot
    1  0.000  0.003  0.000  0.000  0.484  0.000  0.000  0.000  0.000  0.487
    2  0.000  0.003  0.000  0.000  0.484  0.000  0.000  0.000  0.000  0.487
tot    0.000  0.006  0.000  0.000  0.967  0.000  0.000  0.000  0.000  0.973
 
band     5 # energy    3.56870405 # occ.  1.00000000
 
ion      s     py     pz     px    dxy    dyz    dz2    dxz  x2-y2    tot
    1  0.000  0.000  0.003  0.000  0.000  0.000  0.000  0.484  0.000  0.487
    2  0.000  0.000  0.003  0.000  0.000  0.000  0.000  0.484  0.000  0.487
tot    0.000  0.000  0.006  0.000  0.000  0.000  0.000  0.967  0.000  0.973
 
band     6 # energy    3.78357766 # occ.  1.00000000
 
ion      s     py     pz     px    dxy    dyz    dz2    dxz  x2-y2    tot
    1  0.000  0.000  0.000  0.000  0.000  0.489  0.000  0.000  0.000  0.489
    2  0.000  0.000  0.000  0.000  0.000  0.489  0.000  0.000  0.000  0.489
tot    0.000  0.000  0.000  0.000  0.000  0.977  0.000  0.000  0.000  0.977
 
band     7 # energy    4.41420633 # occ.  1.00000000
 
ion      s     py     pz     px    dxy    dyz    dz2    dxz  x2-y2    tot
    1  0.000  0.000  0.000  0.000  0.000  0.000  0.358  0.000  0.119  0.478
    2  0.000  0.000  0.000  0.000  0.000  0.000  0.358  0.000  0.119  0.478
tot    0.000  0.000  0.000  0.000  0.000  0.000  0.717  0.000  0.239  0.956
 
band     8 # energy    4.92023577 # occ.  1.00000000
 
ion      s     py     pz     px    dxy    dyz    dz2    dxz  x2-y2    tot
    1  0.001  0.000  0.000  0.000  0.000  0.000  0.122  0.000  0.365  0.488
    2  0.001  0.000  0.000  0.000  0.000  0.000  0.122  0.000  0.365  0.488
tot    0.003  0.000  0.000  0.001  0.000  0.000  0.243  0.000  0.729  0.976
 
band     9 # energy    5.39206848 # occ.  1.00193508
 
ion      s     py     pz     px    dxy    dyz    dz2    dxz  x2-y2    tot
    1  0.000  0.013  0.000  0.000  0.473  0.000  0.000  0.000  0.000  0.486
    2  0.000  0.013  0.000  0.000  0.473  0.000  0.000  0.000  0.000  0.486
tot    0.000  0.025  0.000  0.000  0.947  0.000  0.000  0.000  0.000  0.972
 
band    10 # energy    5.39206988 # occ.  1.00193513
 
ion      s     py     pz     px    dxy    dyz    dz2    dxz  x2-y2    tot
    1  0.000  0.000  0.013  0.000  0.000  0.000  0.000  0.473  0.000  0.486
    2  0.000  0.000  0.013  0.000  0.000  0.000  0.000  0.473  0.000  0.486
tot    0.000  0.000  0.025  0.000  0.000  0.000  0.000  0.947  0.000  0.972
 
band    11 # energy    5.75308889 # occ.  0.90908442
 
ion      s     py     pz     px    dxy    dyz    dz2    dxz  x2-y2    tot
    1  0.000  0.000  0.000  0.000  0.000  0.492  0.000  0.000  0.000  0.492
    2  0.000  0.000  0.000  0.000  0.000  0.492  0.000  0.000  0.000  0.492
tot    0.000  0.000  0.000  0.000  0.000  0.984  0.000  0.000  0.000  0.984
 
band    12 # energy   12.00042980 # occ.  0.00000000
 
ion      s     py     pz     px    dxy    dyz    dz2    dxz  x2-y2    tot
    1  0.075  0.000  0.000  0.241  0.000  0.000  0.023  0.000  0.070  0.409
    2  0.075  0.000  0.000  0.241  0.000  0.000  0.023  0.000  0.070  0.409
tot    0.149  0.000  0.000  0.482  0.000  0.000  0.047  0.000  0.140  0.818
 
band    13 # energy   17.30998293 # occ.  0.00000000
 
ion      s     py     pz     px    dxy    dyz    dz2    dxz  x2-y2    tot
    1  0.000  0.346  0.000  0.000  0.053  0.000  0.000  0.000  0.000  0.399
    2  0.000  0.346  0.000  0.000  0.053  0.000  0.000  0.000  0.000  0.399
tot    0.000  0.692  0.000  0.000  0.105  0.000  0.000  0.000  0.000  0.797
 
band    14 # energy   17.30998329 # occ.  0.00000000
 
ion      s     py     pz     px    dxy    dyz    dz2    dxz  x2-y2    tot
    1  0.000  0.000  0.346  0.000  0.000  0.000  0.000  0.053  0.000  0.399
    2  0.000  0.000  0.346  0.000  0.000  0.000  0.000  0.053  0.000  0.399
tot    0.000  0.000  0.692  0.000  0.000  0.000  0.000  0.105  0.000  0.797
 
band    15 # energy   21.81250714 # occ.  0.00000000
 
ion      s     py     pz     px    dxy    dyz    dz2    dxz  x2-y2    tot
    1  0.000  0.000  0.000  0.000  0.000  0.000  0.344  0.000  0.115  0.459
    2  0.000  0.000  0.000  0.000  0.000  0.000  0.344  0.000  0.115  0.459
tot    0.000  0.000  0.000  0.000  0.000  0.000  0.689  0.000  0.230  0.918
 
band    16 # energy   23.59527601 # occ.  0.00000000
 
ion      s     py     pz     px    dxy    dyz    dz2    dxz  x2-y2    tot
    1  0.104  0.000  0.000  0.000  0.000  0.000  0.072  0.000  0.217  0.393
    2  0.104  0.000  0.000  0.000  0.000  0.000  0.072  0.000  0.217  0.393
tot    0.208  0.000  0.000  0.001  0.000  0.000  0.144  0.000  0.433  0.787
 
band    17 # energy   27.71141870 # occ.  0.00000000
 
ion      s     py     pz     px    dxy    dyz    dz2    dxz  x2-y2    tot
    1  0.000  0.000  0.000  0.000  0.000  0.000  0.149  0.000  0.050  0.199
    2  0.000  0.000  0.000  0.000  0.000  0.000  0.149  0.000  0.050  0.199
tot    0.000  0.000  0.000  0.000  0.000  0.000  0.299  0.000  0.100  0.398
 
band    18 # energy   29.66277954 # occ.  0.00000000
 
ion      s     py     pz     px    dxy    dyz    dz2    dxz  x2-y2    tot
    1  0.000  0.060  0.000  0.000  0.256  0.000  0.000  0.000  0.000  0.316
    2  0.000  0.060  0.000  0.000  0.256  0.000  0.000  0.000  0.000  0.316
tot    0.000  0.120  0.000  0.000  0.512  0.000  0.000  0.000  0.000  0.632
 
band    19 # energy   29.66278014 # occ.  0.00000000
 
ion      s     py     pz     px    dxy    dyz    dz2    dxz  x2-y2    tot
    1  0.000  0.000  0.060  0.000  0.000  0.000  0.000  0.256  0.000  0.316
    2  0.000  0.000  0.060  0.000  0.000  0.000  0.000  0.256  0.000  0.316
tot    0.000  0.000  0.120  0.000  0.000  0.000  0.000  0.512  0.000  0.632
 
band    20 # energy   29.81288479 # occ.  0.00000000
 
ion      s     py     pz     px    dxy    dyz    dz2    dxz  x2-y2    tot
    1  0.203  0.000  0.000  0.120  0.000  0.000  0.022  0.000  0.065  0.410
    2  0.203  0.000  0.000  0.120  0.000  0.000  0.022  0.000  0.065  0.410
tot    0.405  0.000  0.000  0.240  0.000  0.000  0.044  0.000  0.131  0.819
 

 k-point     5 :    0.26666667 0.00000000 0.00000000     weight = 0.00177778

band     1 # energy   -1.18384575 # occ.  1.00000000
 
ion      s     py     pz     px    dxy    dyz    dz2    dxz  x2-y2    tot
    1  0.313  0.000  0.000  0.049  0.000  0.000  0.002  0.000  0.006  0.369
    2  0.313  0.000  0.000  0.049  0.000  0.000  0.002  0.000  0.006  0.369
tot    0.626  0.000  0.000  0.098  0.000  0.000  0.004  0.000  0.012  0.739
 
band     2 # energy    1.50518960 # occ.  1.00000000
 
ion      s     py     pz     px    dxy    dyz    dz2    dxz  x2-y2    tot
    1  0.009  0.000  0.000  0.037  0.000  0.000  0.097  0.000  0.290  0.433
    2  0.009  0.000  0.000  0.037  0.000  0.000  0.097  0.000  0.290  0.433
tot    0.019  0.000  0.000  0.075  0.000  0.000  0.193  0.000  0.580  0.867
 
band     3 # energy    1.60438860 # occ.  1.00000000
 