 running on    4 total cores
 distrk:  each k-point on    4 cores,    1 groups
 distr:  one band on    1 cores,    4 groups
 vasp.6.2.0 18Jan21 (build Aug 12 2022 13:00:08) complex                        
  
 POSCAR found type information on POSCAR Fe
 POSCAR found :  1 types and       2 ions
 scaLAPACK will be used
 LDA part: xc-table for Pade appr. of Perdew
 POSCAR, INCAR and KPOINTS ok, starting setup
 FFT: planning ...
 WAVECAR not read
 entering main loop
       N       E                     dE             d eps       ncg     rms          rms(c)
DAV:   1     0.696506750909E+02    0.69651E+02   -0.66442E+03 10656   0.910E+02
DAV:   2    -0.130014673574E+02   -0.82652E+02   -0.73485E+02  9736   0.176E+02
DAV:   3    -0.160616739470E+02   -0.30602E+01   -0.29942E+01 10896   0.433E+01
DAV:   4    -0.160852829055E+02   -0.23609E-01   -0.23603E-01 10440   0.362E+00
DAV:   5    -0.160855704994E+02   -0.28759E-03   -0.28759E-03 10768   0.376E-01    0.196E+01
DAV:   6    -0.165576087209E+02   -0.47204E+00   -0.51829E+00 10616   0.446E+01    0.618E+00
DAV:   7    -0.164968975984E+02    0.60711E-01   -0.38846E-01 11404   0.976E+00    0.443E+00
DAV:   8    -0.164802500978E+02    0.16648E-01   -0.10579E-02 12624   0.112E+00    0.161E+00
DAV:   9    -0.164689375854E+02    0.11313E-01   -0.32645E-03 14176   0.102E+00    0.432E-01
DAV:  10    -0.164685167089E+02    0.42088E-03   -0.18150E-03 11496   0.692E-01    0.650E-02
DAV:  11    -0.164685527662E+02   -0.36057E-04   -0.78515E-05 11544   0.736E-02    0.469E-02
DAV:  12    -0.164685424580E+02    0.10308E-04   -0.25690E-06  9912   0.137E-02    0.189E-02
DAV:  13    -0.164685437498E+02   -0.12917E-05   -0.12043E-06  7852   0.106E-02    0.102E-02
DAV:  14    -0.164685430002E+02    0.74961E-06   -0.28927E-07  5228   0.798E-03
   1 F= -.16468543E+02 E0= -.16467620E+02  d E =-.164685E+02  mag=     4.4683
 curvature:   0.00 expect dE= 0.000E+00 dE for cont linesearch  0.000E+00
 trial: gam= 0.00000 g(F)=  0.118E-62 g(S)=  0.667E-01 ort = 0.000E+00 (trialstep = 0.100E+01)
 search vector abs. value=  0.667E-01
 bond charge predicted
       N       E                     dE             d eps       ncg     rms          rms(c)
DAV:   1    -0.172531158779E+02   -0.78457E+00   -0.74121E+00 10548   0.451E+01    0.843E+00
DAV:   2    -0.165210322384E+02    0.73208E+00   -0.13550E+00 10512   0.262E+01    0.680E+00
DAV:   3    -0.164843909442E+02    0.36641E-01   -0.10111E-01 11332   0.578E+00    0.241E+00
DAV:   4    -0.164766542331E+02    0.77367E-02   -0.53123E-03 11928   0.810E-01    0.555E-01
DAV:   5    -0.164704804887E+02    0.61737E-02   -0.43230E-03 11872   0.527E-01    0.963E-02
DAV:   6    -0.164705941512E+02   -0.11366E-03   -0.30310E-04 10808   0.193E-01    0.522E-02
DAV:   7    -0.164706026612E+02   -0.85099E-05   -0.16030E-05 10208   0.469E-02    0.243E-02
DAV:   8    -0.164706000478E+02    0.26133E-05   -0.15164E-06  8488   0.164E-02    0.107E-02
DAV:   9    -0.164705988294E+02    0.12184E-05   -0.43554E-07  5004   0.103E-02    0.362E-03
DAV:  10    -0.164705987753E+02    0.54101E-07   -0.73274E-08  4964   0.301E-03
   2 F= -.16470599E+02 E0= -.16469676E+02  d E =-.205578E-02  mag=     4.2494
 trial-energy change:   -0.002056  1 .order    0.000457   -0.066698    0.067612
 step:   0.5246(harm=  0.4966)  dis= 0.00000  next Energy=   -16.486400 (dE=-0.179E-01)
 bond charge predicted
       N       E                     dE             d eps       ncg     rms          rms(c)
DAV:   1    -0.166713539761E+02   -0.20076E+00   -0.17242E+00 10476   0.229E+01    0.420E+00
DAV:   2    -0.165065182343E+02    0.16484E+00   -0.45598E-01 10552   0.135E+01    0.386E+00
DAV:   3    -0.164901322292E+02    0.16386E-01   -0.31348E-02 11236   0.348E+00    0.116E+00
DAV:   4    -0.164881511663E+02    0.19811E-02   -0.21766E-03 12836   0.585E-01    0.337E-01
DAV:   5    -0.164865837975E+02    0.15674E-02   -0.11827E-03 11004   0.304E-01    0.583E-02
DAV:   6    -0.164866113063E+02   -0.27509E-04   -0.41307E-05 10160   0.532E-02    0.256E-02
DAV:   7    -0.164866173761E+02   -0.60697E-05   -0.35255E-06 10048   0.186E-02    0.156E-02
DAV:   8    -0.164866207309E+02   -0.33548E-05   -0.58507E-07  6260   0.824E-03    0.342E-03
DAV:   9    -0.164866208030E+02   -0.72121E-07   -0.99668E-08  4936   0.294E-03
   3 F= -.16486621E+02 E0= -.16485744E+02  d E =-.180778E-01  mag=     4.3518
 curvature:  -0.25 expect dE=-0.155E-06 dE for cont linesearch -0.155E-06
 trial: gam=-0.00306 g(F)=  0.612E-61 g(S)=  0.628E-06 ort = 0.205E-03 (trialstep = 0.905E+00)
 search vector abs. value=  0.106E-09
 reached required accuracy - stopping structural energy minimisation
 writing wavefunctions
