<?xml version="1.0" encoding="ISO-8859-1"?>
<modeling>
 <generator>
  <i name="program" type="string">vasp </i>
  <i name="version" type="string">6.2.0  </i>
  <i name="subversion" type="string">18Jan21 (build Aug 12 2022 13:00:08) complex                          parallel </i>
  <i name="platform" type="string">LinuxIFC </i>
  <i name="date" type="string">2024 11 04 </i>
  <i name="time" type="string">06:55:03 </i>
 </generator>
 <incar>
  <i type="int" name="ISTART">     0</i>
  <i type="string" name="PREC">Accurate      (Accurate strictly avoids</i>
  <i type="logical" name="ADDGRID"> T  </i>
  <i type="int" name="ISPIN">     2</i>
  <i type="int" name="NELM">    90</i>
  <i type="int" name="NELMIN">     6</i>
  <i type="int" name="IBRION">     2</i>
  <i name="EDIFF">      0.00000100</i>
  <i name="EDIFFG">     -0.00200000</i>
  <i type="int" name="NSW">   100</i>
  <i type="int" name="ISIF">     3</i>
  <i type="int" name="ISYM">     2</i>
  <i name="ENCUT">    400.00000000</i>
  <v name="MAGMOM">      5.00000000      5.00000000</v>
  <i type="logical" name="LREAL"> F  </i>
  <i type="int" name="ISMEAR">     1</i>
  <i name="SIGMA">      0.20000000</i>
  <i type="int" name="LMAXMIX">     4</i>
  <i type="int" name="LORBIT">    11</i>
  <i type="logical" name="LASPH"> T  </i>
  <i type="logical" name="GGA_COMPAT"> F  </i>
  <i type="int" name="VOSKOWN">     1</i>
 </incar>
 <primitive_cell>
  <structure name="primitive_cell" >
   <crystal>
    <varray name="basis" >
     <v>       1.43151775       1.43151775      -1.43151775 </v>
     <v>      -1.43151775       1.43151775       1.43151775 </v>
     <v>       1.43151775      -1.43151775       1.43151775 </v>
    </varray>
    <i name="volume">     11.73411129 </i>
    <varray name="rec_basis" >
     <v>       0.34927964       0.34927964       0.00000000 </v>
     <v>       0.00000000       0.34927964       0.34927964 </v>
     <v>       0.34927964      -0.00000000       0.34927964 </v>
    </varray>
   </crystal>
   <varray name="positions" >
    <v>       0.00000000       0.00000000       0.00000000 </v>
   </varray>
  </structure>
  <varray name="primitive_index" >
   <v type="int" >        1 </v>
  </varray>
 </primitive_cell>
 <kpoints>
  <generation param="Monkhorst-Pack">
   <v type="int" name="divisions">      15       15       15 </v>
   <v name="usershift">      0.00000000       0.00000000       0.00000000 </v>
   <v name="genvec1">      0.06666667       0.00000000       0.00000000 </v>
   <v name="genvec2">      0.00000000       0.06666667       0.00000000 </v>
   <v name="genvec3">      0.00000000       0.00000000       0.06666667 </v>
   <v name="shift">      0.00000000       0.00000000       0.00000000 </v>
  </generation>
  <varray name="kpointlist" >
   <v>       0.00000000       0.00000000       0.00000000 </v>
   <v>       0.06666667       0.00000000       0.00000000 </v>
   <v>       0.13333333       0.00000000       0.00000000 </v>
   <v>       0.20000000      -0.00000000       0.00000000 </v>
   <v>       0.26666667       0.00000000       0.00000000 </v>
   <v>       0.33333333       0.00000000       0.00000000 </v>
   <v>       0.40000000       0.00000000       0.00000000 </v>
   <v>       0.46666667      -0.00000000       0.00000000 </v>
   <v>       0.06666667       0.06666667       0.00000000 </v>
   <v>       0.13333333       0.06666667       0.00000000 </v>
   <v>       0.20000000       0.06666667       0.00000000 </v>
   <v>       0.26666667       0.06666667       0.00000000 </v>
   <v>       0.33333333       0.06666667       0.00000000 </v>
   <v>       0.40000000       0.06666667       0.00000000 </v>
   <v>       0.46666667       0.06666667       0.00000000 </v>
   <v>       0.13333333       0.13333333       0.00000000 </v>
   <v>       0.20000000       0.13333333       0.00000000 </v>
   <v>       0.26666667       0.13333333       0.00000000 </v>
   <v>       0.33333333       0.13333333       0.00000000 </v>
   <v>       0.40000000       0.13333333       0.00000000 </v>
   <v>       0.46666667       0.13333333       0.00000000 </v>
   <v>       0.20000000       0.20000000       0.00000000 </v>
   <v>       0.26666667       0.20000000       0.00000000 </v>
   <v>       0.33333333       0.20000000       0.00000000 </v>
   <v>       0.40000000       0.20000000       0.00000000 </v>
   <v>       0.46666667       0.20000000       0.00000000 </v>
   <v>       0.26666667       0.26666667       0.00000000 </v>
   <v>       0.33333333       0.26666667       0.00000000 </v>
   <v>       0.40000000       0.26666667       0.00000000 </v>
   <v>       0.46666667       0.26666667       0.00000000 </v>
   <v>       0.33333333       0.33333333       0.00000000 </v>
   <v>       0.40000000       0.33333333       0.00000000 </v>
   <v>       0.46666667       0.33333333       0.00000000 </v>
   <v>       0.40000000       0.40000000       0.00000000 </v>
   <v>       0.46666667       0.40000000       0.00000000 </v>
   <v>       0.46666667       0.46666667       0.00000000 </v>
   <v>       0.06666667       0.06666667       0.06666667 </v>
   <v>       0.13333333       0.06666667       0.06666667 </v>
   <v>       0.20000000       0.06666667       0.06666667 </v>
   <v>       0.26666667       0.06666667       0.06666667 </v>
   <v>       0.33333333       0.06666667       0.06666667 </v>
   <v>       0.40000000       0.06666667       0.06666667 </v>
   <v>       0.46666667       0.06666667       0.06666667 </v>
   <v>       0.13333333       0.13333333       0.06666667 </v>
   <v>       0.20000000       0.13333333       0.06666667 </v>
   <v>       0.26666667       0.13333333       0.06666667 </v>
   <v>       0.33333333       0.13333333       0.06666667 </v>
   <v>       0.40000000       0.13333333       0.06666667 </v>
   <v>       0.46666667       0.13333333       0.06666667 </v>
   <v>       0.20000000       0.20000000       0.06666667 </v>
   <v>       0.26666667       0.20000000       0.06666667 </v>
   <v>       0.33333333       0.20000000       0.06666667 </v>
   <v>       0.40000000       0.20000000       0.06666667 </v>
   <v>       0.46666667       0.20000000       0.06666667 </v>
   <v>       0.26666667       0.26666667       0.06666667 </v>
   <v>       0.33333333       0.26666667       0.06666667 </v>
   <v>       0.40000000       0.26666667       0.06666667 </v>
   <v>       0.46666667       0.26666667       0.06666667 </v>
   <v>       0.33333333       0.33333333       0.06666667 </v>
   <v>       0.40000000       0.33333333       0.06666667 </v>
   <v>       0.46666667       0.33333333       0.06666667 </v>
   <v>       0.40000000       0.40000000       0.06666667 </v>
   <v>       0.46666667       0.40000000       0.06666667 </v>
   <v>       0.46666667       0.46666667       0.06666667 </v>
   <v>       0.13333333       0.13333333       0.13333333 </v>
   <v>       0.20000000       0.13333333       0.13333333 </v>
   <v>       0.26666667       0.13333333       0.13333333 </v>
   <v>       0.33333333       0.13333333       0.13333333 </v>
   <v>       0.40000000       0.13333333       0.13333333 </v>
   <v>       0.46666667       0.13333333       0.13333333 </v>
   <v>       0.20000000       0.20000000       0.13333333 </v>
   <v>       0.26666667       0.20000000       0.13333333 </v>
   <v>       0.33333333       0.20000000       0.13333333 </v>
   <v>       0.40000000       0.20000000       0.13333333 </v>
   <v>       0.46666667       0.20000000       0.13333333 </v>
   <v>       0.26666667       0.26666667       0.13333333 </v>
   <v>       0.33333333       0.26666667       0.13333333 </v>
   <v>       0.40000000       0.26666667       0.13333333 </v>
   <v>       0.46666667       0.26666667       0.13333333 </v>
   <v>       0.33333333       0.33333333       0.13333333 </v>
   <v>       0.40000000       0.33333333       0.13333333 </v>
   <v>       0.46666667       0.33333333       0.13333333 </v>
   <v>       0.40000000       0.40000000       0.13333333 </v>
   <v>       0.46666667       0.40000000       0.13333333 </v>
   <v>       0.46666667       0.46666667       0.13333333 </v>
   <v>       0.20000000       0.20000000       0.20000000 </v>
   <v>       0.26666667       0.20000000       0.20000000 </v>
   <v>       0.33333333       0.20000000       0.20000000 </v>
   <v>       0.40000000       0.20000000       0.20000000 </v>
   <v>       0.46666667       0.20000000       0.20000000 </v>
   <v>       0.26666667       0.26666667       0.20000000 </v>
   <v>       0.33333333       0.26666667       0.20000000 </v>
   <v>       0.40000000       0.26666667       0.20000000 </v>
   <v>       0.46666667       0.26666667       0.20000000 </v>
   <v>       0.33333333       0.33333333       0.20000000 </v>
   <v>       0.40000000       0.33333333       0.20000000 </v>
   <v>       0.46666667       0.33333333       0.20000000 </v>
   <v>       0.40000000       0.40000000       0.20000000 </v>
   <v>       0.46666667       0.40000000       0.20000000 </v>
   <v>       0.46666667       0.46666667       0.20000000 </v>
   <v>       0.26666667       0.26666667       0.26666667 </v>
   <v>       0.33333333       0.26666667       0.26666667 </v>
   <v>       0.40000000       0.26666667       0.26666667 </v>
   <v>       0.46666667       0.26666667       0.26666667 </v>
   <v>       0.33333333       0.33333333       0.26666667 </v>
   <v>       0.40000000       0.33333333       0.26666667 </v>
   <v>       0.46666667       0.33333333       0.26666667 </v>
   <v>       0.40000000       0.40000000       0.26666667 </v>
   <v>       0.46666667       0.40000000       0.26666667 </v>
   <v>       0.46666667       0.46666667       0.26666667 </v>
   <v>       0.33333333       0.33333333       0.33333333 </v>
   <v>       0.40000000       0.33333333       0.33333333 </v>
   <v>       0.46666667       0.33333333       0.33333333 </v>
   <v>       0.40000000       0.40000000       0.33333333 </v>
   <v>       0.46666667       0.40000000       0.33333333 </v>
   <v>       0.46666667       0.46666667       0.33333333 </v>
   <v>       0.40000000       0.40000000       0.40000000 </v>
   <v>       0.46666667       0.40000000       0.40000000 </v>
   <v>       0.46666667       0.46666667       0.40000000 </v>
   <v>       0.46666667       0.46666667       0.46666667 </v>
  </varray>
  <varray name="weights" >
   <v>       0.00029630 </v>
   <v>       0.00177778 </v>
   <v>       0.00177778 </v>
   <v>       0.00177778 </v>
   <v>       0.00177778 </v>
   <v>       0.00177778 </v>
   <v>       0.00177778 </v>
   <v>       0.00177778 </v>
   <v>       0.00355556 </v>
   <v>       0.00711111 </v>
   <v>       0.00711111 </v>
   <v>       0.00711111 </v>
   <v>       0.00711111 </v>
   <v>       0.00711111 </v>
   <v>       0.00711111 </v>
   <v>       0.00355556 </v>
   <v>       0.00711111 </v>
   <v>       0.00711111 </v>
   <v>       0.00711111 </v>
   <v>       0.00711111 </v>
   <v>       0.00711111 </v>
   <v>       0.00355556 </v>
   <v>       0.00711111 </v>
   <v>       0.00711111 </v>
   <v>       0.00711111 </v>
   <v>       0.00711111 </v>
   <v>       0.00355556 </v>
   <v>       0.00711111 </v>
   <v>       0.00711111 </v>
   <v>       0.00711111 </v>
   <v>       0.00355556 </v>
   <v>       0.00711111 </v>
   <v>       0.00711111 </v>
   <v>       0.00355556 </v>
   <v>       0.00711111 </v>
   <v>       0.00355556 </v>
   <v>       0.00237037 </v>
   <v>       0.00711111 </v>
   <v>       0.00711111 </v>
   <v>       0.00711111 </v>
   <v>       0.00711111 </v>
   <v>       0.00711111 </v>
   <v>       0.00711111 </v>
   <v>       0.00711111 </v>
   <v>       0.01422222 </v>
   <v>       0.01422222 </v>
   <v>       0.01422222 </v>
   <v>       0.01422222 </v>
   <v>       0.01422222 </v>
   <v>       0.00711111 </v>
   <v>       0.01422222 </v>
   <v>       0.01422222 </v>
   <v>       0.01422222 </v>
   <v>       0.01422222 </v>
   <v>       0.00711111 </v>
   <v>       0.01422222 </v>
   <v>       0.01422222 </v>
   <v>       0.01422222 </v>
   <v>       0.00711111 </v>
   <v>       0.01422222 </v>
   <v>       0.01422222 </v>
   <v>       0.00711111 </v>
   <v>       0.01422222 </v>
   <v>       0.00711111 </v>
   <v>       0.00237037 </v>
   <v>       0.00711111 </v>
   <v>       0.00711111 </v>
   <v>       0.00711111 </v>
   <v>       0.00711111 </v>
   <v>       0.00711111 </v>
   <v>       0.00711111 </v>
   <v>       0.01422222 </v>
   <v>       0.01422222 </v>
   <v>       0.01422222 </v>
   <v>       0.01422222 </v>
   <v>       0.00711111 </v>
   <v>       0.01422222 </v>
   <v>       0.01422222 </v>
   <v>       0.01422222 </v>
   <v>       0.00711111 </v>
   <v>       0.01422222 </v>
   <v>       0.01422222 </v>
   <v>       0.00711111 </v>
   <v>       0.01422222 </v>
   <v>       0.00711111 </v>
   <v>       0.00237037 </v>
   <v>       0.00711111 </v>
   <v>       0.00711111 </v>
   <v>       0.00711111 </v>
   <v>       0.00711111 </v>
   <v>       0.00711111 </v>
   <v>       0.01422222 </v>
   <v>       0.01422222 </v>
   <v>       0.01422222 </v>
   <v>       0.00711111 </v>
   <v>       0.01422222 </v>
   <v>       0.01422222 </v>
   <v>       0.00711111 </v>
   <v>       0.01422222 </v>
   <v>       0.00711111 </v>
   <v>       0.00237037 </v>
   <v>       0.00711111 </v>
   <v>       0.00711111 </v>
   <v>       0.00711111 </v>
   <v>       0.00711111 </v>
   <v>       0.01422222 </v>
   <v>       0.01422222 </v>
   <v>       0.00711111 </v>
   <v>       0.01422222 </v>
   <v>       0.00711111 </v>
   <v>       0.00237037 </v>
   <v>       0.00711111 </v>
   <v>       0.00711111 </v>
   <v>       0.00711111 </v>
   <v>       0.01422222 </v>
   <v>       0.00711111 </v>
   <v>       0.00237037 </v>
   <v>       0.00711111 </v>
   <v>       0.00711111 </v>
   <v>       0.00237037 </v>
  </varray>
 </kpoints>
 <parameters>
  <separator name="general" >
   <i type="string" name="SYSTEM">unknown system</i>
   <i type="logical" name="LCOMPAT"> F  </i>
  </separator>
  <separator name="electronic" >
   <i type="string" name="PREC">accura</i>
   <i name="ENMAX">    400.00000000</i>
   <i name="ENAUG">    511.36800000</i>
   <i name="EDIFF">      0.00000100</i>
   <i type="int" name="IALGO">    38</i>
   <i type="int" name="IWAVPR">    11</i>
   <i type="int" name="NBANDS">    20</i>
   <i type="int" name="NBANDSLOW">    -1</i>
   <i type="int" name="NBANDSHIGH">    -1</i>
   <i name="NELECT">     16.00000000</i>
   <i type="int" name="TURBO">     0</i>
   <i type="int" name="IRESTART">     0</i>
   <i type="int" name="NREBOOT">     0</i>
   <i type="int" name="NMIN">     0</i>
   <i name="EREF">      0.00000000</i>
   <separator name="electronic smearing" >
    <i type="int" name="ISMEAR">     1</i>
    <i name="SIGMA">      0.20000000</i>
    <i name="KSPACING">      0.50000000</i>
    <i type="logical" name="KGAMMA"> T  </i>
    <i type="logical" name="KBLOWUP"> T  </i>
   </separator>
   <separator name="electronic projectors" >
    <i type="logical" name="LREAL"> F  </i>
    <v name="ROPT">      0.00000000</v>
    <i type="int" name="LMAXPAW">  -100</i>
    <i type="int" name="LMAXMIX">     4</i>
    <i type="logical" name="NLSPLINE"> F  </i>
   </separator>
   <separator name="electronic startup" >
    <i type="int" name="ISTART">     0</i>
    <i type="int" name="ICHARG">     2</i>
    <i type="int" name="INIWAV">     1</i>
   </separator>
   <separator name="electronic spin" >
    <i type="int" name="ISPIN">     2</i>
    <i type="logical" name="LNONCOLLINEAR"> F  </i>
    <v name="MAGMOM">      5.00000000      5.00000000</v>
    <i name="NUPDOWN">     -1.00000000</i>
    <i type="logical" name="LSORBIT"> F  </i>
    <v name="SAXIS">      0.00000000      0.00000000      1.00000000</v>
    <i type="logical" name="LSPIRAL"> F  </i>
    <v name="QSPIRAL">      0.00000000      0.00000000      0.00000000</v>
    <i type="logical" name="LZEROZ"> F  </i>
   </separator>
   <separator name="electronic exchange-correlation" >
    <i type="logical" name="LASPH"> T  </i>
    <i type="logical" name="LMETAGGA"> F  </i>
   </separator>
   <separator name="electronic convergence" >
    <i type="int" name="NELM">    90</i>
    <i type="int" name="NELMDL">    -5</i>
    <i type="int" name="NELMIN">     6</i>
    <i name="ENINI">    400.00000000</i>
    <separator name="electronic convergence detail" >
     <i type="logical" name="LDIAG"> T  </i>
     <i type="logical" name="LSUBROT"> F  </i>
     <i name="WEIMIN">      0.00100000</i>
     <i name="EBREAK">      0.00000001</i>
     <i name="DEPER">      0.30000000</i>
     <i type="int" name="NRMM">     4</i>
     <i name="TIME">      0.40000000</i>
    </separator>
   </separator>
   <separator name="electronic mixer" >
    <i name="AMIX">      0.40000000</i>
    <i name="BMIX">      1.00000000</i>
    <i name="AMIN">      0.10000000</i>
    <i name="AMIX_MAG">      1.60000000</i>
    <i name="BMIX_MAG">      1.00000000</i>
    <separator name="electronic mixer details" >
     <i type="int" name="IMIX">     4</i>
     <i type="logical" name="MIXFIRST"> F  </i>
     <i type="int" name="MAXMIX">   -45</i>
     <i name="WC">    100.00000000</i>
     <i type="int" name="INIMIX">     1</i>
     <i type="int" name="MIXPRE">     1</i>
     <i type="int" name="MREMOVE">     5</i>
    </separator>
   </separator>
   <separator name="electronic dipolcorrection" >
    <i type="logical" name="LDIPOL"> F  </i>
    <i type="logical" name="LMONO"> F  </i>
    <i type="int" name="IDIPOL">     0</i>
    <i name="EPSILON">      1.00000000</i>
    <v name="DIPOL">   -100.00000000   -100.00000000   -100.00000000</v>
    <i name="EFIELD">      0.00000000</i>
   </separator>
  </separator>
  <separator name="grids" >
   <i type="int" name="NGX">    20</i>
   <i type="int" name="NGY">    20</i>
   <i type="int" name="NGZ">    20</i>
   <i type="int" name="NGXF">    40</i>
   <i type="int" name="NGYF">    40</i>
   <i type="int" name="NGZF">    40</i>
   <i type="logical" name="ADDGRID"> T  </i>
  </separator>
  <separator name="ionic" >
   <i type="int" name="NSW">   100</i>
   <i type="int" name="IBRION">     2</i>
   <i type="int" name="MDALGO">     0</i>
   <i type="int" name="ISIF">     3</i>
   <i name="PSTRESS">      0.00000000</i>
   <i name="EDIFFG">     -0.00200000</i>
   <i type="int" name="NFREE">     1</i>
   <i name="POTIM">      0.50000000</i>
   <i name="SMASS">     -3.00000000</i>
   <i name="SCALEE">      1.00000000</i>
  </separator>
  <separator name="ionic md" >
   <i name="TEBEG">      0.00010000</i>
   <i name="TEEND">      0.00010000</i>
   <i type="int" name="NBLOCK">     1</i>
   <i type="int" name="KBLOCK">   100</i>
   <i type="int" name="NPACO">   256</i>
   <i name="APACO">     16.00000000</i>
  </separator>
  <separator name="symmetry" >
   <i type="int" name="ISYM">     2</i>
   <i name="SYMPREC">      0.00001000</i>
  </separator>
  <separator name="dos" >
   <i type="int" name="LORBIT">    11</i>
   <v name="RWIGS">     -1.00000000</v>
   <i type="int" name="NEDOS">   301</i>
   <i name="EMIN">     10.00000000</i>
   <i name="EMAX">    -10.00000000</i>
   <i name="EFERMI">      0.00000000</i>
  </separator>
  <separator name="writing" >
   <i type="int" name="NWRITE">     2</i>
   <i type="logical" name="LWAVE"> T  </i>
   <i type="logical" name="LDOWNSAMPLE"> F  </i>
   <i type="logical" name="LCHARG"> T  </i>
   <i type="logical" name="LPARD"> F  </i>
   <i type="logical" name="LVTOT"> F  </i>
   <i type="logical" name="LVHAR"> F  </i>
   <i type="logical" name="LELF"> F  </i>
   <i type="logical" name="LOPTICS"> F  </i>
   <v name="STM">      0.00000000      0.00000000      0.00000000      0.00000000      0.00000000      0.00000000      0.00000000</v>
  </separator>
  <separator name="performance" >
   <i type="int" name="NPAR">     4</i>
   <i type="int" name="NSIM">     4</i>
   <i type="int" name="NBLK">    -1</i>
   <i type="logical" name="LPLANE"> T  </i>
   <i type="logical" name="LSCALAPACK"> T  </i>
   <i type="logical" name="LSCAAWARE"> F  </i>
   <i type="logical" name="LSCALU"> F  </i>
   <i type="logical" name="LASYNC"> F  </i>
   <i type="logical" name="LORBITALREAL"> F  </i>
  </separator>
  <separator name="miscellaneous" >
   <i type="int" name="IDIOT">     3</i>
   <i type="int" name="PHON_NSTRUCT">    -1</i>
   <i type="logical" name="LMUSIC"> F  </i>
   <v name="POMASS">     55.84700000</v>
   <v name="DARWINR">      0.00000000</v>
   <v name="DARWINV">      1.00000000</v>
   <i type="logical" name="LCORR"> T  </i>
  </separator>
  <i type="logical" name="GGA_COMPAT"> F  </i>
  <i type="logical" name="LBERRY"> F  </i>
  <i type="int" name="ICORELEVEL">     0</i>
  <i type="logical" name="LDAU"> F  </i>
  <i type="int" name="I_CONSTRAINED_M">     0</i>
  <separator name="electronic exchange-correlation" >
   <i type="string" name="GGA">--</i>
   <i type="int" name="VOSKOWN">     1</i>
   <i type="logical" name="LHFCALC"> F  </i>
   <i type="string" name="PRECFOCK"></i>
   <i type="logical" name="LSYMGRAD"> F  </i>
   <i type="logical" name="LHFONE"> F  </i>
   <i type="logical" name="LRHFCALC"> F  </i>
   <i type="logical" name="LTHOMAS"> F  </i>
   <i type="logical" name="LMODELHF"> F  </i>
   <i type="logical" name="LFOCKACE"> F  </i>
   <i name="ENCUT4O">     -1.00000000</i>
   <i type="int" name="EXXOEP">     0</i>
   <i type="int" name="FOURORBIT">     0</i>
   <i name="AEXX">      0.00000000</i>
   <i name="HFALPHA">      0.00000000</i>
   <i name="MCALPHA">      0.00000000</i>
   <i name="ALDAX">      1.00000000</i>
   <i name="AGGAX">      1.00000000</i>
   <i name="ALDAC">      1.00000000</i>
   <i name="AGGAC">      1.00000000</i>
   <i type="int" name="NKREDX">     1</i>
   <i type="int" name="NKREDY">     1</i>
   <i type="int" name="NKREDZ">     1</i>
   <i type="logical" name="SHIFTRED"> F  </i>
   <i type="logical" name="ODDONLY"> F  </i>
   <i type="logical" name="EVENONLY"> F  </i>
   <i type="int" name="LMAXFOCK">     0</i>
   <i type="int" name="NMAXFOCKAE">     0</i>
   <i type="logical" name="LFOCKAEDFT"> F  </i>
   <i name="HFSCREEN">      0.00000000</i>
   <i name="HFSCREENC">      0.00000000</i>
   <i type="int" name="NBANDSGWLOW">     0</i>
  </separator>
  <separator name="vdW DFT" >
   <i type="logical" name="LUSE_VDW"> F  </i>
   <i name="Zab_VDW">     -0.84910000</i>
   <i name="PARAM1">      0.12340000</i>
   <i name="PARAM2">      1.00000000</i>
   <i name="PARAM3">      0.00000000</i>
  </separator>
  <separator name="model GW" >
   <i type="int" name="MODEL_GW">     0</i>
   <i name="MODEL_EPS0">      7.04046678</i>
   <i name="MODEL_ALPHA">      1.00000000</i>
  </separator>
  <separator name="linear response parameters" >
   <i type="logical" name="LEPSILON"> F  </i>
   <i type="logical" name="LRPA"> F  </i>
   <i type="logical" name="LNABLA"> F  </i>
   <i type="logical" name="LVEL"> F  </i>
   <i type="int" name="KINTER">     0</i>
   <i name="CSHIFT">      0.10000000</i>
   <i name="OMEGAMAX">     -1.00000000</i>
   <i name="DEG_THRESHOLD">      0.00200000</i>
   <i name="RTIME">     -0.10000000</i>
   <i name="WPLASMAI">      0.00000000</i>
   <v name="DFIELD">      0.00000000      0.00000000      0.00000000</v>
   <v name="WPLASMA">      0.00000000      0.00000000      0.00000000      0.00000000      0.00000000      0.00000000      0.00000000      0.00000000      0.00000000</v>
  </separator>
  <separator name="orbital magnetization" >
   <i type="logical" name="NUCIND"> F  </i>
   <v name="MAGPOS">      0.00000000      0.00000000      0.00000000</v>
   <i type="logical" name="LNICSALL"> T  </i>
   <i type="logical" name="ORBITALMAG"> F  </i>
   <i type="logical" name="LMAGBLOCH"> F  </i>
   <i type="logical" name="LCHIMAG"> F  </i>
   <i type="logical" name="LGAUGE"> T  </i>
   <i type="int" name="MAGATOM">     0</i>
   <v name="MAGDIPOL">      0.00000000      0.00000000      0.00000000</v>
   <v name="AVECCONST">      0.00000000      0.00000000      0.00000000</v>
  </separator>
  <separator name="response functions" >
   <i type="logical" name="LFINITE_TEMPERATURE"> F  </i>
   <i type="logical" name="LADDER"> F  </i>
   <i type="logical" name="LRPAFORCE"> F  </i>
   <i type="logical" name="LFXC"> F  </i>
   <i type="logical" name="LHARTREE"> T  </i>
   <i type="int" name="IBSE">     0</i>
   <v type="int" name="KPOINT">    -1     0     0     0</v>
   <i type="logical" name="LTCTC"> F  </i>
   <i type="logical" name="LTCTE"> F  </i>
   <i type="logical" name="LTETE"> F  </i>
   <i type="logical" name="LTRIPLET"> F  </i>
   <i type="logical" name="LFXCEPS"> F  </i>
   <i type="logical" name="LFXHEG"> F  </i>
   <i type="int" name="NATURALO">     2</i>
   <i type="logical" name="LHOLEGF"> F  </i>
   <i type="logical" name="L2ORDER"> F  </i>
   <i type="logical" name="LDMP1"> F  </i>
   <i type="logical" name="LMP2LT"> F  </i>
   <i type="logical" name="LSMP2LT"> F  </i>
   <i type="logical" name="LGWLF"> F  </i>
   <i name="ENCUTGW">     -2.00000000</i>
   <i name="ENCUTGWSOFT">     -2.00000000</i>
   <i name="ENCUTLF">     -1.00000000</i>
   <i type="logical" name="LESF_SPLINES"> F  </i>
   <i type="int" name="LMAXMP2">    -1</i>
   <i name="SCISSOR">      0.00000000</i>
   <i type="int" name="NOMEGA">     0</i>
   <i type="int" name="NOMEGAR">     0</i>
   <i type="int" name="NBANDSGW">    -1</i>
   <i type="int" name="NBANDSO">    -1</i>
   <i type="int" name="NBANDSV">    -1</i>
   <i type="int" name="NELM">    90</i>
   <i type="int" name="NELMHF">     1</i>
   <i type="int" name="DIM">     3</i>
   <i type="int" name="IESPILON">     4</i>
   <i type="int" name="ANTIRES">     0</i>
   <i name="OMEGAMAX">    -30.00000000</i>
   <i name="OMEGAMIN">    -30.00000000</i>
   <i name="OMEGATL">   -200.00000000</i>
   <i type="int" name="OMEGAGRID">     0</i>
   <i name="CSHIFT">     -0.10000000</i>
   <i type="logical" name="LSELFENERGY"> F  </i>
   <i type="logical" name="LSPECTRAL"> F  </i>
   <i type="logical" name="LSPECTRALGW"> F  </i>
   <i type="logical" name="LSINGLES"> F  </i>
   <i type="logical" name="LFERMIGW"> F  </i>
   <i type="logical" name="ODDONLYGW"> F  </i>
   <i type="logical" name="EVENONLYGW"> F  </i>
   <i type="int" name="NKREDLFX">     1</i>
   <i type="int" name="NKREDLFY">     1</i>
   <i type="int" name="NKREDLFZ">     1</i>
   <i type="int" name="MAXMEM">  2800</i>
   <i type="int" name="TELESCOPE">     0</i>
   <i type="int" name="NTAUPAR">    -1</i>
   <i type="int" name="NOMEGAPAR">    -1</i>
   <i name="DAMP_NEWTON">      0.80000001</i>
   <i name="LAMBDA">      1.00000000</i>
  </separator>
  <separator name="External order field" >
   <i name="OFIELD_KAPPA">      0.00000000</i>
   <v name="OFIELD_K">      0.00000000      0.00000000      0.00000000</v>
   <i name="OFIELD_Q6_NEAR">      0.00000000</i>
   <i name="OFIELD_Q6_FAR">      0.00000000</i>
   <i name="OFIELD_A">      0.00000000</i>
  </separator>
 </parameters>
 <atominfo>
  <atoms>       2 </atoms>
  <types>       1 </types>
  <array name="atoms" >
   <dimension dim="1">ion</dimension>
   <field type="string">element</field>
   <field type="int">atomtype</field>
   <set>
    <rc><c>Fe</c><c>   1</c></rc>
    <rc><c>Fe</c><c>   1</c></rc>
   </set>
  </array>
  <array name="atomtypes" >
   <dimension dim="1">type</dimension>
   <field type="int">atomspertype</field>
   <field type="string">element</field>
   <field>mass</field>
   <field>valence</field>
   <field type="string">pseudopotential</field>
   <set>
    <rc><c>   2</c><c>Fe</c><c>     55.84700000</c><c>      8.00000000</c><c>  PAW_PBE Fe 06Sep2000                  </c></rc>
   </set>
  </array>
 </atominfo>
 <structure name="initialpos" >
  <crystal>
   <varray name="basis" >
    <v>       2.86303550       0.00000000       0.00000000 </v>
    <v>       0.00000000       2.86303550       0.00000000 </v>
    <v>       0.00000000       0.00000000       2.86303550 </v>
   </varray>
   <i name="volume">     23.46822259 </i>
   <varray name="rec_basis" >
    <v>       0.34927964      -0.00000000       0.00000000 </v>
    <v>       0.00000000       0.34927964       0.00000000 </v>
    <v>      -0.00000000      -0.00000000       0.34927964 </v>
   </varray>
  </crystal>
  <varray name="positions" >
   <v>       0.00000000       0.00000000       0.00000000 </v>
   <v>       0.50000000       0.50000000       0.50000000 </v>
  </varray>
 </structure>
 <calculation>
  <scstep>
   <time name="dav">    5.17    5.17</time>
   <time name="total">    6.79    6.80</time>
   <energy>
    <i name="alphaZ">    117.79976220 </i>
    <i name="ewald">  -1171.43779597 </i>
    <i name="hartreedc">   -228.04061712 </i>
    <i name="XCdc">     14.27161930 </i>
    <i name="pawpsdc">   1103.49540010 </i>
    <i name="pawaedc">  -1119.11610375 </i>
    <i name="eentropy">     -0.00125853 </i>
    <i name="bandstr">    164.06661657 </i>
    <i name="atom">   1188.61305229 </i>
    <i name="e_fr_energy">     69.65067509 </i>
    <i name="e_wo_entrp">     69.65193362 </i>
    <i name="e_0_energy">     69.65109460 </i>
   </energy>
  </scstep>
  <scstep>
   <time name="dav">    4.81    4.83</time>
   <time name="total">    4.82    4.84</time>
   <energy>
    <i name="e_fr_energy">    -13.00146736 </i>
    <i name="e_wo_entrp">    -13.00179170 </i>
    <i name="e_0_energy">    -13.00157547 </i>
   </energy>
  </scstep>
  <scstep>
   <time name="dav">    5.22    5.24</time>
   <time name="total">    5.23    5.25</time>
   <energy>
    <i name="e_fr_energy">    -16.06167395 </i>
    <i name="e_wo_entrp">    -16.06302803 </i>
    <i name="e_0_energy">    -16.06212531 </i>
   </energy>
  </scstep>
  <scstep>
   <time name="dav">    5.06    5.08</time>
   <time name="total">    5.07    5.09</time>
   <energy>
    <i name="e_fr_energy">    -16.08528291 </i>
    <i name="e_wo_entrp">    -16.08662857 </i>
    <i name="e_0_energy">    -16.08573146 </i>
   </energy>
  </scstep>
  <scstep>
   <time name="dav">    5.17    5.19</time>
   <time name="total">    5.56    5.58</time>
   <energy>
    <i name="e_fr_energy">    -16.08557050 </i>
    <i name="e_wo_entrp">    -16.08691612 </i>
    <i name="e_0_energy">    -16.08601904 </i>
   </energy>
  </scstep>
  <scstep>
   <time name="dav">    5.12    5.13</time>
   <time name="total">    7.09    7.11</time>
   <energy>
    <i name="e_fr_energy">    -16.55760872 </i>
    <i name="e_wo_entrp">    -16.55736438 </i>
    <i name="e_0_energy">    -16.55752728 </i>
   </energy>
  </scstep>
  <scstep>
   <time name="dav">    5.40    5.41</time>
   <time name="total">    7.37    7.39</time>
   <energy>
    <i name="e_fr_energy">    -16.49689760 </i>
    <i name="e_wo_entrp">    -16.49471359 </i>
    <i name="e_0_energy">    -16.49616960 </i>
   </energy>
  </scstep>
  <scstep>
   <time name="dav">    5.86    5.87</time>
   <time name="total">    7.83    7.85</time>
   <energy>
    <i name="e_fr_energy">    -16.48025010 </i>
    <i name="e_wo_entrp">    -16.47775313 </i>
    <i name="e_0_energy">    -16.47941778 </i>
   </energy>
  </scstep>
  <scstep>
   <time name="dav">    6.46    6.47</time>
   <time name="total">    8.43    8.45</time>
   <energy>
    <i name="e_fr_energy">    -16.46893759 </i>
    <i name="e_wo_entrp">    -16.46607936 </i>
    <i name="e_0_energy">    -16.46798484 </i>
   </energy>
  </scstep>
  <scstep>
   <time name="dav">    5.45    5.45</time>
   <time name="total">    7.41    7.44</time>
   <energy>
    <i name="e_fr_energy">    -16.46851671 </i>
    <i name="e_wo_entrp">    -16.46574661 </i>
    <i name="e_0_energy">    -16.46759334 </i>
   </energy>
  </scstep>
  <scstep>
   <time name="dav">    5.49    5.49</time>
   <time name="total">    7.45    7.48</time>
   <energy>
    <i name="e_fr_energy">    -16.46855277 </i>
    <i name="e_wo_entrp">    -16.46578263 </i>
    <i name="e_0_energy">    -16.46762939 </i>
   </energy>
  </scstep>
  <scstep>
   <time name="dav">    4.93    4.94</time>
   <time name="total">    6.90    6.92</time>
   <energy>
    <i name="e_fr_energy">    -16.46854246 </i>
    <i name="e_wo_entrp">    -16.46577724 </i>
    <i name="e_0_energy">    -16.46762072 </i>
   </energy>
  </scstep>
  <scstep>
   <time name="dav">    4.22    4.22</time>
   <time name="total">    6.18    6.20</time>
   <energy>
    <i name="e_fr_energy">    -16.46854375 </i>
    <i name="e_wo_entrp">    -16.46577526 </i>
    <i name="e_0_energy">    -16.46762092 </i>
   </energy>
  </scstep>
  <scstep>
   <time name="dav">    3.36    3.36</time>
   <time name="total">    4.97    4.99</time>
   <energy>
    <i name="alphaZ">    117.79976220 </i>
    <i name="ewald">  -1171.43779597 </i>
    <i name="hartreedc">   -195.17171094 </i>
    <i name="XCdc">      8.52956069 </i>
    <i name="pawpsdc">   1412.21110852 </i>
    <i name="pawaedc">  -1430.13051994 </i>
    <i name="eentropy">     -0.00276898 </i>
    <i name="bandstr">     53.12076913 </i>
    <i name="atom">   1188.61305229 </i>
    <i name="e_fr_energy">    -16.46854300 </i>
    <i name="e_wo_entrp">    -16.46577402 </i>
    <i name="e_0_energy">    -16.46762001 </i>
   </energy>
  </scstep>
  <structure>
   <crystal>
    <varray name="basis" >
     <v>       2.86303550       0.00000000       0.00000000 </v>
     <v>       0.00000000       2.86303550       0.00000000 </v>
     <v>       0.00000000       0.00000000       2.86303550 </v>
    </varray>
    <i name="volume">     23.46822259 </i>
    <varray name="rec_basis" >
     <v>       0.34927964      -0.00000000       0.00000000 </v>
     <v>       0.00000000       0.34927964       0.00000000 </v>
     <v>      -0.00000000      -0.00000000       0.34927964 </v>
    </varray>
   </crystal>
   <varray name="positions" >
    <v>       0.00000000       0.00000000       0.00000000 </v>
    <v>       0.50000000       0.50000000       0.50000000 </v>
   </varray>
  </structure>
  <varray name="forces" >
   <v>       0.00000000       0.00000000       0.00000000 </v>
   <v>      -0.00000000      -0.00000000      -0.00000000 </v>
  </varray>
  <varray name="stress" >
   <v>     -65.54275501      -0.00000000      -0.00000000 </v>
   <v>      -0.00000000     -65.54275501      -0.00000000 </v>
   <v>      -0.00000000      -0.00000000     -65.54275501 </v>
  </varray>
  <energy>
   <i name="e_fr_energy">    -16.46854300 </i>
   <i name="e_wo_entrp">    -16.46577402 </i>
   <i name="e_0_energy">    -16.46762001 </i>
  </energy>
  <time name="totalsc">   98.04   99.54</time>
 </calculation>
 <calculation>
  <scstep>
   <time name="dav">    5.13    5.13</time>
   <time name="total">    7.11    7.12</time>
   <energy>
    <i name="alphaZ">    126.37787456 </i>
    <i name="ewald">  -1199.20871694 </i>
    <i name="hartreedc">   -199.79980017 </i>
    <i name="XCdc">      9.90222166 </i>
    <i name="pawpsdc">   1412.18319545 </i>
    <i name="pawaedc">  -1430.10093994 </i>
    <i name="eentropy">     -0.00208113 </i>
    <i name="bandstr">     74.78207834 </i>
    <i name="atom">   1188.61305229 </i>
    <i name="e_fr_energy">    -17.25311588 </i>
    <i name="e_wo_entrp">    -17.25103474 </i>
    <i name="e_0_energy">    -17.25242217 </i>
   </energy>
  </scstep>
  <scstep>
   <time name="dav">    5.15    5.16</time>
   <time name="total">    7.13    7.15</time>
   <energy>
    <i name="e_fr_energy">    -16.52103224 </i>
    <i name="e_wo_entrp">    -16.51728099 </i>
    <i name="e_0_energy">    -16.51978182 </i>
   </energy>
  </scstep>
  <scstep>
   <time name="dav">    5.46    5.47</time>
   <time name="total">    7.44    7.46</time>
   <energy>
    <i name="e_fr_energy">    -16.48439094 </i>
    <i name="e_wo_entrp">    -16.48126521 </i>
    <i name="e_0_energy">    -16.48334903 </i>
   </energy>
  </scstep>
  <scstep>
   <time name="dav">    5.69    5.70</time>
   <time name="total">    7.66    7.68</time>
   <energy>
    <i name="e_fr_energy">    -16.47665423 </i>
    <i name="e_wo_entrp">    -16.47368155 </i>
    <i name="e_0_energy">    -16.47566334 </i>
   </energy>
  </scstep>
  <scstep>
   <time name="dav">    5.62    5.63</time>
   <time name="total">    7.59    7.62</time>
   <energy>
    <i name="e_fr_energy">    -16.47048049 </i>
    <i name="e_wo_entrp">    -16.46773961 </i>
    <i name="e_0_energy">    -16.46956686 </i>
   </energy>
  </scstep>
  <scstep>
   <time name="dav">    5.21    5.22</time>
   <time name="total">    7.17    7.20</time>
   <energy>
    <i name="e_fr_energy">    -16.47059415 </i>
    <i name="e_wo_entrp">    -16.46783248 </i>
    <i name="e_0_energy">    -16.46967359 </i>
   </energy>
  </scstep>
  <scstep>
   <time name="dav">    5.05    5.05</time>
   <time name="total">    7.01    7.04</time>
   <energy>
    <i name="e_fr_energy">    -16.47060266 </i>
    <i name="e_wo_entrp">    -16.46782998 </i>
    <i name="e_0_energy">    -16.46967843 </i>
   </energy>
  </scstep>
  <scstep>
   <time name="dav">    4.48    4.48</time>
   <time name="total">    6.44    6.47</time>
   <energy>
    <i name="e_fr_energy">    -16.47060005 </i>
    <i name="e_wo_entrp">    -16.46782661 </i>
    <i name="e_0_energy">    -16.46967557 </i>
   </energy>
  </scstep>
  <scstep>
   <time name="dav">    3.31    3.32</time>
   <time name="total">    5.28    5.30</time>
   <energy>
    <i name="e_fr_energy">    -16.47059883 </i>
    <i name="e_wo_entrp">    -16.46783192 </i>
    <i name="e_0_energy">    -16.46967652 </i>
   </energy>
  </scstep>
  <scstep>
   <time name="dav">    3.31    3.32</time>
   <time name="total">    4.93    4.95</time>
   <energy>
    <i name="alphaZ">    126.37787456 </i>
    <i name="ewald">  -1199.20871694 </i>
    <i name="hartreedc">   -184.32066660 </i>
    <i name="XCdc">      8.69924395 </i>
    <i name="pawpsdc">   1476.42041395 </i>
    <i name="pawaedc">  -1494.78699774 </i>
    <i name="eentropy">     -0.00276751 </i>
    <i name="bandstr">     61.73796526 </i>
    <i name="atom">   1188.61305229 </i>
    <i name="e_fr_energy">    -16.47059878 </i>
    <i name="e_wo_entrp">    -16.46783127 </i>
    <i name="e_0_energy">    -16.46967627 </i>
   </energy>
  </scstep>
  <structure>
   <crystal>
    <varray name="basis" >
     <v>       2.79673417      -0.00000000       0.00000000 </v>
     <v>       0.00000000       2.79673417       0.00000000 </v>
     <v>      -0.00000000      -0.00000000       2.79673417 </v>
    </varray>
    <i name="volume">     21.87527722 </i>
    <varray name="rec_basis" >
     <v>       0.35755990      -0.00000000       0.00000000 </v>
     <v>       0.00000000       0.35755990       0.00000000 </v>
     <v>      -0.00000000      -0.00000000       0.35755990 </v>
    </varray>
   </crystal>
   <varray name="positions" >
    <v>       0.00000000       0.00000000       0.00000000 </v>
    <v>       0.50000000       0.50000000       0.50000000 </v>
   </varray>
  </structure>
  <varray name="forces" >
   <v>       0.00000000      -0.00000000      -0.00000000 </v>
   <v>      -0.00000000       0.00000000       0.00000000 </v>
  </varray>
  <varray name="stress" >
   <v>      71.27900674       0.00000000      -0.00000000 </v>
   <v>       0.00000000      71.27900674       0.00000000 </v>
   <v>       0.00000000       0.00000000      71.27900674 </v>
  </varray>
  <energy>
   <i name="e_fr_energy">    -16.47059878 </i>
   <i name="e_wo_entrp">    -16.46783127 </i>
   <i name="e_0_energy">    -16.46967627 </i>
  </energy>
  <time name="totalsc">   74.14   74.76</time>
 </calculation>
 <calculation>
  <scstep>
   <time name="dav">    5.15    5.16</time>
   <time name="total">    7.11    7.12</time>
   <energy>
    <i name="alphaZ">    122.19944657 </i>
    <i name="ewald">  -1185.84385480 </i>
    <i name="hartreedc">   -182.26687342 </i>
    <i name="XCdc">      8.06066493 </i>
    <i name="pawpsdc">   1476.42446936 </i>
    <i name="pawaedc">  -1494.79058460 </i>
    <i name="eentropy">     -0.00153593 </i>
    <i name="bandstr">     50.93386162 </i>
    <i name="atom">   1188.61305229 </i>
    <i name="e_fr_energy">    -16.67135398 </i>
    <i name="e_wo_entrp">    -16.66981805 </i>
    <i name="e_0_energy">    -16.67084200 </i>
   </energy>
  </scstep>
  <scstep>
   <time name="dav">    5.16    5.16</time>
   <time name="total">    7.12    7.14</time>
   <energy>
    <i name="e_fr_energy">    -16.50651823 </i>
    <i name="e_wo_entrp">    -16.50433377 </i>
    <i name="e_0_energy">    -16.50579008 </i>
   </energy>
  </scstep>
  <scstep>
   <time name="dav">    5.43    5.43</time>
   <time name="total">    7.38    7.40</time>
   <energy>
    <i name="e_fr_energy">    -16.49013223 </i>
    <i name="e_wo_entrp">    -16.48747689 </i>
    <i name="e_0_energy">    -16.48924711 </i>
   </energy>
  </scstep>
  <scstep>
   <time name="dav">    6.00    6.01</time>
   <time name="total">    7.97    7.99</time>
   <energy>
    <i name="e_fr_energy">    -16.48815117 </i>
    <i name="e_wo_entrp">    -16.48543378 </i>
    <i name="e_0_energy">    -16.48724537 </i>
   </energy>
  </scstep>
  <scstep>
   <time name="dav">    5.30    5.31</time>
   <time name="total">    7.27    7.29</time>
   <energy>
    <i name="e_fr_energy">    -16.48658380 </i>
    <i name="e_wo_entrp">    -16.48394916 </i>
    <i name="e_0_energy">    -16.48570559 </i>
   </energy>
  </scstep>
  <scstep>
   <time name="dav">    4.99    4.99</time>
   <time name="total">    6.95    6.97</time>
   <energy>
    <i name="e_fr_energy">    -16.48661131 </i>
    <i name="e_wo_entrp">    -16.48398478 </i>
    <i name="e_0_energy">    -16.48573580 </i>
   </energy>
  </scstep>
  <scstep>
   <time name="dav">    4.96    4.96</time>
   <time name="total">    6.91    6.94</time>
   <energy>
    <i name="e_fr_energy">    -16.48661738 </i>
    <i name="e_wo_entrp">    -16.48398776 </i>
    <i name="e_0_energy">    -16.48574084 </i>
   </energy>
  </scstep>
  <scstep>
   <time name="dav">    3.70    3.70</time>
   <time name="total">    5.66    5.68</time>
   <energy>
    <i name="e_fr_energy">    -16.48662073 </i>
    <i name="e_wo_entrp">    -16.48399112 </i>
    <i name="e_0_energy">    -16.48574419 </i>
   </energy>
  </scstep>
  <scstep>
   <time name="dav">    3.26    3.26</time>
   <time name="total">    4.87    4.89</time>
   <energy>
    <i name="alphaZ">    122.19944657 </i>
    <i name="ewald">  -1185.84385480 </i>
    <i name="hartreedc">   -189.44904096 </i>
    <i name="XCdc">      8.61126372 </i>
    <i name="pawpsdc">   1444.12886054 </i>
    <i name="pawaedc">  -1462.26616309 </i>
    <i name="eentropy">     -0.00262987 </i>
    <i name="bandstr">     57.52244479 </i>
    <i name="atom">   1188.61305229 </i>
    <i name="e_fr_energy">    -16.48662080 </i>
    <i name="e_wo_entrp">    -16.48399093 </i>
    <i name="e_0_energy">    -16.48574418 </i>
   </energy>
  </scstep>
  <structure>
   <crystal>
    <varray name="basis" >
     <v>       2.82825431      -0.00000000       0.00000000 </v>
     <v>       0.00000000       2.82825431       0.00000000 </v>
     <v>      -0.00000000      -0.00000000       2.82825431 </v>
    </varray>
    <i name="volume">     22.62326972 </i>
    <varray name="rec_basis" >
     <v>       0.35357499      -0.00000000       0.00000000 </v>
     <v>       0.00000000       0.35357499       0.00000000 </v>
     <v>      -0.00000000      -0.00000000       0.35357499 </v>
    </varray>
   </crystal>
   <varray name="positions" >
    <v>       0.00000000       0.00000000       0.00000000 </v>
    <v>       0.50000000       0.50000000       0.50000000 </v>
   </varray>
  </structure>
  <varray name="forces" >
   <v>       0.00000000       0.00000000      -0.00000000 </v>
   <v>      -0.00000000      -0.00000000       0.00000000 </v>
  </varray>
  <varray name="stress" >
   <v>      -0.20865974       0.00000000      -0.00000000 </v>
   <v>      -0.00000000      -0.20865974       0.00000000 </v>
   <v>       0.00000000       0.00000000      -0.20865974 </v>
  </varray>
  <energy>
   <i name="e_fr_energy">    -16.48662080 </i>
   <i name="e_wo_entrp">    -16.48399093 </i>
   <i name="e_0_energy">    -16.48574418 </i>
  </energy>
  <time name="totalsc">   67.79   69.48</time>
  <eigenvalues>
   <array>
    <dimension dim="1">band</dimension>
    <dimension dim="2">kpoint</dimension>
    <dimension dim="3">spin</dimension>
    <field>eigene</field>
    <field>occ</field>
    <set>
     <set comment="spin 1">
      <set comment="kpoint 1">
       <r>   -2.5872    1.0000 </r>
       <r>    0.9983    1.0000 </r>
       <r>    0.9983    1.0000 </r>
       <r>    3.5609    1.0000 </r>
       <r>    3.5609    1.0000 </r>
       <r>    3.5609    1.0000 </r>
       <r>    4.7781    1.0000 </r>
       <r>    4.7781    1.0000 </r>
       <r>    5.9944    0.0669 </r>
       <r>    5.9944    0.0669 </r>
       <r>    5.9944    0.0669 </r>
       <r>   15.8374    0.0000 </r>
       <r>   15.8374    0.0000 </r>
       <r>   15.8374    0.0000 </r>
       <r>   21.5639    0.0000 </r>
       <r>   21.5639    0.0000 </r>
       <r>   26.7295    0.0000 </r>
       <r>   30.9366    0.0000 </r>
       <r>   30.9366    0.0000 </r>
       <r>   30.9366    0.0000 </r>
      </set>
      <set comment="kpoint 2">
       <r>   -2.4945    1.0000 </r>
       <r>    1.0379    1.0000 </r>
       <r>    1.0396    1.0000 </r>
       <r>    3.5597    1.0000 </r>
       <r>    3.5597    1.0000 </r>
       <r>    3.5859    1.0000 </r>
       <r>    4.7366    1.0000 </r>
       <r>    4.7945    1.0000 </r>
       <r>    5.9157    0.3058 </r>
       <r>    5.9157    0.3058 </r>
       <r>    5.9667    0.1346 </r>
       <r>   15.1661    0.0000 </r>
       <r>   16.0133    0.0000 </r>
       <r>   16.0133    0.0000 </r>
       <r>   21.5904    0.0000 </r>
       <r>   22.0706    0.0000 </r>
       <r>   27.0295    0.0000 </r>
       <r>   30.3035    0.0000 </r>
       <r>   30.8565    0.0000 </r>
       <r>   30.8565    0.0000 </r>
      </set>
      <set comment="kpoint 3">
       <r>   -2.2200    1.0000 </r>
       <r>    1.1554    1.0000 </r>
       <r>    1.1565    1.0000 </r>
       <r>    3.5599    1.0000 </r>
       <r>    3.5599    1.0000 </r>
       <r>    3.6612    1.0000 </r>
       <r>    4.6137    1.0000 </r>
       <r>    4.8427    1.0000 </r>
       <r>    5.6994    1.0006 </r>
       <r>    5.6994    1.0006 </r>
       <r>    5.8849    0.4302 </r>
       <r>   13.6920    0.0000 </r>
       <r>   16.5207    0.0000 </r>
       <r>   16.5207    0.0000 </r>
       <r>   21.6717    0.0000 </r>
       <r>   22.9531    0.0000 </r>
       <r>   28.0377    0.0000 </r>
       <r>   29.0373    0.0000 </r>
       <r>   30.4998    0.0000 </r>
       <r>   30.4998    0.0000 </r>
      </set>
      <set comment="kpoint 4">
       <r>   -1.7757    1.0000 </r>
       <r>    1.3251    1.0000 </r>
       <r>    1.3468    1.0000 </r>
       <r>    3.5687    1.0000 </r>
       <r>    3.5687    1.0000 </r>
       <r>    3.7836    1.0000 </r>
       <r>    4.4142    1.0000 </r>
       <r>    4.9202    1.0000 </r>
       <r>    5.3921    1.0019 </r>
       <r>    5.3921    1.0019 </r>
       <r>    5.7531    0.9091 </r>
       <r>   12.0004    0.0000 </r>
       <r>   17.3100    0.0000 </r>
       <r>   17.3100    0.0000 </r>
       <r>   21.8125    0.0000 </r>
       <r>   23.5953    0.0000 </r>
       <r>   27.7114    0.0000 </r>
       <r>   29.6628    0.0000 </r>
       <r>   29.6628    0.0000 </r>
       <r>   29.8129    0.0000 </r>
      </set>
      <set comment="kpoint 5">
       <r>   -1.1838    1.0000 </r>
       <r>    1.5052    1.0000 </r>
       <r>    1.6044    1.0000 </r>
       <r>    3.5967    1.0000 </r>
       <r>    3.5967    1.0000 </r>
       <r>    3.9483    1.0000 </r>
       <r>    4.1463    1.0000 </r>
       <r>    5.0279    1.0000 </r>
       <r>    5.0448    1.0000 </r>
       <r>    5.0448    1.0000 </r>
       <r>    5.5774    1.0296 </r>
       <r>   10.3289   -0.0000 </r>
       <r>   18.3246    0.0000 </r>
       <r>   18.3246    0.0000 </r>
       <r>   22.0205    0.0000 </r>
       <r>   24.0174    0.0000 </r>
       <r>   26.4940    0.0000 </r>
       <r>   28.3913    0.0000 </r>
       <r>   28.3913    0.0000 </r>
       <r>   30.2008    0.0000 </r>
      </set>
      <set comment="kpoint 6">
       <r>   -0.4838    1.0000 </r>
       <r>    1.6364    1.0000 </r>
       <r>    1.9187    1.0000 </r>
       <r>    3.6556    1.0000 </r>
       <r>    3.6556    1.0000 </r>
       <r>    3.8215    1.0000 </r>
       <r>    4.1489    1.0000 </r>
       <r>    4.6998    1.0000 </r>
       <r>    4.6998    1.0000 </r>
       <r>    5.1770    1.0000 </r>
       <r>    5.3663    1.0011 </r>
       <r>    8.7916   -0.0000 </r>
       <r>   19.5151    0.0000 </r>
       <r>   19.5151    0.0000 </r>
       <r>   22.3066    0.0000 </r>
       <r>   24.3971    0.0000 </r>
       <r>   25.4299    0.0000 </r>
       <r>   26.9005    0.0000 </r>
       <r>   26.9005    0.0000 </r>
       <r>   28.7008    0.0000 </r>
      </set>
      <set comment="kpoint 7">
       <r>    0.2575    1.0000 </r>
       <r>    1.6368    1.0000 </r>
       <r>    2.2772    1.0000 </r>
       <r>    3.4546    1.0000 </r>
       <r>    3.7572    1.0000 </r>
       <r>    3.7572    1.0000 </r>
       <r>    4.3773    1.0000 </r>
       <r>    4.3860    1.0000 </r>
       <r>    4.3860    1.0000 </r>
       <r>    5.1300    1.0000 </r>
       <r>    5.4068    1.0026 </r>
       <r>    7.4771   -0.0000 </r>
       <r>   20.8422    0.0000 </r>
       <r>   20.8422    0.0000 </r>
       <r>   22.6842    0.0000 </r>
       <r>   24.5269    0.0000 </r>
       <r>   24.8607    0.0000 </r>
       <r>   25.3395    0.0000 </r>
       <r>   25.3395    0.0000 </r>
       <r>   27.3999    0.0000 </r>
      </set>
      <set comment="kpoint 8">
       <r>    0.9335    1.0000 </r>
       <r>    1.4158    1.0000 </r>
       <r>    2.6642    1.0000 </r>
       <r>    3.0628    1.0000 </r>
       <r>    3.9106    1.0000 </r>
       <r>    3.9106    1.0000 </r>
       <r>    4.1204    1.0000 </r>
       <r>    4.1204    1.0000 </r>
       <r>    4.6241    1.0000 </r>
       <r>    4.8787    1.0000 </r>
       <r>    5.7996    0.7727 </r>
       <r>    6.4683   -0.0001 </r>
       <r>   22.2743    0.0000 </r>
       <r>   22.2743    0.0000 </r>
       <r>   23.1691    0.0000 </r>
       <r>   23.7778    0.0000 </r>
       <r>   23.7834    0.0000 </r>
       <r>   23.7834    0.0000 </r>
       <r>   25.4880    0.0000 </r>
       <r>   26.3274    0.0000 </r>
      </set>
      <set comment="kpoint 9">
       <r>   -2.4025    1.0000 </r>
       <r>    1.0768    1.0000 </r>
       <r>    1.0812    1.0000 </r>
       <r>    3.5104    1.0000 </r>
       <r>    3.5566    1.0000 </r>
       <r>    3.6600    1.0000 </r>
       <r>    4.7283    1.0000 </r>
       <r>    4.7822    1.0000 </r>
       <r>    5.7756    0.8496 </r>
       <r>    5.8373    0.6298 </r>
       <r>    6.0060    0.0443 </r>
       <r>   15.1838    0.0000 </r>
       <r>   15.4811    0.0000 </r>
       <r>   16.1839    0.0000 </r>
       <r>   21.8516    0.0000 </r>
       <r>   22.3860    0.0000 </r>
       <r>   27.3047    0.0000 </r>
       <r>   29.7431    0.0000 </r>
       <r>   30.6611    0.0000 </r>
       <r>   30.8071    0.0000 </r>
      </set>
      <set comment="kpoint 10">
       <r>   -2.1303    1.0000 </r>
       <r>    1.1889    1.0000 </r>
       <r>    1.2012    1.0000 </r>
       <r>    3.4705    1.0000 </r>
       <r>    3.5494    1.0000 </r>
       <r>    3.7744    1.0000 </r>
       <r>    4.6273    1.0000 </r>
       <r>    4.8216    1.0000 </r>
       <r>    5.5212    1.0170 </r>
       <r>    5.6221    1.0355 </r>
       <r>    5.9768    0.1076 </r>
       <r>   13.8102    0.0000 </r>
       <r>   15.8431    0.0000 </r>
       <r>   16.6773    0.0000 </r>
       <r>   22.0204    0.0000 </r>
       <r>   23.2895    0.0000 </r>
       <r>   28.2452    0.0000 </r>
       <r>   28.4680    0.0000 </r>
       <r>   30.2079    0.0000 </r>
       <r>   30.5289    0.0000 </r>
      </set>
      <set comment="kpoint 11">
       <r>   -1.6901    1.0000 </r>
       <r>    1.3594    1.0000 </r>
       <r>    1.3860    1.0000 </r>
       <r>    3.4528    1.0000 </r>
       <r>    3.5450    1.0000 </r>
       <r>    3.9215    1.0000 </r>
       <r>    4.4490    1.0000 </r>
       <r>    4.9007    1.0000 </r>
       <r>    5.2014    1.0000 </r>
       <r>    5.3190    1.0004 </r>
       <r>    5.8759    0.4679 </r>
       <r>   12.1157    0.0000 </r>
       <r>   16.5663    0.0000 </r>
       <r>   17.4486    0.0000 </r>
       <r>   22.1988    0.0000 </r>
       <r>   24.0222    0.0000 </r>
       <r>   27.0741    0.0000 </r>
       <r>   29.3234    0.0000 </r>
       <r>   29.7494    0.0000 </r>
       <r>   29.9513    0.0000 </r>
      </set>
      <set comment="kpoint 12">
       <r>   -1.1053    1.0000 </r>
       <r>    1.5412    1.0000 </r>
       <r>    1.6341    1.0000 </r>
       <r>    3.4632    1.0000 </r>
       <r>    3.5450    1.0000 </r>
       <r>    4.1013    1.0000 </r>
       <r>    4.2206    1.0000 </r>
       <r>    4.8544    1.0000 </r>
       <r>    4.9830    1.0000 </r>
       <r>    5.0099    1.0000 </r>
       <r>    5.7190    0.9751 </r>
       <r>   10.4374   -0.0000 </r>
       <r>   17.4854    0.0000 </r>
       <r>   18.4453    0.0000 </r>
       <r>   22.4492    0.0000 </r>
       <r>   24.5307    0.0000 </r>
       <r>   25.7339    0.0000 </r>
       <r>   28.1157    0.0000 </r>
       <r>   28.4831    0.0000 </r>
       <r>   31.2649    0.0000 </r>
      </set>
      <set comment="kpoint 13">
       <r>   -0.4160    1.0000 </r>
       <r>    1.6698    1.0000 </r>
       <r>    1.9376    1.0000 </r>
       <r>    3.5099    1.0000 </r>
       <r>    3.5159    1.0000 </r>
       <r>    3.9995    1.0000 </r>
       <r>    4.3105    1.0000 </r>
       <r>    4.5148    1.0000 </r>
       <r>    4.6606    1.0000 </r>
       <r>    5.1610    1.0000 </r>
       <r>    5.5196    1.0167 </r>
       <r>    8.8885   -0.0000 </r>
       <r>   18.5394    0.0000 </r>
       <r>   19.6201    0.0000 </r>
       <r>   22.7935    0.0000 </r>
       <r>   24.4701    0.0000 </r>
       <r>   25.0002    0.0000 </r>
       <r>   26.8361    0.0000 </r>
       <r>   26.9836    0.0000 </r>
       <r>   29.7817    0.0000 </r>
      </set>
      <set comment="kpoint 14">
       <r>    0.3101    1.0000 </r>
       <r>    1.6646    1.0000 </r>
       <r>    2.2818    1.0000 </r>
       <r>    3.3375    1.0000 </r>
       <r>    3.6022    1.0000 </r>
       <r>    3.9271    1.0000 </r>
       <r>    4.2080    1.0000 </r>
       <r>    4.3847    1.0000 </r>
       <r>    4.5430    1.0000 </r>
       <r>    5.2903    1.0002 </r>
       <r>    5.3977    1.0022 </r>
       <r>    7.5533   -0.0000 </r>
       <r>   19.6787    0.0000 </r>
       <r>   20.9346    0.0000 </r>
       <r>   23.2557    0.0000 </r>
       <r>   23.2569    0.0000 </r>
       <r>   25.4174    0.0000 </r>
       <r>   25.5668    0.0000 </r>
       <r>   25.6557    0.0000 </r>
       <r>   28.4319    0.0000 </r>
      </set>
      <set comment="kpoint 15">
       <r>    0.9691    1.0000 </r>
       <r>    1.4418    1.0000 </r>
       <r>    2.6490    1.0000 </r>
       <r>    3.0155    1.0000 </r>
       <r>    3.7475    1.0000 </r>
       <r>    3.9498    1.0000 </r>
       <r>    4.0123    1.0000 </r>
       <r>    4.1697    1.0000 </r>
       <r>    4.7908    1.0000 </r>
       <r>    5.0435    1.0000 </r>
       <r>    5.8106    0.7334 </r>
       <r>    6.5127   -0.0000 </r>
       <r>   20.8623    0.0000 </r>
       <r>   22.0593    0.0000 </r>
       <r>   22.3577    0.0000 </r>
       <r>   23.8617    0.0000 </r>
       <r>   23.8663    0.0000 </r>
       <r>   24.6592    0.0000 </r>
       <r>   26.3097    0.0000 </r>
       <r>   27.2649    0.0000 </r>
      </set>
      <set comment="kpoint 16">
       <r>   -1.8653    1.0000 </r>
       <r>    1.2851    1.0000 </r>
       <r>    1.3299    1.0000 </r>
       <r>    3.3692    1.0000 </r>
       <r>    3.5234    1.0000 </r>
       <r>    3.9479    1.0000 </r>
       <r>    4.6280    1.0000 </r>
       <r>    4.7958    1.0000 </r>
       <r>    5.2136    1.0000 </r>
       <r>    5.4126    1.0029 </r>
       <r>    6.0391   -0.0025 </r>
       <r>   13.7927    0.0000 </r>
       <r>   14.7702    0.0000 </r>
       <r>   17.1338    0.0000 </r>
       <r>   22.3631    0.0000 </r>
       <r>   24.2896    0.0000 </r>
       <r>   27.1546    0.0000 </r>
       <r>   28.9784    0.0000 </r>
       <r>   29.6895    0.0000 </r>
       <r>   30.5034    0.0000 </r>
      </set>
      <set comment="kpoint 17">
       <r>   -1.4389    1.0000 </r>
       <r>    1.4307    1.0000 </r>
       <r>    1.5252    1.0000 </r>
       <r>    3.2960    1.0000 </r>
       <r>    3.4923    1.0000 </r>
       <r>    4.1460    1.0000 </r>
       <r>    4.5292    1.0000 </r>
       <r>    4.8511    1.0000 </r>
       <r>    4.8630    1.0000 </r>
       <r>    5.1268    1.0000 </r>
       <r>    6.0193    0.0225 </r>
       <r>   12.3760    0.0000 </r>
       <r>   15.1235    0.0000 </r>
       <r>   17.8566    0.0000 </r>
       <r>   22.5837    0.0000 </r>
       <r>   25.2894    0.0000 </r>
       <r>   25.6663    0.0000 </r>
       <r>   28.8776    0.0000 </r>
       <r>   29.9862    0.0000 </r>
       <r>   30.4333    0.0000 </r>
      </set>
      <set comment="kpoint 18">
       <r>   -0.8770    1.0000 </r>
       <r>    1.5934    1.0000 </r>
       <r>    1.7677    1.0000 </r>
       <r>    3.2595    1.0000 </r>
       <r>    3.4574    1.0000 </r>
       <r>    4.3649    1.0000 </r>
       <r>    4.3775    1.0000 </r>
       <r>    4.5054    1.0000 </r>
       <r>    4.8272    1.0000 </r>
       <r>    4.9596    1.0000 </r>
       <r>    5.9256    0.2684 </r>
       <r>   10.7110   -0.0000 </r>
       <r>   15.9168    0.0000 </r>
       <r>   18.8033    0.0000 </r>
       <r>   22.8264    0.0000 </r>
       <r>   24.1978    0.0000 </r>
       <r>   26.0316    0.0000 </r>
       <r>   27.8184    0.0000 </r>
       <r>   28.7552    0.0000 </r>
       <r>   32.5402    0.0000 </r>
      </set>
      <set comment="kpoint 19">
       <r>   -0.2242    1.0000 </r>
       <r>    1.7083    1.0000 </r>
       <r>    2.0465    1.0000 </r>
       <r>    3.2678    1.0000 </r>
       <r>    3.3901    1.0000 </r>
       <r>    4.1684    1.0000 </r>
       <r>    4.2463    1.0000 </r>
       <r>    4.5694    1.0000 </r>
       <r>    4.6009    1.0000 </r>
       <r>    5.1138    1.0000 </r>
       <r>    5.7722    0.8593 </r>
       <r>    9.1406   -0.0000 </r>
       <r>   16.8590    0.0000 </r>
       <r>   19.9330    0.0000 </r>
       <r>   22.7946    0.0000 </r>
       <r>   23.1400    0.0000 </r>
       <r>   26.6821    0.0000 </r>
       <r>   26.7063    0.0000 </r>
       <r>   27.2277    0.0000 </r>
       <r>   31.6858    0.0000 </r>
      </set>
      <set comment="kpoint 20">
       <r>    0.4491    1.0000 </r>
       <r>    1.6914    1.0000 </r>
       <r>    2.3541    1.0000 </r>
       <r>    3.2347    1.0000 </r>
       <r>    3.3287    1.0000 </r>
       <r>    3.8724    1.0000 </r>
       <r>    4.2007    1.0000 </r>
       <r>    4.3900    1.0000 </r>
       <r>    4.8486    1.0000 </r>
       <r>    5.3698    1.0012 </r>
       <r>    5.5742    1.0289 </r>
       <r>    7.7563   -0.0000 </r>
       <r>   17.8995    0.0000 </r>
       <r>   21.2104    0.0000 </r>
       <r>   21.4642    0.0000 </r>
       <r>   23.5561    0.0000 </r>
       <r>   25.6467    0.0000 </r>
       <r>   25.6814    0.0000 </r>
       <r>   27.3920    0.0000 </r>
       <r>   30.4023    0.0000 </r>
      </set>
      <set comment="kpoint 21">
       <r>    1.0470    1.0000 </r>
       <r>    1.4764    1.0000 </r>
       <r>    2.6749    1.0000 </r>
       <r>    2.9818    1.0000 </r>
       <r>    3.4486    1.0000 </r>
       <r>    3.6302    1.0000 </r>
       <r>    4.2308    1.0000 </r>
       <r>    4.2893    1.0000 </r>
       <r>    5.1002    1.0000 </r>
       <r>    5.3458    1.0007 </r>
       <r>    5.8425    0.6085 </r>
       <r>    6.6358   -0.0000 </r>
       <r>   19.0174    0.0000 </r>
       <r>   20.2058    0.0000 </r>
       <r>   22.6058    0.0000 </r>
       <r>   24.0935    0.0000 </r>
       <r>   24.1039    0.0000 </r>
       <r>   24.8086    0.0000 </r>
       <r>   28.2365    0.0000 </r>
       <r>   29.2419    0.0000 </r>
      </set>
      <set comment="kpoint 22">
       <r>   -1.0390    1.0000 </r>
       <r>    1.5280    1.0000 </r>
       <r>    1.7427    1.0000 </r>
       <r>    3.1663    1.0000 </r>
       <r>    3.4423    1.0000 </r>
       <r>    4.3914    1.0000 </r>
       <r>    4.4943    1.0000 </r>
       <r>    4.5838    1.0000 </r>
       <r>    4.8211    1.0000 </r>
       <r>    4.8784    1.0000 </r>
       <r>    6.0878   -0.0325 </r>
       <r>   12.2194    0.0000 </r>
       <r>   14.1343    0.0000 </r>
       <r>   18.5125    0.0000 </r>
       <r>   22.8033    0.0000 </r>
       <r>   24.0945    0.0000 </r>
       <r>   26.7374    0.0000 </r>
       <r>   28.2569    0.0000 </r>
       <r>   30.1649    0.0000 </r>
       <r>   31.4525    0.0000 </r>
      </set>
      <set comment="kpoint 23">
       <r>   -0.5231    1.0000 </r>
       <r>    1.6242    1.0000 </r>
       <r>    2.0099    1.0000 </r>
       <r>    3.0782    1.0000 </r>
       <r>    3.4121    1.0000 </r>
       <r>    4.1327    1.0000 </r>
       <r>    4.5383    1.0000 </r>
       <r>    4.6441    1.0000 </r>
       <r>    4.6483    1.0000 </r>
       <r>    4.8913    1.0000 </r>
       <r>    6.0746   -0.0281 </r>
       <r>   10.9539   -0.0000 </r>
       <r>   14.4407    0.0000 </r>
       <r>   19.3867    0.0000 </r>
       <r>   22.5501    0.0000 </r>
       <r>   23.0177    0.0000 </r>
       <r>   27.4123    0.0000 </r>
       <r>   27.8828    0.0000 </r>
       <r>   29.1971    0.0000 </r>
       <r>   31.4694    0.0000 </r>
      </set>
      <set comment="kpoint 24">
       <r>    0.0553    1.0000 </r>
       <r>    1.6734    1.0000 </r>
       <r>    2.2999    1.0000 </r>
       <r>    3.0409    1.0000 </r>
       <r>    3.3834    1.0000 </r>
       <r>    3.8029    1.0000 </r>
       <r>    4.4762    1.0000 </r>
       <r>    4.4818    1.0000 </r>
       <r>    4.9099    1.0000 </r>
       <r>    5.0389    1.0000 </r>
       <r>    5.9878    0.0811 </r>
       <r>    9.4352   -0.0000 </r>
       <r>   15.2318    0.0000 </r>
       <r>   20.4475    0.0000 </r>
       <r>   21.0834    0.0000 </r>
       <r>   23.2901    0.0000 </r>
       <r>   26.4716    0.0000 </r>
       <r>   27.6125    0.0000 </r>
       <r>   28.7697    0.0000 </r>
       <r>   32.1298    0.0000 </r>
      </set>
      <set comment="kpoint 25">
       <r>    0.6213    1.0000 </r>
       <r>    1.6219    1.0000 </r>
       <r>    2.5925    1.0000 </r>
       <r>    3.0627    1.0000 </r>
       <r>    3.2977    1.0000 </r>
       <r>    3.5226    1.0000 </r>
       <r>    4.4186    1.0000 </r>
       <r>    4.4640    1.0000 </r>
       <r>    5.1696    1.0000 </r>
       <r>    5.3220    1.0004 </r>
       <r>    5.8402    0.6178 </r>
       <r>    8.0165   -0.0000 </r>
       <r>   16.1908    0.0000 </r>
       <r>   19.7104    0.0000 </r>
       <r>   21.6651    0.0000 </r>
       <r>   23.6575    0.0000 </r>
       <r>   25.5702    0.0000 </r>
       <r>   26.0113    0.0000 </r>
       <r>   29.5942    0.0000 </r>
       <r>   32.4018    0.0000 </r>
      </set>
      <set comment="kpoint 26">
       <r>    1.0965    1.0000 </r>
       <r>    1.4336    1.0000 </r>
       <r>    2.8727    1.0000 </r>
       <r>    3.1192    1.0000 </r>
       <r>    3.1488    1.0000 </r>
       <r>    3.3025    1.0000 </r>
       <r>    4.4310    1.0000 </r>
       <r>    4.4601    1.0000 </r>
       <r>    5.4182    1.0033 </r>
       <r>    5.6458    1.0332 </r>
       <r>    5.8903    0.4077 </r>
       <r>    6.8067   -0.0000 </r>
       <r>   17.2629    0.0000 </r>
       <r>   18.4365    0.0000 </r>
       <r>   23.0132    0.0000 </r>
       <r>   24.1495    0.0000 </r>
       <r>   24.4690    0.0000 </r>
       <r>   24.7864    0.0000 </r>
       <r>   30.4681    0.0000 </r>
       <r>   31.4199    0.0000 </r>
      </set>
      <set comment="kpoint 27">
       <r>   -0.0883    1.0000 </r>
       <r>    1.6264    1.0000 </r>
       <r>    2.3168    1.0000 </r>
       <r>    2.9400    1.0000 </r>
       <r>    3.4487    1.0000 </r>
       <r>    3.7769    1.0000 </r>
       <r>    4.5014    1.0000 </r>
       <r>    4.6411    1.0000 </r>
       <r>    4.8582    1.0000 </r>
       <r>    4.9338    1.0000 </r>
       <r>    6.1440   -0.0325 </r>
       <r>   10.6472   -0.0000 </r>
       <r>   13.7015    0.0000 </r>
       <r>   20.1772    0.0000 </r>
       <r>   20.9551    0.0000 </r>
       <r>   23.1941    0.0000 </r>
       <r>   26.8218    0.0000 </r>
       <r>   29.5704    0.0000 </r>
       <r>   29.6666    0.0000 </r>
       <r>   29.8718    0.0000 </r>
      </set>
      <set comment="kpoint 28">
       <r>    0.3623    1.0000 </r>
       <r>    1.5807    1.0000 </r>
       <r>    2.6504    1.0000 </r>
       <r>    2.8569    1.0000 </r>
       <r>    3.4615    1.0000 </r>
       <r>    3.5530    1.0000 </r>
       <r>    4.4444    1.0000 </r>
       <r>    4.6582    1.0000 </r>
       <r>    4.9495    1.0000 </r>
       <r>    5.2113    1.0000 </r>
       <r>    6.1329   -0.0342 </r>
       <r>    9.5500   -0.0000 </r>
       <r>   13.9737    0.0000 </r>
       <r>   19.4579    0.0000 </r>
       <r>   21.1529    0.0000 </r>
       <r>   23.4198    0.0000 </r>
       <r>   26.1039    0.0000 </r>
       <r>   28.0624    0.0000 </r>
       <r>   30.5485    0.0000 </r>
       <r>   30.8720    0.0000 </r>
      </set>
      <set comment="kpoint 29">
       <r>    0.7613    1.0000 </r>
       <r>    1.4752    1.0000 </r>
       <r>    2.8373    1.0000 </r>
       <r>    2.9761    1.0000 </r>
       <r>    3.2022    1.0000 </r>
       <r>    3.6021    1.0000 </r>
       <r>    4.4776    1.0000 </r>
       <r>    4.6777    1.0000 </r>
       <r>    5.2513    1.0001 </r>
       <r>    5.4721    1.0085 </r>
       <r>    6.0486   -0.0116 </r>
       <r>    8.2208   -0.0000 </r>
       <r>   14.7284    0.0000 </r>
       <r>   18.0767    0.0000 </r>
       <r>   22.2907    0.0000 </r>
       <r>   23.7310    0.0000 </r>
       <r>   25.3683    0.0000 </r>
       <r>   26.4708    0.0000 </r>
       <r>   31.4143    0.0000 </r>
       <r>   31.8661    0.0000 </r>
      </set>
      <set comment="kpoint 30">
       <r>    1.0748    1.0000 </r>
       <r>    1.3081    1.0000 </r>
       <r>    2.8870    1.0000 </r>
       <r>    3.0090    1.0000 </r>
       <r>    3.2662    1.0000 </r>
       <r>    3.4920    1.0000 </r>
       <r>    4.5649    1.0000 </r>
       <r>    4.6489    1.0000 </r>
       <r>    5.7060    0.9929 </r>
       <r>    5.9022    0.3592 </r>
       <r>    5.9406    0.2154 </r>
       <r>    6.9716   -0.0000 </r>
       <r>   15.6995    0.0000 </r>
       <r>   16.8213    0.0000 </r>
       <r>   23.5688    0.0000 </r>
       <r>   24.1545    0.0000 </r>
       <r>   24.7035    0.0000 </r>
       <r>   24.9678    0.0000 </r>
       <r>   32.3935    0.0000 </r>
       <r>   32.6752    0.0000 </r>
      </set>
      <set comment="kpoint 31">
       <r>    0.6337    1.0000 </r>
       <r>    1.4527    1.0000 </r>
       <r>    2.7297    1.0000 </r>
       <r>    3.0443    1.0000 </r>
       <r>    3.1669    1.0000 </r>
       <r>    3.9018    1.0000 </r>
       <r>    4.4748    1.0000 </r>
       <r>    4.7696    1.0000 </r>
       <r>    4.9018    1.0000 </r>
       <r>    5.4916    1.0114 </r>
       <r>    6.1983   -0.0208 </r>
       <r>    9.1439   -0.0000 </r>
       <r>   13.4493    0.0000 </r>
       <r>   17.9568    0.0000 </r>
       <r>   22.0345    0.0000 </r>
       <r>   23.5879    0.0000 </r>
       <r>   25.6222    0.0000 </r>
       <r>   28.0488    0.0000 </r>
       <r>   29.6514    0.0000 </r>
       <r>   32.7423    0.0000 </r>
      </set>
      <set comment="kpoint 32">
       <r>    0.8440    1.0000 </r>
       <r>    1.3080    1.0000 </r>
       <r>    2.6694    1.0000 </r>
       <r>    2.9331    1.0000 </r>
       <r>    3.4341    1.0000 </r>
       <r>    4.1536    1.0000 </r>
       <r>    4.5630    1.0000 </r>
       <r>    4.8230    1.0000 </r>
       <r>    5.1578    1.0000 </r>
       <r>    5.7399    0.9381 </r>
       <r>    6.1841   -0.0240 </r>
       <r>    8.1939   -0.0000 </r>
       <r>   13.7053    0.0000 </r>
       <r>   16.6026    0.0000 </r>
       <r>   23.0745    0.0000 </r>
       <r>   23.8268    0.0000 </r>
       <r>   25.0912    0.0000 </r>
       <r>   26.8992    0.0000 </r>
       <r>   30.1117    0.0000 </r>
       <r>   33.2321    0.0000 </r>
      </set>
      <set comment="kpoint 33">
       <r>    1.0103    1.0000 </r>
       <r>    1.1601    1.0000 </r>
       <r>    2.6816    1.0000 </r>
       <r>    2.7696    1.0000 </r>
       <r>    3.7795    1.0000 </r>
       <r>    4.0459    1.0000 </r>
       <r>    4.6786    1.0000 </r>
       <r>    4.7795    1.0000 </r>
       <r>    5.9451    0.2002 </r>
       <r>    5.9738    0.1154 </r>
       <r>    6.0965   -0.0342 </r>
       <r>    7.0522   -0.0000 </r>
       <r>   14.4264    0.0000 </r>
       <r>   15.4159    0.0000 </r>
       <r>   24.1577    0.0000 </r>
       <r>   24.2528    0.0000 </r>
       <r>   24.5859    0.0000 </r>
       <r>   25.5445    0.0000 </r>
       <r>   30.9997    0.0000 </r>
       <r>   32.0529    0.0000 </r>
      </set>
      <set comment="kpoint 34">
       <r>    0.8949    1.0000 </r>
       <r>    1.1552    1.0000 </r>
       <r>    2.5693    1.0000 </r>
       <r>    2.7286    1.0000 </r>
       <r>    3.9013    1.0000 </r>
       <r>    4.6638    1.0000 </r>
       <r>    4.6827    1.0000 </r>
       <r>    4.9420    1.0000 </r>
       <r>    5.1938    1.0000 </r>
       <r>    5.9604    0.1524 </r>
       <r>    6.2407   -0.0122 </r>
       <r>    7.7587   -0.0000 </r>
       <r>   13.3218    0.0000 </r>
       <r>   15.3248    0.0000 </r>
       <r>   23.9713    0.0000 </r>
       <r>   23.9972    0.0000 </r>
       <r>   24.7711    0.0000 </r>
       <r>   26.8696    0.0000 </r>
       <r>   29.5076    0.0000 </r>
       <r>   31.9428    0.0000 </r>
      </set>
      <set comment="kpoint 35">
       <r>    0.9505    1.0000 </r>
       <r>    1.0345    1.0000 </r>
       <r>    2.5446    1.0000 </r>
       <r>    2.5976    1.0000 </r>
       <r>    4.3170    1.0000 </r>
       <r>    4.6208    1.0000 </r>
       <r>    4.7666    1.0000 </r>
       <r>    4.8619    1.0000 </r>
       <r>    6.0050    0.0462 </r>
       <r>    6.1231   -0.0351 </r>
       <r>    6.2188   -0.0163 </r>
       <r>    6.9538   -0.0000 </r>
       <r>   13.5755    0.0000 </r>
       <r>   14.2902    0.0000 </r>
       <r>   24.1802    0.0000 </r>
       <r>   24.4538    0.0000 </r>
       <r>   25.0253    0.0000 </r>
       <r>   26.0773    0.0000 </r>
       <r>   29.9073    0.0000 </r>
       <r>   30.8108    0.0000 </r>
      </set>
      <set comment="kpoint 36">
       <r>    0.9268    1.0000 </r>
       <r>    0.9540    1.0000 </r>
       <r>    2.4828    1.0000 </r>
       <r>    2.5008    1.0000 </r>
       <r>    4.7667    1.0000 </r>
       <r>    4.8245    1.0000 </r>
       <r>    4.8352    1.0000 </r>
       <r>    4.9658    1.0000 </r>
       <r>    6.2045   -0.0194 </r>
       <r>    6.2310   -0.0139 </r>
       <r>    6.2639   -0.0086 </r>
       <r>    6.6264   -0.0000 </r>
       <r>   13.2715    0.0000 </r>
       <r>   13.5379    0.0000 </r>
       <r>   24.2363    0.0000 </r>
       <r>   24.3306    0.0000 </r>
       <r>   25.7835    0.0000 </r>
       <r>   26.2424    0.0000 </r>
       <r>   29.4370    0.0000 </r>
       <r>   29.8458    0.0000 </r>
      </set>
      <set comment="kpoint 37">
       <r>   -2.3111    1.0000 </r>
       <r>    1.1189    1.0000 </r>
       <r>    1.1189    1.0000 </r>
       <r>    3.5052    1.0000 </r>
       <r>    3.5052    1.0000 </r>
       <r>    3.7349    1.0000 </r>
       <r>    4.7468    1.0000 </r>
       <r>    4.7468    1.0000 </r>
       <r>    5.5898    1.0320 </r>
       <r>    5.9274    0.2616 </r>
       <r>    5.9274    0.2616 </r>
       <r>   15.3478    0.0000 </r>
       <r>   15.3478    0.0000 </r>
       <r>   15.7852    0.0000 </r>
       <r>   22.4258    0.0000 </r>
       <r>   22.4258    0.0000 </r>
       <r>   27.5600    0.0000 </r>
       <r>   29.6454    0.0000 </r>
       <r>   29.6454    0.0000 </r>
       <r>   31.1863    0.0000 </r>
      </set>
      <set comment="kpoint 38">
       <r>   -2.0410    1.0000 </r>
       <r>    1.2305    1.0000 </r>
       <r>    1.2374    1.0000 </r>
       <r>    3.4453    1.0000 </r>
       <r>    3.4926    1.0000 </r>
       <r>    3.8692    1.0000 </r>
       <r>    4.6430    1.0000 </r>
       <r>    4.8000    1.0000 </r>
       <r>    5.2990    1.0002 </r>
       <r>    5.7122    0.9849 </r>
       <r>    5.9489    0.1877 </r>
       <r>   13.9329    0.0000 </r>
       <r>   15.8173    0.0000 </r>
       <r>   16.1549    0.0000 </r>
       <r>   22.5482    0.0000 </r>
       <r>   23.4733    0.0000 </r>
       <r>   28.2328    0.0000 </r>
       <r>   28.4421    0.0000 </r>
       <r>   29.2238    0.0000 </r>
       <r>   31.1334    0.0000 </r>
      </set>
      <set comment="kpoint 39">
       <r>   -1.6048    1.0000 </r>
       <r>    1.4077    1.0000 </r>
       <r>    1.4115    1.0000 </r>
       <r>    3.4109    1.0000 </r>
       <r>    3.4752    1.0000 </r>
       <r>    4.0356    1.0000 </r>
       <r>    4.4793    1.0000 </r>
       <r>    4.8828    1.0000 </r>
       <r>    4.9616    1.0000 </r>
       <r>    5.4080    1.0027 </r>
       <r>    5.8879    0.4175 </r>
       <r>   12.2330    0.0000 </r>
       <r>   16.5369    0.0000 </r>
       <r>   16.8502    0.0000 </r>
       <r>   22.7624    0.0000 </r>
       <r>   24.2930    0.0000 </r>
       <r>   26.7939    0.0000 </r>
       <r>   28.2838    0.0000 </r>
       <r>   30.0816    0.0000 </r>
       <r>   30.5885    0.0000 </r>
      </set>
      <set comment="kpoint 40">
       <r>   -1.0264    1.0000 </r>
       <r>    1.5872    1.0000 </r>
       <r>    1.6542    1.0000 </r>
       <r>    3.4129    1.0000 </r>
       <r>    3.4511    1.0000 </r>
       <r>    4.2313    1.0000 </r>
       <r>    4.2758    1.0000 </r>
       <r>    4.6170    1.0000 </r>
       <r>    4.9938    1.0000 </r>
       <r>    5.0676    1.0000 </r>
       <r>    5.7602    0.8916 </r>
       <r>   10.5490   -0.0000 </r>
       <r>   17.4414    0.0000 </r>
       <r>   17.7505    0.0000 </r>
       <r>   23.0844    0.0000 </r>
       <r>   24.8556    0.0000 </r>
       <r>   25.4322    0.0000 </r>
       <r>   26.9488    0.0000 </r>
       <r>   29.5760    0.0000 </r>
       <r>   31.5851    0.0000 </r>
      </set>
      <set comment="kpoint 41">
       <r>   -0.3473    1.0000 </r>
       <r>    1.7120    1.0000 </r>
       <r>    1.9480    1.0000 </r>
       <r>    3.3940    1.0000 </r>
       <r>    3.4602    1.0000 </r>
       <r>    4.0813    1.0000 </r>
       <r>    4.3025    1.0000 </r>
       <r>    4.4515    1.0000 </r>
       <r>    4.7341    1.0000 </r>
       <r>    5.1476    1.0000 </r>
       <r>    5.5824    1.0306 </r>
       <r>    8.9915   -0.0000 </r>
       <r>   18.4692    0.0000 </r>
       <r>   18.8046    0.0000 </r>
       <r>   23.5369    0.0000 </r>
       <r>   24.1649    0.0000 </r>
       <r>   25.3580    0.0000 </r>
       <r>   25.4733    0.0000 </r>
       <r>   28.3373    0.0000 </r>
       <r>   30.1480    0.0000 </r>
      </set>
      <set comment="kpoint 42">
       <r>    0.3645    1.0000 </r>
       <r>    1.6999    1.0000 </r>
       <r>    2.2780    1.0000 </r>
       <r>    3.2365    1.0000 </r>
       <r>    3.5557    1.0000 </r>
       <r>    3.9882    1.0000 </r>
       <r>    4.0457    1.0000 </r>
       <r>    4.4381    1.0000 </r>
       <r>    4.6836    1.0000 </r>
       <r>    5.3713    1.0012 </r>
       <r>    5.3959    1.0021 </r>
       <r>    7.6410   -0.0000 </r>
       <r>   19.5669    0.0000 </r>
       <r>   19.9751    0.0000 </r>
       <r>   22.9737    0.0000 </r>
       <r>   23.9991    0.0000 </r>
       <r>   24.1477    0.0000 </r>
       <r>   25.9454    0.0000 </r>
       <r>   27.0812    0.0000 </r>
       <r>   28.8173    0.0000 </r>
      </set>
      <set comment="kpoint 43">
       <r>    1.0083    1.0000 </r>
       <r>    1.4734    1.0000 </r>
       <r>    2.6247    1.0000 </r>
       <r>    2.9601    1.0000 </r>
       <r>    3.6898    1.0000 </r>
       <r>    3.8493    1.0000 </r>
       <r>    4.0405    1.0000 </r>
       <r>    4.2005    1.0000 </r>
       <r>    4.9144    1.0000 </r>
       <r>    5.1440    1.0000 </r>
       <r>    5.8372    0.6299 </r>
       <r>    6.5742   -0.0000 </r>
       <r>   20.6929    0.0000 </r>
       <r>   21.2380    0.0000 </r>
       <r>   21.8261    0.0000 </r>
       <r>   22.5816    0.0000 </r>
       <r>   24.9418    0.0000 </r>
       <r>   25.9276    0.0000 </r>
       <r>   26.6998    0.0000 </r>
       <r>   27.6574    0.0000 </r>
      </set>
      <set comment="kpoint 44">
       <r>   -1.7777    1.0000 </r>
       <r>    1.3298    1.0000 </r>
       <r>    1.3617    1.0000 </r>
       <r>    3.3567    1.0000 </r>
       <r>    3.4482    1.0000 </r>
       <r>    4.0468    1.0000 </r>
       <r>    4.6494    1.0000 </r>
       <r>    4.7738    1.0000 </r>
       <r>    4.9693    1.0000 </r>
       <r>    5.5865    1.0314 </r>
       <r>    5.9602    0.1531 </r>
       <r>   13.9465    0.0000 </r>
       <r>   14.8180    0.0000 </r>
       <r>   16.4523    0.0000 </r>
       <r>   23.0917    0.0000 </r>
       <r>   24.3441    0.0000 </r>
       <r>   27.1257    0.0000 </r>
       <r>   28.5159    0.0000 </r>
       <r>   29.1387    0.0000 </r>
       <r>   31.3350    0.0000 </r>
      </set>
      <set comment="kpoint 45">
       <r>   -1.3542    1.0000 </r>
       <r>    1.4793    1.0000 </r>
       <r>    1.5506    1.0000 </r>
       <r>    3.2779    1.0000 </r>
       <r>    3.4089    1.0000 </r>
       <r>    4.2556    1.0000 </r>
       <r>    4.5519    1.0000 </r>
       <r>    4.6132    1.0000 </r>
       <r>    4.8371    1.0000 </r>
       <r>    5.3096    1.0003 </r>
       <r>    5.9526    0.1760 </r>
       <r>   12.5051    0.0000 </r>
       <r>   15.1901    0.0000 </r>
       <r>   17.0997    0.0000 </r>
       <r>   23.3882    0.0000 </r>
       <r>   25.3743    0.0000 </r>
       <r>   25.6510    0.0000 </r>
       <r>   27.6982    0.0000 </r>
       <r>   30.5346    0.0000 </r>
       <r>   30.9638    0.0000 </r>
      </set>
      <set comment="kpoint 46">
       <r>   -0.7975    1.0000 </r>
       <r>    1.6495    1.0000 </r>
       <r>    1.7793    1.0000 </r>
       <r>    3.2354    1.0000 </r>
       <r>    3.3657    1.0000 </r>
       <r>    4.2715    1.0000 </r>
       <r>    4.4041    1.0000 </r>
       <r>    4.4904    1.0000 </r>
       <r>    4.9481    1.0000 </r>
       <r>    4.9955    1.0000 </r>
       <r>    5.8774    0.4618 </r>
       <r>   10.8330   -0.0000 </r>
       <r>   15.9808    0.0000 </r>
       <r>   17.9445    0.0000 </r>
       <r>   23.7316    0.0000 </r>
       <r>   24.1909    0.0000 </r>
       <r>   26.1358    0.0000 </r>
       <r>   26.4849    0.0000 </r>
       <r>   29.9916    0.0000 </r>
       <r>   31.5341    0.0000 </r>
      </set>
      <set comment="kpoint 47">
       <r>   -0.1527    1.0000 </r>
       <r>    1.7686    1.0000 </r>
       <r>    2.0398    1.0000 </r>
       <r>    3.2132    1.0000 </r>
       <r>    3.3284    1.0000 </r>
       <r>    3.9809    1.0000 </r>
       <r>    4.2720    1.0000 </r>
       <r>    4.7016    1.0000 </r>
       <r>    4.7305    1.0000 </r>
       <r>    5.1105    1.0000 </r>
       <r>    5.7407    0.9363 </r>
[...]
       </set>
       <set comment="band 16">
        <r>  0.0000  0.0826  0.0000  0.0826  0.0000  0.1084  0.0000  0.1084  0.0014 </r>
        <r>  0.0000  0.0826  0.0000  0.0826  0.0000  0.1084  0.0000  0.1084  0.0014 </r>
       </set>
       <set comment="band 17">
        <r>  0.2238  0.0009  0.1385  0.0009  0.0238  0.0008  0.0076  0.0008  0.0000 </r>
        <r>  0.2238  0.0009  0.1385  0.0009  0.0238  0.0008  0.0076  0.0008  0.0000 </r>
       </set>
       <set comment="band 18">
        <r>  0.1371  0.0310  0.1009  0.0310  0.0239  0.0304  0.0039  0.0304  0.0000 </r>
        <r>  0.1371  0.0310  0.1009  0.0310  0.0239  0.0304  0.0039  0.0304  0.0000 </r>
       </set>
       <set comment="band 19">
        <r>  0.0005  0.0000  0.0045  0.0000  0.0031  0.0714  0.0243  0.0714  0.0000 </r>
        <r>  0.0005  0.0000  0.0045  0.0000  0.0031  0.0714  0.0243  0.0714  0.0000 </r>
       </set>
       <set comment="band 20">
        <r>  0.0000  0.0000  0.0000  0.0000  0.0000  0.0778  0.0000  0.0778  0.0009 </r>
        <r>  0.0000  0.0000  0.0000  0.0000  0.0000  0.0778  0.0000  0.0778  0.0009 </r>
       </set>
      </set>
      <set comment="kpoint 117">
       <set comment="band 1">
        <r>  0.0196  0.0075  0.0075  0.0075  0.1393  0.1393  0.0000  0.1393  0.0000 </r>
        <r>  0.0196  0.0075  0.0075  0.0075  0.1393  0.1393  0.0000  0.1393  0.0000 </r>
       </set>
       <set comment="band 2">
        <r>  0.0480  0.0419  0.0419  0.0419  0.0816  0.0815  0.0000  0.0815  0.0000 </r>
        <r>  0.0480  0.0419  0.0419  0.0419  0.0816  0.0815  0.0000  0.0815  0.0000 </r>
       </set>
       <set comment="band 3">
        <r>  0.0000  0.0070  0.0305  0.0082  0.2636  0.0712  0.0160  0.0609  0.0000 </r>
        <r>  0.0000  0.0070  0.0305  0.0082  0.2636  0.0712  0.0160  0.0609  0.0000 </r>
       </set>
       <set comment="band 4">
        <r>  0.0000  0.0235  0.0000  0.0223  0.0001  0.1926  0.0000  0.2029  0.0160 </r>
        <r>  0.0000  0.0235  0.0000  0.0223  0.0001  0.1926  0.0000  0.2029  0.0160 </r>
       </set>
       <set comment="band 5">
        <r>  0.0000  0.0160  0.0659  0.0169  0.2000  0.0515  0.0392  0.0486  0.0000 </r>
        <r>  0.0000  0.0160  0.0659  0.0169  0.2000  0.0515  0.0392  0.0486  0.0000 </r>
       </set>
       <set comment="band 6">
        <r>  0.0000  0.0499  0.0000  0.0489  0.0000  0.1486  0.0000  0.1514  0.0392 </r>
        <r>  0.0000  0.0499  0.0000  0.0489  0.0000  0.1486  0.0000  0.1514  0.0392 </r>
       </set>
       <set comment="band 7">
        <r>  0.0000  0.0001  0.0003  0.0001  0.0369  0.0069  0.4335  0.0119  0.0027 </r>
        <r>  0.0000  0.0001  0.0003  0.0001  0.0369  0.0069  0.4335  0.0119  0.0027 </r>
       </set>
       <set comment="band 8">
        <r>  0.0000  0.0002  0.0000  0.0003  0.0002  0.0302  0.0027  0.0252  0.4335 </r>
        <r>  0.0000  0.0002  0.0000  0.0003  0.0002  0.0302  0.0027  0.0252  0.4335 </r>
       </set>
       <set comment="band 9">
        <r>  0.0000  0.0000  0.0000  0.0000  0.0141  0.0026  0.4682  0.0046  0.0033 </r>
        <r>  0.0000  0.0000  0.0000  0.0000  0.0141  0.0026  0.4682  0.0046  0.0033 </r>
       </set>
       <set comment="band 10">
        <r>  0.0000  0.0000  0.0000  0.0000  0.0001  0.0116  0.0033  0.0096  0.4682 </r>
        <r>  0.0000  0.0000  0.0000  0.0000  0.0001  0.0116  0.0033  0.0096  0.4682 </r>
       </set>
       <set comment="band 11">
        <r>  0.0387  0.0362  0.0362  0.0362  0.0996  0.0996  0.0000  0.0996  0.0000 </r>
        <r>  0.0387  0.0362  0.0362  0.0362  0.0996  0.0996  0.0000  0.0996  0.0000 </r>
       </set>
       <set comment="band 12">
        <r>  0.0000  0.0296  0.1229  0.0319  0.1409  0.0365  0.0256  0.0340  0.0000 </r>
        <r>  0.0000  0.0296  0.1229  0.0319  0.1409  0.0365  0.0256  0.0340  0.0000 </r>
       </set>
       <set comment="band 13">
        <r>  0.0000  0.0933  0.0000  0.0911  0.0000  0.1044  0.0000  0.1070  0.0256 </r>
        <r>  0.0000  0.0933  0.0000  0.0911  0.0000  0.1044  0.0000  0.1070  0.0256 </r>
       </set>
       <set comment="band 14">
        <r>  0.2772  0.0033  0.0033  0.0033  0.0431  0.0431  0.0000  0.0431  0.0000 </r>
        <r>  0.2772  0.0033  0.0033  0.0033  0.0431  0.0431  0.0000  0.0431  0.0000 </r>
       </set>
       <set comment="band 15">
        <r>  0.0000  0.0255  0.1148  0.0321  0.1414  0.0396  0.0140  0.0314  0.0000 </r>
        <r>  0.0000  0.0255  0.1148  0.0321  0.1414  0.0396  0.0140  0.0314  0.0000 </r>
       </set>
       <set comment="band 16">
        <r>  0.0000  0.0895  0.0001  0.0828  0.0002  0.1020  0.0000  0.1102  0.0140 </r>
        <r>  0.0000  0.0895  0.0001  0.0828  0.0002  0.1020  0.0000  0.1102  0.0140 </r>
       </set>
       <set comment="band 17">
        <r>  0.3112  0.0300  0.0300  0.0300  0.0000  0.0000  0.0000  0.0000  0.0000 </r>
        <r>  0.3112  0.0300  0.0300  0.0300  0.0000  0.0000  0.0000  0.0000  0.0000 </r>
       </set>
       <set comment="band 18">
        <r>  0.0946  0.0586  0.0586  0.0586  0.0381  0.0381  0.0000  0.0381  0.0000 </r>
        <r>  0.0946  0.0586  0.0586  0.0586  0.0381  0.0381  0.0000  0.0381  0.0000 </r>
       </set>
       <set comment="band 19">
        <r>  0.0000  0.0105  0.0002  0.0080  0.0005  0.0226  0.0013  0.0296  0.0946 </r>
        <r>  0.0000  0.0105  0.0002  0.0080  0.0005  0.0226  0.0013  0.0296  0.0946 </r>
       </set>
       <set comment="band 20">
        <r>  0.0000  0.0020  0.0123  0.0044  0.0346  0.0125  0.0946  0.0055  0.0013 </r>
        <r>  0.0000  0.0020  0.0123  0.0044  0.0346  0.0125  0.0946  0.0055  0.0013 </r>
       </set>
      </set>
      <set comment="kpoint 118">
       <set comment="band 1">
        <r>  0.0167  0.0175  0.0175  0.0019  0.1572  0.0843  0.0009  0.1571  0.0027 </r>
        <r>  0.0167  0.0175  0.0175  0.0019  0.1572  0.0843  0.0009  0.1571  0.0027 </r>
       </set>
       <set comment="band 2">
        <r>  0.0188  0.0301  0.0301  0.0000  0.1586  0.0437  0.0019  0.1585  0.0056 </r>
        <r>  0.0188  0.0301  0.0301  0.0000  0.1586  0.0437  0.0019  0.1585  0.0056 </r>
       </set>
       <set comment="band 3">
        <r>  0.0000  0.0308  0.0308  0.0000  0.1840  0.0000  0.0162  0.1841  0.0054 </r>
        <r>  0.0000  0.0308  0.0308  0.0000  0.1840  0.0000  0.0162  0.1841  0.0054 </r>
       </set>
       <set comment="band 4">
        <r>  0.0000  0.0397  0.0397  0.0000  0.1682  0.0000  0.0218  0.1683  0.0073 </r>
        <r>  0.0000  0.0397  0.0397  0.0000  0.1682  0.0000  0.0218  0.1683  0.0073 </r>
       </set>
       <set comment="band 5">
        <r>  0.0100  0.0098  0.0098  0.0806  0.0047  0.3184  0.0000  0.0047  0.0000 </r>
        <r>  0.0100  0.0098  0.0098  0.0806  0.0047  0.3184  0.0000  0.0047  0.0000 </r>
       </set>
       <set comment="band 6">
        <r>  0.0021  0.0139  0.0139  0.0791  0.0200  0.2762  0.0030  0.0200  0.0091 </r>
        <r>  0.0021  0.0139  0.0139  0.0791  0.0200  0.2762  0.0030  0.0200  0.0091 </r>
       </set>
       <set comment="band 7">
        <r>  0.0000  0.0001  0.0001  0.0000  0.0202  0.0000  0.3395  0.0201  0.1126 </r>
        <r>  0.0000  0.0001  0.0001  0.0000  0.0202  0.0000  0.3395  0.0201  0.1126 </r>
       </set>
       <set comment="band 8">
        <r>  0.0000  0.0000  0.0000  0.0000  0.0147  0.0000  0.3479  0.0147  0.1153 </r>
        <r>  0.0000  0.0000  0.0000  0.0000  0.0147  0.0000  0.3479  0.0147  0.1153 </r>
       </set>
       <set comment="band 9">
        <r>  0.0001  0.0000  0.0000  0.0001  0.0073  0.0087  0.1170  0.0073  0.3528 </r>
        <r>  0.0001  0.0000  0.0000  0.0001  0.0073  0.0087  0.1170  0.0073  0.3528 </r>
       </set>
       <set comment="band 10">
        <r>  0.0001  0.0000  0.0000  0.0000  0.0052  0.0003  0.1202  0.0052  0.3625 </r>
        <r>  0.0001  0.0000  0.0000  0.0000  0.0052  0.0003  0.1202  0.0052  0.3625 </r>
       </set>
       <set comment="band 11">
        <r>  0.0346  0.0349  0.0349  0.0609  0.0805  0.1079  0.0006  0.0805  0.0017 </r>
        <r>  0.0346  0.0349  0.0349  0.0609  0.0805  0.1079  0.0006  0.0805  0.0017 </r>
       </set>
       <set comment="band 12">
        <r>  0.0181  0.0338  0.0338  0.0932  0.0605  0.1165  0.0026  0.0605  0.0079 </r>
        <r>  0.0181  0.0338  0.0338  0.0932  0.0605  0.1165  0.0026  0.0605  0.0079 </r>
       </set>
       <set comment="band 13">
        <r>  0.0000  0.0919  0.0919  0.0000  0.1057  0.0000  0.0152  0.1057  0.0051 </r>
        <r>  0.0000  0.0919  0.0919  0.0000  0.1057  0.0000  0.0152  0.1057  0.0051 </r>
       </set>
       <set comment="band 14">
        <r>  0.0000  0.0898  0.0898  0.0000  0.1061  0.0000  0.0125  0.1061  0.0042 </r>
        <r>  0.0000  0.0898  0.0898  0.0000  0.1061  0.0000  0.0125  0.1061  0.0042 </r>
       </set>
       <set comment="band 15">
        <r>  0.2323  0.0009  0.0009  0.0439  0.0309  0.0714  0.0000  0.0309  0.0000 </r>
        <r>  0.2323  0.0009  0.0009  0.0439  0.0309  0.0714  0.0000  0.0309  0.0000 </r>
       </set>
       <set comment="band 16">
        <r>  0.1370  0.0026  0.0026  0.1021  0.0308  0.0949  0.0006  0.0308  0.0017 </r>
        <r>  0.1370  0.0026  0.0026  0.1021  0.0308  0.0949  0.0006  0.0308  0.0017 </r>
       </set>
       <set comment="band 17">
        <r>  0.1987  0.0587  0.0587  0.0104  0.0160  0.0344  0.0006  0.0160  0.0017 </r>
        <r>  0.1987  0.0587  0.0587  0.0104  0.0160  0.0344  0.0006  0.0160  0.0017 </r>
       </set>
       <set comment="band 18">
        <r>  0.1277  0.0607  0.0607  0.0376  0.0299  0.0420  0.0002  0.0299  0.0005 </r>
        <r>  0.1277  0.0607  0.0607  0.0376  0.0299  0.0420  0.0002  0.0299  0.0005 </r>
       </set>
       <set comment="band 19">
        <r>  0.0000  0.0059  0.0059  0.0000  0.0310  0.0000  0.0463  0.0310  0.0154 </r>
        <r>  0.0000  0.0059  0.0059  0.0000  0.0310  0.0000  0.0463  0.0310  0.0154 </r>
       </set>
       <set comment="band 20">
        <r>  0.0000  0.0021  0.0021  0.0000  0.0244  0.0000  0.0171  0.0244  0.0057 </r>
        <r>  0.0000  0.0021  0.0021  0.0000  0.0244  0.0000  0.0172  0.0244  0.0057 </r>
       </set>
      </set>
      <set comment="kpoint 119">
       <set comment="band 1">
        <r>  0.0112  0.0057  0.0385  0.0057  0.2375  0.0735  0.0070  0.0735  0.0000 </r>
        <r>  0.0112  0.0057  0.0385  0.0057  0.2375  0.0735  0.0070  0.0735  0.0000 </r>
       </set>
       <set comment="band 2">
        <r>  0.0118  0.0004  0.0684  0.0004  0.3490  0.0000  0.0153  0.0000  0.0000 </r>
        <r>  0.0118  0.0004  0.0684  0.0004  0.3490  0.0000  0.0153  0.0000  0.0000 </r>
       </set>
       <set comment="band 3">
        <r>  0.0000  0.0245  0.0000  0.0245  0.0000  0.2032  0.0000  0.2032  0.0019 </r>
        <r>  0.0000  0.0245  0.0000  0.0245  0.0000  0.2032  0.0000  0.2032  0.0019 </r>
       </set>
       <set comment="band 4">
        <r>  0.0008  0.0189  0.0303  0.0189  0.1120  0.1288  0.0115  0.1287  0.0000 </r>
        <r>  0.0008  0.0189  0.0303  0.0189  0.1120  0.1288  0.0115  0.1287  0.0000 </r>
       </set>
       <set comment="band 5">
        <r>  0.0037  0.0535  0.0003  0.0535  0.0010  0.1623  0.0008  0.1623  0.0000 </r>
        <r>  0.0037  0.0535  0.0003  0.0535  0.0010  0.1623  0.0008  0.1623  0.0000 </r>
       </set>
       <set comment="band 6">
        <r>  0.0000  0.0539  0.0000  0.0539  0.0000  0.1628  0.0000  0.1628  0.0047 </r>
        <r>  0.0000  0.0539  0.0000  0.0539  0.0000  0.1628  0.0000  0.1628  0.0047 </r>
       </set>
       <set comment="band 7">
        <r>  0.0001  0.0000  0.0001  0.0000  0.0239  0.0010  0.4671  0.0010  0.0000 </r>
        <r>  0.0001  0.0000  0.0001  0.0000  0.0239  0.0010  0.4671  0.0010  0.0000 </r>
       </set>
       <set comment="band 8">
        <r>  0.0001  0.0000  0.0001  0.0000  0.0214  0.0004  0.4708  0.0004  0.0000 </r>
        <r>  0.0001  0.0000  0.0001  0.0000  0.0214  0.0004  0.4708  0.0004  0.0000 </r>
       </set>
       <set comment="band 9">
        <r>  0.0000  0.0000  0.0000  0.0000  0.0000  0.0034  0.0000  0.0034  0.4868 </r>
        <r>  0.0000  0.0000  0.0000  0.0000  0.0000  0.0034  0.0000  0.0034  0.4868 </r>
       </set>
       <set comment="band 10">
        <r>  0.0000  0.0000  0.0000  0.0000  0.0000  0.0013  0.0000  0.0013  0.4913 </r>
        <r>  0.0000  0.0000  0.0000  0.0000  0.0000  0.0013  0.0000  0.0013  0.4913 </r>
       </set>
       <set comment="band 11">
        <r>  0.0235  0.0662  0.0210  0.0662  0.0454  0.1021  0.0006  0.1021  0.0000 </r>
        <r>  0.0235  0.0662  0.0210  0.0662  0.0454  0.1021  0.0006  0.1021  0.0000 </r>
       </set>
       <set comment="band 12">
        <r>  0.0000  0.0903  0.0000  0.0903  0.0000  0.1180  0.0000  0.1180  0.0032 </r>
        <r>  0.0000  0.0903  0.0000  0.0903  0.0000  0.1180  0.0000  0.1180  0.0032 </r>
       </set>
       <set comment="band 13">
        <r>  0.0653  0.0069  0.1187  0.0069  0.2021  0.0047  0.0120  0.0047  0.0000 </r>
        <r>  0.0653  0.0069  0.1187  0.0069  0.2021  0.0047  0.0120  0.0047  0.0000 </r>
       </set>
       <set comment="band 14">
        <r>  0.0620  0.0226  0.0934  0.0226  0.1663  0.0193  0.0099  0.0193  0.0000 </r>
        <r>  0.0620  0.0226  0.0934  0.0226  0.1663  0.0193  0.0099  0.0193  0.0000 </r>
       </set>
       <set comment="band 15">
        <r>  0.1367  0.0497  0.0055  0.0497  0.0010  0.0808  0.0007  0.0808  0.0000 </r>
        <r>  0.1367  0.0497  0.0055  0.0497  0.0010  0.0808  0.0007  0.0808  0.0000 </r>
       </set>
       <set comment="band 16">
        <r>  0.0000  0.0870  0.0000  0.0870  0.0000  0.1111  0.0000  0.1111  0.0016 </r>
        <r>  0.0000  0.0870  0.0000  0.0870  0.0000  0.1111  0.0000  0.1111  0.0016 </r>
       </set>
       <set comment="band 17">
        <r>  0.3009  0.0018  0.0757  0.0018  0.0179  0.0003  0.0018  0.0003  0.0000 </r>
        <r>  0.3009  0.0018  0.0757  0.0018  0.0179  0.0003  0.0018  0.0003  0.0000 </r>
       </set>
       <set comment="band 18">
        <r>  0.1871  0.0311  0.0663  0.0311  0.0245  0.0269  0.0009  0.0269  0.0000 </r>
        <r>  0.1871  0.0311  0.0663  0.0311  0.0245  0.0269  0.0009  0.0269  0.0000 </r>
       </set>
       <set comment="band 19">
        <r>  0.0001  0.0005  0.0043  0.0005  0.0088  0.0380  0.0243  0.0380  0.0000 </r>
        <r>  0.0001  0.0005  0.0043  0.0005  0.0088  0.0380  0.0243  0.0380  0.0000 </r>
       </set>
       <set comment="band 20">
        <r>  0.0000  0.0003  0.0000  0.0003  0.0000  0.0403  0.0000  0.0403  0.0012 </r>
        <r>  0.0000  0.0003  0.0000  0.0003  0.0000  0.0403  0.0000  0.0403  0.0012 </r>
       </set>
      </set>
      <set comment="kpoint 120">
       <set comment="band 1">
        <r>  0.0033  0.0189  0.0189  0.0189  0.1313  0.1312  0.0000  0.1312  0.0000 </r>
        <r>  0.0033  0.0189  0.0189  0.0189  0.1313  0.1312  0.0000  0.1312  0.0000 </r>
       </set>
       <set comment="band 2">
        <r>  0.0000  0.0100  0.0442  0.0121  0.2550  0.0700  0.0025  0.0576  0.0000 </r>
        <r>  0.0000  0.0100  0.0442  0.0121  0.2550  0.0700  0.0025  0.0576  0.0000 </r>
       </set>
       <set comment="band 3">
        <r>  0.0000  0.0342  0.0000  0.0320  0.0002  0.1850  0.0000  0.1974  0.0025 </r>
        <r>  0.0000  0.0342  0.0000  0.0320  0.0002  0.1850  0.0000  0.1974  0.0025 </r>
       </set>
       <set comment="band 4">
        <r>  0.0000  0.0130  0.0572  0.0157  0.2369  0.0650  0.0034  0.0539  0.0000 </r>
        <r>  0.0000  0.0130  0.0572  0.0157  0.2369  0.0650  0.0034  0.0539  0.0000 </r>
       </set>
       <set comment="band 5">
        <r>  0.0000  0.0443  0.0000  0.0416  0.0002  0.1722  0.0000  0.1834  0.0034 </r>
        <r>  0.0000  0.0443  0.0000  0.0416  0.0002  0.1722  0.0000  0.1834  0.0034 </r>
       </set>
       <set comment="band 6">
        <r>  0.0045  0.0320  0.0319  0.0319  0.1133  0.1135  0.0000  0.1135  0.0000 </r>
        <r>  0.0045  0.0320  0.0319  0.0319  0.1133  0.1135  0.0000  0.1135  0.0000 </r>
       </set>
       <set comment="band 7">
        <r>  0.0000  0.0000  0.0000  0.0000  0.0032  0.0006  0.4854  0.0011  0.0036 </r>
        <r>  0.0000  0.0000  0.0000  0.0000  0.0032  0.0006  0.4854  0.0011  0.0036 </r>
       </set>
       <set comment="band 8">
        <r>  0.0000  0.0000  0.0000  0.0000  0.0000  0.0027  0.0036  0.0022  0.4854 </r>
        <r>  0.0000  0.0000  0.0000  0.0000  0.0000  0.0027  0.0036  0.0022  0.4854 </r>
       </set>
       <set comment="band 9">
        <r>  0.0000  0.0000  0.0000  0.0000  0.0023  0.0004  0.4868  0.0008  0.0036 </r>
        <r>  0.0000  0.0000  0.0000  0.0000  0.0023  0.0004  0.4868  0.0008  0.0036 </r>
       </set>
       <set comment="band 10">
        <r>  0.0000  0.0000  0.0000  0.0000  0.0000  0.0019  0.0036  0.0016  0.4868 </r>
        <r>  0.0000  0.0000  0.0000  0.0000  0.0000  0.0019  0.0036  0.0016  0.4868 </r>
       </set>
       <set comment="band 11">
        <r>  0.0206  0.0544  0.0544  0.0544  0.0789  0.0789  0.0000  0.0789  0.0000 </r>
        <r>  0.0206  0.0544  0.0544  0.0544  0.0789  0.0789  0.0000  0.0789  0.0000 </r>
       </set>
       <set comment="band 12">
        <r>  0.0000  0.0257  0.1214  0.0354  0.1526  0.0445  0.0024  0.0323  0.0000 </r>
        <r>  0.0000  0.0257  0.1214  0.0354  0.1526  0.0445  0.0024  0.0323  0.0000 </r>
       </set>
       <set comment="band 13">
        <r>  0.0000  0.0959  0.0003  0.0862  0.0003  0.1084  0.0000  0.1206  0.0024 </r>
        <r>  0.0000  0.0959  0.0003  0.0862  0.0003  0.1084  0.0000  0.1206  0.0024 </r>
       </set>
       <set comment="band 14">
        <r>  0.0000  0.0247  0.1197  0.0356  0.1499  0.0447  0.0019  0.0309  0.0000 </r>
        <r>  0.0000  0.0247  0.1197  0.0356  0.1499  0.0447  0.0019  0.0309  0.0000 </r>
       </set>
       <set comment="band 15">
        <r>  0.0000  0.0953  0.0003  0.0843  0.0004  0.1057  0.0000  0.1194  0.0019 </r>
        <r>  0.0000  0.0953  0.0003  0.0843  0.0004  0.1057  0.0000  0.1194  0.0019 </r>
       </set>
       <set comment="band 16">
        <r>  0.1138  0.0369  0.0369  0.0369  0.0619  0.0619  0.0000  0.0619  0.0000 </r>
        <r>  0.1138  0.0369  0.0369  0.0369  0.0619  0.0619  0.0000  0.0619  0.0000 </r>
       </set>
       <set comment="band 17">
        <r>  0.3801  0.0073  0.0073  0.0073  0.0009  0.0009  0.0000  0.0009  0.0000 </r>
        <r>  0.3801  0.0073  0.0073  0.0073  0.0009  0.0009  0.0000  0.0009  0.0000 </r>
       </set>
       <set comment="band 18">
        <r>  0.2880  0.0232  0.0232  0.0232  0.0145  0.0145  0.0000  0.0145  0.0000 </r>
        <r>  0.2880  0.0232  0.0232  0.0232  0.0145  0.0145  0.0000  0.0145  0.0000 </r>
       </set>
       <set comment="band 19">
        <r>  0.0000  0.0021  0.0043  0.0006  0.0286  0.0041  0.0162  0.0139  0.0014 </r>
        <r>  0.0000  0.0021  0.0043  0.0006  0.0286  0.0041  0.0162  0.0139  0.0014 </r>
       </set>
       <set comment="band 20">
        <r>  0.0000  0.0013  0.0002  0.0020  0.0012  0.0137  0.0007  0.0087  0.0081 </r>
        <r>  0.0000  0.0013  0.0002  0.0020  0.0012  0.0137  0.0007  0.0087  0.0081 </r>
       </set>
      </set>
     </set>
    </set>
   </array>
  </projected>
 </calculation>
 <structure name="finalpos" >
  <crystal>
   <varray name="basis" >
    <v>       2.82825431      -0.00000000       0.00000000 </v>
    <v>       0.00000000       2.82825431       0.00000000 </v>
    <v>      -0.00000000      -0.00000000       2.82825431 </v>
   </varray>
   <i name="volume">     22.62326972 </i>
   <varray name="rec_basis" >
    <v>       0.35357499      -0.00000000       0.00000000 </v>
    <v>       0.00000000       0.35357499       0.00000000 </v>
    <v>      -0.00000000      -0.00000000       0.35357499 </v>
   </varray>
  </crystal>
  <varray name="positions" >
   <v>       0.00000000       0.00000000       0.00000000 </v>
   <v>       0.50000000       0.50000000       0.50000000 </v>
  </varray>
 </structure>
</modeling>
