   1   1   0   0
  0.1494349E+02  0.2764748E-09  0.2764748E-09  0.2764749E-09  0.5000000E-15
  1.000000000000000E-004
  CAR 
 unknown system                          
     37.25312702     -6.39247787  301      9.73232009      1.00000000
     -6.392  0.0000E+00  0.0000E+00
     -6.247  0.0000E+00  0.0000E+00
     -6.102  0.0000E+00  0.0000E+00
     -5.956  0.0000E+00  0.0000E+00
     -5.811  0.0000E+00  0.0000E+00
     -5.665  0.0000E+00  0.0000E+00
     -5.520  0.0000E+00  0.0000E+00
     -5.374  0.0000E+00  0.0000E+00
     -5.229  0.0000E+00  0.0000E+00
     -5.083  0.0000E+00  0.0000E+00
     -4.938  0.0000E+00  0.0000E+00
     -4.792  0.0000E+00  0.0000E+00
     -4.647  0.3372E-15  0.4906E-16
     -4.501  0.1798E-06  0.2616E-07
     -4.356  0.4398E-04  0.6424E-05
     -4.210  0.5107E-03  0.8072E-04
     -4.065  0.3360E-03  0.1296E-03
     -3.919  0.1060E-02  0.2838E-03
     -3.774  0.4844E-03  0.3543E-03
     -3.628  0.5274E-03  0.4310E-03
     -3.483  0.1639E-02  0.6694E-03
     -3.337  0.9782E-03  0.8118E-03
     -3.192  0.1289E-02  0.9992E-03
     -3.046  0.3459E-03  0.1050E-02
     -2.901  0.2329E-02  0.1388E-02
     -2.755  0.1210E-02  0.1564E-02
     -2.610  0.1248E-02  0.1746E-02
     -2.464  0.1485E-02  0.1962E-02
     -2.319  0.4570E-03  0.2028E-02
     -2.173  0.2721E-02  0.2424E-02
     -2.028  0.1665E-02  0.2667E-02
     -1.882  0.3078E-02  0.3114E-02
     -1.737  0.3075E-03  0.3159E-02
     -1.591  0.1085E-02  0.3317E-02
     -1.446  0.2095E-02  0.3622E-02
     -1.300  0.1795E-02  0.3883E-02
     -1.155  0.2822E-02  0.4294E-02
     -1.010  0.9737E-03  0.4435E-02
     -0.864  0.4459E-02  0.5084E-02
     -0.719  0.1080E-02  0.5241E-02
     -0.573  0.1908E-02  0.5519E-02
     -0.428  0.6039E-03  0.5606E-02
     -0.282  0.2100E-02  0.5912E-02
     -0.137  0.2893E-02  0.6333E-02
      0.009  0.3099E-02  0.6784E-02
      0.154  0.3921E-02  0.7354E-02
      0.300  0.9970E-04  0.7369E-02
      0.445  0.3998E-02  0.7950E-02
      0.591  0.1808E-02  0.8213E-02
      0.736  0.2500E-02  0.8577E-02
      0.882  0.5469E-03  0.8656E-02
      1.027  0.2229E-02  0.8981E-02
      1.173  0.5109E-02  0.9724E-02
      1.318  0.2146E-02  0.1004E-01
      1.464  0.4501E-02  0.1069E-01
      1.609  0.1292E-02  0.1088E-01
      1.755  0.2827E-02  0.1129E-01
      1.900  0.2291E-02  0.1162E-01
      2.046  0.4566E-02  0.1229E-01
      2.191  0.7029E-03  0.1239E-01
      2.337  0.2360E-02  0.1273E-01
      2.482  0.3387E-02  0.1323E-01
      2.628  0.3955E-02  0.1380E-01
      2.773  0.3744E-02  0.1435E-01
      2.919  0.2618E-02  0.1473E-01
      3.064  0.4921E-02  0.1544E-01
      3.210  0.2092E-02  0.1575E-01
      3.355  0.1959E-02  0.1603E-01
      3.501  0.4095E-03  0.1609E-01
      3.646  0.4008E-02  0.1668E-01
      3.791  0.1468E-02  0.1689E-01
      3.937  0.6730E-02  0.1787E-01
      4.082  0.4256E-02  0.1849E-01
      4.228  0.2336E-02  0.1883E-01
      4.373  0.1925E-02  0.1911E-01
      4.519  0.4212E-02  0.1972E-01
      4.664  0.4699E-02  0.2040E-01
      4.810  0.1759E-02  0.2066E-01
      4.955  0.3535E-02  0.2117E-01
      5.101  0.4871E-02  0.2188E-01
      5.246  0.3626E-02  0.2241E-01
      5.392  0.1562E-02  0.2264E-01
      5.537  0.1342E-02  0.2283E-01
      5.683  0.5196E-02  0.2359E-01
      5.828  0.3602E-02  0.2411E-01
      5.974  0.6146E-02  0.2501E-01
      6.119  0.3067E-02  0.2545E-01
      6.265  0.2520E-02  0.2582E-01
      6.410  0.4230E-02  0.2643E-01
      6.556  0.4905E-02  0.2715E-01
      6.701  0.3087E-02  0.2760E-01
      6.847  0.4144E-02  0.2820E-01
      6.992  0.5583E-02  0.2901E-01
      7.138  0.1493E-02  0.2923E-01
      7.283  0.1690E-02  0.2948E-01
      7.429  0.2191E-02  0.2979E-01
      7.574  0.4087E-02  0.3039E-01
      7.720  0.4232E-02  0.3100E-01
      7.865  0.1145E-01  0.3267E-01
      8.011  0.2829E-02  0.3308E-01
      8.156  0.1614E-02  0.3332E-01
      8.302  0.3494E-02  0.3383E-01
      8.447  0.5108E-02  0.3457E-01
      8.593  0.2607E-02  0.3495E-01
      8.738  0.2488E-02  0.3531E-01
      8.883  0.6401E-02  0.3624E-01
      9.029  0.4121E-02  0.3684E-01
      9.174  0.4751E-02  0.3753E-01
      9.320  0.1430E-02  0.3774E-01
      9.465  0.5833E-02  0.3859E-01
      9.611  0.3643E-02  0.3912E-01
      9.756  0.7243E-02  0.4017E-01
      9.902  0.4066E-02  0.4076E-01
     10.047  0.2935E-02  0.4119E-01
     10.193  0.2288E-02  0.4152E-01
     10.338  0.8300E-02  0.4273E-01
     10.484  0.5276E-02  0.4350E-01
     10.629  0.3839E-02  0.4406E-01
     10.775  0.4300E-02  0.4468E-01
     10.920  0.6463E-02  0.4562E-01
     11.066  0.2312E-02  0.4596E-01
     11.211  0.6332E-03  0.4605E-01
     11.357  0.6618E-02  0.4701E-01
     11.502  0.2676E-02  0.4740E-01
     11.648  0.9853E-02  0.4884E-01
     11.793  0.5658E-02  0.4966E-01
     11.939  0.5698E-02  0.5049E-01
     12.084  0.3504E-02  0.5100E-01
     12.230  0.4490E-02  0.5165E-01
     12.375  0.3773E-02  0.5220E-01
     12.521  0.6061E-02  0.5308E-01
     12.666  0.7550E-02  0.5418E-01
     12.812  0.4739E-02  0.5487E-01
     12.957  0.4898E-02  0.5558E-01
     13.103  0.5690E-02  0.5641E-01
     13.248  0.4086E-02  0.5701E-01
     13.394  0.6135E-02  0.5790E-01
     13.539  0.8190E-02  0.5909E-01
     13.685  0.3378E-02  0.5958E-01
     13.830  0.5597E-02  0.6039E-01
     13.975  0.5936E-02  0.6126E-01
     14.121  0.7270E-02  0.6232E-01
     14.266  0.3583E-02  0.6284E-01
     14.412  0.4206E-02  0.6345E-01
     14.557  0.5118E-02  0.6419E-01
     14.703  0.1758E-02  0.6445E-01
     14.848  0.4867E-02  0.6516E-01
     14.994  0.5919E-02  0.6602E-01
     15.139  0.6680E-02  0.6699E-01
     15.285  0.8114E-02  0.6817E-01
     15.430  0.1879E-02  0.6844E-01
     15.576  0.5243E-02  0.6921E-01
     15.721  0.2646E-02  0.6959E-01
     15.867  0.6067E-02  0.7048E-01
     16.012  0.3542E-02  0.7099E-01
     16.158  0.3323E-02  0.7147E-01
     16.303  0.7071E-02  0.7250E-01
     16.449  0.4564E-02  0.7317E-01
     16.594  0.5390E-02  0.7395E-01
     16.740  0.4407E-02  0.7459E-01
     16.885  0.4701E-02  0.7528E-01
     17.031  0.5942E-02  0.7614E-01
     17.176  0.5833E-02  0.7699E-01
     17.322  0.1659E-02  0.7723E-01
     17.467  0.5713E-02  0.7806E-01
     17.613  0.1101E-01  0.7966E-01
     17.758  0.5411E-02  0.8045E-01
     17.904  0.3264E-02  0.8093E-01
     18.049  0.6479E-02  0.8187E-01
     18.195  0.4819E-02  0.8257E-01
     18.340  0.3267E-02  0.8304E-01
     18.486  0.6213E-02  0.8395E-01
     18.631  0.8318E-02  0.8516E-01
     18.776  0.5056E-02  0.8589E-01
     18.922  0.1091E-02  0.8605E-01
     19.067  0.5345E-02  0.8683E-01
     19.213  0.2496E-02  0.8719E-01
     19.358  0.8020E-02  0.8836E-01
     19.504  0.6920E-02  0.8937E-01
     19.649  0.9652E-02  0.9077E-01
     19.795  0.4043E-02  0.9136E-01
     19.940  0.6195E-02  0.9226E-01
     20.086  0.6163E-02  0.9316E-01
     20.231  0.2722E-02  0.9355E-01
     20.377  0.8170E-02  0.9474E-01
     20.522  0.7674E-02  0.9586E-01
     20.668  0.5815E-02  0.9670E-01
     20.813  0.6686E-02  0.9768E-01
     20.959  0.2609E-02  0.9806E-01
     21.104  0.8635E-02  0.9931E-01
     21.250  0.7242E-02  0.1004E+00
     21.395  0.3429E-02  0.1009E+00
     21.541  0.2500E-02  0.1012E+00
     21.686  0.5441E-02  0.1020E+00
     21.832  0.7217E-02  0.1031E+00
     21.977  0.5626E-02  0.1039E+00
     22.123  0.4966E-02  0.1046E+00
     22.268  0.5083E-02  0.1054E+00
     22.414  0.6301E-02  0.1063E+00
     22.559  0.9951E-02  0.1077E+00
     22.705  0.1176E-01  0.1094E+00
     22.850  0.5267E-02  0.1102E+00
     22.996  0.9908E-02  0.1116E+00
     23.141  0.1887E-02  0.1119E+00
     23.287  0.7616E-02  0.1130E+00
     23.432  0.4744E-02  0.1137E+00
     23.578  0.4583E-02  0.1144E+00
     23.723  0.8001E-02  0.1155E+00
     23.868  0.6087E-02  0.1164E+00
     24.014  0.4700E-02  0.1171E+00
     24.159  0.4157E-02  0.1177E+00
     24.305  0.3404E-02  0.1182E+00
     24.450  0.1363E-01  0.1202E+00
     24.596  0.1224E-01  0.1220E+00
     24.741  0.4514E-02  0.1226E+00
     24.887  0.5049E-02  0.1234E+00
     25.032  0.8533E-02  0.1246E+00
     25.178  0.5384E-02  0.1254E+00
     25.323  0.6516E-02  0.1263E+00
     25.469  0.5593E-02  0.1271E+00
     25.614  0.6100E-02  0.1280E+00
     25.760  0.9505E-02  0.1294E+00
     25.905  0.5115E-02  0.1302E+00
     26.051  0.2005E-02  0.1305E+00
     26.196  0.4702E-02  0.1311E+00
     26.342  0.6575E-02  0.1321E+00
     26.487  0.7840E-02  0.1332E+00
     26.633  0.9456E-02  0.1346E+00
     26.778  0.8123E-02  0.1358E+00
     26.924  0.6060E-02  0.1367E+00
     27.069  0.8395E-03  0.1368E+00
     27.215  0.7440E-02  0.1379E+00
     27.360  0.9933E-02  0.1393E+00
     27.506  0.4806E-02  0.1400E+00
     27.651  0.4078E-02  0.1406E+00
     27.797  0.5285E-03  0.1407E+00
     27.942  0.4403E-02  0.1413E+00
     28.088  0.8699E-02  0.1426E+00
     28.233  0.3592E-02  0.1431E+00
     28.379  0.5195E-02  0.1439E+00
     28.524  0.2349E-02  0.1442E+00
     28.669  0.6790E-02  0.1452E+00
     28.815  0.1039E-01  0.1467E+00
     28.960  0.5974E-02  0.1476E+00
     29.106  0.7171E-02  0.1486E+00
     29.251  0.3522E-02  0.1491E+00
     29.397  0.4982E-02  0.1499E+00
     29.542  0.1789E-02  0.1501E+00
     29.688  0.4834E-02  0.1508E+00
     29.833  0.5667E-02  0.1517E+00
     29.979  0.3763E-02  0.1522E+00
     30.124  0.2315E-02  0.1525E+00
     30.270  0.5404E-02  0.1533E+00
     30.415  0.4080E-02  0.1539E+00
     30.561  0.4581E-02  0.1546E+00
     30.706  0.5494E-03  0.1547E+00
     30.852  0.4635E-03  0.1547E+00
     30.997  0.4601E-02  0.1554E+00
     31.143  0.2227E-02  0.1557E+00
     31.288  0.9604E-03  0.1559E+00
     31.434  0.1569E-02  0.1561E+00
     31.579  0.1369E-02  0.1563E+00
     31.725  0.2774E-02  0.1567E+00
     31.870  0.3105E-02  0.1572E+00
     32.016  0.2132E-02  0.1575E+00
     32.161  0.9559E-03  0.1576E+00
     32.307  0.1009E-02  0.1577E+00
     32.452  0.2674E-02  0.1581E+00
     32.598  0.1577E-02  0.1584E+00
     32.743  0.1525E-02  0.1586E+00
     32.889  0.1699E-02  0.1588E+00
     33.034  0.4398E-03  0.1589E+00
     33.180  0.5010E-04  0.1589E+00
     33.325  0.1876E-02  0.1592E+00
     33.471  0.4478E-03  0.1592E+00
     33.616  0.7081E-04  0.1593E+00
     33.761  0.9344E-03  0.1594E+00
     33.907  0.2873E-03  0.1594E+00
     34.052  0.1338E-02  0.1596E+00
     34.198  0.8614E-03  0.1598E+00
     34.343  0.6432E-03  0.1598E+00
     34.489  0.3343E-03  0.1599E+00
     34.634  0.2994E-08  0.1599E+00
     34.780  0.1428E-12  0.1599E+00
     34.925  0.9178E-05  0.1599E+00
     35.071  0.4694E-03  0.1600E+00
     35.216  0.2666E-04  0.1600E+00
     35.362  0.2269E-03  0.1600E+00
     35.507  0.1079E-05  0.1600E+00
     35.653  0.2023E-14  0.1600E+00
     35.798  0.0000E+00  0.1600E+00
     35.944  0.0000E+00  0.1600E+00
     36.089  0.0000E+00  0.1600E+00
     36.235  0.0000E+00  0.1600E+00
     36.380  0.0000E+00  0.1600E+00
     36.526  0.0000E+00  0.1600E+00
     36.671  0.0000E+00  0.1600E+00
     36.817  0.0000E+00  0.1600E+00
     36.962  0.0000E+00  0.1600E+00
     37.108  0.0000E+00  0.1600E+00
     37.253  0.0000E+00  0.1600E+00
