    1    1  100    1
  0.1494349E+02  0.2764748E-09  0.2764748E-09  0.2764749E-09  0.5000000E-15
  1.000000000000000E-004
  CAR 
 unknown system                          
      4    120      8
 
  0.0000000E+00  0.0000000E+00  0.0000000E+00  0.2962963E-03
    1       -4.408587   1.000000
    2       20.503440   0.000000
    3       20.503447   0.000000
    4       20.503455   0.000000
    5       21.554498   0.000000
    6       21.554506   0.000000
    7       21.554515   0.000000
    8       26.818418   0.000000
 
  0.6666667E-01 -0.3469447E-17  0.0000000E+00  0.2370370E-02
    1       -4.281967   1.000000
    2       18.529342   0.000000
    3       19.930054   0.000000
    4       19.930066   0.000000
    5       22.280093   0.000000
    6       22.280106   0.000000
    7       22.457368   0.000000
    8       27.615871   0.000000
 
  0.1333333E+00  0.6938894E-17  0.0000000E+00  0.2370370E-02
    1       -3.902598   1.000000
    2       15.785087   0.000000
    3       19.203965   0.000000
    4       19.203976   0.000000
    5       22.725869   0.000000
    6       23.320387   0.000000
    7       23.320401   0.000000
    8       26.620650   0.000000
 
  0.2000000E+00  0.0000000E+00  0.0000000E+00  0.2370370E-02
    1       -3.272033   1.000000
    2       13.024444   0.000000
    3       18.640192   0.000000
    4       18.640202   0.000000
    5       22.651397   0.000000
    6       23.556452   0.000000
    7       23.556463   0.000000
    8       26.583114   0.000000
 
  0.2666667E+00  0.1387779E-16  0.0000000E+00  0.2370370E-02
    1       -2.392958   1.000000
    2       10.383510   0.000000
    3       18.262560   0.000000
    4       18.262568   0.000000
    5       22.547439   0.000000
    6       22.720353   0.000000
    7       22.720361   0.000000
    8       27.953008   0.000000
 
  0.3333333E+00  0.1387779E-16  0.0000000E+00  0.2370370E-02
    1       -1.269661   1.000000
    2        7.915986   1.000000
    3       18.061372   0.000000
    4       18.061378   0.000000
    5       21.759094   0.000000
    6       21.759104   0.000000
    7       22.520758   0.000000
    8       26.826759   0.000000
 
  0.4000000E+00  0.2775558E-16  0.0000000E+00  0.2370370E-02
    1        0.089717   1.000000
    2        5.652065   1.000000
    3       18.002039   0.000000
    4       18.002044   0.000000
    5       20.994223   0.000000
    6       20.994234   0.000000
    7       22.584481   0.000000
    8       25.945339   0.000000
 
  0.4666667E+00  0.2775558E-16  0.0000000E+00  0.2370370E-02
    1        1.645701   1.000000
    2        3.641668   1.000000
    3       18.014087   0.000000
    4       18.014091   0.000000
    5       20.561005   0.000000
    6       20.561017   0.000000
    7       22.672268   0.000000
    8       25.436271   0.000000
 
  0.6666667E-01  0.6666667E-01  0.0000000E+00  0.1777778E-02
    1       -4.239768   1.000000
    2       18.980641   0.000000
    3       18.980642   0.000000
    4       20.101066   0.000000
    5       20.663840   0.000000
    6       23.286891   0.000000
    7       23.286892   0.000000
    8       26.525986   0.000000
 
  0.1333333E+00  0.6666667E-01  0.0000000E+00  0.7111111E-02
    1       -3.944678   1.000000
    2       16.765213   0.000000
    3       18.165970   0.000000
    4       19.646923   0.000000
    5       21.070970   0.000000
    6       23.986366   0.000000
    7       24.396921   0.000000
    8       25.100538   0.000000
 
  0.2000000E+00  0.6666667E-01  0.0000000E+00  0.7111111E-02
    1       -3.397884   1.000000
    2       14.023258   0.000000
    3       17.544759   0.000000
    4       19.029860   0.000000
    5       21.744058   0.000000
    6       23.813308   0.000000
    7       24.609336   0.000000
    8       25.000163   0.000000
 
  0.2666667E+00  0.6666667E-01  0.0000000E+00  0.7111111E-02
    1       -2.601666   1.000000
    2       11.344495   0.000000
    3       17.130218   0.000000
    4       18.514401   0.000000
    5       21.266170   0.000000
    6       23.600681   0.000000
    7       24.395562   0.000000
    8       25.608051   0.000000
 
  0.3333333E+00  0.6666667E-01  0.0000000E+00  0.7111111E-02
    1       -1.559672   1.000000
    2        8.819852   1.000000
    3       16.924412   0.000000
    4       18.069592   0.000000
    5       20.454513   0.000000
    6       23.400513   0.000000
    7       23.556473   0.000000
    8       27.168268   0.000000
 
  0.4000000E+00  0.6666667E-01  0.0000000E+00  0.7111111E-02
    1       -0.278153   1.000000
    2        6.487639   1.000000
    3       16.923506   0.000000
    4       17.605333   0.000000
    5       19.954770   0.000000
    6       22.475500   0.000000
    7       23.556467   0.000000
    8       27.134493   0.000000
 
  0.4666667E+00  0.6666667E-01  0.0000000E+00  0.7111111E-02
    1        1.224137   1.000000
    2        4.381076   1.000000
    3       17.099670   0.000000
    4       17.117009   0.000000
    5       19.897126   0.000000
    6       21.738177   0.000000
    7       23.563064   0.000000
    8       26.624463   0.000000
 
 -0.4666667E+00  0.6666667E-01  0.0000000E+00  0.7111111E-02
    1        2.234325   1.000000
    2        3.219408   1.000000
    3       16.644134   0.000000
    4       17.482848   0.000000
    5       20.217196   0.000000
    6       21.242863   0.000000
    7       23.501611   0.000000
    8       26.538178   0.000000
 
 -0.4000000E+00  0.6666667E-01  0.0000000E+00  0.7111111E-02
    1        0.701947   1.000000
    2        5.054506   1.000000
    3       16.325665   0.000000
    4       17.977174   0.000000
    5       20.832591   0.000000
    6       21.041733   0.000000
    7       23.372161   0.000000
    8       26.907850   0.000000
 
 -0.3333333E+00  0.6666667E-01  0.0000000E+00  0.7111111E-02
    1       -0.731359   1.000000
    2        7.241777   1.000000
    3       16.188844   0.000000
    4       18.526483   0.000000
    5       21.200704   0.000000
    6       21.688769   0.000000
    7       23.259933   0.000000
    8       27.603022   0.000000
 
 -0.2666667E+00  0.6666667E-01  0.0000000E+00  0.7111111E-02
    1       -1.934040   1.000000
    2        9.641051   0.995081
    3       16.253580   0.000000
    4       19.062922   0.000000
    5       21.750205   0.000000
    6       22.730979   0.000000
    7       23.222761   0.000000
    8       27.220471   0.000000
 
 -0.2000000E+00  0.6666667E-01  0.0000000E+00  0.7111111E-02
    1       -2.894624   1.000000
    2       12.222008   0.000000
    3       16.527947   0.000000
    4       19.596423   0.000000
    5       22.511406   0.000000
    6       23.239188   0.000000
    7       23.835032   0.000000
    8       25.600828   0.000000
 
 -0.1333333E+00  0.6666667E-01  0.0000000E+00  0.7111111E-02
    1       -3.608027   1.000000
    2       14.936592   0.000000
    3       17.013348   0.000000
    4       20.168990   0.000000
    5       22.589717   0.000000
    6       23.194418   0.000000
    7       24.406262   0.000000
    8       25.208716   0.000000
 
 -0.6666667E-01  0.6666667E-01  0.0000000E+00  0.3555556E-02
    1       -4.071115   1.000000
    2       17.592141   0.000000
    3       17.775217   0.000000
    4       20.572516   0.000000
    5       21.880800   0.000000
    6       22.840870   0.000000
    7       23.739401   0.000000
    8       26.294239   0.000000
 
  0.1333333E+00  0.1333333E+00  0.0000000E+00  0.1777778E-02
    1       -3.734085   1.000000
    2       17.278833   0.000000
    3       17.278834   0.000000
    4       19.031689   0.000000
    5       19.057558   0.000000
    6       23.341976   0.000000
    7       25.588398   0.000000
    8       25.588398   0.000000
 
  0.2000000E+00  0.1333333E+00  0.0000000E+00  0.7111111E-02
    1       -3.271677   1.000000
    2       15.158630   0.000000
    3       16.588772   0.000000
    4       18.311384   0.000000
    5       19.481675   0.000000
    6       22.056202   0.000000
    7       26.291759   0.000000
    8       26.524188   0.000000
 
  0.2666667E+00  0.1333333E+00  0.0000000E+00  0.7111111E-02
    1       -2.559345   1.000000
    2       12.505364   0.000000
    3       16.109222   0.000000
    4       17.581260   0.000000
    5       19.472531   0.000000
    6       22.323875   0.000000
    7       26.295886   0.000000
    8       26.468856   0.000000
 
  0.3333333E+00  0.1333333E+00  0.0000000E+00  0.7111111E-02
    1       -1.600202   1.000000
    2        9.944112   0.000000
    3       15.844364   0.000000
    4       16.779872   0.000000
    5       18.907817   0.000000
    6       23.725187   0.000000
    7       25.377345   0.000000
    8       26.635349   0.000000
 
  0.4000000E+00  0.1333333E+00  0.0000000E+00  0.7111111E-02
    1       -0.399304   1.000000
    2        7.554563   1.000000
    3       15.794491   0.000000
    4       15.917460   0.000000
    5       18.645854   0.000000
    6       24.422077   0.000000
    7       24.911037   0.000000
    8       27.344174   0.000000
 
  0.4666667E+00  0.1333333E+00  0.0000000E+00  0.7111111E-02
    1        1.032074   1.000000
    2        5.372858   1.000000
    3       15.116267   0.000000
    4       15.957240   0.000000
    5       18.727401   0.000000
    6       23.602802   0.000000
    7       25.260979   0.000000
    8       28.861721   0.000000
 
 -0.4666667E+00  0.1333333E+00  0.0000000E+00  0.7111111E-02
    1        2.565965   1.000000
    2        3.537344   1.000000
    3       14.466342   0.000000
    4       16.327146   0.000000
    5       19.097335   0.000000
    6       22.977368   0.000000
    7       25.178949   0.000000
    8       29.043739   0.000000
 
 -0.4000000E+00  0.1333333E+00  0.0000000E+00  0.7111111E-02
    1        1.553490   1.000000
    2        4.700208   1.000000
    3       14.009540   0.000000
    4       16.893643   0.000000
    5       19.721865   0.000000
    6       22.574450   0.000000
    7       24.966823   0.000000
    8       29.324288   0.000000
 
 -0.3333333E+00  0.1333333E+00  0.0000000E+00  0.7111111E-02
    1        0.052865   1.000000
    2        6.801175   1.000000
    3       13.764843   0.000000
    4       17.636495   0.000000
    5       20.577659   0.000000
    6       22.415559   0.000000
    7       24.754590   0.000000
    8       28.815936   0.000000
 
 -0.2666667E+00  0.1333333E+00  0.0000000E+00  0.7111111E-02
    1       -1.226780   1.000000
    2        9.122250   1.000000
    3       13.742072   0.000000
    4       18.515864   0.000000
    5       21.637155   0.000000
    6       22.521497   0.000000
    7       24.579063   0.000000
    8       26.708820   0.000000
 
 -0.2000000E+00  0.1333333E+00  0.0000000E+00  0.7111111E-02
    1       -2.267162   1.000000
    2       11.620455   0.000000
    3       13.951711   0.000000
    4       19.449748   0.000000
    5       22.844459   0.000000
    6       22.878975   0.000000
    7       24.373143   0.000000
    8       24.885570   0.000000
 
 -0.1333333E+00  0.1333333E+00  0.0000000E+00  0.3555556E-02
    1       -3.062112   1.000000
    2       14.057113   0.000000
    3       14.585139   0.000000
    4       20.229136   0.000000
    5       22.855398   0.000000
    6       23.938401   0.000000
    7       24.014487   0.000000
    8       24.210462   0.000000
 
  0.2000000E+00  0.2000000E+00  0.0000000E+00  0.1777778E-02
    1       -2.893932   1.000000
    2       15.827717   0.000000
    3       15.827718   0.000000
    4       17.321743   0.000000
    5       17.518266   0.000000
    6       20.398010   0.000000
    7       27.943826   0.000000
    8       27.943827   0.000000
 
  0.2666667E+00  0.2000000E+00  0.0000000E+00  0.7111111E-02
    1       -2.266175   1.000000
    2       13.800150   0.000000
    3       15.277494   0.000000
    4       16.274311   0.000000
    5       17.741506   0.000000
    6       19.908348   0.000000
    7       28.292983   0.000000
    8       28.666288   0.000000
 
  0.3333333E+00  0.2000000E+00  0.0000000E+00  0.7111111E-02
    1       -1.391096   1.000000
    2       11.265696   0.000000
    3       14.943540   0.000000
    4       15.111947   0.000000
    5       17.643002   0.000000
    6       21.105774   0.000000
    7       27.532104   0.000000
    8       28.821312   0.000000
 
  0.4000000E+00  0.2000000E+00  0.0000000E+00  0.7111111E-02
    1       -0.272901   1.000000
    2        8.840518   1.000000
    3       13.993546   0.000000
    4       14.827435   0.000000
    5       17.507886   0.000000
    6       22.952406   0.000000
    7       26.598109   0.000000
    8       28.743955   0.000000
 
  0.4666667E+00  0.2000000E+00  0.0000000E+00  0.7111111E-02
    1        1.080504   1.000000
    2        6.599138   1.000000
    3       13.022660   0.000000
    4       14.928740   0.000000
    5       17.601688   0.000000
    6       24.904398   0.000000
    7       25.744607   0.000000
    8       28.636430   0.000000
 
 -0.4666667E+00  0.2000000E+00  0.0000000E+00  0.7111111E-02
    1        2.632873   1.000000
    2        4.598597   1.000000
    3       12.246193   0.000000
    4       15.245269   0.000000
    5       17.942988   0.000000
    6       25.054019   0.000000
    7       26.371000   0.000000
    8       28.970529   0.000000
 
 -0.4000000E+00  0.2000000E+00  0.0000000E+00  0.7111111E-02
    1        2.632142   1.000000
    2        4.597786   1.000000
    3       11.685658   0.000000
    4       15.772443   0.000000
    5       18.525790   0.000000
    6       24.561732   0.000000
    7       26.674953   0.000000
    8       30.132870   0.000000
 
 -0.3333333E+00  0.2000000E+00  0.0000000E+00  0.7111111E-02
    1        1.079255   1.000000
    2        6.593612   1.000000
    3       11.353636   0.000000
    4       16.501245   0.000000
    5       19.339218   0.000000
    6       24.286473   0.000000
    7       26.451875   0.000000
    8       28.641991   0.000000
 
 -0.2666667E+00  0.2000000E+00  0.0000000E+00  0.7111111E-02
    1       -0.274233   1.000000
    2        8.815359   1.000000
    3       11.267992   0.000000
    4       17.412525   0.000000
    5       20.365330   0.000000
    6       24.240822   0.000000
    7       26.057927   0.000000
    8       26.432881   0.000000
 
 -0.2000000E+00  0.2000000E+00  0.0000000E+00  0.3555556E-02
    1       -1.392311   1.000000
    2       10.957844   0.000000
    3       11.683310   0.000000
    4       18.457017   0.000000
    5       21.567365   0.000000
    6       24.418130   0.000000
    7       24.463255   0.000000
    8       25.399523   0.000000
 
  0.2666667E+00  0.2666667E+00  0.0000000E+00  0.1777778E-02
    1       -1.723378   1.000000
    2       14.655328   0.000000
    3       14.655329   0.000000
    4       14.733415   0.000000
    5       16.230027   0.000000
    6       18.505787   0.000000
    7       30.206903   0.000000
    8       30.207599   0.000000
 
  0.3333333E+00  0.2666667E+00  0.0000000E+00  0.7111111E-02
    1       -0.933197   1.000000
    2       12.660168   0.000000
    3       13.467968   0.000000
    4       14.249594   0.000000
    5       16.498619   0.000000
    6       18.653632   0.000000
    7       29.769644   0.000000
    8       30.870335   0.000000
 
  0.4000000E+00  0.2666667E+00  0.0000000E+00  0.7111111E-02
    1        0.100657   1.000000
    2       10.302606   0.000000
    3       12.154960   0.000000
    4       14.062720   0.000000
    5       16.566825   0.000000
    6       20.229232   0.000000
    7       28.914152   0.000000
    8       30.886613   0.000000
 
  0.4666667E+00  0.2666667E+00  0.0000000E+00  0.7111111E-02
    1        1.371995   1.000000
    2        8.036285   1.000000
    3       11.047911   0.000000
    4       14.095123   0.000000
    5       16.655888   0.000000
    6       22.313433   0.000000
    7       28.063644   0.000000
    8       30.534934   0.000000
 
 -0.4666667E+00  0.2666667E+00  0.0000000E+00  0.7111111E-02
    1        2.863590   1.000000
    2        5.961452   1.000000
    3       10.161933   0.000000
    4       14.345877   0.000000
    5       16.949975   0.000000
    6       24.571854   0.000000
    7       27.333902   0.000000
    8       30.007950   0.000000
 
 -0.4000000E+00  0.2666667E+00  0.0000000E+00  0.7111111E-02
    1        3.881616   1.000000
    2        4.792211   1.000000
    3        9.508743   1.000000
    4       14.812488   0.000000
    5       17.475088   0.000000
    6       26.765976   0.000000
    7       26.774339   0.000000
    8       29.438330   0.000000
 
 -0.3333333E+00  0.2666667E+00  0.0000000E+00  0.7111111E-02
    1        2.341380   1.000000
    2        6.603686   1.000000
    3        9.109130   1.000000
    4       15.489782   0.000000
    5       18.230294   0.000000
    6       26.399310   0.000000
    7       28.042356   0.000000
    8       28.718911   0.000000
 
 -0.2666667E+00  0.2666667E+00  0.0000000E+00  0.3555556E-02
    1        0.918668   1.000000
    2        8.437877   1.000000
    3        9.244545   1.000000
    4       16.366402   0.000000
    5       19.203384   0.000000
    6       26.014602   0.000000
    7       26.670010   0.000000
    8       27.355321   0.000000
 
  0.3333333E+00  0.3333333E+00  0.0000000E+00  0.1777778E-02
    1       -0.228502   1.000000
    2       11.751733   0.000000
    3       13.771412   0.000000
    4       13.771414   0.000000
    5       15.244824   0.000000
    6       17.404709   0.000000
    7       31.693295   0.000000
    8       32.272767   0.000000
 
  0.4000000E+00  0.3333333E+00  0.0000000E+00  0.7111111E-02
    1        0.719728   1.000000
    2       10.330129   0.000000
    3       12.046197   0.000000
    4       13.512276   0.000000
    5       15.665781   0.000000
    6       17.848526   0.000000
    7       31.232891   0.000000
    8       32.796337   0.000000
 
  0.4666667E+00  0.3333333E+00  0.0000000E+00  0.7111111E-02
    1        1.905844   1.000000
    2        9.034116   1.000000
    3        9.891400   0.000003
    4       13.473198   0.000000
    5       15.894932   0.000000
    6       19.644417   0.000000
    7       30.456227   0.000000
    8       32.585758   0.000000
 
 -0.4666667E+00  0.3333333E+00  0.0000000E+00  0.7111111E-02
    1        3.317689   1.000000
    2        7.442481   1.000000
    3        8.383294   1.000000
    4       13.653947   0.000000
    5       16.160466   0.000000
    6       21.912475   0.000000
    7       29.717254   0.000000
    8       31.933310   0.000000
 
 -0.4000000E+00  0.3333333E+00  0.0000000E+00  0.7111111E-02
    1        4.853452   1.000000
    2        5.672983   1.000000
    3        7.580864   1.000000
    4       14.053129   0.000000
    5       16.627100   0.000000
    6       24.364115   0.000000
    7       29.075673   0.000000
    8       30.993232   0.000000
 
 -0.3333333E+00  0.3333333E+00  0.0000000E+00  0.3555556E-02
    1        3.823219   1.000000
    2        6.536093   1.000000
    3        7.384130   1.000000
    4       14.667504   0.000000
    5       17.318543   0.000000
    6       26.816995   0.000000
    7       28.300524   0.000000
    8       29.395828   0.000000
 
  0.4000000E+00  0.4000000E+00  0.0000000E+00  0.1777778E-02
    1        1.580975   1.000000
    2        8.847940   1.000000
    3       13.180479   0.000000
    4       13.180480   0.000000
    5       14.581688   0.000000
    6       16.734043   0.000000
    7       32.896467   0.000000
    8       34.055569   0.000000
 
  0.4666667E+00  0.4000000E+00  0.0000000E+00  0.7111111E-02
    1        2.678020   1.000000
    2        7.553291   1.000000
    3       11.560355   0.000000
    4       13.068925   0.000000
    5       15.171467   0.000000
    6       17.377332   0.000000
    7       32.649778   0.000000
    8       34.329028   0.000000
 
 -0.4666667E+00  0.4000000E+00  0.0000000E+00  0.7111111E-02
    1        3.992222   1.000000
    2        6.489067   1.000000
    3        9.468495   1.000000
    4       13.177883   0.000000
    5       15.563295   0.000000
    6       19.350404   0.000000
    7       31.970034   0.000000
    8       33.729020   0.000000
 
 -0.4000000E+00  0.4000000E+00  0.0000000E+00  0.3555556E-02
    1        5.265061   1.000000
    2        5.866099   1.000000
    3        7.569208   1.000000
    4       13.506640   0.000000
    5       15.996243   0.000000
    6       21.776500   0.000000
    7       30.998501   0.000000
    8       32.423883   0.000000
 
  0.4666667E+00  0.4666667E+00  0.0000000E+00  0.1777778E-02
    1        3.673496   1.000000
    2        6.190080   1.000000
    3       12.884607   0.000000
    4       12.884609   0.000000
    5       14.248587   0.000000
    6       16.406540   0.000000
    7       33.757639   0.000000
    8       35.269236   0.000000
 
 -0.4666667E+00  0.4666667E+00  0.0000000E+00  0.3555556E-02
    1        4.628973   1.000000
    2        5.320403   1.000000
    3       11.402343   0.000000
    4       12.921001   0.000000
    5       15.006951   0.000000
    6       17.221030   0.000000
    7       33.432858   0.000000
    8       34.998889   0.000000
 
  0.2000000E+00  0.1333333E+00  0.6666667E-01  0.7111111E-02
    1       -3.565904   1.000000
    2       15.846167   0.000000
    3       16.173392   0.000000
    4       19.875899   0.000000
    5       20.737414   0.000000
    6       23.664123   0.000000
    7       24.878490   0.000000
    8       25.221403   0.000000
 
  0.2666667E+00  0.1333333E+00  0.6666667E-01  0.1422222E-01
    1       -2.936301   1.000000
    2       13.291702   0.000000
    3       15.481915   0.000000
    4       19.284222   0.000000
    5       21.156939   0.000000
    6       23.166345   0.000000
    7       25.101520   0.000000
    8       25.330806   0.000000
 
  0.3333333E+00  0.1333333E+00  0.6666667E-01  0.1422222E-01
    1       -2.058557   1.000000
    2       10.680185   0.000000
    3       15.132135   0.000000
    4       18.457530   0.000000
    5       20.747405   0.000000
    6       23.657724   0.000000
    7       24.597195   0.000000
    8       25.736369   0.000000
 
  0.4000000E+00  0.1333333E+00  0.6666667E-01  0.1422222E-01
    1       -0.936937   1.000000
    2        8.225735   1.000000
    3       15.000002   0.000000
    4       17.573539   0.000000
    5       20.405817   0.000000
    6       22.941746   0.000000
    7       24.794312   0.000000
    8       27.106753   0.000000
 
  0.4666667E+00  0.1333333E+00  0.6666667E-01  0.1422222E-01
    1        0.420542   1.000000
    2        5.969011   1.000000
    3       15.072250   0.000000
    4       16.757821   0.000000
    5       20.342568   0.000000
    6       22.104023   0.000000
    7       24.921011   0.000000
    8       28.545566   0.000000
 
 -0.4666667E+00  0.1333333E+00  0.6666667E-01  0.1422222E-01
    1        1.975569   1.000000
    2        3.961741   1.000000
    3       15.287950   0.000000
    4       16.153349   0.000000
    5       20.457508   0.000000
    6       21.528606   0.000000
    7       24.996533   0.000000
    8       28.321202   0.000000
 
  0.2666667E+00  0.2000000E+00  0.6666667E-01  0.7111111E-02
    1       -2.726545   1.000000
    2       14.334216   0.000000
    3       14.733334   0.000000
    4       17.974077   0.000000
    5       19.294549   0.000000
    6       21.122083   0.000000
    7       26.771172   0.000000
    8       27.404768   0.000000
 
  0.3333333E+00  0.2000000E+00  0.6666667E-01  0.1422222E-01
    1       -1.932747   1.000000
    2       11.910790   0.000000
    3       14.147741   0.000000
    4       16.889178   0.000000
    5       19.502519   0.000000
    6       21.735285   0.000000
    7       26.087962   0.000000
    8       27.858113   0.000000
 
  0.4000000E+00  0.2000000E+00  0.6666667E-01  0.1422222E-01
    1       -0.893921   1.000000
    2        9.427790   1.000000
    3       13.922879   0.000000
    4       15.761951   0.000000
    5       19.341860   0.000000
    6       23.313443   0.000000
    7       25.214112   0.000000
    8       27.990154   0.000000
 
  0.4666667E+00  0.2000000E+00  0.6666667E-01  0.1422222E-01
    1        0.383782   1.000000
    2        7.114978   1.000000
    3       13.859657   0.000000
    4       14.830136   0.000000
    5       19.348804   0.000000
    6       23.872414   0.000000
    7       25.539612   0.000000
    8       28.198126   0.000000
 
 -0.4666667E+00  0.2000000E+00  0.6666667E-01  0.1422222E-01
    1        1.882467   1.000000
    2        5.018576   1.000000
    3       13.608126   0.000000
    4       14.496449   0.000000
    5       19.579890   0.000000
    6       23.231329   0.000000
    7       26.619031   0.000000
    8       28.999378   0.000000
 
 -0.4000000E+00  0.2000000E+00  0.6666667E-01  0.1422222E-01
    1        2.896445   1.000000
    2        3.854257   1.000000
    3       13.095057   0.000000
    4       14.854326   0.000000
    5       20.026015   0.000000
    6       22.694361   0.000000
    7       26.808156   0.000000
    8       30.118171   0.000000
 
 -0.3333333E+00  0.2000000E+00  0.6666667E-01  0.1422222E-01
    1        1.360881   1.000000
    2        5.688608   1.000000
    3       12.715518   0.000000
    4       15.513330   0.000000
    5       20.652281   0.000000
    6       22.389699   0.000000
    7       26.569447   0.000000
    8       28.976495   0.000000
 
 -0.2666667E+00  0.2000000E+00  0.6666667E-01  0.1422222E-01
    1       -0.068553   1.000000
    2        7.860270   1.000000
    3       12.546886   0.000000
    4       16.389283   0.000000
    5       21.344869   0.000000
    6       22.418517   0.000000
    7       25.820619   0.000000
    8       27.483164   0.000000
 
 -0.2000000E+00  0.2000000E+00  0.6666667E-01  0.1422222E-01
    1       -1.267588   1.000000
    2       10.223217   0.000000
    3       12.613398   0.000000
    4       17.438535   0.000000
    5       21.858814   0.000000
    6       22.849902   0.000000
    7       24.429097   0.000000
    8       26.835089   0.000000
 
 -0.1333333E+00  0.2000000E+00  0.6666667E-01  0.7111111E-02
    1       -2.225164   1.000000
    2       12.515580   0.000000
    3       13.140483   0.000000
    4       18.564585   0.000000
    5       21.939782   0.000000
    6       22.615163   0.000000
    7       24.394682   0.000000
    8       26.253535   0.000000
 
  0.3333333E+00  0.2666667E+00  0.6666667E-01  0.7111111E-02
    1       -1.557120   1.000000
    2       13.106891   0.000000
    3       13.492999   0.000000
    4       15.183258   0.000000
    5       18.074111   0.000000
    6       19.573948   0.000000
    7       28.139595   0.000000
    8       29.877080   0.000000
 
  0.4000000E+00  0.2666667E+00  0.6666667E-01  0.1422222E-01
    1       -0.602454   1.000000
    2       10.814318   0.000000
    3       12.977946   0.000000
    4       13.976186   0.000000
    5       18.363523   0.000000
    6       20.722375   0.000000
    7       27.308810   0.000000
    8       30.311806   0.000000
 
  0.4666667E+00  0.2666667E+00  0.6666667E-01  0.1422222E-01
    1        0.592762   1.000000
    2        8.475537   1.000000
    3       12.433246   0.000000
    4       13.316988   0.000000
    5       18.402602   0.000000
    6       22.650930   0.000000
    7       26.429363   0.000000
    8       30.233375   0.000000
 
 -0.4666667E+00  0.2666667E+00  0.6666667E-01  0.1422222E-01
    1        2.017616   1.000000
    2        6.317851   1.000000
    3       11.606390   0.000000
    4       13.376557   0.000000
    5       18.606754   0.000000
    6       24.562840   0.000000
    7       25.883186   0.000000
    8       29.897039   0.000000
 
 -0.4000000E+00  0.2666667E+00  0.6666667E-01  0.1422222E-01
    1        3.554832   1.000000
    2        4.483678   1.000000
    3       10.908600   0.000000
    4       13.756475   0.000000
    5       19.024795   0.000000
    6       24.725095   0.000000
    7       27.199411   0.000000
    8       29.313468   0.000000
 
 -0.3333333E+00  0.2666667E+00  0.6666667E-01  0.1422222E-01
    1        2.536125   1.000000
    2        5.646093   1.000000
    3       10.425464   0.000000
    4       14.377083   0.000000
    5       19.657082   0.000000
    6       24.348675   0.000000
    7       27.915530   0.000000
    8       28.801465   0.000000
 
 -0.2666667E+00  0.2666667E+00  0.6666667E-01  0.1422222E-01
    1        1.041288   1.000000
    2        7.709652   1.000000
    3       10.187686   0.000000
    4       15.217710   0.000000
    5       20.486672   0.000000
    6       24.117032   0.000000
    7       26.113225   0.000000
    8       28.756730   0.000000
 
 -0.2000000E+00  0.2666667E+00  0.6666667E-01  0.7111111E-02
    1       -0.232293   1.000000
    2        9.700656   0.814766
    3       10.466358   0.000000
    4       16.256810   0.000000
    5       21.460158   0.000000
    6       23.781954   0.000000
    7       24.454651   0.000000
    8       28.028238   0.000000
 
  0.4000000E+00  0.3333333E+00  0.6666667E-01  0.7111111E-02
    1       -0.063759   1.000000
    2       11.769975   0.000000
    3       12.179355   0.000000
    4       12.945152   0.000000
    5       17.138805   0.000000
    6       18.600637   0.000000
    7       29.555140   0.000000
    8       32.121206   0.000000
 
  0.4666667E+00  0.3333333E+00  0.6666667E-01  0.1422222E-01
    1        1.046839   1.000000
    2        9.941032   0.000000
    3       10.776425   0.000000
    4       12.493849   0.000000
    5       17.576205   0.000000
    6       20.003788   0.000000
    7       28.762008   0.000000
    8       32.353948   0.000000
 
 -0.4666667E+00  0.3333333E+00  0.6666667E-01  0.1422222E-01
    1        2.390393   1.000000
    2        7.810894   1.000000
    3        9.707660   0.757251
    4       12.557213   0.000000
    5       17.784187   0.000000
    6       22.144706   0.000000
    7       27.970920   0.000000
    8       31.784583   0.000000
 