 running on    4 total cores
 distrk:  each k-point on    4 cores,    1 groups
 distr:  one band on    1 cores,    4 groups
 vasp.6.2.0 18Jan21 (build Aug 12 2022 13:00:08) complex                        
  
 POSCAR found type information on POSCAR Si
 POSCAR found :  1 types and       1 ions
 scaLAPACK will be used
 LDA part: xc-table for Pade appr. of Perdew
 POSCAR, INCAR and KPOINTS ok, starting setup
 FFT: planning ...
 WAVECAR not read
 entering main loop
       N       E                     dE             d eps       ncg     rms          rms(c)
DAV:   1    -0.155632983399E+01   -0.15563E+01   -0.20283E+03  2032   0.489E+02
DAV:   2    -0.487936495584E+01   -0.33230E+01   -0.31630E+01  2872   0.353E+01
DAV:   3    -0.489918044307E+01   -0.19815E-01   -0.19805E-01  2224   0.287E+00
DAV:   4    -0.489919859723E+01   -0.18154E-04   -0.18153E-04  3208   0.980E-02
DAV:   5    -0.489919860249E+01   -0.52572E-08   -0.48805E-08  2224   0.840E-04    0.249E+00
DAV:   6    -0.488693271246E+01    0.12266E-01   -0.39516E-03  2304   0.275E-01    0.137E+00
DAV:   7    -0.487999900945E+01    0.69337E-02   -0.79101E-03  2216   0.388E-01    0.129E-01
DAV:   8    -0.487996900984E+01    0.30000E-04   -0.29768E-05  3072   0.452E-02    0.152E-02
DAV:   9    -0.487996942753E+01   -0.41769E-06   -0.31929E-07  2272   0.334E-03
   1 F= -.48799694E+01 E0= -.48794845E+01  d E =-.487997E+01
 curvature:   0.00 expect dE= 0.000E+00 dE for cont linesearch  0.000E+00
 trial: gam= 0.00000 g(F)=  0.286E-67 g(S)=  0.000E+00 ort = 0.000E+00 (trialstep = 0.100E+01)
 search vector abs. value=  0.100E-09
 reached required accuracy - stopping structural energy minimisation
