unknown system                          
           1
     2.394343    0.000000    1.382373
     0.798114    2.257408    1.382373
     0.000000    0.000000    2.764749
   Si
     1
Direct configuration=     1
   0.00000000  0.00000000  0.00000000
