   1   1   0   0
  0.1538733E+02  0.2791854E-09  0.2791854E-09  0.2791854E-09  0.5000000E-15
  1.000000000000000E-004
  CAR 
 unknown system                          
     36.40837117     -6.46807273  301      9.36159264      1.00000000
     -6.468  0.0000E+00  0.0000E+00
     -6.325  0.0000E+00  0.0000E+00
     -6.182  0.0000E+00  0.0000E+00
     -6.039  0.0000E+00  0.0000E+00
     -5.896  0.0000E+00  0.0000E+00
     -5.753  0.0000E+00  0.0000E+00
     -5.611  0.0000E+00  0.0000E+00
     -5.468  0.0000E+00  0.0000E+00
     -5.325  0.0000E+00  0.0000E+00
     -5.182  0.0000E+00  0.0000E+00
     -5.039  0.0000E+00  0.0000E+00
     -4.896  0.0000E+00  0.0000E+00
     -4.753  0.7709E-15  0.1102E-15
     -4.610  0.2093E-06  0.2992E-07
     -4.467  0.4535E-04  0.6511E-05
     -4.324  0.5186E-03  0.8063E-04
     -4.181  0.3468E-03  0.1302E-03
     -4.038  0.1086E-02  0.2854E-03
     -3.895  0.4855E-03  0.3548E-03
     -3.753  0.5639E-03  0.4354E-03
     -3.610  0.1641E-02  0.6699E-03
     -3.467  0.1008E-02  0.8139E-03
     -3.324  0.1298E-02  0.9995E-03
     -3.181  0.3670E-03  0.1052E-02
     -3.038  0.2447E-02  0.1402E-02
     -2.895  0.1177E-02  0.1570E-02
     -2.752  0.1308E-02  0.1757E-02
     -2.609  0.1440E-02  0.1963E-02
     -2.466  0.5177E-03  0.2037E-02
     -2.323  0.2732E-02  0.2427E-02
     -2.180  0.1763E-02  0.2679E-02
     -2.038  0.3103E-02  0.3122E-02
     -1.895  0.2741E-03  0.3162E-02
     -1.752  0.1282E-02  0.3345E-02
     -1.609  0.1990E-02  0.3629E-02
     -1.466  0.1957E-02  0.3909E-02
     -1.323  0.2705E-02  0.4295E-02
     -1.180  0.1059E-02  0.4447E-02
     -1.037  0.4602E-02  0.5104E-02
     -0.894  0.1056E-02  0.5255E-02
     -0.751  0.1964E-02  0.5536E-02
     -0.608  0.5953E-03  0.5621E-02
     -0.465  0.2480E-02  0.5976E-02
     -0.322  0.2587E-02  0.6345E-02
     -0.180  0.3327E-02  0.6821E-02
     -0.037  0.3770E-02  0.7360E-02
      0.106  0.9793E-04  0.7374E-02
      0.249  0.4396E-02  0.8002E-02
      0.392  0.1761E-02  0.8254E-02
      0.535  0.2454E-02  0.8604E-02
      0.678  0.4261E-03  0.8665E-02
      0.821  0.3186E-02  0.9121E-02
      0.964  0.4400E-02  0.9749E-02
      1.107  0.2412E-02  0.1009E-01
      1.250  0.4283E-02  0.1071E-01
      1.393  0.1405E-02  0.1091E-01
      1.536  0.2879E-02  0.1132E-01
      1.678  0.2866E-02  0.1173E-01
      1.821  0.4200E-02  0.1233E-01
      1.964  0.1097E-02  0.1249E-01
      2.107  0.2301E-02  0.1281E-01
      2.250  0.3426E-02  0.1330E-01
      2.393  0.4651E-02  0.1397E-01
      2.536  0.2749E-02  0.1436E-01
      2.679  0.3760E-02  0.1490E-01
      2.822  0.3989E-02  0.1547E-01
      2.965  0.1995E-02  0.1575E-01
      3.108  0.2031E-02  0.1604E-01
      3.251  0.1174E-02  0.1621E-01
      3.394  0.3586E-02  0.1672E-01
      3.536  0.1528E-02  0.1694E-01
      3.679  0.7414E-02  0.1800E-01
      3.822  0.3622E-02  0.1852E-01
      3.965  0.2724E-02  0.1891E-01
      4.108  0.1375E-02  0.1911E-01
      4.251  0.4134E-02  0.1970E-01
      4.394  0.4683E-02  0.2037E-01
      4.537  0.2152E-02  0.2067E-01
      4.680  0.2957E-02  0.2110E-01
      4.823  0.5612E-02  0.2190E-01
      4.966  0.3850E-02  0.2245E-01
      5.109  0.1894E-02  0.2272E-01
      5.251  0.1382E-02  0.2292E-01
      5.394  0.4539E-02  0.2357E-01
      5.537  0.3900E-02  0.2412E-01
      5.680  0.5952E-02  0.2497E-01
      5.823  0.4707E-02  0.2565E-01
      5.966  0.1535E-02  0.2587E-01
      6.109  0.4203E-02  0.2647E-01
      6.252  0.4316E-02  0.2708E-01
      6.395  0.4087E-02  0.2767E-01
      6.538  0.4117E-02  0.2826E-01
      6.681  0.5289E-02  0.2901E-01
      6.824  0.1644E-02  0.2925E-01
      6.967  0.2339E-02  0.2958E-01
      7.109  0.2423E-02  0.2993E-01
      7.252  0.3662E-02  0.3045E-01
      7.395  0.4774E-02  0.3113E-01
      7.538  0.1132E-01  0.3275E-01
      7.681  0.2490E-02  0.3311E-01
      7.824  0.1236E-02  0.3328E-01
      7.967  0.5177E-02  0.3402E-01
      8.110  0.3847E-02  0.3457E-01
      8.253  0.2804E-02  0.3497E-01
      8.396  0.3995E-02  0.3554E-01
      8.539  0.5660E-02  0.3635E-01
      8.682  0.3776E-02  0.3689E-01
      8.825  0.4976E-02  0.3760E-01
      8.967  0.1780E-02  0.3786E-01
      9.110  0.5900E-02  0.3870E-01
      9.253  0.2931E-02  0.3912E-01
      9.396  0.7857E-02  0.4024E-01
      9.539  0.4305E-02  0.4086E-01
      9.682  0.2339E-02  0.4119E-01
      9.825  0.3794E-02  0.4174E-01
      9.968  0.7683E-02  0.4283E-01
     10.111  0.5191E-02  0.4358E-01
     10.254  0.3846E-02  0.4413E-01
     10.397  0.4518E-02  0.4477E-01
     10.540  0.6994E-02  0.4577E-01
     10.683  0.1547E-02  0.4599E-01
     10.825  0.6830E-03  0.4609E-01
     10.968  0.6686E-02  0.4704E-01
     11.111  0.4048E-02  0.4762E-01
     11.254  0.9344E-02  0.4896E-01
     11.397  0.6812E-02  0.4993E-01
     11.540  0.4725E-02  0.5061E-01
     11.683  0.2881E-02  0.5102E-01
     11.826  0.5612E-02  0.5182E-01
     11.969  0.4050E-02  0.5240E-01
     12.112  0.6258E-02  0.5330E-01
     12.255  0.7540E-02  0.5437E-01
     12.398  0.3360E-02  0.5485E-01
     12.540  0.6928E-02  0.5584E-01
     12.683  0.5755E-02  0.5667E-01
     12.826  0.2721E-02  0.5705E-01
     12.969  0.7179E-02  0.5808E-01
     13.112  0.8722E-02  0.5933E-01
     13.255  0.2624E-02  0.5970E-01
     13.398  0.6768E-02  0.6067E-01
     13.541  0.6228E-02  0.6156E-01
     13.684  0.6629E-02  0.6251E-01
     13.827  0.2677E-02  0.6289E-01
     13.970  0.4928E-02  0.6359E-01
     14.113  0.4579E-02  0.6425E-01
     14.256  0.2381E-02  0.6459E-01
     14.398  0.5412E-02  0.6536E-01
     14.541  0.6476E-02  0.6629E-01
     14.684  0.7085E-02  0.6730E-01
     14.827  0.7343E-02  0.6835E-01
     14.970  0.2017E-02  0.6864E-01
     15.113  0.3796E-02  0.6918E-01
     15.256  0.4033E-02  0.6976E-01
     15.399  0.6169E-02  0.7064E-01
     15.542  0.2421E-02  0.7098E-01
     15.685  0.5642E-02  0.7179E-01
     15.828  0.6862E-02  0.7277E-01
     15.971  0.3541E-02  0.7328E-01
     16.114  0.4682E-02  0.7395E-01
     16.256  0.6965E-02  0.7494E-01
     16.399  0.5174E-02  0.7568E-01
     16.542  0.4683E-02  0.7635E-01
     16.685  0.4354E-02  0.7697E-01
     16.828  0.2678E-02  0.7736E-01
     16.971  0.7187E-02  0.7838E-01
     17.114  0.9618E-02  0.7976E-01
     17.257  0.4264E-02  0.8037E-01
     17.400  0.6799E-02  0.8134E-01
     17.543  0.4821E-02  0.8203E-01
     17.686  0.4596E-02  0.8269E-01
     17.829  0.3459E-02  0.8318E-01
     17.972  0.9040E-02  0.8447E-01
     18.114  0.4992E-02  0.8518E-01
     18.257  0.4365E-02  0.8581E-01
     18.400  0.2338E-02  0.8614E-01
     18.543  0.5029E-02  0.8686E-01
     18.686  0.4276E-02  0.8747E-01
     18.829  0.5566E-02  0.8827E-01
     18.972  0.7514E-02  0.8934E-01
     19.115  0.1080E-01  0.9089E-01
     19.258  0.4261E-02  0.9149E-01
     19.401  0.4530E-02  0.9214E-01
     19.544  0.8532E-02  0.9336E-01
     19.687  0.1559E-02  0.9358E-01
     19.829  0.7084E-02  0.9460E-01
     19.972  0.8465E-02  0.9581E-01
     20.115  0.6276E-02  0.9670E-01
     20.258  0.5444E-02  0.9748E-01
     20.401  0.4033E-02  0.9806E-01
     20.544  0.8071E-02  0.9921E-01
     20.687  0.6609E-02  0.1002E+00
     20.830  0.5073E-02  0.1009E+00
     20.973  0.1683E-02  0.1011E+00
     21.116  0.6108E-02  0.1020E+00
     21.259  0.7054E-02  0.1030E+00
     21.402  0.5708E-02  0.1038E+00
     21.545  0.5293E-02  0.1046E+00
     21.687  0.5706E-02  0.1054E+00
     21.830  0.4463E-02  0.1060E+00
     21.973  0.1214E-01  0.1078E+00
     22.116  0.1148E-01  0.1094E+00
     22.259  0.5291E-02  0.1102E+00
     22.402  0.9580E-02  0.1115E+00
     22.545  0.3033E-02  0.1120E+00
     22.688  0.8750E-02  0.1132E+00
     22.831  0.4234E-02  0.1138E+00
     22.974  0.4980E-02  0.1145E+00
     23.117  0.6586E-02  0.1155E+00
     23.260  0.6955E-02  0.1165E+00
     23.403  0.4750E-02  0.1171E+00
     23.545  0.3738E-02  0.1177E+00
     23.688  0.3672E-02  0.1182E+00
     23.831  0.1497E-01  0.1203E+00
     23.974  0.1150E-01  0.1220E+00
     24.117  0.5892E-02  0.1228E+00
     24.260  0.6797E-02  0.1238E+00
     24.403  0.5939E-02  0.1247E+00
     24.546  0.5748E-02  0.1255E+00
     24.689  0.6267E-02  0.1264E+00
     24.832  0.5278E-02  0.1271E+00
     24.975  0.5394E-02  0.1279E+00
     25.118  0.1112E-01  0.1295E+00
     25.260  0.4487E-02  0.1301E+00
     25.403  0.2916E-02  0.1305E+00
     25.546  0.4205E-02  0.1311E+00
     25.689  0.7398E-02  0.1322E+00
     25.832  0.8020E-02  0.1333E+00
     25.975  0.8732E-02  0.1346E+00
     26.118  0.1013E-01  0.1360E+00
     26.261  0.3711E-02  0.1366E+00
     26.404  0.1417E-02  0.1368E+00
     26.547  0.7236E-02  0.1378E+00
     26.690  0.1083E-01  0.1394E+00
     26.833  0.4640E-02  0.1400E+00
     26.976  0.3626E-02  0.1405E+00
     27.118  0.1428E-02  0.1407E+00
     27.261  0.5305E-02  0.1415E+00
     27.404  0.7864E-02  0.1426E+00
     27.547  0.4067E-02  0.1432E+00
     27.690  0.3536E-02  0.1437E+00
     27.833  0.3103E-02  0.1442E+00
     27.976  0.8249E-02  0.1453E+00
     28.119  0.1014E-01  0.1468E+00
     28.262  0.5751E-02  0.1476E+00
     28.405  0.7212E-02  0.1486E+00
     28.548  0.4124E-02  0.1492E+00
     28.691  0.4250E-02  0.1498E+00
     28.834  0.2617E-02  0.1502E+00
     28.976  0.4672E-02  0.1509E+00
     29.119  0.6828E-02  0.1518E+00
     29.262  0.2964E-02  0.1523E+00
     29.405  0.2403E-02  0.1526E+00
     29.548  0.6250E-02  0.1535E+00
     29.691  0.3033E-02  0.1539E+00
     29.834  0.4965E-02  0.1547E+00
     29.977  0.1174E-03  0.1547E+00
     30.120  0.1517E-02  0.1549E+00
     30.263  0.4246E-02  0.1555E+00
     30.406  0.1652E-02  0.1557E+00
     30.549  0.9550E-03  0.1559E+00
     30.692  0.1718E-02  0.1561E+00
     30.834  0.1360E-02  0.1563E+00
     30.977  0.3461E-02  0.1568E+00
     31.120  0.2749E-02  0.1572E+00
     31.263  0.1927E-02  0.1575E+00
     31.406  0.1056E-02  0.1576E+00
     31.549  0.1408E-02  0.1578E+00
     31.692  0.1873E-02  0.1581E+00
     31.835  0.2191E-02  0.1584E+00
     31.978  0.1580E-02  0.1586E+00
     32.121  0.1499E-02  0.1588E+00
     32.264  0.4114E-03  0.1589E+00
     32.407  0.1048E-03  0.1589E+00
     32.549  0.1871E-02  0.1592E+00
     32.692  0.4204E-03  0.1592E+00
     32.835  0.9690E-04  0.1593E+00
     32.978  0.1016E-02  0.1594E+00
     33.121  0.2296E-03  0.1594E+00
     33.264  0.1549E-02  0.1597E+00
     33.407  0.6837E-03  0.1598E+00
     33.550  0.7771E-03  0.1599E+00
     33.693  0.2175E-03  0.1599E+00
     33.836  0.7167E-09  0.1599E+00
     33.979  0.2859E-12  0.1599E+00
     34.122  0.1017E-04  0.1599E+00
     34.265  0.4760E-03  0.1600E+00
     34.407  0.2899E-04  0.1600E+00
     34.550  0.2299E-03  0.1600E+00
     34.693  0.1256E-05  0.1600E+00
     34.836  0.4625E-14  0.1600E+00
     34.979  0.0000E+00  0.1600E+00
     35.122  0.0000E+00  0.1600E+00
     35.265  0.0000E+00  0.1600E+00
     35.408  0.0000E+00  0.1600E+00
     35.551  0.0000E+00  0.1600E+00
     35.694  0.0000E+00  0.1600E+00
     35.837  0.0000E+00  0.1600E+00
     35.980  0.0000E+00  0.1600E+00
     36.123  0.0000E+00  0.1600E+00
     36.265  0.0000E+00  0.1600E+00
     36.408  0.0000E+00  0.1600E+00
