    1    1  100    1
  0.1538733E+02  0.2791854E-09  0.2791854E-09  0.2791854E-09  0.5000000E-15
  1.000000000000000E-004
  CAR 
 unknown system                          
      4    120      8
 
  0.0000000E+00  0.0000000E+00  0.0000000E+00  0.2962963E-03
    1       -4.519143   1.000000
    2       19.789416   0.000000
    3       19.789422   0.000000
    4       19.789430   0.000000
    5       21.070283   0.000000
    6       21.070291   0.000000
    7       21.070299   0.000000
    8       26.268314   0.000000
 
  0.6666667E-01 -0.6938894E-17  0.0000000E+00  0.2370370E-02
    1       -4.395063   1.000000
    2       17.956463   0.000000
    3       19.287212   0.000000
    4       19.287223   0.000000
    5       21.719264   0.000000
    6       21.719278   0.000000
    7       21.857504   0.000000
    8       26.995836   0.000000
 
  0.1333333E+00 -0.6938894E-17  0.0000000E+00  0.2370370E-02
    1       -4.023323   1.000000
    2       15.287108   0.000000
    3       18.595313   0.000000
    4       18.595323   0.000000
    5       22.106038   0.000000
    6       22.712352   0.000000
    7       22.712365   0.000000
    8       26.029825   0.000000
 
  0.2000000E+00 -0.1387779E-16  0.0000000E+00  0.2370370E-02
    1       -3.405451   1.000000
    2       12.585960   0.000000
    3       18.044542   0.000000
    4       18.044551   0.000000
    5       22.025585   0.000000
    6       22.956635   0.000000
    7       22.956645   0.000000
    8       25.980588   0.000000
 
  0.2666667E+00 -0.1387779E-16  0.0000000E+00  0.2370370E-02
    1       -2.544165   1.000000
    2        9.997924   0.000000
    3       17.668995   0.000000
    4       17.669003   0.000000
    5       21.914505   0.000000
    6       22.165502   0.000000
    7       22.165511   0.000000
    8       27.291829   0.000000
 
  0.3333333E+00  0.1387779E-16  0.0000000E+00  0.2370370E-02
    1       -1.443966   1.000000
    2        7.579065   1.000000
    3       17.461150   0.000000
    4       17.461156   0.000000
    5       21.241617   0.000000
    6       21.241627   0.000000
    7       21.875793   0.000000
    8       26.235147   0.000000
 
  0.4000000E+00  0.0000000E+00  0.0000000E+00  0.2370370E-02
    1       -0.114101   1.000000
    2        5.361446   1.000000
    3       17.388065   0.000000
    4       17.388070   0.000000
    5       20.509199   0.000000
    6       20.509210   0.000000
    7       21.921462   0.000000
    8       25.385555   0.000000
 
  0.4666667E+00  0.0000000E+00  0.0000000E+00  0.2370370E-02
    1        1.396379   1.000000
    2        3.404884   1.000000
    3       17.386306   0.000000
    4       17.386310   0.000000
    5       20.098787   0.000000
    6       20.098800   0.000000
    7       21.991474   0.000000
    8       24.901399   0.000000
 
  0.6666667E-01  0.6666667E-01  0.0000000E+00  0.1777778E-02
    1       -4.353709   1.000000
    2       18.387372   0.000000
    3       18.387373   0.000000
    4       19.387619   0.000000
    5       20.202310   0.000000
    6       22.676344   0.000000
    7       22.676345   0.000000
    8       25.930635   0.000000
 
  0.1333333E+00  0.6666667E-01  0.0000000E+00  0.7111111E-02
    1       -4.064549   1.000000
    2       16.243199   0.000000
    3       17.597151   0.000000
    4       19.004450   0.000000
    5       20.513474   0.000000
    6       23.357324   0.000000
    7       23.751932   0.000000
    8       24.541185   0.000000
 
  0.2000000E+00  0.6666667E-01  0.0000000E+00  0.7111111E-02
    1       -3.528748   1.000000
    2       13.564172   0.000000
    3       16.989499   0.000000
    4       18.408847   0.000000
    5       21.162130   0.000000
    6       23.204011   0.000000
    7       24.037567   0.000000
    8       24.346292   0.000000
 
  0.2666667E+00  0.6666667E-01  0.0000000E+00  0.7111111E-02
    1       -2.748589   1.000000
    2       10.939947   0.000000
    3       16.581297   0.000000
    4       17.893343   0.000000
    5       20.751016   0.000000
    6       22.952281   0.000000
    7       23.781236   0.000000
    8       25.005437   0.000000
 
  0.3333333E+00  0.6666667E-01  0.0000000E+00  0.7111111E-02
    1       -1.727844   1.000000
    2        8.465073   1.000000
    3       16.375613   0.000000
    4       17.443687   0.000000
    5       19.987190   0.000000
    6       22.820516   0.000000
    7       22.889179   0.000000
    8       26.535656   0.000000
 
  0.4000000E+00  0.6666667E-01  0.0000000E+00  0.7111111E-02
    1       -0.473396   1.000000
    2        6.179538   1.000000
    3       16.368645   0.000000
    4       16.987357   0.000000
    5       19.503706   0.000000
    6       21.923213   0.000000
    7       22.873788   0.000000
    8       26.549333   0.000000
 
  0.4666667E+00  0.6666667E-01  0.0000000E+00  0.7111111E-02
    1        0.991916   1.000000
    2        4.121064   1.000000
    3       16.507035   0.000000
    4       16.549408   0.000000
    5       19.433485   0.000000
    6       21.210344   0.000000
    7       22.867281   0.000000
    8       26.062071   0.000000
 
 -0.4666667E+00  0.6666667E-01  0.0000000E+00  0.7111111E-02
    1        1.950121   1.000000
    2        3.014159   1.000000
    3       16.078049   0.000000
    4       16.895267   0.000000
    5       19.730217   0.000000
    6       20.737707   0.000000
    7       22.806503   0.000000
    8       25.977519   0.000000
 
 -0.4000000E+00  0.6666667E-01  0.0000000E+00  0.7111111E-02
    1        0.483933   1.000000
    2        4.777559   1.000000
    3       15.778857   0.000000
    4       17.363404   0.000000
    5       20.320487   0.000000
    6       20.556549   0.000000
    7       22.692026   0.000000
    8       26.327454   0.000000
 
 -0.3333333E+00  0.6666667E-01  0.0000000E+00  0.7111111E-02
    1       -0.916848   1.000000
    2        6.918465   1.000000
    3       15.653494   0.000000
    4       17.887150   0.000000
    5       20.725445   0.000000
    6       21.150141   0.000000
    7       22.596426   0.000000
    8       26.993588   0.000000
 
 -0.2666667E+00  0.6666667E-01  0.0000000E+00  0.7111111E-02
    1       -2.094543   1.000000
    2        9.270368   0.995063
    3       15.722772   0.000000
    4       18.409011   0.000000
    5       21.262845   0.000000
    6       22.161592   0.000000
    7       22.571846   0.000000
    8       26.582791   0.000000
 
 -0.2000000E+00  0.6666667E-01  0.0000000E+00  0.7111111E-02
    1       -3.035635   1.000000
    2       11.800535   0.000000
    3       15.995325   0.000000
    4       18.934598   0.000000
    5       21.989501   0.000000
    6       22.592222   0.000000
    7       23.230165   0.000000
    8       25.009899   0.000000
 
 -0.1333333E+00  0.6666667E-01  0.0000000E+00  0.7111111E-02
    1       -3.734668   1.000000
    2       14.459810   0.000000
    3       16.472154   0.000000
    4       19.486908   0.000000
    5       22.048428   0.000000
    6       22.550430   0.000000
    7       23.762443   0.000000
    8       24.650559   0.000000
 
 -0.6666667E-01  0.6666667E-01  0.0000000E+00  0.3555556E-02
    1       -4.188447   1.000000
    2       17.073998   0.000000
    3       17.195075   0.000000
    4       19.849922   0.000000
    5       21.389924   0.000000
    6       22.207586   0.000000
    7       23.119016   0.000000
    8       25.708749   0.000000
 
  0.1333333E+00  0.1333333E+00  0.0000000E+00  0.1777778E-02
    1       -3.858170   1.000000
    2       16.733783   0.000000
    3       16.733784   0.000000
    4       18.320966   0.000000
    5       18.632143   0.000000
    6       22.821689   0.000000
    7       24.914043   0.000000
    8       24.914044   0.000000
 
  0.2000000E+00  0.1333333E+00  0.0000000E+00  0.7111111E-02
    1       -3.405028   1.000000
    2       14.673349   0.000000
    3       16.058824   0.000000
    4       17.689989   0.000000
    5       18.957499   0.000000
    6       21.556321   0.000000
    7       25.604825   0.000000
    8       25.830558   0.000000
 
  0.2666667E+00  0.1333333E+00  0.0000000E+00  0.7111111E-02
    1       -2.707007   1.000000
    2       12.077090   0.000000
    3       15.588136   0.000000
    4       16.964017   0.000000
    5       19.009959   0.000000
    6       21.755278   0.000000
    7       25.632790   0.000000
    8       25.781234   0.000000
 
  0.3333333E+00  0.1333333E+00  0.0000000E+00  0.7111111E-02
    1       -1.767277   1.000000
    2        9.566851   0.000000
    3       15.326800   0.000000
    4       16.182071   0.000000
    5       18.473728   0.000000
    6       23.089269   0.000000
    7       24.747880   0.000000
    8       25.952638   0.000000
 
  0.4000000E+00  0.1333333E+00  0.0000000E+00  0.7111111E-02
    1       -0.591249   1.000000
    2        7.224646   1.000000
    3       15.275374   0.000000
    4       15.356265   0.000000
    5       18.201295   0.000000
    6       23.818242   0.000000
    7       24.211504   0.000000
    8       26.673247   0.000000
 
  0.4666667E+00  0.1333333E+00  0.0000000E+00  0.7111111E-02
    1        0.807793   1.000000
    2        5.089212   1.000000
    3       14.588819   0.000000
    4       15.431417   0.000000
    5       18.263846   0.000000
    6       23.019840   0.000000
    7       24.537798   0.000000
    8       28.192168   0.000000
 
 -0.4666667E+00  0.1333333E+00  0.0000000E+00  0.7111111E-02
    1        2.275534   1.000000
    2        3.325482   1.000000
    3       13.963632   0.000000
    4       15.789071   0.000000
    5       18.614324   0.000000
    6       22.411840   0.000000
    7       24.461672   0.000000
    8       28.423076   0.000000
 
 -0.4000000E+00  0.1333333E+00  0.0000000E+00  0.7111111E-02
    1        1.314835   1.000000
    2        4.434020   1.000000
    3       13.523304   0.000000
    4       16.337053   0.000000
    5       19.218653   0.000000
    6       22.023781   0.000000
    7       24.265145   0.000000
    8       28.685182   0.000000
 
 -0.3333333E+00  0.1333333E+00  0.0000000E+00  0.7111111E-02
    1       -0.148959   1.000000
    2        6.487551   1.000000
    3       13.287990   0.000000
    4       17.054066   0.000000
    5       20.052318   0.000000
    6       21.877867   0.000000
    7       24.068109   0.000000
    8       28.144916   0.000000
 
 -0.2666667E+00  0.1333333E+00  0.0000000E+00  0.7111111E-02
    1       -1.401611   1.000000
    2        8.763281   1.000000
    3       13.267922   0.000000
    4       17.899008   0.000000
    5       21.086702   0.000000
    6       21.995189   0.000000
    7       23.903571   0.000000
    8       26.080257   0.000000
 
 -0.2000000E+00  0.1333333E+00  0.0000000E+00  0.7111111E-02
    1       -2.420798   1.000000
    2       11.216124   0.000000
    3       13.471799   0.000000
    4       18.789213   0.000000
    5       22.264341   0.000000
    6       22.361536   0.000000
    7       23.704266   0.000000
    8       24.300202   0.000000
 
 -0.1333333E+00  0.1333333E+00  0.0000000E+00  0.3555556E-02
    1       -3.199723   1.000000
    2       13.633681   0.000000
    3       14.063532   0.000000
    4       19.520829   0.000000
    5       22.344505   0.000000
    6       23.276077   0.000000
    7       23.396779   0.000000
    8       23.663094   0.000000
 
  0.2000000E+00  0.2000000E+00  0.0000000E+00  0.1777778E-02
    1       -3.034804   1.000000
    2       15.314658   0.000000
    3       15.314659   0.000000
    4       16.643640   0.000000
    5       17.125248   0.000000
    6       19.928478   0.000000
    7       27.216288   0.000000
    8       27.216288   0.000000
 
  0.2666667E+00  0.2000000E+00  0.0000000E+00  0.7111111E-02
    1       -2.419584   1.000000
    2       13.340312   0.000000
    3       14.775272   0.000000
    4       15.678630   0.000000
    5       17.317504   0.000000
    6       19.396569   0.000000
    7       27.585014   0.000000
    8       27.924405   0.000000
 
  0.3333333E+00  0.2000000E+00  0.0000000E+00  0.7111111E-02
    1       -1.562066   1.000000
    2       10.859657   0.000000
    3       14.447046   0.000000
    4       14.569141   0.000000
    5       17.219283   0.000000
    6       20.534059   0.000000
    7       26.857751   0.000000
    8       28.073225   0.000000
 
  0.4000000E+00  0.2000000E+00  0.0000000E+00  0.7111111E-02
    1       -0.466658   1.000000
    2        8.483337   1.000000
    3       13.492436   0.000000
    4       14.331952   0.000000
    5       17.068866   0.000000
    6       22.336167   0.000000
    7       25.948047   0.000000
    8       27.995297   0.000000
 
  0.4666667E+00  0.2000000E+00  0.0000000E+00  0.7111111E-02
    1        0.857709   1.000000
    2        6.288189   1.000000
    3       12.552376   0.000000
    4       14.429623   0.000000
    5       17.147738   0.000000
    6       24.238944   0.000000
    7       25.114102   0.000000
    8       27.900470   0.000000
 
 -0.4666667E+00  0.2000000E+00  0.0000000E+00  0.7111111E-02
    1        2.365492   1.000000
    2        4.341052   1.000000
    3       11.797902   0.000000
    4       14.737719   0.000000
    5       17.473978   0.000000
    6       24.439125   0.000000
    7       25.653255   0.000000
    8       28.257542   0.000000
 
 -0.4000000E+00  0.2000000E+00  0.0000000E+00  0.7111111E-02
    1        2.363732   1.000000
    2        4.342102   1.000000
    3       11.252003   0.000000
    4       15.251257   0.000000
    5       18.040096   0.000000
    6       23.958818   0.000000
    7       25.949913   0.000000
    8       29.398765   0.000000
 
 -0.3333333E+00  0.2000000E+00  0.0000000E+00  0.7111111E-02
    1        0.855730   1.000000
    2        6.286601   1.000000
    3       10.927496   0.000000
    4       15.960418   0.000000
    5       18.834366   0.000000
    6       23.692065   0.000000
    7       25.740711   0.000000
    8       27.976701   0.000000
 
 -0.2666667E+00  0.2000000E+00  0.0000000E+00  0.7111111E-02
    1       -0.468485   1.000000
    2        8.468566   1.000000
    3       10.839435   0.000000
    4       16.844439   0.000000
    5       19.838465   0.000000
    6       23.651299   0.000000
    7       25.359589   0.000000
    8       25.813756   0.000000
 
 -0.2000000E+00  0.2000000E+00  0.0000000E+00  0.3555556E-02
    1       -1.563621   1.000000
    2       10.601254   0.000000
    3       11.214694   0.000000
    4       17.850494   0.000000
    5       21.015496   0.000000
    6       23.804735   0.000000
    7       23.919058   0.000000
    8       24.712915   0.000000
 
  0.2666667E+00  0.2666667E+00  0.0000000E+00  0.1777778E-02
    1       -1.887505   1.000000
    2       14.164115   0.000000
    3       14.165754   0.000000
    4       14.165755   0.000000
    5       15.863414   0.000000
    6       18.008243   0.000000
    7       29.436395   0.000000
    8       29.437639   0.000000
 
  0.3333333E+00  0.2666667E+00  0.0000000E+00  0.7111111E-02
    1       -1.113017   1.000000
    2       12.193212   0.000000
    3       13.002977   0.000000
    4       13.767576   0.000000
    5       16.094865   0.000000
    6       18.119379   0.000000
    7       29.055452   0.000000
    8       30.088365   0.000000
 
  0.4000000E+00  0.2666667E+00  0.0000000E+00  0.7111111E-02
    1       -0.099882   1.000000
    2        9.903872   0.000000
    3       11.714793   0.000000
    4       13.583643   0.000000
    5       16.140467   0.000000
    6       19.662262   0.000000
    7       28.220154   0.000000
    8       30.103143   0.000000
 
  0.4666667E+00  0.2666667E+00  0.0000000E+00  0.7111111E-02
    1        1.145209   1.000000
    2        7.689615   1.000000
    3       10.631078   0.000000
    4       13.614537   0.000000
    5       16.215245   0.000000
    6       21.708144   0.000000
    7       27.387270   0.000000
    8       29.759855   0.000000
 
 -0.4666667E+00  0.2666667E+00  0.0000000E+00  0.7111111E-02
    1        2.601421   1.000000
    2        5.664479   1.000000
    3        9.763402   0.000000
    4       13.859290   0.000000
    5       16.496546   0.000000
    6       23.922796   0.000000
    7       26.671726   0.000000
    8       29.248696   0.000000
 
 -0.4000000E+00  0.2666667E+00  0.0000000E+00  0.7111111E-02
    1        3.564869   1.000000
    2        4.555727   1.000000
    3        9.122209   1.000000
    4       14.315172   0.000000
    5       17.007299   0.000000
    6       26.068923   0.000000
    7       26.121915   0.000000
    8       28.697837   0.000000
 
 -0.3333333E+00  0.2666667E+00  0.0000000E+00  0.7111111E-02
    1        2.089967   1.000000
    2        6.303709   1.000000
    3        8.724674   1.000000
    4       14.976393   0.000000
    5       17.745524   0.000000
    6       25.749521   0.000000
    7       27.310079   0.000000
    8       28.060425   0.000000
 
 -0.2666667E+00  0.2666667E+00  0.0000000E+00  0.3555556E-02
    1        0.699529   1.000000
    2        8.131219   1.000000
    3        8.824608   1.000000
    4       15.830408   0.000000
    5       18.698817   0.000000
    6       25.347740   0.000000
    7       26.079278   0.000000
    8       26.638826   0.000000
 
  0.3333333E+00  0.3333333E+00  0.0000000E+00  0.1777778E-02
    1       -0.422056   1.000000
    2       11.282738   0.000000
    3       13.298669   0.000000
    4       13.298670   0.000000
    5       14.898135   0.000000
    6       16.881514   0.000000
    7       30.977851   0.000000
    8       31.473857   0.000000
 
  0.4000000E+00  0.3333333E+00  0.0000000E+00  0.7111111E-02
    1        0.507584   1.000000
    2        9.892226   0.000000
    3       11.649177   0.000000
    4       13.044183   0.000000
    5       15.270642   0.000000
    6       17.309757   0.000000
    7       30.501071   0.000000
    8       31.992500   0.000000
 
  0.4666667E+00  0.3333333E+00  0.0000000E+00  0.7111111E-02
    1        1.670203   1.000000
    2        8.607391   1.000000
    3        9.561139   0.000000
    4       13.005375   0.000000
    5       15.471787   0.000000
    6       19.082944   0.000000
    7       29.735896   0.000000
    8       31.787065   0.000000
 
 -0.4666667E+00  0.3333333E+00  0.0000000E+00  0.7111111E-02
    1        3.052658   1.000000
    2        7.070724   1.000000
    3        8.063001   1.000000
    4       13.182041   0.000000
    5       15.722518   0.000000
    6       21.313694   0.000000
    7       29.007975   0.000000
    8       31.147551   0.000000
 
 -0.4000000E+00  0.3333333E+00  0.0000000E+00  0.7111111E-02
    1        4.527169   1.000000
    2        5.398375   1.000000
    3        7.245600   1.000000
    4       13.572625   0.000000
    5       16.175662   0.000000
    6       23.721476   0.000000
    7       28.371160   0.000000
    8       30.223845   0.000000
 
 -0.3333333E+00  0.3333333E+00  0.0000000E+00  0.3555556E-02
    1        3.533842   1.000000
    2        6.265508   1.000000
    3        7.014989   1.000000
    4       14.173486   0.000000
    5       16.851717   0.000000
    6       26.127371   0.000000
    7       27.591000   0.000000
    8       28.745589   0.000000
 
  0.4000000E+00  0.4000000E+00  0.0000000E+00  0.1777778E-02
    1        1.352663   1.000000
    2        8.452165   1.000000
    3       12.718667   0.000000
    4       12.718668   0.000000
    5       14.248327   0.000000
    6       16.203451   0.000000
    7       32.150638   0.000000
    8       33.243992   0.000000
 
  0.4666667E+00  0.4000000E+00  0.0000000E+00  0.7111111E-02
    1        2.429598   1.000000
    2        7.183204   1.000000
    3       11.166389   0.000000
    4       12.609016   0.000000
    5       14.782612   0.000000
    6       16.839354   0.000000
    7       31.894159   0.000000
    8       33.522475   0.000000
 
 -0.4666667E+00  0.4000000E+00  0.0000000E+00  0.7111111E-02
    1        3.722850   1.000000
    2        6.130511   1.000000
    3        9.125487   1.000000
    4       12.715588   0.000000
    5       15.143088   0.000000
    6       18.792210   0.000000
    7       31.217855   0.000000
    8       32.926957   0.000000
 
 -0.4000000E+00  0.4000000E+00  0.0000000E+00  0.3555556E-02
    1        5.018001   1.000000
    2        5.453085   1.000000
    3        7.282782   1.000000
    4       13.037583   0.000000
    5       15.559658   0.000000
    6       21.179913   0.000000
    7       30.250146   0.000000
    8       31.743255   0.000000
 
  0.4666667E+00  0.4666667E+00  0.0000000E+00  0.1777778E-02
    1        3.412147   1.000000
    2        5.844415   1.000000
    3       12.428184   0.000000
    4       12.428185   0.000000
    5       13.921905   0.000000
    6       15.874670   0.000000
    7       32.987592   0.000000
    8       34.459442   0.000000
 
 -0.4666667E+00  0.4666667E+00  0.0000000E+00  0.3555556E-02
    1        4.393532   1.000000
    2        4.946343   1.000000
    3       11.010352   0.000000
    4       12.463792   0.000000
    5       14.620357   0.000000
    6       16.683772   0.000000
    7       32.660743   0.000000
    8       34.193921   0.000000
 
  0.2000000E+00  0.1333333E+00  0.6666667E-01  0.7111111E-02
    1       -3.693375   1.000000
    2       15.375645   0.000000
    3       15.625958   0.000000
    4       19.167187   0.000000
    5       20.236123   0.000000
    6       23.132601   0.000000
    7       24.229461   0.000000
    8       24.556208   0.000000
 
  0.2666667E+00  0.1333333E+00  0.6666667E-01  0.1422222E-01
    1       -3.076424   1.000000
    2       12.851011   0.000000
    3       14.972170   0.000000
    4       18.619325   0.000000
    5       20.645167   0.000000
    6       22.600271   0.000000
    7       24.459770   0.000000
    8       24.684139   0.000000
 
  0.3333333E+00  0.1333333E+00  0.6666667E-01  0.1422222E-01
    1       -2.216407   1.000000
    2       10.289681   0.000000
    3       14.628316   0.000000
    4       17.830357   0.000000
    5       20.260066   0.000000
    6       23.023557   0.000000
    7       23.979149   0.000000
    8       25.105372   0.000000
 
  0.4000000E+00  0.1333333E+00  0.6666667E-01  0.1422222E-01
    1       -1.117808   1.000000
    2        7.883007   1.000000
    3       14.494402   0.000000
    4       16.989458   0.000000
    5       19.908667   0.000000
    6       22.354270   0.000000
    7       24.119029   0.000000
    8       26.463429   0.000000
 
  0.4666667E+00  0.1333333E+00  0.6666667E-01  0.1422222E-01
    1        0.210274   1.000000
    2        5.672151   1.000000
    3       14.556614   0.000000
    4       16.213981   0.000000
    5       19.825763   0.000000
    6       21.548833   0.000000
    7       24.225648   0.000000
    8       27.913595   0.000000
 
 -0.4666667E+00  0.1333333E+00  0.6666667E-01  0.1422222E-01
    1        1.720036   1.000000
    2        3.718362   1.000000
    3       14.749710   0.000000
    4       15.647145   0.000000
    5       19.918857   0.000000
    6       20.999856   0.000000
    7       24.289129   0.000000
    8       27.718727   0.000000
 
  0.2666667E+00  0.2000000E+00  0.6666667E-01  0.7111111E-02
    1       -2.870807   1.000000
    2       13.898064   0.000000
    3       14.210513   0.000000
    4       17.339259   0.000000
    5       18.819288   0.000000
    6       20.610251   0.000000
    7       26.081228   0.000000
    8       26.700590   0.000000
 
  0.3333333E+00  0.2000000E+00  0.6666667E-01  0.1422222E-01
    1       -2.092952   1.000000
    2       11.497501   0.000000
    3       13.659957   0.000000
    4       16.324767   0.000000
    5       19.021301   0.000000
    6       21.159351   0.000000
    7       25.432827   0.000000
    8       27.149250   0.000000
 
  0.4000000E+00  0.2000000E+00  0.6666667E-01  0.1422222E-01
    1       -1.075217   1.000000
    2        9.061208   1.000000
    3       13.434558   0.000000
    4       15.249640   0.000000
    5       18.847230   0.000000
    6       22.687174   0.000000
    7       24.592178   0.000000
    8       27.275204   0.000000
 
  0.4666667E+00  0.2000000E+00  0.6666667E-01  0.1422222E-01
    1        0.175651   1.000000
    2        6.794163   1.000000
    3       13.354648   0.000000
    4       14.365951   0.000000
    5       18.840637   0.000000
    6       23.252155   0.000000
    7       24.884592   0.000000
    8       27.483234   0.000000
 
 -0.4666667E+00  0.2000000E+00  0.6666667E-01  0.1422222E-01
    1        1.637782   1.000000
    2        4.745296   1.000000
    3       13.102135   0.000000
    4       14.050079   0.000000
    5       19.057594   0.000000
    6       22.640713   0.000000
    7       25.901868   0.000000
    8       28.291312   0.000000
 
 -0.4000000E+00  0.2000000E+00  0.6666667E-01  0.1422222E-01
    1        2.599528   1.000000
    2        3.636138   1.000000
    3       12.619419   0.000000
    4       14.381842   0.000000
    5       19.487042   0.000000
    6       22.122886   0.000000
    7       26.080982   0.000000
    8       29.391234   0.000000
 
 -0.3333333E+00  0.2000000E+00  0.6666667E-01  0.1422222E-01
    1        1.129972   1.000000
    2        5.399484   1.000000
    3       12.256337   0.000000
    4       15.016422   0.000000
    5       20.092863   0.000000
    6       21.833618   0.000000
    7       25.855655   0.000000
    8       28.286827   0.000000
 
 -0.2666667E+00  0.2000000E+00  0.6666667E-01  0.1422222E-01
    1       -0.267198   1.000000
    2        7.526436   1.000000
    3       12.094545   0.000000
    4       15.864161   0.000000
    5       20.766292   0.000000
    6       21.869504   0.000000
    7       25.146108   0.000000
    8       26.813839   0.000000
 
 -0.2000000E+00  0.2000000E+00  0.6666667E-01  0.1422222E-01
    1       -1.441398   1.000000
    2        9.847245   0.000000
    3       12.157761   0.000000
    4       16.876774   0.000000
    5       21.289857   0.000000
    6       22.269894   0.000000
    7       23.819342   0.000000
    8       26.161664   0.000000
 
 -0.1333333E+00  0.2000000E+00  0.6666667E-01  0.7111111E-02
    1       -2.379587   1.000000
    2       12.125846   0.000000
    3       12.644056   0.000000
    4       17.950736   0.000000
    5       21.404710   0.000000
    6       22.025911   0.000000
    7       23.791418   0.000000
    8       25.585741   0.000000
 
  0.3333333E+00  0.2666667E+00  0.6666667E-01  0.7111111E-02
    1       -1.724659   1.000000
    2       12.696992   0.000000
    3       12.976126   0.000000
    4       14.679019   0.000000
    5       17.621767   0.000000
    6       19.030881   0.000000
    7       27.442427   0.000000
    8       29.121134   0.000000
 
  0.4000000E+00  0.2666667E+00  0.6666667E-01  0.1422222E-01
    1       -0.789157   1.000000
    2       10.418193   0.000000
    3       12.489327   0.000000
    4       13.534391   0.000000
    5       17.886364   0.000000
    6       20.146491   0.000000
    7       26.636427   0.000000
    8       29.549027   0.000000
 
  0.4666667E+00  0.2666667E+00  0.6666667E-01  0.1422222E-01
    1        0.381545   1.000000
    2        8.124959   1.000000
    3       11.952172   0.000000
    4       12.900935   0.000000
    5       17.909920   0.000000
    6       22.038185   0.000000
    7       25.780438   0.000000
    8       29.467398   0.000000
 
 -0.4666667E+00  0.2666667E+00  0.6666667E-01  0.1422222E-01
    1        1.774706   1.000000
    2        6.013272   1.000000
    3       11.162889   0.000000
    4       12.940982   0.000000
    5       18.102193   0.000000
    6       23.909646   0.000000
    7       25.250952   0.000000
    8       29.137739   0.000000
 
 -0.4000000E+00  0.2666667E+00  0.6666667E-01  0.1422222E-01
    1        3.246236   1.000000
    2        4.251250   1.000000
    3       10.487314   0.000000
    4       13.304972   0.000000
    5       18.506981   0.000000
    6       24.098288   0.000000
    7       26.508344   0.000000
    8       28.574930   0.000000
 
 -0.3333333E+00  0.2666667E+00  0.6666667E-01  0.1422222E-01
    1        2.277926   1.000000
    2        5.362514   1.000000
    3       10.016170   0.000000
    4       13.908058   0.000000
    5       19.122949   0.000000
    6       23.738008   0.000000
    7       27.199331   0.000000
    8       28.089725   0.000000
 
 -0.2666667E+00  0.2666667E+00  0.6666667E-01  0.1422222E-01
    1        0.819542   1.000000
    2        7.385116   1.000000
    3        9.779134   0.000000
    4       14.726717   0.000000
    5       19.932173   0.000000
    6       23.517989   0.000000
    7       25.454634   0.000000
    8       28.047410   0.000000
 
 -0.2000000E+00  0.2666667E+00  0.6666667E-01  0.7111111E-02
    1       -0.427199   1.000000
    2        9.369201   0.414809
    3       10.019770   0.000000
    4       15.736909   0.000000
    5       20.879732   0.000000
    6       23.206502   0.000000
    7       23.828733   0.000000
    8       27.334784   0.000000
 
  0.4000000E+00  0.3333333E+00  0.6666667E-01  0.7111111E-02
    1       -0.260779   1.000000
    2       11.271364   0.000000
    3       11.788739   0.000000
    4       12.527048   0.000000
    5       16.703781   0.000000
    6       18.045201   0.000000
    7       28.842584   0.000000
    8       31.328541   0.000000
 
  0.4666667E+00  0.3333333E+00  0.6666667E-01  0.1422222E-01
    1        0.827593   1.000000
    2        9.525689   0.000002
    3       10.386562   0.000000
    4       12.075825   0.000000
    5       17.107069   0.000000
    6       19.432623   0.000000
    7       28.066079   0.000000
    8       31.560784   0.000000
 
 -0.4666667E+00  0.3333333E+00  0.6666667E-01  0.1422222E-01
    1        2.143136   1.000000
    2        7.461545   1.000000
    3        9.325190   0.848407
    4       12.131540   0.000000
    5       17.297472   0.000000
    6       21.540504   0.000000
    7       27.292122   0.000000
    8       31.002462   0.000000
 