 vasp.6.2.0 18Jan21 (build Aug 12 2022 13:00:08) complex                        
  
 executed on             LinuxIFC date 2024.11.05  06:11:17
 running on    4 total cores
 distrk:  each k-point on    4 cores,    1 groups
 distr:  one band on NCORE=   1 cores,    4 groups


--------------------------------------------------------------------------------------------------------


 INCAR:
   ISTART = 0            (Read existing wavefunction, if there)
   ISPIN = 1            (Non-Spin polarised DFT)
   LREAL = .FALSE.       (Projection operators: automatic)
   LWAVE = .FALSE.        (Write WAVECAR or not)
   LCHARG = .FALSE.        (Write CHGCAR or not)
   ADDGRID = .TRUE.        (Increase grid, helps GGA convergence)
   LASPH = .TRUE.        (Give more accurate total energies and band structure calculations)
   PREC = Accurate      (Accurate strictly avoids any aliasing or wrap around errors)
   ENCUT = 700          (Cut-off energy for plane wave basis set, in eV)
   ISMEAR = 0            (Gaussian smearing, metals:1)
   SIGMA = 0.05         (Smearing value in eV, metals:0.2)
   NELM = 90           (Max electronic SCF steps)
   NELMIN = 6            (Min electronic SCF steps)
   EDIFF = 1E-06        (SCF energy convergence, in eV)
   NSW = 100          (Max ionic steps)
   IBRION = 2            (Algorithm: 0-MD, 1-Quasi-New, 2-CG)
   ISIF = 2            (Stress/relaxation: 2-Ions, 3-Shape/Ions/V, 4-Shape/Ions)
   EDIFFG = -2E-03        (Ionic convergence, eV/AA)
   ISYM = 2              (Symmetry: 0\=none, 2\=GGA, 3\=hybrids)

 POTCAR:    PAW_PBE Si 05Jan2001                  
 POTCAR:    PAW_PBE Si 05Jan2001                  
   VRHFIN =Si: s2p2                                                                                 
   LEXCH  = PE                                                                                      
   EATOM  =   103.0669 eV,    7.5752 Ry                                                             
                                                                                                    
   TITEL  = PAW_PBE Si 05Jan2001                                                                    
   LULTRA =        F    use ultrasoft PP ?                                                          
   IUNSCR =        1    unscreen: 0-lin 1-nonlin 2-no                                               
   RPACOR =    1.500    partial core radius                                                         
   POMASS =   28.085; ZVAL   =    4.000    mass and valenz                                          
   RCORE  =    1.900    outmost cutoff radius                                                       
   RWIGS  =    2.480; RWIGS  =    1.312    wigner-seitz radius (au A)                               
   ENMAX  =  245.345; ENMIN  =  184.009 eV                                                          
   ICORE  =        2    local potential                                                             
   LCOR   =        T    correct aug charges                                                         
   LPAW   =        T    paw PP                                                                      
   EAUG   =  322.069                                                                                
   DEXC   =    0.000                                                                                
   RMAX   =    1.950    core radius for proj-oper                                                   
   RAUG   =    1.300    factor for augmentation sphere                                              
   RDEP   =    1.993    radius for radial grids                                                     
   RDEPT  =    1.837    core radius for aug-charge                                                  
                                                                                                    
   Atomic configuration                                                                             
    6 entries                                                                                       
     n  l   j            E        occ.                                                              
     1  0  0.50     -1785.8828   2.0000                                                             
     2  0  0.50      -139.4969   2.0000                                                             
     2  1  1.50       -95.5546   6.0000                                                             
     3  0  0.50       -10.8127   2.0000                                                             
     3  1  0.50        -4.0811   2.0000                                                             
     3  2  1.50        -4.0817   0.0000                                                             
   Description                                                                                      
     l       E           TYP  RCUT    TYP  RCUT                                                     
     0    -10.8127223     23  1.900                                                                 
     0     -7.6451159     23  1.900                                                                 
     1     -4.0811372     23  1.900                                                                 
     1      2.4879257     23  1.900                                                                 
     2     -4.0817478      7  1.900                                                                 
  local pseudopotential read in
  partial core-charges read in
  partial kinetic energy density read in
  atomic valenz-charges read in
  non local Contribution for L=           0  read in
    real space projection operators read in
  non local Contribution for L=           0  read in
    real space projection operators read in
  non local Contribution for L=           1  read in
    real space projection operators read in
  non local Contribution for L=           1  read in
    real space projection operators read in
    PAW grid and wavefunctions read in
 
   number of l-projection  operators is LMAX  =           4
   number of lm-projection operators is LMMAX =           8
 
  PAW_PBE Si 05Jan2001                  :
 energy of atom  1       EATOM= -103.0669
 kinetic energy error for atom=    0.0003 (will be added to EATOM!!)
 
 
 POSCAR: Si1
  positions in direct lattice
  No initial velocities read in
 exchange correlation table for  LEXCH =        8
   RHO(1)=    0.500       N(1)  =     2000
   RHO(2)=  100.500       N(2)  =     4000
 


--------------------------------------------------------------------------------------------------------


 ion  position               nearest neighbor table
   1  0.000  0.000  0.000-
 
  LATTYP: Found a face centered cubic cell.
 ALAT       =     3.9482772822
  
  Lattice vectors:
  
 A1 = (   2.4178168500,   0.0000000000,   1.3959260400)
 A2 = (   0.8059389500,   2.2795393500,   1.3959260400)
 A3 = (   0.0000000000,   0.0000000000,   2.7918541400)


Analysis of symmetry for initial positions (statically):
=====================================================================
 Subroutine PRICEL returns:
 Original cell was already a primitive cell.
 

 Routine SETGRP: Setting up the symmetry group for a 
 face centered cubic supercell.


 Subroutine GETGRP returns: Found 48 space group operations
 (whereof 48 operations were pure point group operations)
 out of a pool of 48 trial point group operations.


The static configuration has the point symmetry O_h .


Analysis of symmetry for dynamics (positions and initial velocities):
=====================================================================
 Subroutine PRICEL returns:
 Original cell was already a primitive cell.
 

 Routine SETGRP: Setting up the symmetry group for a 
 face centered cubic supercell.


 Subroutine GETGRP returns: Found 48 space group operations
 (whereof 48 operations were pure point group operations)
 out of a pool of 48 trial point group operations.


The dynamic configuration has the point symmetry O_h .


 Subroutine INISYM returns: Found 48 space group operations
 (whereof 48 operations are pure point group operations),
 and found     1 'primitive' translations


----------------------------------------------------------------------------------------

                                     Primitive cell                                     

  volume of cell :      15.3873

  direct lattice vectors                    reciprocal lattice vectors
     2.417816850  0.000000000  1.395926040     0.413596257 -0.146228374  0.000000000
     0.805938950  2.279539350  1.395926040     0.000000000  0.438685123  0.000000000
     0.000000000  0.000000000  2.791854140    -0.206797976 -0.146228266  0.358184901

  length of vectors
     2.791853834  2.791853640  2.791854140     0.438685082  0.438685123  0.438685004

  position of ions in fractional coordinates (direct lattice)
     0.000000000  0.000000000  0.000000000

  ion indices of the primitive-cell ions
   primitive index   ion index
                 1           1

----------------------------------------------------------------------------------------

 
 
 KPOINTS: Automatic                               

Automatic generation of k-mesh.
 Grid dimensions read from file:
 generate k-points for:   15   15   15

 Generating k-lattice:

  Cartesian coordinates                     Fractional coordinates (reciprocal lattice)
     0.027573084 -0.009748558  0.000000000     0.066666667  0.000000000  0.000000000
     0.000000000  0.029245675  0.000000000     0.000000000  0.066666667  0.000000000
    -0.013786532 -0.009748551  0.023878993    -0.000000000  0.000000000  0.066666667

  Length of vectors
     0.029245672  0.029245675  0.029245667

  Shift w.r.t. Gamma in fractional coordinates (k-lattice)
     0.000000000  0.000000000  0.000000000

 
 Subroutine IBZKPT returns following result:
 ===========================================
 
 Found    120 irreducible k-points:
 
 Following reciprocal coordinates:
            Coordinates               Weight
  0.000000  0.000000  0.000000      1.000000
  0.066667 -0.000000  0.000000      8.000000
  0.133333 -0.000000  0.000000      8.000000
  0.200000 -0.000000  0.000000      8.000000
  0.266667 -0.000000  0.000000      8.000000
  0.333333  0.000000  0.000000      8.000000
  0.400000  0.000000  0.000000      8.000000
  0.466667  0.000000  0.000000      8.000000
  0.066667  0.066667  0.000000      6.000000
  0.133333  0.066667  0.000000     24.000000
  0.200000  0.066667  0.000000     24.000000
  0.266667  0.066667  0.000000     24.000000
  0.333333  0.066667  0.000000     24.000000
  0.400000  0.066667  0.000000     24.000000
  0.466667  0.066667  0.000000     24.000000
 -0.466667  0.066667  0.000000     24.000000
 -0.400000  0.066667  0.000000     24.000000
 -0.333333  0.066667  0.000000     24.000000
 -0.266667  0.066667  0.000000     24.000000
 -0.200000  0.066667  0.000000     24.000000
 -0.133333  0.066667  0.000000     24.000000
 -0.066667  0.066667  0.000000     12.000000
  0.133333  0.133333  0.000000      6.000000
  0.200000  0.133333  0.000000     24.000000
  0.266667  0.133333  0.000000     24.000000
  0.333333  0.133333  0.000000     24.000000
  0.400000  0.133333  0.000000     24.000000
  0.466667  0.133333  0.000000     24.000000
 -0.466667  0.133333  0.000000     24.000000
 -0.400000  0.133333  0.000000     24.000000
 -0.333333  0.133333  0.000000     24.000000
 -0.266667  0.133333  0.000000     24.000000
 -0.200000  0.133333  0.000000     24.000000
 -0.133333  0.133333  0.000000     12.000000
  0.200000  0.200000  0.000000      6.000000
  0.266667  0.200000  0.000000     24.000000
  0.333333  0.200000  0.000000     24.000000
  0.400000  0.200000  0.000000     24.000000
  0.466667  0.200000  0.000000     24.000000
 -0.466667  0.200000  0.000000     24.000000
 -0.400000  0.200000  0.000000     24.000000
 -0.333333  0.200000  0.000000     24.000000
 -0.266667  0.200000  0.000000     24.000000
 -0.200000  0.200000  0.000000     12.000000
  0.266667  0.266667  0.000000      6.000000
  0.333333  0.266667  0.000000     24.000000
  0.400000  0.266667  0.000000     24.000000
  0.466667  0.266667  0.000000     24.000000
 -0.466667  0.266667  0.000000     24.000000
 -0.400000  0.266667  0.000000     24.000000
 -0.333333  0.266667  0.000000     24.000000
 -0.266667  0.266667  0.000000     12.000000
  0.333333  0.333333  0.000000      6.000000
  0.400000  0.333333  0.000000     24.000000
  0.466667  0.333333  0.000000     24.000000
 -0.466667  0.333333  0.000000     24.000000
 -0.400000  0.333333  0.000000     24.000000
 -0.333333  0.333333  0.000000     12.000000
  0.400000  0.400000  0.000000      6.000000
  0.466667  0.400000  0.000000     24.000000
 -0.466667  0.400000  0.000000     24.000000
 -0.400000  0.400000  0.000000     12.000000
  0.466667  0.466667  0.000000      6.000000
 -0.466667  0.466667  0.000000     12.000000
  0.200000  0.133333  0.066667     24.000000
  0.266667  0.133333  0.066667     48.000000
  0.333333  0.133333  0.066667     48.000000
  0.400000  0.133333  0.066667     48.000000
  0.466667  0.133333  0.066667     48.000000
 -0.466667  0.133333  0.066667     48.000000
  0.266667  0.200000  0.066667     24.000000
  0.333333  0.200000  0.066667     48.000000
  0.400000  0.200000  0.066667     48.000000
  0.466667  0.200000  0.066667     48.000000
 -0.466667  0.200000  0.066667     48.000000
 -0.400000  0.200000  0.066667     48.000000
 -0.333333  0.200000  0.066667     48.000000
 -0.266667  0.200000  0.066667     48.000000
 -0.200000  0.200000  0.066667     48.000000
 -0.133333  0.200000  0.066667     24.000000
  0.333333  0.266667  0.066667     24.000000
  0.400000  0.266667  0.066667     48.000000
  0.466667  0.266667  0.066667     48.000000
 -0.466667  0.266667  0.066667     48.000000
 -0.400000  0.266667  0.066667     48.000000
 -0.333333  0.266667  0.066667     48.000000
 -0.266667  0.266667  0.066667     48.000000
 -0.200000  0.266667  0.066667     24.000000
  0.400000  0.333333  0.066667     24.000000
  0.466667  0.333333  0.066667     48.000000
 -0.466667  0.333333  0.066667     48.000000
 -0.400000  0.333333  0.066667     48.000000
 -0.333333  0.333333  0.066667     48.000000
 -0.266667  0.333333  0.066667     24.000000
  0.466667  0.400000  0.066667     24.000000
 -0.466667  0.400000  0.066667     48.000000
 -0.400000  0.400000  0.066667     48.000000
 -0.333333  0.400000  0.066667     24.000000
 -0.466667  0.466667  0.066667     24.000000
 -0.400000  0.466667  0.066667     24.000000
  0.400000  0.266667  0.133333     24.000000
  0.466667  0.266667  0.133333     48.000000
 -0.466667  0.266667  0.133333     48.000000
 -0.400000  0.266667  0.133333     48.000000
  0.466667  0.333333  0.133333     24.000000
 -0.466667  0.333333  0.133333     48.000000
 -0.400000  0.333333  0.133333     48.000000
 -0.333333  0.333333  0.133333     48.000000
 -0.266667  0.333333  0.133333     48.000000
 -0.200000  0.333333  0.133333     24.000000
 -0.466667  0.400000  0.133333     24.000000
 -0.400000  0.400000  0.133333     48.000000
 -0.333333  0.400000  0.133333     48.000000
 -0.266667  0.400000  0.133333     24.000000
 -0.400000  0.466667  0.133333     24.000000
 -0.333333  0.466667  0.133333     24.000000
 -0.400000  0.400000  0.200000     24.000000
 -0.333333  0.400000  0.200000     48.000000
 -0.333333  0.466667  0.200000     24.000000
 -0.266667  0.466667  0.200000     24.000000
 
 Following cartesian coordinates:
            Coordinates               Weight
  0.000000  0.000000  0.000000      1.000000
  0.028400 -0.010041  0.000000      8.000000
  0.056801 -0.020082  0.000000      8.000000
  0.085201 -0.030123  0.000000      8.000000
  0.113601 -0.040164  0.000000      8.000000
  0.142001 -0.050205  0.000000      8.000000
  0.170402 -0.060246  0.000000      8.000000
  0.198802 -0.070287  0.000000      8.000000
  0.028400  0.020082  0.000000      6.000000
  0.056801  0.010041  0.000000     24.000000
  0.085201  0.000000  0.000000     24.000000
  0.113601 -0.010041  0.000000     24.000000
  0.142001 -0.020082  0.000000     24.000000
  0.170402 -0.030123  0.000000     24.000000
  0.198802 -0.040164  0.000000     24.000000
 -0.198802  0.100410  0.000000     24.000000
 -0.170402  0.090369  0.000000     24.000000
 -0.142001  0.080328  0.000000     24.000000
 -0.113601  0.070287  0.000000     24.000000
 -0.085201  0.060246  0.000000     24.000000
 -0.056801  0.050205  0.000000     24.000000
 -0.028400  0.040164  0.000000     12.000000
  0.056801  0.040164  0.000000      6.000000
  0.085201  0.030123  0.000000     24.000000
  0.113601  0.020082  0.000000     24.000000
  0.142001  0.010041  0.000000     24.000000
  0.170402  0.000000  0.000000     24.000000
  0.198802 -0.010041  0.000000     24.000000
 -0.198802  0.130533  0.000000     24.000000
 -0.170402  0.120492  0.000000     24.000000
 -0.142001  0.110451  0.000000     24.000000
 -0.113601  0.100410  0.000000     24.000000
 -0.085201  0.090369  0.000000     24.000000
 -0.056801  0.080328  0.000000     12.000000
  0.085201  0.060246  0.000000      6.000000
  0.113601  0.050205  0.000000     24.000000
  0.142001  0.040164  0.000000     24.000000
  0.170402  0.030123  0.000000     24.000000
  0.198802  0.020082  0.000000     24.000000
 -0.198802  0.160656  0.000000     24.000000
 -0.170402  0.150615  0.000000     24.000000
 -0.142001  0.140574  0.000000     24.000000
 -0.113601  0.130533  0.000000     24.000000
 -0.085201  0.120492  0.000000     12.000000
  0.113601  0.080328  0.000000      6.000000
  0.142001  0.070287  0.000000     24.000000
  0.170402  0.060246  0.000000     24.000000
  0.198802  0.050205  0.000000     24.000000
 -0.198802  0.190779  0.000000     24.000000
 -0.170402  0.180738  0.000000     24.000000
 -0.142001  0.170697  0.000000     24.000000
 -0.113601  0.160656  0.000000     12.000000
  0.142001  0.100410  0.000000      6.000000
  0.170402  0.090369  0.000000     24.000000
  0.198802  0.080328  0.000000     24.000000
 -0.198802  0.220902  0.000000     24.000000
 -0.170402  0.210861  0.000000     24.000000
 -0.142001  0.200820  0.000000     12.000000
  0.170402  0.120492  0.000000      6.000000
  0.198802  0.110451  0.000000     24.000000
 -0.198802  0.251025  0.000000     24.000000
 -0.170402  0.240984  0.000000     12.000000
  0.198802  0.140574  0.000000      6.000000
 -0.198802  0.281148  0.000000     12.000000
  0.071001  0.020082  0.024595     24.000000
  0.099401  0.010041  0.024595     48.000000
  0.127801  0.000000  0.024595     48.000000
  0.156202 -0.010041  0.024595     48.000000
  0.184602 -0.020082  0.024595     48.000000
 -0.213002  0.120492  0.024595     48.000000
  0.099401  0.040164  0.024595     24.000000
  0.127801  0.030123  0.024595     48.000000
  0.156202  0.020082  0.024595     48.000000
  0.184602  0.010041  0.024595     48.000000
 -0.213002  0.150615  0.024595     48.000000
 -0.184602  0.140574  0.024595     48.000000
 -0.156202  0.130533  0.024595     48.000000
 -0.127801  0.120492  0.024595     48.000000
 -0.099401  0.110451  0.024595     48.000000
 -0.071001  0.100410  0.024595     24.000000
  0.127801  0.060246  0.024595     24.000000
  0.156202  0.050205  0.024595     48.000000
  0.184602  0.040164  0.024595     48.000000
 -0.213002  0.180738  0.024595     48.000000
 -0.184602  0.170697  0.024595     48.000000
 -0.156202  0.160656  0.024595     48.000000
 -0.127801  0.150615  0.024595     48.000000
 -0.099401  0.140574  0.024595     24.000000
  0.156202  0.080328  0.024595     24.000000
  0.184602  0.070287  0.024595     48.000000
 -0.213002  0.210861  0.024595     48.000000
 -0.184602  0.200820  0.024595     48.000000
 -0.156202  0.190779  0.024595     48.000000
 -0.127801  0.180738  0.024595     24.000000
  0.184602  0.100410  0.024595     24.000000
 -0.213002  0.240984  0.024595     48.000000
 -0.184602  0.230943  0.024595     48.000000
 -0.156202  0.220902  0.024595     24.000000
 -0.213002  0.271107  0.024595     24.000000
 -0.184602  0.261066  0.024595     24.000000
  0.142001  0.040164  0.049191     24.000000
  0.170402  0.030123  0.049191     48.000000
 -0.227202  0.170697  0.049191     48.000000
 -0.198802  0.160656  0.049191     48.000000
  0.170402  0.060246  0.049191     24.000000
 -0.227202  0.200820  0.049191     48.000000
 -0.198802  0.190779  0.049191     48.000000
 -0.170402  0.180738  0.049191     48.000000
 -0.142001  0.170697  0.049191     48.000000
 -0.113601  0.160656  0.049191     24.000000
 -0.227202  0.230943  0.049191     24.000000
 -0.198802  0.220902  0.049191     48.000000
 -0.170402  0.210861  0.049191     48.000000
 -0.142001  0.200820  0.049191     24.000000
 -0.198802  0.251025  0.049191     24.000000
 -0.170402  0.240984  0.049191     24.000000
 -0.213002  0.210861  0.073786     24.000000
 -0.184602  0.200820  0.073786     48.000000
 -0.184602  0.230943  0.073786     24.000000
 -0.156201  0.220902  0.073786     24.000000
 


--------------------------------------------------------------------------------------------------------




 Dimension of arrays:
   k-points           NKPTS =    120   k-points in BZ     NKDIM =    120   number of bands    NBANDS=      8
   number of dos      NEDOS =    301   number of ions     NIONS =      1
   non local maximal  LDIM  =      4   non local SUM 2l+1 LMDIM =      8
   total plane-waves  NPLWV =  13824
   max r-space proj   IRMAX =      1   max aug-charges    IRDMAX= 240475
   dimension x,y,z NGX =    24 NGY =   24 NGZ =   24
   dimension x,y,z NGXF=    48 NGYF=   48 NGZF=   48
   support grid    NGXF=    96 NGYF=   96 NGZF=   96
   ions per type =               1
   NGX,Y,Z   is equivalent  to a cutoff of  14.29, 14.29, 14.29 a.u.
   NGXF,Y,Z  is equivalent  to a cutoff of  28.58, 28.58, 28.58 a.u.

 SYSTEM =  unknown system                          
 POSCAR =  Si1                                     

 Startparameter for this run:
   NWRITE =      2    write-flag & timer
   PREC   = accura    normal or accurate (medium, high low for compatibility)
   ISTART =      0    job   : 0-new  1-cont  2-samecut
   ICHARG =      2    charge: 1-file 2-atom 10-const
   ISPIN  =      1    spin polarized calculation?
   LNONCOLLINEAR =      F non collinear calculations
   LSORBIT =      F    spin-orbit coupling
   INIWAV =      1    electr: 0-lowe 1-rand  2-diag
   LASPH  =      T    aspherical Exc in radial PAW
   METAGGA=      F    non-selfconsistent MetaGGA calc.

 Electronic Relaxation 1
   ENCUT  =  700.0 eV  51.45 Ry    7.17 a.u.   6.02  6.02  6.02*2*pi/ulx,y,z
   ENINI  =  700.0     initial cutoff
   ENAUG  =  322.1 eV  augmentation charge cutoff
   NELM   =     90;   NELMIN=  6; NELMDL= -5     # of ELM steps 
   EDIFF  = 0.1E-05   stopping-criterion for ELM
   LREAL  =      F    real-space projection
   NLSPLINE    = F    spline interpolate recip. space projectors
   LCOMPAT=      F    compatible to vasp.4.4
   GGA_COMPAT  = T    GGA compatible to vasp.4.4-vasp.4.6
   LMAXPAW     = -100 max onsite density
   LMAXMIX     =    2 max onsite mixed and CHGCAR
   VOSKOWN=      0    Vosko Wilk Nusair interpolation
   ROPT   =    0.00000
 Ionic relaxation
   EDIFFG = -.2E-02   stopping-criterion for IOM
   NSW    =    100    number of steps for IOM
   NBLOCK =      1;   KBLOCK =    100    inner block; outer block 
   IBRION =      2    ionic relax: 0-MD 1-quasi-New 2-CG
   NFREE  =      1    steps in history (QN), initial steepest desc. (CG)
   ISIF   =      2    stress and relaxation
   IWAVPR =     11    prediction:  0-non 1-charg 2-wave 3-comb
   ISYM   =      2    0-nonsym 1-usesym 2-fastsym
   LCORR  =      T    Harris-Foulkes like correction to forces

   POTIM  = 0.5000    time-step for ionic-motion
   TEIN   =    0.0    initial temperature
   TEBEG  =    0.0;   TEEND  =   0.0 temperature during run
   SMASS  =  -3.00    Nose mass-parameter (am)
   estimated Nose-frequenzy (Omega)   =  0.10E-29 period in steps = 0.13E+47 mass=  -0.178E-27a.u.
   SCALEE = 1.0000    scale energy and forces
   NPACO  =    256;   APACO  = 16.0  distance and # of slots for P.C.
   PSTRESS=    0.0 pullay stress

  Mass of Ions in am
   POMASS =  28.09
  Ionic Valenz
   ZVAL   =   4.00
  Atomic Wigner-Seitz radii
   RWIGS  =  -1.00
  virtual crystal weights 
   VCA    =   1.00
   NELECT =       4.0000    total number of electrons
   NUPDOWN=      -1.0000    fix difference up-down

 DOS related values:
   EMIN   =  10.00;   EMAX   =-10.00  energy-range for DOS
   EFERMI =   0.00
   ISMEAR =     0;   SIGMA  =   0.05  broadening in eV -4-tet -1-fermi 0-gaus

 Electronic relaxation 2 (details)
   IALGO  =     38    algorithm
   LDIAG  =      T    sub-space diagonalisation (order eigenvalues)
   LSUBROT=      F    optimize rotation matrix (better conditioning)
   TURBO    =      0    0=normal 1=particle mesh
   IRESTART =      0    0=no restart 2=restart with 2 vectors
   NREBOOT  =      0    no. of reboots
   NMIN     =      0    reboot dimension
   EREF     =   0.00    reference energy to select bands
   IMIX   =      4    mixing-type and parameters
     AMIX     =   0.40;   BMIX     =  1.00
     AMIX_MAG =   1.60;   BMIX_MAG =  1.00
     AMIN     =   0.10
     WC   =   100.;   INIMIX=   1;  MIXPRE=   1;  MAXMIX= -45

 Intra band minimization:
   WEIMIN = 0.0010     energy-eigenvalue tresh-hold
   EBREAK =  0.31E-07  absolut break condition
   DEPER  =   0.30     relativ break condition  

   TIME   =   0.40     timestep for ELM

  volume/ion in A,a.u.               =      15.39       103.84
  Fermi-wavevector in a.u.,A,eV,Ry     =   1.044817  1.974419 14.852712  1.091644
  Thomas-Fermi vector in A             =   2.179586
 
 Write flags
   LWAVE        =      F    write WAVECAR
   LDOWNSAMPLE  =      F    k-point downsampling of WAVECAR
   LCHARG       =      F    write CHGCAR
   LVTOT        =      F    write LOCPOT, total local potential
   LVHAR        =      F    write LOCPOT, Hartree potential only
   LELF         =      F    write electronic localiz. function (ELF)
   LORBIT       =      0    0 simple, 1 ext, 2 COOP (PROOUT), +10 PAW based schemes


 Dipole corrections
   LMONO  =      F    monopole corrections only (constant potential shift)
   LDIPOL =      F    correct potential (dipole corrections)
   IDIPOL =      0    1-x, 2-y, 3-z, 4-all directions 
   EPSILON=  1.0000000 bulk dielectric constant

 Exchange correlation treatment:
   GGA     =    --    GGA type
   LEXCH   =     8    internal setting for exchange type
   VOSKOWN=      0    Vosko Wilk Nusair interpolation
   LHFCALC =     F    Hartree Fock is set to
   LHFONE  =     F    Hartree Fock one center treatment
   AEXX    =    0.0000 exact exchange contribution

 Linear response parameters
   LEPSILON=     F    determine dielectric tensor
   LRPA    =     F    only Hartree local field effects (RPA)
   LNABLA  =     F    use nabla operator in PAW spheres
   LVEL    =     F    velocity operator in full k-point grid
   LINTERFAST=   F  fast interpolation
   KINTER  =     0    interpolate to denser k-point grid
   CSHIFT  =0.1000    complex shift for real part using Kramers Kronig
   OMEGAMAX=  -1.0    maximum frequency
   DEG_THRESHOLD= 0.2000000E-02 threshold for treating states as degnerate
   RTIME   =   -0.100 relaxation time in fs
  (WPLASMAI=    0.000 imaginary part of plasma frequency in eV, 0.658/RTIME)
   DFIELD  = 0.0000000 0.0000000 0.0000000 field for delta impulse in time
 
 Orbital magnetization related:
   ORBITALMAG=     F  switch on orbital magnetization
   LCHIMAG   =     F  perturbation theory with respect to B field
   DQ        =  0.001000  dq finite difference perturbation B field
   LLRAUG    =     F  two centre corrections for induced B field



--------------------------------------------------------------------------------------------------------


 conjugate gradient relaxation of ions
 charge density and potential will be updated during run
 non-spin polarized calculation
 Variant of blocked Davidson
 Davidson routine will perform the subspace rotation
 perform sub-space diagonalisation
    after iterative eigenvector-optimisation
 modified Broyden-mixing scheme, WC =      100.0
 initial mixing is a Kerker type mixing with AMIX =  0.4000 and BMIX =      1.0000
 Hartree-type preconditioning will be used
 using additional bands            6
 reciprocal scheme for non local part
 use partial core corrections
 calculate Harris-corrections to forces 
   (improved forces if not selfconsistent)
 use gradient corrections 
 use of overlap-Matrix (Vanderbilt PP)
 Gauss-broadening in eV      SIGMA  =   0.05


--------------------------------------------------------------------------------------------------------


  energy-cutoff  :      700.00
  volume of cell :       15.39
      direct lattice vectors                 reciprocal lattice vectors
     2.417816850  0.000000000  1.395926040     0.413596257 -0.146228374  0.000000000
     0.805938950  2.279539350  1.395926040     0.000000000  0.438685123  0.000000000
     0.000000000  0.000000000  2.791854140    -0.206797976 -0.146228266  0.358184901

  length of vectors
     2.791853834  2.791853640  2.791854140     0.438685082  0.438685123  0.438685004


 
 k-points in units of 2pi/SCALE and weight: Automatic                               
   0.00000000  0.00000000  0.00000000       0.000
   0.02840028 -0.01004102  0.00000000       0.002
   0.05680055 -0.02008203  0.00000000       0.002
   0.08520083 -0.03012305  0.00000000       0.002
   0.11360111 -0.04016406  0.00000000       0.002
   0.14200138 -0.05020508  0.00000000       0.002
   0.17040166 -0.06024609  0.00000000       0.002
   0.19880193 -0.07028711  0.00000000       0.002
   0.02840028  0.02008203  0.00000000       0.002
   0.05680055  0.01004102  0.00000000       0.007
   0.08520083  0.00000000  0.00000000       0.007
   0.11360111 -0.01004102  0.00000000       0.007
   0.14200138 -0.02008203  0.00000000       0.007
   0.17040166 -0.03012305  0.00000000       0.007
   0.19880193 -0.04016406  0.00000000       0.007
  -0.19880193  0.10041015  0.00000000       0.007
  -0.17040166  0.09036914  0.00000000       0.007
  -0.14200138  0.08032812  0.00000000       0.007
  -0.11360111  0.07028711  0.00000000       0.007
  -0.08520083  0.06024609  0.00000000       0.007
  -0.05680055  0.05020508  0.00000000       0.007
  -0.02840028  0.04016406  0.00000000       0.004
   0.05680055  0.04016406  0.00000000       0.002
   0.08520083  0.03012305  0.00000000       0.007
   0.11360111  0.02008203  0.00000000       0.007
   0.14200138  0.01004102  0.00000000       0.007
   0.17040166  0.00000000  0.00000000       0.007
   0.19880193 -0.01004102  0.00000000       0.007
  -0.19880193  0.13053320  0.00000000       0.007
  -0.17040166  0.12049218  0.00000000       0.007
  -0.14200138  0.11045117  0.00000000       0.007
  -0.11360111  0.10041015  0.00000000       0.007
  -0.08520083  0.09036914  0.00000000       0.007
  -0.05680055  0.08032812  0.00000000       0.004
   0.08520083  0.06024609  0.00000000       0.002
   0.11360111  0.05020508  0.00000000       0.007
   0.14200138  0.04016406  0.00000000       0.007
   0.17040166  0.03012305  0.00000000       0.007
   0.19880193  0.02008203  0.00000000       0.007
  -0.19880193  0.16065624  0.00000000       0.007
  -0.17040166  0.15061523  0.00000000       0.007
  -0.14200138  0.14057421  0.00000000       0.007
  -0.11360111  0.13053320  0.00000000       0.007
  -0.08520083  0.12049218  0.00000000       0.004
   0.11360111  0.08032812  0.00000000       0.002
   0.14200138  0.07028711  0.00000000       0.007
   0.17040166  0.06024609  0.00000000       0.007
   0.19880193  0.05020508  0.00000000       0.007
  -0.19880193  0.19077929  0.00000000       0.007
  -0.17040166  0.18073827  0.00000000       0.007
  -0.14200138  0.17069726  0.00000000       0.007
  -0.11360111  0.16065624  0.00000000       0.004
   0.14200138  0.10041015  0.00000000       0.002
   0.17040166  0.09036914  0.00000000       0.007
   0.19880193  0.08032812  0.00000000       0.007
  -0.19880193  0.22090233  0.00000000       0.007
  -0.17040166  0.21086132  0.00000000       0.007
  -0.14200138  0.20082030  0.00000000       0.004
   0.17040166  0.12049218  0.00000000       0.002
   0.19880193  0.11045117  0.00000000       0.007
  -0.19880193  0.25102538  0.00000000       0.007
  -0.17040166  0.24098436  0.00000000       0.004
   0.19880193  0.14057421  0.00000000       0.002
  -0.19880193  0.28114842  0.00000000       0.004
   0.07100070  0.02008204  0.02459536       0.007
   0.09940098  0.01004102  0.02459536       0.014
   0.12780125  0.00000001  0.02459536       0.014
   0.15620153 -0.01004101  0.02459536       0.014
   0.18460181 -0.02008202  0.02459536       0.014
  -0.21300206  0.12049219  0.02459536       0.014
   0.09940098  0.04016407  0.02459536       0.007
   0.12780125  0.03012305  0.02459536       0.014
   0.15620153  0.02008204  0.02459536       0.014
   0.18460181  0.01004102  0.02459536       0.014
  -0.21300206  0.15061523  0.02459536       0.014
  -0.18460179  0.14057422  0.02459536       0.014
  -0.15620151  0.13053320  0.02459536       0.014
  -0.12780123  0.12049219  0.02459536       0.014
  -0.09940096  0.11045117  0.02459536       0.014
  -0.07100068  0.10041016  0.02459536       0.007
   0.12780125  0.06024610  0.02459536       0.007
   0.15620153  0.05020508  0.02459536       0.014
   0.18460181  0.04016407  0.02459536       0.014
  -0.21300206  0.18073828  0.02459536       0.014
  -0.18460179  0.17069726  0.02459536       0.014
  -0.15620151  0.16065625  0.02459536       0.014
  -0.12780123  0.15061523  0.02459536       0.014
  -0.09940096  0.14057422  0.02459536       0.007
   0.15620153  0.08032813  0.02459536       0.007
   0.18460181  0.07028711  0.02459536       0.014
  -0.21300206  0.21086132  0.02459536       0.014
  -0.18460179  0.20082031  0.02459536       0.014
  -0.15620151  0.19077929  0.02459536       0.014
  -0.12780123  0.18073828  0.02459536       0.007
   0.18460181  0.10041016  0.02459536       0.007
  -0.21300206  0.24098437  0.02459536       0.014
  -0.18460179  0.23094335  0.02459536       0.014
  -0.15620151  0.22090234  0.02459536       0.007
  -0.21300206  0.27110741  0.02459536       0.007
  -0.18460179  0.26106640  0.02459536       0.007
   0.14200140  0.04016407  0.04919073       0.007
   0.17040168  0.03012306  0.04919073       0.014
  -0.22720219  0.17069727  0.04919073       0.014
  -0.19880191  0.16065626  0.04919073       0.014
   0.17040168  0.06024611  0.04919073       0.007
  -0.22720219  0.20082032  0.04919073       0.014
  -0.19880191  0.19077930  0.04919073       0.014
  -0.17040164  0.18073829  0.04919073       0.014
  -0.14200136  0.17069727  0.04919073       0.014
  -0.11360108  0.16065626  0.04919073       0.007
  -0.22720219  0.23094336  0.04919073       0.007
  -0.19880191  0.22090235  0.04919073       0.014
  -0.17040164  0.21086133  0.04919073       0.014
  -0.14200136  0.20082032  0.04919073       0.007
  -0.19880191  0.25102539  0.04919073       0.007
  -0.17040164  0.24098438  0.04919073       0.007
  -0.21300204  0.21086134  0.07378609       0.007
  -0.18460176  0.20082032  0.07378609       0.014
  -0.18460176  0.23094337  0.07378609       0.007
  -0.15620149  0.22090235  0.07378609       0.007
 
 k-points in reciprocal lattice and weights: Automatic                               
   0.00000000  0.00000000  0.00000000       0.000
   0.06666667 -0.00000000  0.00000000       0.002
   0.13333333 -0.00000000  0.00000000       0.002
   0.20000000 -0.00000000  0.00000000       0.002
   0.26666667 -0.00000000  0.00000000       0.002
   0.33333333  0.00000000  0.00000000       0.002
   0.40000000  0.00000000  0.00000000       0.002
   0.46666667  0.00000000  0.00000000       0.002
   0.06666667  0.06666667  0.00000000       0.002
   0.13333333  0.06666667  0.00000000       0.007
   0.20000000  0.06666667  0.00000000       0.007
   0.26666667  0.06666667  0.00000000       0.007
   0.33333333  0.06666667  0.00000000       0.007
   0.40000000  0.06666667  0.00000000       0.007
   0.46666667  0.06666667  0.00000000       0.007
  -0.46666667  0.06666667  0.00000000       0.007
  -0.40000000  0.06666667  0.00000000       0.007
  -0.33333333  0.06666667  0.00000000       0.007
  -0.26666667  0.06666667  0.00000000       0.007
  -0.20000000  0.06666667  0.00000000       0.007
  -0.13333333  0.06666667  0.00000000       0.007
  -0.06666667  0.06666667  0.00000000       0.004
   0.13333333  0.13333333  0.00000000       0.002
   0.20000000  0.13333333  0.00000000       0.007
   0.26666667  0.13333333  0.00000000       0.007
   0.33333333  0.13333333  0.00000000       0.007
   0.40000000  0.13333333  0.00000000       0.007
   0.46666667  0.13333333  0.00000000       0.007
  -0.46666667  0.13333333  0.00000000       0.007
  -0.40000000  0.13333333  0.00000000       0.007
  -0.33333333  0.13333333  0.00000000       0.007
  -0.26666667  0.13333333  0.00000000       0.007
  -0.20000000  0.13333333  0.00000000       0.007
  -0.13333333  0.13333333  0.00000000       0.004
   0.20000000  0.20000000  0.00000000       0.002
   0.26666667  0.20000000  0.00000000       0.007
   0.33333333  0.20000000  0.00000000       0.007
   0.40000000  0.20000000  0.00000000       0.007
   0.46666667  0.20000000  0.00000000       0.007
  -0.46666667  0.20000000  0.00000000       0.007
  -0.40000000  0.20000000  0.00000000       0.007
  -0.33333333  0.20000000  0.00000000       0.007
  -0.26666667  0.20000000  0.00000000       0.007
  -0.20000000  0.20000000  0.00000000       0.004
   0.26666667  0.26666667  0.00000000       0.002
   0.33333333  0.26666667  0.00000000       0.007
   0.40000000  0.26666667  0.00000000       0.007
   0.46666667  0.26666667  0.00000000       0.007
  -0.46666667  0.26666667  0.00000000       0.007
  -0.40000000  0.26666667  0.00000000       0.007
  -0.33333333  0.26666667  0.00000000       0.007
  -0.26666667  0.26666667  0.00000000       0.004
   0.33333333  0.33333333  0.00000000       0.002
   0.40000000  0.33333333  0.00000000       0.007
   0.46666667  0.33333333  0.00000000       0.007
  -0.46666667  0.33333333  0.00000000       0.007
  -0.40000000  0.33333333  0.00000000       0.007
  -0.33333333  0.33333333  0.00000000       0.004
   0.40000000  0.40000000  0.00000000       0.002
   0.46666667  0.40000000  0.00000000       0.007
  -0.46666667  0.40000000  0.00000000       0.007
  -0.40000000  0.40000000  0.00000000       0.004
   0.46666667  0.46666667  0.00000000       0.002
  -0.46666667  0.46666667  0.00000000       0.004
   0.20000000  0.13333333  0.06666667       0.007
   0.26666667  0.13333333  0.06666667       0.014
   0.33333333  0.13333333  0.06666667       0.014
   0.40000000  0.13333333  0.06666667       0.014
   0.46666667  0.13333333  0.06666667       0.014
  -0.46666667  0.13333333  0.06666667       0.014
   0.26666667  0.20000000  0.06666667       0.007
   0.33333333  0.20000000  0.06666667       0.014
   0.40000000  0.20000000  0.06666667       0.014
   0.46666667  0.20000000  0.06666667       0.014
  -0.46666667  0.20000000  0.06666667       0.014
  -0.40000000  0.20000000  0.06666667       0.014
  -0.33333333  0.20000000  0.06666667       0.014
  -0.26666667  0.20000000  0.06666667       0.014
  -0.20000000  0.20000000  0.06666667       0.014
  -0.13333333  0.20000000  0.06666667       0.007
   0.33333333  0.26666667  0.06666667       0.007
   0.40000000  0.26666667  0.06666667       0.014
   0.46666667  0.26666667  0.06666667       0.014
  -0.46666667  0.26666667  0.06666667       0.014
  -0.40000000  0.26666667  0.06666667       0.014
  -0.33333333  0.26666667  0.06666667       0.014
  -0.26666667  0.26666667  0.06666667       0.014
  -0.20000000  0.26666667  0.06666667       0.007
   0.40000000  0.33333333  0.06666667       0.007
   0.46666667  0.33333333  0.06666667       0.014
  -0.46666667  0.33333333  0.06666667       0.014
  -0.40000000  0.33333333  0.06666667       0.014
  -0.33333333  0.33333333  0.06666667       0.014
  -0.26666667  0.33333333  0.06666667       0.007
   0.46666667  0.40000000  0.06666667       0.007
  -0.46666667  0.40000000  0.06666667       0.014
  -0.40000000  0.40000000  0.06666667       0.014
  -0.33333333  0.40000000  0.06666667       0.007
  -0.46666667  0.46666667  0.06666667       0.007
  -0.40000000  0.46666667  0.06666667       0.007
   0.40000000  0.26666667  0.13333333       0.007
   0.46666667  0.26666667  0.13333333       0.014
  -0.46666667  0.26666667  0.13333333       0.014
  -0.40000000  0.26666667  0.13333333       0.014
   0.46666667  0.33333333  0.13333333       0.007
  -0.46666667  0.33333333  0.13333333       0.014
  -0.40000000  0.33333333  0.13333333       0.014
  -0.33333333  0.33333333  0.13333333       0.014
  -0.26666667  0.33333333  0.13333333       0.014
  -0.20000000  0.33333333  0.13333333       0.007
  -0.46666667  0.40000000  0.13333333       0.007
  -0.40000000  0.40000000  0.13333333       0.014
  -0.33333333  0.40000000  0.13333333       0.014
  -0.26666667  0.40000000  0.13333333       0.007
  -0.40000000  0.46666667  0.13333333       0.007
  -0.33333333  0.46666667  0.13333333       0.007
  -0.40000000  0.40000000  0.20000000       0.007
  -0.33333333  0.40000000  0.20000000       0.014
  -0.33333333  0.46666667  0.20000000       0.007
  -0.26666667  0.46666667  0.20000000       0.007
 
 position of ions in fractional coordinates (direct lattice) 
   0.00000000  0.00000000  0.00000000
 
 position of ions in cartesian coordinates  (Angst):
   0.00000000  0.00000000  0.00000000
 


--------------------------------------------------------------------------------------------------------


 k-point   1 :   0.0000 0.0000 0.0000  plane waves:     645
 k-point   2 :   0.0667-0.0000 0.0000  plane waves:     633
 k-point   3 :   0.1333-0.0000 0.0000  plane waves:     646
 k-point   4 :   0.2000-0.0000 0.0000  plane waves:     646
 k-point   5 :   0.2667-0.0000 0.0000  plane waves:     640
 k-point   6 :   0.3333 0.0000 0.0000  plane waves:     646
 k-point   7 :   0.4000 0.0000 0.0000  plane waves:     634
 k-point   8 :   0.4667 0.0000 0.0000  plane waves:     634
 k-point   9 :   0.0667 0.0667 0.0000  plane waves:     629
 k-point  10 :   0.1333 0.0667 0.0000  plane waves:     639
 k-point  11 :   0.2000 0.0667 0.0000  plane waves:     645
 k-point  12 :   0.2667 0.0667 0.0000  plane waves:     638
 k-point  13 :   0.3333 0.0667 0.0000  plane waves:     633
 k-point  14 :   0.4000 0.0667 0.0000  plane waves:     639
 k-point  15 :   0.4667 0.0667 0.0000  plane waves:     639
 k-point  16 :  -0.4667 0.0667 0.0000  plane waves:     637
 k-point  17 :  -0.4000 0.0667 0.0000  plane waves:     644
 k-point  18 :  -0.3333 0.0667 0.0000  plane waves:     636
 k-point  19 :  -0.2667 0.0667 0.0000  plane waves:     634
 k-point  20 :  -0.2000 0.0667 0.0000  plane waves:     642
 k-point  21 :  -0.1333 0.0667 0.0000  plane waves:     642
 k-point  22 :  -0.0667 0.0667 0.0000  plane waves:     636
 k-point  23 :   0.1333 0.1333 0.0000  plane waves:     649
 k-point  24 :   0.2000 0.1333 0.0000  plane waves:     643
 k-point  25 :   0.2667 0.1333 0.0000  plane waves:     642
 k-point  26 :   0.3333 0.1333 0.0000  plane waves:     638
 k-point  27 :   0.4000 0.1333 0.0000  plane waves:     638
 k-point  28 :   0.4667 0.1333 0.0000  plane waves:     641
 k-point  29 :  -0.4667 0.1333 0.0000  plane waves:     649
 k-point  30 :  -0.4000 0.1333 0.0000  plane waves:     644
 k-point  31 :  -0.3333 0.1333 0.0000  plane waves:     643
 k-point  32 :  -0.2667 0.1333 0.0000  plane waves:     639
 k-point  33 :  -0.2000 0.1333 0.0000  plane waves:     640
 k-point  34 :  -0.1333 0.1333 0.0000  plane waves:     648
 k-point  35 :   0.2000 0.2000 0.0000  plane waves:     645
 k-point  36 :   0.2667 0.2000 0.0000  plane waves:     644
 k-point  37 :   0.3333 0.2000 0.0000  plane waves:     639
 k-point  38 :   0.4000 0.2000 0.0000  plane waves:     649
 k-point  39 :   0.4667 0.2000 0.0000  plane waves:     643
 k-point  40 :  -0.4667 0.2000 0.0000  plane waves:     649
 k-point  41 :  -0.4000 0.2000 0.0000  plane waves:     648
 k-point  42 :  -0.3333 0.2000 0.0000  plane waves:     643
 k-point  43 :  -0.2667 0.2000 0.0000  plane waves:     643
 k-point  44 :  -0.2000 0.2000 0.0000  plane waves:     642
 k-point  45 :   0.2667 0.2667 0.0000  plane waves:     640
 k-point  46 :   0.3333 0.2667 0.0000  plane waves:     643
 k-point  47 :   0.4000 0.2667 0.0000  plane waves:     650
 k-point  48 :   0.4667 0.2667 0.0000  plane waves:     650
 k-point  49 :  -0.4667 0.2667 0.0000  plane waves:     647
 k-point  50 :  -0.4000 0.2667 0.0000  plane waves:     650
 k-point  51 :  -0.3333 0.2667 0.0000  plane waves:     656
 k-point  52 :  -0.2667 0.2667 0.0000  plane waves:     648
 k-point  53 :   0.3333 0.3333 0.0000  plane waves:     644
 k-point  54 :   0.4000 0.3333 0.0000  plane waves:     650
 k-point  55 :   0.4667 0.3333 0.0000  plane waves:     652
 k-point  56 :  -0.4667 0.3333 0.0000  plane waves:     650
 k-point  57 :  -0.4000 0.3333 0.0000  plane waves:     658
 k-point  58 :  -0.3333 0.3333 0.0000  plane waves:     650
 k-point  59 :   0.4000 0.4000 0.0000  plane waves:     656
 k-point  60 :   0.4667 0.4000 0.0000  plane waves:     652
 k-point  61 :  -0.4667 0.4000 0.0000  plane waves:     652
 k-point  62 :  -0.4000 0.4000 0.0000  plane waves:     648
 k-point  63 :   0.4667 0.4667 0.0000  plane waves:     636
 k-point  64 :  -0.4667 0.4667 0.0000  plane waves:     644
 k-point  65 :   0.2000 0.1333 0.0667  plane waves:     642
 k-point  66 :   0.2667 0.1333 0.0667  plane waves:     639
 k-point  67 :   0.3333 0.1333 0.0667  plane waves:     636
 k-point  68 :   0.4000 0.1333 0.0667  plane waves:     637
 k-point  69 :   0.4667 0.1333 0.0667  plane waves:     640
 k-point  70 :  -0.4667 0.1333 0.0667  plane waves:     643
 k-point  71 :   0.2667 0.2000 0.0667  plane waves:     643
 k-point  72 :   0.3333 0.2000 0.0667  plane waves:     641
 k-point  73 :   0.4000 0.2000 0.0667  plane waves:     638
 k-point  74 :   0.4667 0.2000 0.0667  plane waves:     644
 k-point  75 :  -0.4667 0.2000 0.0667  plane waves:     650
 k-point  76 :  -0.4000 0.2000 0.0667  plane waves:     654
 k-point  77 :  -0.3333 0.2000 0.0667  plane waves:     650
 k-point  78 :  -0.2667 0.2000 0.0667  plane waves:     641
 k-point  79 :  -0.2000 0.2000 0.0667  plane waves:     642
 k-point  80 :  -0.1333 0.2000 0.0667  plane waves:     643
 k-point  81 :   0.3333 0.2667 0.0667  plane waves:     644
 k-point  82 :   0.4000 0.2667 0.0667  plane waves:     646
 k-point  83 :   0.4667 0.2667 0.0667  plane waves:     652
 k-point  84 :  -0.4667 0.2667 0.0667  plane waves:     649
 k-point  85 :  -0.4000 0.2667 0.0667  plane waves:     652
 k-point  86 :  -0.3333 0.2667 0.0667  plane waves:     656
 k-point  87 :  -0.2667 0.2667 0.0667  plane waves:     648
 k-point  88 :  -0.2000 0.2667 0.0667  plane waves:     646
 k-point  89 :   0.4000 0.3333 0.0667  plane waves:     645
 k-point  90 :   0.4667 0.3333 0.0667  plane waves:     650
 k-point  91 :  -0.4667 0.3333 0.0667  plane waves:     654
 k-point  92 :  -0.4000 0.3333 0.0667  plane waves:     652
 k-point  93 :  -0.3333 0.3333 0.0667  plane waves:     657
 k-point  94 :  -0.2667 0.3333 0.0667  plane waves:     657
 k-point  95 :   0.4667 0.4000 0.0667  plane waves:     652
 k-point  96 :  -0.4667 0.4000 0.0667  plane waves:     650
 k-point  97 :  -0.4000 0.4000 0.0667  plane waves:     649
 k-point  98 :  -0.3333 0.4000 0.0667  plane waves:     655
 k-point  99 :  -0.4667 0.4667 0.0667  plane waves:     648
 k-point 100 :  -0.4000 0.4667 0.0667  plane waves:     653
 k-point 101 :   0.4000 0.2667 0.1333  plane waves:     637
 k-point 102 :   0.4667 0.2667 0.1333  plane waves:     649
 k-point 103 :  -0.4667 0.2667 0.1333  plane waves:     651
 k-point 104 :  -0.4000 0.2667 0.1333  plane waves:     654
 k-point 105 :   0.4667 0.3333 0.1333  plane waves:     648
 k-point 106 :  -0.4667 0.3333 0.1333  plane waves:     653
 k-point 107 :  -0.4000 0.3333 0.1333  plane waves:     651
 k-point 108 :  -0.3333 0.3333 0.1333  plane waves:     656
 k-point 109 :  -0.2667 0.3333 0.1333  plane waves:     651
 k-point 110 :  -0.2000 0.3333 0.1333  plane waves:     651
 k-point 111 :  -0.4667 0.4000 0.1333  plane waves:     654
 k-point 112 :  -0.4000 0.4000 0.1333  plane waves:     655
 k-point 113 :  -0.3333 0.4000 0.1333  plane waves:     651
 k-point 114 :  -0.2667 0.4000 0.1333  plane waves:     654
 k-point 115 :  -0.4000 0.4667 0.1333  plane waves:     652
 k-point 116 :  -0.3333 0.4667 0.1333  plane waves:     652
 k-point 117 :  -0.4000 0.4000 0.2000  plane waves:     656
 k-point 118 :  -0.3333 0.4000 0.2000  plane waves:     653
 k-point 119 :  -0.3333 0.4667 0.2000  plane waves:     654
 k-point 120 :  -0.2667 0.4667 0.2000  plane waves:     652

 maximum and minimum number of plane-waves per node :       658      629

 maximum number of plane-waves:       658
 maximum index in each direction: 
   IXMAX=    6   IYMAX=    6   IZMAX=    6
   IXMIN=   -6   IYMIN=   -6   IZMIN=   -6


 serial   3D FFT for wavefunctions
 parallel 3D FFT for charge:
    minimum data exchange during FFTs selected (reduces bandwidth)


 total amount of memory used by VASP MPI-rank0    43750. kBytes
=======================================================================

   base      :      30000. kBytes
   nonl-proj :       5079. kBytes
   fftplans  :       4177. kBytes
   grid      :       1926. kBytes
   one-center:          3. kBytes
   wavefun   :       2565. kBytes
 
     INWAV:  cpu time    0.0000: real time    0.0006
 Broyden mixing: mesh for mixing (old mesh)
   NGX = 13   NGY = 13   NGZ = 13
  (NGX  = 48   NGY  = 48   NGZ  = 48)
  gives a total of   2197 points

 initial charge density was supplied:
 charge density of overlapping atoms calculated
 number of electron       4.0000000 magnetization 
 keeping initial charge density in first step


--------------------------------------------------------------------------------------------------------


 Maximum index for augmentation-charges        58417 (set IRDMAX)


--------------------------------------------------------------------------------------------------------


 First call to EWALD:  gamma=   0.713
 Maximum number of real-space cells 3x 3x 3
 Maximum number of reciprocal cells 3x 3x 3

    FEWALD:  cpu time    0.0020: real time    0.0034


--------------------------------------- Iteration      1(   1)  ---------------------------------------


    POTLOK:  cpu time    0.0310: real time    0.0341
    SETDIJ:  cpu time    0.1870: real time    0.1868
     EDDAV:  cpu time    0.9879: real time    0.9892
       DOS:  cpu time    0.0020: real time    0.0020
    --------------------------------------------
      LOOP:  cpu time    1.2078: real time    1.2124

 eigenvalue-minimisations  :  2008
 total energy-change (2. order) :-0.1665479E+01  (-0.2131261E+03)
 number of electron       4.0000000 magnetization 
 augmentation part        4.0000000 magnetization 

 Free energy of the ion-electron system (eV)
  ---------------------------------------------------
  alpha Z        PSCENC =         2.18771773
  Ewald energy   TEWEN  =      -133.77180863
  -Hartree energ DENC   =        -0.74253683
  -exchange      EXHF   =         0.00000000
  -V(xc)+E(xc)   XCENC  =        -8.96616241
  PAW double counting   =        88.12379961      -70.53051779
  entropy T*S    EENTRO =        -0.00054187
  eigenvalues    EBANDS =        18.96794708
  atomic energy  EATOM  =       103.06662367
  Solvation  Ediel_sol  =         0.00000000
  ---------------------------------------------------
  free energy    TOTEN  =        -1.66547944 eV

  energy without entropy =       -1.66493757  energy(sigma->0) =       -1.66520850


--------------------------------------------------------------------------------------------------------




--------------------------------------- Iteration      1(   2)  ---------------------------------------


     EDDAV:  cpu time    1.3398: real time    1.3576
       DOS:  cpu time    0.0020: real time    0.0022
    --------------------------------------------
      LOOP:  cpu time    1.3418: real time    1.3598

 eigenvalue-minimisations  :  2864
 total energy-change (2. order) :-0.3202815E+01  (-0.3068762E+01)
 number of electron       4.0000000 magnetization 
 augmentation part        4.0000000 magnetization 

 Free energy of the ion-electron system (eV)
  ---------------------------------------------------
  alpha Z        PSCENC =         2.18771773
  Ewald energy   TEWEN  =      -133.77180863
  -Hartree energ DENC   =        -0.74253683
  -exchange      EXHF   =         0.00000000
  -V(xc)+E(xc)   XCENC  =        -8.96616241
  PAW double counting   =        88.12379961      -70.53051779
  entropy T*S    EENTRO =        -0.00105010
  eigenvalues    EBANDS =        15.76564048
  atomic energy  EATOM  =       103.06662367
  Solvation  Ediel_sol  =         0.00000000
  ---------------------------------------------------
  free energy    TOTEN  =        -4.86829427 eV

  energy without entropy =       -4.86724417  energy(sigma->0) =       -4.86776922


--------------------------------------------------------------------------------------------------------




--------------------------------------- Iteration      1(   3)  ---------------------------------------


     EDDAV:  cpu time    1.0868: real time    1.1040
       DOS:  cpu time    0.0020: real time    0.0021
    --------------------------------------------
      LOOP:  cpu time    1.0888: real time    1.1061

 eigenvalue-minimisations  :  2240
 total energy-change (2. order) :-0.2010197E-01  (-0.2000227E-01)
 number of electron       4.0000000 magnetization 
 augmentation part        4.0000000 magnetization 

 Free energy of the ion-electron system (eV)
  ---------------------------------------------------
  alpha Z        PSCENC =         2.18771773
  Ewald energy   TEWEN  =      -133.77180863
  -Hartree energ DENC   =        -0.74253683
  -exchange      EXHF   =         0.00000000
  -V(xc)+E(xc)   XCENC  =        -8.96616241
  PAW double counting   =        88.12379961      -70.53051779
  entropy T*S    EENTRO =        -0.00117451
  eigenvalues    EBANDS =        15.74566292
  atomic energy  EATOM  =       103.06662367
  Solvation  Ediel_sol  =         0.00000000
  ---------------------------------------------------
  free energy    TOTEN  =        -4.88839624 eV

  energy without entropy =       -4.88722173  energy(sigma->0) =       -4.88780899


--------------------------------------------------------------------------------------------------------




--------------------------------------- Iteration      1(   4)  ---------------------------------------


     EDDAV:  cpu time    1.4668: real time    1.4856
       DOS:  cpu time    0.0020: real time    0.0022
    --------------------------------------------
      LOOP:  cpu time    1.4698: real time    1.4877

 eigenvalue-minimisations  :  3144
 total energy-change (2. order) :-0.2287350E-04  (-0.2287280E-04)
 number of electron       4.0000000 magnetization 
 augmentation part        4.0000000 magnetization 

 Free energy of the ion-electron system (eV)
  ---------------------------------------------------
  alpha Z        PSCENC =         2.18771773
  Ewald energy   TEWEN  =      -133.77180863
  -Hartree energ DENC   =        -0.74253683
  -exchange      EXHF   =         0.00000000
  -V(xc)+E(xc)   XCENC  =        -8.96616241
  PAW double counting   =        88.12379961      -70.53051779
  entropy T*S    EENTRO =        -0.00117458
  eigenvalues    EBANDS =        15.74564011
  atomic energy  EATOM  =       103.06662367
  Solvation  Ediel_sol  =         0.00000000
  ---------------------------------------------------
  free energy    TOTEN  =        -4.88841912 eV

  energy without entropy =       -4.88724454  energy(sigma->0) =       -4.88783183


--------------------------------------------------------------------------------------------------------




--------------------------------------- Iteration      1(   5)  ---------------------------------------


     EDDAV:  cpu time    1.0908: real time    1.1074
       DOS:  cpu time    0.0010: real time    0.0020
    CHARGE:  cpu time    0.0850: real time    0.0848
    MIXING:  cpu time    0.0010: real time    0.0015
    --------------------------------------------
      LOOP:  cpu time    1.1768: real time    1.1957

 eigenvalue-minimisations  :  2248
 total energy-change (2. order) :-0.3075797E-08  (-0.4062576E-08)
 number of electron       4.0000000 magnetization 
 augmentation part       -0.2440527 magnetization 

 Broyden mixing:
  rms(total) = 0.23480E+00    rms(broyden)= 0.23480E+00
  rms(prec ) = 0.37057E+00
  weight for this iteration     100.00

 Free energy of the ion-electron system (eV)
  ---------------------------------------------------
  alpha Z        PSCENC =         2.18771773
  Ewald energy   TEWEN  =      -133.77180863
  -Hartree energ DENC   =        -0.74253683
  -exchange      EXHF   =         0.00000000
  -V(xc)+E(xc)   XCENC  =        -8.96616241
  PAW double counting   =        88.12379961      -70.53051779
  entropy T*S    EENTRO =        -0.00117458
  eigenvalues    EBANDS =        15.74564010
  atomic energy  EATOM  =       103.06662367
  Solvation  Ediel_sol  =         0.00000000
  ---------------------------------------------------
  free energy    TOTEN  =        -4.88841912 eV

  energy without entropy =       -4.88724454  energy(sigma->0) =       -4.88783183


--------------------------------------------------------------------------------------------------------




--------------------------------------- Iteration      1(   6)  ---------------------------------------


    POTLOK:  cpu time    0.0320: real time    0.0475
    SETDIJ:  cpu time    0.1740: real time    0.1749
     EDDAV:  cpu time    1.0558: real time    1.0570
       DOS:  cpu time    0.0020: real time    0.0021
    CHARGE:  cpu time    0.0800: real time    0.0808
    MIXING:  cpu time    0.0020: real time    0.0016
    --------------------------------------------
      LOOP:  cpu time    1.3468: real time    1.3639

 eigenvalue-minimisations  :  2168
 total energy-change (2. order) : 0.1171257E-01  (-0.3983754E-03)
 number of electron       4.0000000 magnetization 
 augmentation part       -0.2463003 magnetization 

 Broyden mixing:
  rms(total) = 0.12915E+00    rms(broyden)= 0.12915E+00
  rms(prec ) = 0.21411E+00
  weight for this iteration     100.00

 eigenvalues of (default mixing * dielectric matrix)
  average eigenvalue GAMMA=   2.2094
  2.2094

 Free energy of the ion-electron system (eV)
  ---------------------------------------------------
  alpha Z        PSCENC =         2.18771773
  Ewald energy   TEWEN  =      -133.77180863
  -Hartree energ DENC   =        -0.65252538
  -exchange      EXHF   =         0.00000000
  -V(xc)+E(xc)   XCENC  =        -8.95431122
  PAW double counting   =       154.54003668     -136.94118952
  entropy T*S    EENTRO =        -0.00119047
  eigenvalues    EBANDS =        15.64994059
  atomic energy  EATOM  =       103.06662367
  Solvation  Ediel_sol  =         0.00000000
  ---------------------------------------------------
  free energy    TOTEN  =        -4.87670655 eV

  energy without entropy =       -4.87551608  energy(sigma->0) =       -4.87611131


--------------------------------------------------------------------------------------------------------




--------------------------------------- Iteration      1(   7)  ---------------------------------------


    POTLOK:  cpu time    0.0320: real time    0.0479
    SETDIJ:  cpu time    0.1750: real time    0.1747
     EDDAV:  cpu time    1.0838: real time    1.0852
       DOS:  cpu time    0.0010: real time    0.0022
    CHARGE:  cpu time    0.0820: real time    0.0815
    MIXING:  cpu time    0.0010: real time    0.0015
    --------------------------------------------
      LOOP:  cpu time    1.3748: real time    1.3931

 eigenvalue-minimisations  :  2240
 total energy-change (2. order) : 0.6556096E-02  (-0.7919975E-03)
 number of electron       4.0000000 magnetization 
 augmentation part       -0.2495378 magnetization 

 Broyden mixing:
  rms(total) = 0.12454E-01    rms(broyden)= 0.12454E-01
  rms(prec ) = 0.16276E-01
  weight for this iteration     100.00

 eigenvalues of (default mixing * dielectric matrix)
  average eigenvalue GAMMA=   2.3858
  2.3858  2.3858

 Free energy of the ion-electron system (eV)
  ---------------------------------------------------
  alpha Z        PSCENC =         2.18771773
  Ewald energy   TEWEN  =      -133.77180863
  -Hartree energ DENC   =        -0.55236087
  -exchange      EXHF   =         0.00000000
  -V(xc)+E(xc)   XCENC  =        -8.93293541
  PAW double counting   =       274.65422877     -257.05178911
  entropy T*S    EENTRO =        -0.00119231
  eigenvalues    EBANDS =        15.53136571
  atomic energy  EATOM  =       103.06662367
  Solvation  Ediel_sol  =         0.00000000
  ---------------------------------------------------
  free energy    TOTEN  =        -4.87015045 eV

  energy without entropy =       -4.86895814  energy(sigma->0) =       -4.86955430


--------------------------------------------------------------------------------------------------------




--------------------------------------- Iteration      1(   8)  ---------------------------------------


    POTLOK:  cpu time    0.0320: real time    0.0482
    SETDIJ:  cpu time    0.1750: real time    0.1748
     EDDAV:  cpu time    1.4178: real time    1.4187
       DOS:  cpu time    0.0010: real time    0.0020
    CHARGE:  cpu time    0.0800: real time    0.0808
    MIXING:  cpu time    0.0020: real time    0.0017
    --------------------------------------------
      LOOP:  cpu time    1.7067: real time    1.7261

 eigenvalue-minimisations  :  3032
 total energy-change (2. order) : 0.2610500E-04  (-0.2982971E-05)
 number of electron       4.0000000 magnetization 
 augmentation part       -0.2496186 magnetization 

 Broyden mixing:
  rms(total) = 0.14483E-02    rms(broyden)= 0.14482E-02
  rms(prec ) = 0.21935E-02
  weight for this iteration     100.00

 eigenvalues of (default mixing * dielectric matrix)
  average eigenvalue GAMMA=   2.0207
  1.0194  2.4197  2.6228

 Free energy of the ion-electron system (eV)
  ---------------------------------------------------
  alpha Z        PSCENC =         2.18771773
  Ewald energy   TEWEN  =      -133.77180863
  -Hartree energ DENC   =        -0.55336632
  -exchange      EXHF   =         0.00000000
  -V(xc)+E(xc)   XCENC  =        -8.93016327
  PAW double counting   =       261.82619489     -244.22997307
  entropy T*S    EENTRO =        -0.00119118
  eigenvalues    EBANDS =        15.53584183
  atomic energy  EATOM  =       103.06662367
  Solvation  Ediel_sol  =         0.00000000
  ---------------------------------------------------
  free energy    TOTEN  =        -4.87012435 eV

  energy without entropy =       -4.86893317  energy(sigma->0) =       -4.86952876


--------------------------------------------------------------------------------------------------------




--------------------------------------- Iteration      1(   9)  ---------------------------------------


    POTLOK:  cpu time    0.0320: real time    0.0473
    SETDIJ:  cpu time    0.1740: real time    0.1748
     EDDAV:  cpu time    1.1068: real time    1.1079
       DOS:  cpu time    0.0020: real time    0.0020
    --------------------------------------------
      LOOP:  cpu time    1.3148: real time    1.3320

 eigenvalue-minimisations  :  2280
 total energy-change (2. order) :-0.4758398E-06  (-0.3074884E-07)
 number of electron       4.0000000 magnetization 
 augmentation part       -0.2496186 magnetization 

 Free energy of the ion-electron system (eV)
  ---------------------------------------------------
  alpha Z        PSCENC =         2.18771773
  Ewald energy   TEWEN  =      -133.77180863
  -Hartree energ DENC   =        -0.55329140
  -exchange      EXHF   =         0.00000000
  -V(xc)+E(xc)   XCENC  =        -8.92977107
  PAW double counting   =       260.10600042     -242.51043329
  entropy T*S    EENTRO =        -0.00119099
  eigenvalues    EBANDS =        15.53602874
  atomic energy  EATOM  =       103.06662367
  Solvation  Ediel_sol  =         0.00000000
  ---------------------------------------------------
  free energy    TOTEN  =        -4.87012482 eV

  energy without entropy =       -4.86893383  energy(sigma->0) =       -4.86952933


--------------------------------------------------------------------------------------------------------




 average (electrostatic) potential at core
  the test charge radii are     0.9892
  (the norm of the test charge is              1.0000)
       1 -80.7277
 
 
 
 E-fermi :   9.3616     XC(G=0): -10.9474     alpha+bet :-15.5872

 Fermi energy:         9.3615926386

 k-point     1 :       0.0000    0.0000    0.0000
  band No.  band energies     occupation 
      1      -4.5191      2.00000
      2      19.7894      0.00000
      3      19.7894      0.00000
      4      19.7894      0.00000
      5      21.0703      0.00000
      6      21.0703      0.00000
      7      21.0703      0.00000
      8      26.2683      0.00000

 k-point     2 :       0.0667   -0.0000    0.0000
  band No.  band energies     occupation 
      1      -4.3951      2.00000
      2      17.9565      0.00000
      3      19.2872      0.00000
      4      19.2872      0.00000
      5      21.7193      0.00000
      6      21.7193      0.00000
      7      21.8575      0.00000
      8      26.9958      0.00000

 k-point     3 :       0.1333   -0.0000    0.0000
  band No.  band energies     occupation 
      1      -4.0233      2.00000
      2      15.2871      0.00000
      3      18.5953      0.00000
      4      18.5953      0.00000
      5      22.1060      0.00000
      6      22.7124      0.00000
      7      22.7124      0.00000
      8      26.0298      0.00000

 k-point     4 :       0.2000   -0.0000    0.0000
  band No.  band energies     occupation 
      1      -3.4055      2.00000
      2      12.5860      0.00000
      3      18.0445      0.00000
      4      18.0446      0.00000
      5      22.0256      0.00000
      6      22.9566      0.00000
      7      22.9566      0.00000
      8      25.9806      0.00000

 k-point     5 :       0.2667   -0.0000    0.0000
  band No.  band energies     occupation 
      1      -2.5442      2.00000
      2       9.9979      0.00000
      3      17.6690      0.00000
      4      17.6690      0.00000
      5      21.9145      0.00000
      6      22.1655      0.00000
      7      22.1655      0.00000
      8      27.2918      0.00000

 k-point     6 :       0.3333    0.0000    0.0000
  band No.  band energies     occupation 
      1      -1.4440      2.00000
      2       7.5791      2.00000
      3      17.4611      0.00000
      4      17.4612      0.00000
      5      21.2416      0.00000
      6      21.2416      0.00000
      7      21.8758      0.00000
      8      26.2351      0.00000

 k-point     7 :       0.4000    0.0000    0.0000
  band No.  band energies     occupation 
      1      -0.1141      2.00000
      2       5.3614      2.00000
      3      17.3881      0.00000
      4      17.3881      0.00000
      5      20.5092      0.00000
      6      20.5092      0.00000
      7      21.9215      0.00000
      8      25.3856      0.00000

 k-point     8 :       0.4667    0.0000    0.0000
  band No.  band energies     occupation 
      1       1.3964      2.00000
      2       3.4049      2.00000
      3      17.3863      0.00000
      4      17.3863      0.00000
      5      20.0988      0.00000
      6      20.0988      0.00000
      7      21.9915      0.00000
      8      24.9014      0.00000

 k-point     9 :       0.0667    0.0667    0.0000
  band No.  band energies     occupation 
      1      -4.3537      2.00000
      2      18.3874      0.00000
      3      18.3874      0.00000
      4      19.3876      0.00000
      5      20.2023      0.00000
      6      22.6763      0.00000
      7      22.6763      0.00000
      8      25.9306      0.00000

 k-point    10 :       0.1333    0.0667    0.0000
  band No.  band energies     occupation 
      1      -4.0645      2.00000
      2      16.2432      0.00000
      3      17.5972      0.00000
      4      19.0045      0.00000
      5      20.5135      0.00000
      6      23.3573      0.00000
      7      23.7519      0.00000
      8      24.5412      0.00000

 k-point    11 :       0.2000    0.0667    0.0000
  band No.  band energies     occupation 
      1      -3.5287      2.00000
      2      13.5642      0.00000
      3      16.9895      0.00000
      4      18.4088      0.00000
      5      21.1621      0.00000
      6      23.2040      0.00000
      7      24.0376      0.00000
      8      24.3463      0.00000

 k-point    12 :       0.2667    0.0667    0.0000
  band No.  band energies     occupation 
      1      -2.7486      2.00000
      2      10.9399      0.00000
      3      16.5813      0.00000
      4      17.8933      0.00000
      5      20.7510      0.00000
      6      22.9523      0.00000
      7      23.7812      0.00000
      8      25.0054      0.00000

 k-point    13 :       0.3333    0.0667    0.0000
  band No.  band energies     occupation 
      1      -1.7278      2.00000
      2       8.4651      2.00000
      3      16.3756      0.00000
      4      17.4437      0.00000
      5      19.9872      0.00000
      6      22.8205      0.00000
      7      22.8892      0.00000
      8      26.5357      0.00000

 k-point    14 :       0.4000    0.0667    0.0000
  band No.  band energies     occupation 
      1      -0.4734      2.00000
      2       6.1795      2.00000
      3      16.3686      0.00000
      4      16.9874      0.00000
      5      19.5037      0.00000
      6      21.9232      0.00000
      7      22.8738      0.00000
      8      26.5493      0.00000

 k-point    15 :       0.4667    0.0667    0.0000
  band No.  band energies     occupation 
      1       0.9919      2.00000
      2       4.1211      2.00000
      3      16.5070      0.00000
      4      16.5494      0.00000
      5      19.4335      0.00000
      6      21.2103      0.00000
      7      22.8673      0.00000
      8      26.0621      0.00000

 k-point    16 :      -0.4667    0.0667    0.0000
  band No.  band energies     occupation 
      1       1.9501      2.00000
      2       3.0142      2.00000
      3      16.0780      0.00000
      4      16.8953      0.00000
      5      19.7302      0.00000
      6      20.7377      0.00000
      7      22.8065      0.00000
      8      25.9775      0.00000

 k-point    17 :      -0.4000    0.0667    0.0000
  band No.  band energies     occupation 
      1       0.4839      2.00000
      2       4.7776      2.00000
      3      15.7789      0.00000
      4      17.3634      0.00000
      5      20.3205      0.00000
      6      20.5565      0.00000
      7      22.6920      0.00000
      8      26.3275      0.00000

 k-point    18 :      -0.3333    0.0667    0.0000
  band No.  band energies     occupation 
      1      -0.9168      2.00000
      2       6.9185      2.00000
      3      15.6535      0.00000
      4      17.8871      0.00000
      5      20.7254      0.00000
      6      21.1501      0.00000
      7      22.5964      0.00000
      8      26.9936      0.00000

 k-point    19 :      -0.2667    0.0667    0.0000
  band No.  band energies     occupation 
      1      -2.0945      2.00000
      2       9.2704      1.99013
      3      15.7228      0.00000
      4      18.4090      0.00000
      5      21.2628      0.00000
      6      22.1616      0.00000
      7      22.5718      0.00000
      8      26.5828      0.00000

 k-point    20 :      -0.2000    0.0667    0.0000
  band No.  band energies     occupation 
      1      -3.0356      2.00000
      2      11.8005      0.00000
      3      15.9953      0.00000
      4      18.9346      0.00000
      5      21.9895      0.00000
      6      22.5922      0.00000
      7      23.2302      0.00000
      8      25.0099      0.00000

 k-point    21 :      -0.1333    0.0667    0.0000
  band No.  band energies     occupation 
      1      -3.7347      2.00000
      2      14.4598      0.00000
      3      16.4722      0.00000
      4      19.4869      0.00000
      5      22.0484      0.00000
      6      22.5504      0.00000
      7      23.7624      0.00000
      8      24.6506      0.00000

 k-point    22 :      -0.0667    0.0667    0.0000
  band No.  band energies     occupation 
      1      -4.1884      2.00000
      2      17.0740      0.00000
      3      17.1951      0.00000
      4      19.8499      0.00000
      5      21.3899      0.00000
      6      22.2076      0.00000
      7      23.1190      0.00000
      8      25.7087      0.00000

 k-point    23 :       0.1333    0.1333    0.0000
  band No.  band energies     occupation 
      1      -3.8582      2.00000
      2      16.7338      0.00000
      3      16.7338      0.00000
      4      18.3210      0.00000
      5      18.6321      0.00000
      6      22.8217      0.00000
      7      24.9140      0.00000
      8      24.9140      0.00000

 k-point    24 :       0.2000    0.1333    0.0000
  band No.  band energies     occupation 
      1      -3.4050      2.00000
      2      14.6733      0.00000
      3      16.0588      0.00000
      4      17.6900      0.00000
      5      18.9575      0.00000
      6      21.5563      0.00000
      7      25.6048      0.00000
      8      25.8306      0.00000

 k-point    25 :       0.2667    0.1333    0.0000
  band No.  band energies     occupation 
      1      -2.7070      2.00000
      2      12.0771      0.00000
      3      15.5881      0.00000
      4      16.9640      0.00000
      5      19.0100      0.00000
      6      21.7553      0.00000
      7      25.6328      0.00000
      8      25.7812      0.00000

 k-point    26 :       0.3333    0.1333    0.0000
  band No.  band energies     occupation 
      1      -1.7673      2.00000
      2       9.5669      0.00000
      3      15.3268      0.00000
      4      16.1821      0.00000
      5      18.4737      0.00000
      6      23.0893      0.00000
      7      24.7479      0.00000
      8      25.9526      0.00000

 k-point    27 :       0.4000    0.1333    0.0000
  band No.  band energies     occupation 
      1      -0.5912      2.00000
      2       7.2246      2.00000
      3      15.2754      0.00000
      4      15.3563      0.00000
      5      18.2013      0.00000
      6      23.8182      0.00000
      7      24.2115      0.00000
      8      26.6732      0.00000

 k-point    28 :       0.4667    0.1333    0.0000
  band No.  band energies     occupation 
      1       0.8078      2.00000
      2       5.0892      2.00000
      3      14.5888      0.00000
      4      15.4314      0.00000
      5      18.2638      0.00000
      6      23.0198      0.00000
      7      24.5378      0.00000
      8      28.1922      0.00000

 k-point    29 :      -0.4667    0.1333    0.0000
  band No.  band energies     occupation 
      1       2.2755      2.00000
      2       3.3255      2.00000
      3      13.9636      0.00000
      4      15.7891      0.00000
      5      18.6143      0.00000
      6      22.4118      0.00000
      7      24.4617      0.00000
      8      28.4231      0.00000

 k-point    30 :      -0.4000    0.1333    0.0000
  band No.  band energies     occupation 
      1       1.3148      2.00000
      2       4.4340      2.00000
      3      13.5233      0.00000
      4      16.3371      0.00000
      5      19.2187      0.00000
      6      22.0238      0.00000
      7      24.2651      0.00000
      8      28.6852      0.00000

 k-point    31 :      -0.3333    0.1333    0.0000
  band No.  band energies     occupation 
      1      -0.1490      2.00000
      2       6.4876      2.00000
      3      13.2880      0.00000
      4      17.0541      0.00000
      5      20.0523      0.00000
      6      21.8779      0.00000
      7      24.0681      0.00000
      8      28.1449      0.00000

 k-point    32 :      -0.2667    0.1333    0.0000
  band No.  band energies     occupation 
      1      -1.4016      2.00000
      2       8.7633      2.00000
      3      13.2679      0.00000
      4      17.8990      0.00000
      5      21.0867      0.00000
      6      21.9952      0.00000
      7      23.9036      0.00000
      8      26.0803      0.00000

 k-point    33 :      -0.2000    0.1333    0.0000
  band No.  band energies     occupation 
      1      -2.4208      2.00000
      2      11.2161      0.00000
      3      13.4718      0.00000
      4      18.7892      0.00000
      5      22.2643      0.00000
      6      22.3615      0.00000
      7      23.7043      0.00000
      8      24.3002      0.00000

 k-point    34 :      -0.1333    0.1333    0.0000
  band No.  band energies     occupation 
      1      -3.1997      2.00000
      2      13.6337      0.00000
      3      14.0635      0.00000
      4      19.5208      0.00000
      5      22.3445      0.00000
      6      23.2761      0.00000
      7      23.3968      0.00000
      8      23.6631      0.00000

 k-point    35 :       0.2000    0.2000    0.0000
  band No.  band energies     occupation 
      1      -3.0348      2.00000
      2      15.3147      0.00000
      3      15.3147      0.00000
      4      16.6436      0.00000
      5      17.1252      0.00000
      6      19.9285      0.00000
      7      27.2163      0.00000
      8      27.2163      0.00000

 k-point    36 :       0.2667    0.2000    0.0000
  band No.  band energies     occupation 
      1      -2.4196      2.00000
      2      13.3403      0.00000
      3      14.7753      0.00000
      4      15.6786      0.00000
      5      17.3175      0.00000
      6      19.3966      0.00000
      7      27.5850      0.00000
      8      27.9244      0.00000

 k-point    37 :       0.3333    0.2000    0.0000
  band No.  band energies     occupation 
      1      -1.5621      2.00000
      2      10.8597      0.00000
      3      14.4470      0.00000
      4      14.5691      0.00000
      5      17.2193      0.00000
      6      20.5341      0.00000
      7      26.8578      0.00000
      8      28.0732      0.00000

 k-point    38 :       0.4000    0.2000    0.0000
  band No.  band energies     occupation 
      1      -0.4667      2.00000
      2       8.4833      2.00000
      3      13.4924      0.00000
      4      14.3320      0.00000
      5      17.0689      0.00000
      6      22.3362      0.00000
      7      25.9480      0.00000
      8      27.9953      0.00000

 k-point    39 :       0.4667    0.2000    0.0000
  band No.  band energies     occupation 
      1       0.8577      2.00000
      2       6.2882      2.00000
      3      12.5524      0.00000
      4      14.4296      0.00000
      5      17.1477      0.00000
      6      24.2389      0.00000
      7      25.1141      0.00000
      8      27.9005      0.00000

 k-point    40 :      -0.4667    0.2000    0.0000
  band No.  band energies     occupation 
      1       2.3655      2.00000
      2       4.3411      2.00000
      3      11.7979      0.00000
      4      14.7377      0.00000
      5      17.4740      0.00000
      6      24.4391      0.00000
      7      25.6533      0.00000
      8      28.2575      0.00000

 k-point    41 :      -0.4000    0.2000    0.0000
  band No.  band energies     occupation 
      1       2.3637      2.00000
      2       4.3421      2.00000
      3      11.2520      0.00000
      4      15.2513      0.00000
      5      18.0401      0.00000
      6      23.9588      0.00000
      7      25.9499      0.00000
      8      29.3988      0.00000

[...]
      7      25.2510      0.00000
      8      29.1377      0.00000

 k-point    85 :      -0.4000    0.2667    0.0667
  band No.  band energies     occupation 
      1       3.2462      2.00000
      2       4.2512      2.00000
      3      10.4873      0.00000
      4      13.3050      0.00000
      5      18.5070      0.00000
      6      24.0983      0.00000
      7      26.5083      0.00000
      8      28.5749      0.00000

 k-point    86 :      -0.3333    0.2667    0.0667
  band No.  band energies     occupation 
      1       2.2779      2.00000
      2       5.3625      2.00000
      3      10.0162      0.00000
      4      13.9081      0.00000
      5      19.1229      0.00000
      6      23.7380      0.00000
      7      27.1993      0.00000
      8      28.0897      0.00000

 k-point    87 :      -0.2667    0.2667    0.0667
  band No.  band energies     occupation 
      1       0.8195      2.00000
      2       7.3851      2.00000
      3       9.7791      0.00000
      4      14.7267      0.00000
      5      19.9322      0.00000
      6      23.5180      0.00000
      7      25.4546      0.00000
      8      28.0474      0.00000

 k-point    88 :      -0.2000    0.2667    0.0667
  band No.  band energies     occupation 
      1      -0.4272      2.00000
      2       9.3692      0.82962
      3      10.0198      0.00000
      4      15.7369      0.00000
      5      20.8797      0.00000
      6      23.2065      0.00000
      7      23.8287      0.00000
      8      27.3348      0.00000

 k-point    89 :       0.4000    0.3333    0.0667
  band No.  band energies     occupation 
      1      -0.2608      2.00000
      2      11.2714      0.00000
      3      11.7887      0.00000
      4      12.5270      0.00000
      5      16.7038      0.00000
      6      18.0452      0.00000
      7      28.8426      0.00000
      8      31.3285      0.00000

 k-point    90 :       0.4667    0.3333    0.0667
  band No.  band energies     occupation 
      1       0.8276      2.00000
      2       9.5257      0.00000
      3      10.3866      0.00000
      4      12.0758      0.00000
      5      17.1071      0.00000
      6      19.4326      0.00000
      7      28.0661      0.00000
      8      31.5608      0.00000

 k-point    91 :      -0.4667    0.3333    0.0667
  band No.  band energies     occupation 
      1       2.1431      2.00000
      2       7.4615      2.00000
      3       9.3252      1.69681
      4      12.1315      0.00000
      5      17.2975      0.00000
      6      21.5405      0.00000
      7      27.2921      0.00000
      8      31.0025      0.00000

 k-point    92 :      -0.4000    0.3333    0.0667
  band No.  band energies     occupation 
      1       3.6444      2.00000
      2       5.5530      2.00000
      3       8.5180      2.00000
      4      12.4460      0.00000
      5      17.6562      0.00000
      6      23.8154      0.00000
      7      26.6766      0.00000
      8      29.7751      0.00000

 k-point    93 :      -0.3333    0.3333    0.0667
  band No.  band energies     occupation 
      1       3.6352      2.00000
      2       5.5524      2.00000
      3       7.9602      2.00000
      4      12.9916      0.00000
      5      18.2228      0.00000
      6      25.5980      0.00000
      7      26.6839      0.00000
      8      27.9226      0.00000

 k-point    94 :      -0.2667    0.3333    0.0667
  band No.  band energies     occupation 
      1       2.1336      2.00000
      2       7.1994      2.00000
      3       7.9061      2.00000
      4      13.7567      0.00000
      5      18.9928      0.00000
      6      25.5746      0.00000
      7      25.6380      0.00000
      8      28.5711      0.00000

 k-point    95 :       0.4667    0.4000    0.0667
  band No.  band energies     occupation 
      1       1.5118      2.00000
      2       8.5801      2.00000
      3      11.1804      0.00000
      4      11.7676      0.00000
      5      16.0855      0.00000
      6      17.4238      0.00000
      7      30.3479      0.00000
      8      33.2094      0.00000

 k-point    96 :      -0.4667    0.4000    0.0667
  band No.  band energies     occupation 
      1       2.7440      2.00000
      2       7.4437      2.00000
      3       9.3152      1.81072
      4      11.5721      0.00000
      5      16.6422      0.00000
      6      19.0022      0.00000
      7      29.6689      0.00000
      8      32.4639      0.00000

 k-point    97 :      -0.4000    0.4000    0.0667
  band No.  band energies     occupation 
      1       4.1800      2.00000
      2       6.4346      2.00000
      3       7.4685      2.00000
      4      11.8117      0.00000
      5      16.9915      0.00000
      6      21.2807      0.00000
      7      28.9959      0.00000
      8      30.6598      0.00000

 k-point    98 :      -0.3333    0.4000    0.0667
  band No.  band energies     occupation 
      1       5.1011      2.00000
      2       5.6420      2.00000
      3       6.5458      2.00000
      4      12.2895      0.00000
      5      17.5067      0.00000
      6      23.7340      0.00000
      7      28.4174      0.00000
      8      28.4273      0.00000

 k-point    99 :      -0.4667    0.4667    0.0667
  band No.  band energies     occupation 
      1       3.5682      2.00000
      2       5.9922      2.00000
      3      10.8755      0.00000
      4      11.4439      0.00000
      5      15.7748      0.00000
      6      17.1174      0.00000
      7      31.8068      0.00000
      8      33.2689      0.00000

 k-point   100 :      -0.4000    0.4667    0.0667
  band No.  band energies     occupation 
      1       4.7058      2.00000
      2       5.2366      2.00000
      3       9.1341      2.00000
      4      11.4134      0.00000
      5      16.4873      0.00000
      6      18.8581      0.00000
      7      31.0937      0.00000
      8      31.5559      0.00000

 k-point   101 :       0.4000    0.2667    0.1333
  band No.  band energies     occupation 
      1      -1.2370      2.00000
      2      10.9040      0.00000
      3      11.4472      0.00000
      4      15.1437      0.00000
      5      20.2747      0.00000
      6      21.0078      0.00000
      7      24.5819      0.00000
      8      28.3197      0.00000

 k-point   102 :       0.4667    0.2667    0.1333
  band No.  band energies     occupation 
      1      -0.1434      2.00000
      2       8.7670      2.00000
      3      11.0868      0.00000
      4      14.0003      0.00000
      5      20.4655      0.00000
      6      22.2784      0.00000
      7      23.9051      0.00000
      8      28.8486      0.00000

 k-point   103 :      -0.4667    0.2667    0.1333
  band No.  band energies     occupation 
      1       1.1788      2.00000
      2       6.5923      2.00000
      3      11.1438      0.00000
      4      13.0549      0.00000
      5      20.5120      0.00000
      6      22.3975      0.00000
      7      25.0082      0.00000
      8      28.9031      0.00000

 k-point   104 :      -0.4000    0.2667    0.1333
  band No.  band energies     occupation 
      1       2.6855      2.00000
      2       4.6514      2.00000
      3      11.3417      0.00000
      4      12.4118      0.00000
      5      20.6338      0.00000
      6      21.9654      0.00000
      7      26.9161      0.00000
      8      28.4126      0.00000

 k-point   105 :       0.4667    0.3333    0.1333
  band No.  band energies     occupation 
      1       0.2220      2.00000
      2       9.9820      0.00000
      3      10.4349      0.00000
      4      12.2525      0.00000
      5      19.3912      0.00000
      6      20.2382      0.00000
      7      25.8012      0.00000
      8      30.8966      0.00000

 k-point   106 :      -0.4667    0.3333    0.1333
  band No.  band energies     occupation 
      1       1.4647      2.00000
      2       7.9781      2.00000
      3      10.1439      0.00000
      4      11.2720      0.00000
      5      19.7871      0.00000
      6      21.9000      0.00000
      7      25.0088      0.00000
      8      30.9204      0.00000

 k-point   107 :      -0.4000    0.3333    0.1333
  band No.  band energies     occupation 
      1       2.9187      2.00000
      2       5.9698      2.00000
      3       9.8518      0.00000
      4      10.9359      0.00000
      5      20.0519      0.00000
      6      23.4502      0.00000
      7      24.9498      0.00000
      8      29.4920      0.00000

 k-point   108 :      -0.3333    0.3333    0.1333
  band No.  band energies     occupation 
      1       3.8862      2.00000
      2       4.8602      2.00000
      3       9.3504      1.24858
      4      11.2775      0.00000
      5      20.4821      0.00000
      6      23.3358      0.00000
      7      26.5304      0.00000
      8      27.7123      0.00000

 k-point   109 :      -0.2667    0.3333    0.1333
  band No.  band energies     occupation 
      1       2.4110      2.00000
      2       6.6078      2.00000
      3       8.9883      2.00000
      4      11.9519      0.00000
      5      21.0549      0.00000
      6      23.0236      0.00000
      7      25.0683      0.00000
      8      29.0877      0.00000

 k-point   110 :      -0.2000    0.3333    0.1333
  band No.  band energies     occupation 
      1       1.0227      2.00000
      2       8.4408      2.00000
      3       9.0841      2.00000
      4      12.8708      0.00000
      5      21.6182      0.00000
      6      22.3760      0.00000
      7      23.6663      0.00000
      8      30.2478      0.00000

 k-point   111 :      -0.4667    0.4000    0.1333
  band No.  band energies     occupation 
      1       1.9875      2.00000
      2       8.8571      2.00000
      3       9.3653      0.91687
      4      10.3636      0.00000
      5      18.7920      0.00000
      6      19.7082      0.00000
      7      27.3156      0.00000
      8      32.0926      0.00000

 k-point   112 :      -0.4000    0.4000    0.1333
  band No.  band energies     occupation 
      1       3.3670      2.00000
      2       7.3786      2.00000
      3       8.2535      2.00000
      4      10.1084      0.00000
      5      19.3623      0.00000
      6      21.5703      0.00000
      7      26.5840      0.00000
      8      30.1972      0.00000

 k-point   113 :      -0.3333    0.4000    0.1333
  band No.  band energies     occupation 
      1       4.8432      2.00000
      2       5.7031      2.00000
      3       7.5064      2.00000
      4      10.4552      0.00000
      5      19.7914      0.00000
      6      23.8096      0.00000
      7      26.0213      0.00000
      8      27.9761      0.00000

 k-point   114 :      -0.2667    0.4000    0.1333
  band No.  band energies     occupation 
      1       3.8523      2.00000
      2       6.5770      2.00000
      3       7.2822      2.00000
      4      11.0820      0.00000
      5      20.3803      0.00000
      6      25.0453      0.00000
      7      25.1020      0.00000
      8      27.3169      0.00000

 k-point   115 :      -0.4000    0.4667    0.1333
  band No.  band energies     occupation 
      1       4.0336      2.00000
      2       6.4200      2.00000
      3       9.0564      2.00000
      4       9.8895      0.00000
      5      18.4899      0.00000
      6      19.4379      0.00000
      7      29.0300      0.00000
      8      30.7759      0.00000

 k-point   116 :      -0.3333    0.4667    0.1333
  band No.  band energies     occupation 
      1       5.3301      2.00000
      2       5.7534      2.00000
      3       7.5294      2.00000
      4       9.9057      0.00000
      5      19.2186      0.00000
      6      21.4516      0.00000
      7      28.1886      0.00000
      8      28.6209      0.00000

 k-point   117 :      -0.4000    0.4000    0.2000
  band No.  band energies     occupation 
      1       2.7740      2.00000
      2       7.8204      2.00000
      3       8.3454      2.00000
      4      10.1723      0.00000
      5      21.8023      0.00000
      6      21.9638      0.00000
      7      24.3704      0.00000
      8      29.7118      0.00000

 k-point   118 :      -0.3333    0.4000    0.2000
  band No.  band energies     occupation 
      1       4.2709      2.00000
      2       6.1484      2.00000
      3       8.3238      2.00000
      4       9.4833      0.00057
      5      21.9908      0.00000
      6      23.1618      0.00000
      7      24.7796      0.00000
      8      27.5576      0.00000

 k-point   119 :      -0.3333    0.4667    0.2000
  band No.  band energies     occupation 
      1       4.7938      2.00000
      2       6.9995      2.00000
      3       7.5099      2.00000
      4       8.6358      2.00000
      5      21.5113      0.00000
      6      21.9276      0.00000
      7      25.8642      0.00000
      8      27.9460      0.00000

 k-point   120 :      -0.2667    0.4667    0.2000
  band No.  band energies     occupation 
      1       5.7365      2.00000
      2       6.2656      2.00000
      3       6.9346      2.00000
      4       8.7044      2.00000
      5      22.0846      0.00000
      6      23.8467      0.00000
      7      24.7728      0.00000
      8      26.4259      0.00000


--------------------------------------------------------------------------------------------------------


 soft charge-density along one line, spin component           1
         0         1         2         3         4         5         6         7         8         9
 total charge-density along one line
 
 pseudopotential strength for first ion, spin component:           1
 18.059  25.194   0.000   0.000   0.000   0.000   0.000   0.000
 25.194  35.152   0.000   0.000   0.000   0.000   0.000   0.000
  0.000   0.000   4.108   0.000   0.000   7.654   0.000   0.000
  0.000   0.000   0.000   4.108   0.000   0.000   7.654   0.000
  0.000   0.000   0.000   0.000   4.108   0.000   0.000   7.654
  0.000   0.000   7.654   0.000   0.000  14.270   0.000   0.000
  0.000   0.000   0.000   7.654   0.000   0.000  14.270   0.000
  0.000   0.000   0.000   0.000   7.654   0.000   0.000  14.270
 total augmentation occupancy for first ion, spin component:           1
  4.415  -1.777   0.000   0.000   0.000   0.000   0.000   0.000
 -1.777   1.194   0.000   0.000   0.000   0.000   0.000   0.000
  0.000   0.000   2.097  -0.000  -0.000  -0.478   0.000   0.000
  0.000   0.000  -0.000   2.097  -0.000   0.000  -0.478   0.000
  0.000   0.000  -0.000  -0.000   2.097   0.000   0.000  -0.478
  0.000   0.000  -0.478   0.000   0.000   0.122  -0.000  -0.000
  0.000   0.000   0.000  -0.478   0.000  -0.000   0.122  -0.000
  0.000   0.000   0.000   0.000  -0.478  -0.000  -0.000   0.122


------------------------ aborting loop because EDIFF is reached ----------------------------------------


    CHARGE:  cpu time    0.0810: real time    0.0808
    FORLOC:  cpu time    0.0010: real time    0.0014
    FORNL :  cpu time    0.1330: real time    0.1322
    STRESS:  cpu time    1.0298: real time    1.0294
    FORCOR:  cpu time    0.0300: real time    0.0309
    FORHAR:  cpu time    0.0050: real time    0.0057
    MIXING:  cpu time    0.0010: real time    0.0012
    OFIELD:  cpu time    0.0000: real time    0.0002

  FORCE on cell =-STRESS in cart. coord.  units (eV):
  Direction    XX          YY          ZZ          XY          YZ          ZX
  --------------------------------------------------------------------------------------
  Alpha Z     2.18772     2.18772     2.18772
  Ewald     -44.59061   -44.59060   -44.59060     0.00000     0.00001     0.00001
  Hartree     0.18441     0.18441     0.18441     0.00000     0.00000     0.00000
  E(xc)     -12.50596   -12.50596   -12.50596     0.00000     0.00000     0.00000
  Local      -5.50756    -5.50756    -5.50756     0.00000     0.00000     0.00000
  n-local    36.80050    38.58556    39.85227    -0.31964     0.11621    -0.05197
  augment    -6.36701    -6.36701    -6.36701    -0.00000    -0.00000    -0.00000
  Kinetic    50.38266    26.46223     6.42881    -3.90100     1.98114    -0.25659
  Fock        0.00000     0.00000     0.00000     0.00000     0.00000     0.00000
  -------------------------------------------------------------------------------------
  Total      -0.42833    -0.42833    -0.42833     0.00000     0.00000     0.00000
  in kB     -44.59906   -44.59905   -44.59905     0.00000     0.00001     0.00002
  external pressure =      -44.60 kB  Pullay stress =        0.00 kB


 VOLUME and BASIS-vectors are now :
 -----------------------------------------------------------------------------
  energy-cutoff  :      700.00
  volume of cell :       15.39
      direct lattice vectors                 reciprocal lattice vectors
     2.417816850  0.000000000  1.395926040     0.413596257 -0.146228374  0.000000000
     0.805938950  2.279539350  1.395926040     0.000000000  0.438685123  0.000000000
     0.000000000  0.000000000  2.791854140    -0.206797976 -0.146228266  0.358184901

  length of vectors
     2.791853834  2.791853640  2.791854140     0.438685082  0.438685123  0.438685004


 FORCES acting on ions
    electron-ion (+dipol)            ewald-force                    non-local-force                 convergence-correction
 -----------------------------------------------------------------------------------------------
   -.182E-15 -.230E-15 0.295E-15   -.106E-15 0.736E-16 -.237E-16   -.165E-23 0.000E+00 -.331E-23   -.312E-16 0.247E-16 0.416E-17
 -----------------------------------------------------------------------------------------------
   -.182E-15 -.230E-15 0.295E-15   -.106E-15 0.736E-16 -.237E-16   -.165E-23 0.000E+00 -.331E-23   -.312E-16 0.247E-16 0.416E-17
 
 
 POSITION                                       TOTAL-FORCE (eV/Angst)
 -----------------------------------------------------------------------------------
      0.00000      0.00000      0.00000        -0.000000      0.000000      0.000000
 -----------------------------------------------------------------------------------
    total drift:                               -0.000000     -0.000000      0.000000


--------------------------------------------------------------------------------------------------------



  FREE ENERGIE OF THE ION-ELECTRON SYSTEM (eV)
  ---------------------------------------------------
  free  energy   TOTEN  =        -4.87012482 eV

  energy  without entropy=       -4.86893383  energy(sigma->0) =       -4.86952933
 


--------------------------------------------------------------------------------------------------------


    POTLOK:  cpu time    0.2080: real time    0.2145


--------------------------------------------------------------------------------------------------------




--------------------------------------------------------------------------------------------------------


  
 reached required accuracy - stopping structural energy minimisation
     LOOP+:  cpu time   13.7279: real time   14.0071
    4ORBIT:  cpu time    0.0000: real time    0.0000

 total amount of memory used by VASP MPI-rank0    43750. kBytes
=======================================================================

   base      :      30000. kBytes
   nonl-proj :       5079. kBytes
   fftplans  :       4177. kBytes
   grid      :       1926. kBytes
   one-center:          3. kBytes
   wavefun   :       2565. kBytes
 
  
  
 General timing and accounting informations for this job:
 ========================================================
  
                  Total CPU time used (sec):       14.650
                            User time (sec):       14.334
                          System time (sec):        0.316
                         Elapsed time (sec):       15.592
  
                   Maximum memory used (kb):       84836.
                   Average memory used (kb):          N/A
  
                          Minor page faults:        16555
                          Major page faults:            1
                 Voluntary context switches:        14674
