 running on    4 total cores
 distrk:  each k-point on    4 cores,    1 groups
 distr:  one band on    1 cores,    4 groups
 vasp.6.2.0 18Jan21 (build Aug 12 2022 13:00:08) complex                        
  
 POSCAR found type information on POSCAR Si
 POSCAR found :  1 types and       1 ions
 scaLAPACK will be used
 LDA part: xc-table for Pade appr. of Perdew
 POSCAR, INCAR and KPOINTS ok, starting setup
 FFT: planning ...
 WAVECAR not read
 entering main loop
       N       E                     dE             d eps       ncg     rms          rms(c)
DAV:   1    -0.166547943803E+01   -0.16655E+01   -0.21313E+03  2008   0.495E+02
DAV:   2    -0.486829427044E+01   -0.32028E+01   -0.30688E+01  2864   0.341E+01
DAV:   3    -0.488839624462E+01   -0.20102E-01   -0.20002E-01  2240   0.291E+00
DAV:   4    -0.488841911811E+01   -0.22873E-04   -0.22873E-04  3144   0.107E-01
DAV:   5    -0.488841912119E+01   -0.30758E-08   -0.40626E-08  2248   0.920E-04    0.235E+00
DAV:   6    -0.487670654878E+01    0.11713E-01   -0.39838E-03  2168   0.275E-01    0.129E+00
DAV:   7    -0.487015045234E+01    0.65561E-02   -0.79200E-03  2240   0.386E-01    0.125E-01
DAV:   8    -0.487012434734E+01    0.26105E-04   -0.29830E-05  3032   0.451E-02    0.145E-02
DAV:   9    -0.487012482318E+01   -0.47584E-06   -0.30749E-07  2280   0.326E-03
   1 F= -.48701248E+01 E0= -.48695293E+01  d E =-.487012E+01
 curvature:   0.00 expect dE= 0.000E+00 dE for cont linesearch  0.000E+00
 trial: gam= 0.00000 g(F)=  0.503E-66 g(S)=  0.000E+00 ort = 0.000E+00 (trialstep = 0.100E+01)
 search vector abs. value=  0.100E-09
 reached required accuracy - stopping structural energy minimisation
