unknown system                          
           1
     2.417817    0.000000    1.395926
     0.805939    2.279539    1.395926
     0.000000    0.000000    2.791854
   Si
     1
Direct configuration=     1
   0.00000000  0.00000000  0.00000000
