   1   1   0   0
  0.1408159E+02  0.2710538E-09  0.2710538E-09  0.2710538E-09  0.5000000E-15
  1.000000000000000E-004
  CAR 
 unknown system                          
     37.77510227     -6.17645777  301     10.12103097      1.00000000
     -6.176  0.0000E+00  0.0000E+00
     -6.030  0.0000E+00  0.0000E+00
     -5.883  0.0000E+00  0.0000E+00
     -5.737  0.0000E+00  0.0000E+00
     -5.590  0.0000E+00  0.0000E+00
     -5.444  0.0000E+00  0.0000E+00
     -5.297  0.0000E+00  0.0000E+00
     -5.151  0.0000E+00  0.0000E+00
     -5.004  0.0000E+00  0.0000E+00
     -4.858  0.0000E+00  0.0000E+00
     -4.711  0.0000E+00  0.0000E+00
     -4.565  0.0000E+00  0.0000E+00
     -4.418  0.3188E-14  0.4670E-15
     -4.272  0.2230E-05  0.3268E-06
     -4.125  0.4959E-03  0.7297E-04
     -3.979  0.3805E-04  0.7855E-04
     -3.832  0.1423E-02  0.2870E-03
     -3.686  0.1750E-03  0.3127E-03
     -3.539  0.1335E-02  0.5082E-03
     -3.393  0.2645E-03  0.5470E-03
     -3.246  0.1633E-02  0.7862E-03
     -3.100  0.5001E-03  0.8594E-03
     -2.953  0.2203E-02  0.1182E-02
     -2.807  0.9964E-03  0.1328E-02
     -2.660  0.9741E-03  0.1471E-02
     -2.514  0.6257E-03  0.1563E-02
     -2.367  0.1674E-02  0.1808E-02
     -2.221  0.1526E-02  0.2031E-02
     -2.074  0.2147E-02  0.2346E-02
     -1.928  0.2652E-02  0.2734E-02
     -1.781  0.6046E-03  0.2823E-02
     -1.635  0.9952E-03  0.2969E-02
     -1.488  0.1184E-02  0.3142E-02
     -1.342  0.2548E-02  0.3516E-02
     -1.195  0.1261E-02  0.3700E-02
     -1.049  0.3537E-02  0.4219E-02
     -0.902  0.6734E-03  0.4317E-02
     -0.756  0.2526E-02  0.4687E-02
     -0.609  0.9035E-03  0.4820E-02
     -0.463  0.3895E-02  0.5390E-02
     -0.316  0.7515E-03  0.5500E-02
     -0.170  0.4046E-02  0.6093E-02
     -0.023  0.4412E-03  0.6158E-02
      0.123  0.2759E-02  0.6562E-02
      0.270  0.3934E-03  0.6620E-02
      0.416  0.2805E-02  0.7031E-02
      0.563  0.8161E-03  0.7150E-02
      0.709  0.7171E-02  0.8201E-02
      0.856  0.4939E-03  0.8273E-02
      1.002  0.4312E-02  0.8905E-02
      1.149  0.3514E-03  0.8956E-02
      1.295  0.3381E-02  0.9452E-02
      1.442  0.7559E-03  0.9562E-02
      1.588  0.5642E-02  0.1039E-01
      1.735  0.1473E-03  0.1041E-01
      1.881  0.1460E-02  0.1062E-01
      2.028  0.7784E-03  0.1074E-01
      2.174  0.7205E-02  0.1179E-01
      2.321  0.1722E-02  0.1205E-01
      2.467  0.6282E-02  0.1297E-01
      2.614  0.1180E-02  0.1314E-01
      2.760  0.2032E-02  0.1344E-01
      2.907  0.2293E-02  0.1377E-01
      3.053  0.4103E-02  0.1437E-01
      3.200  0.9148E-03  0.1451E-01
      3.346  0.5485E-02  0.1531E-01
      3.493  0.1923E-02  0.1559E-01
      3.639  0.1884E-02  0.1587E-01
      3.786  0.2576E-02  0.1625E-01
      3.932  0.3935E-02  0.1682E-01
      4.079  0.3609E-02  0.1735E-01
      4.225  0.3746E-02  0.1790E-01
      4.372  0.3157E-02  0.1836E-01
      4.518  0.1574E-02  0.1859E-01
      4.665  0.2067E-02  0.1890E-01
      4.811  0.3938E-02  0.1947E-01
      4.958  0.5434E-02  0.2027E-01
      5.104  0.6204E-02  0.2118E-01
      5.251  0.3434E-02  0.2168E-01
      5.397  0.3047E-02  0.2213E-01
      5.544  0.4750E-03  0.2220E-01
      5.690  0.3102E-02  0.2265E-01
      5.837  0.3460E-02  0.2316E-01
      5.983  0.4540E-02  0.2382E-01
      6.130  0.8380E-03  0.2395E-01
      6.276  0.3976E-02  0.2453E-01
      6.423  0.1856E-02  0.2480E-01
      6.569  0.4163E-02  0.2541E-01
      6.716  0.3621E-02  0.2594E-01
      6.863  0.9200E-02  0.2729E-01
      7.009  0.3581E-02  0.2781E-01
      7.156  0.1590E-02  0.2805E-01
      7.302  0.4395E-02  0.2869E-01
      7.449  0.5202E-02  0.2945E-01
      7.595  0.1810E-02  0.2972E-01
      7.742  0.1578E-02  0.2995E-01
      7.888  0.6632E-02  0.3092E-01
      8.035  0.1178E-02  0.3109E-01
      8.181  0.2036E-02  0.3139E-01
      8.328  0.6779E-02  0.3239E-01
      8.474  0.3559E-02  0.3291E-01
      8.621  0.5555E-02  0.3372E-01
      8.767  0.6022E-02  0.3460E-01
      8.914  0.5544E-04  0.3461E-01
      9.060  0.2754E-02  0.3501E-01
      9.207  0.4393E-02  0.3566E-01
      9.353  0.8883E-02  0.3696E-01
      9.500  0.4958E-03  0.3703E-01
      9.646  0.5179E-02  0.3779E-01
      9.793  0.3205E-02  0.3826E-01
      9.939  0.5741E-02  0.3910E-01
     10.086  0.3756E-02  0.3965E-01
     10.232  0.7063E-02  0.4069E-01
     10.379  0.4059E-02  0.4128E-01
     10.525  0.2975E-02  0.4172E-01
     10.672  0.2025E-03  0.4175E-01
     10.818  0.2933E-02  0.4218E-01
     10.965  0.1012E-01  0.4366E-01
     11.111  0.6202E-02  0.4457E-01
     11.258  0.6636E-02  0.4554E-01
     11.404  0.1115E-02  0.4570E-01
     11.551  0.2126E-02  0.4601E-01
     11.697  0.4482E-02  0.4667E-01
     11.844  0.4452E-02  0.4732E-01
     11.990  0.4105E-02  0.4792E-01
     12.137  0.3193E-02  0.4839E-01
     12.283  0.5296E-02  0.4917E-01
     12.430  0.9091E-02  0.5050E-01
     12.576  0.4877E-02  0.5121E-01
     12.723  0.6851E-02  0.5222E-01
     12.869  0.5389E-02  0.5301E-01
     13.016  0.6128E-02  0.5391E-01
     13.162  0.7849E-03  0.5402E-01
     13.309  0.4739E-02  0.5472E-01
     13.455  0.4166E-02  0.5533E-01
     13.602  0.1280E-01  0.5720E-01
     13.748  0.3028E-02  0.5764E-01
     13.895  0.2443E-02  0.5800E-01
     14.041  0.6678E-02  0.5898E-01
     14.188  0.4149E-02  0.5959E-01
     14.334  0.8128E-02  0.6078E-01
     14.481  0.2518E-03  0.6082E-01
     14.627  0.4831E-02  0.6152E-01
     14.774  0.6743E-02  0.6251E-01
     14.920  0.5773E-02  0.6336E-01
     15.067  0.7008E-02  0.6438E-01
     15.213  0.2240E-02  0.6471E-01
     15.360  0.5650E-02  0.6554E-01
     15.506  0.4694E-02  0.6623E-01
     15.653  0.1403E-02  0.6643E-01
     15.799  0.8361E-02  0.6766E-01
     15.946  0.4045E-02  0.6825E-01
     16.092  0.7806E-02  0.6939E-01
     16.239  0.7296E-03  0.6950E-01
     16.385  0.8140E-02  0.7069E-01
     16.532  0.4138E-02  0.7130E-01
     16.678  0.6788E-02  0.7229E-01
     16.825  0.2785E-02  0.7270E-01
     16.971  0.1346E-02  0.7290E-01
     17.118  0.3273E-02  0.7338E-01
     17.264  0.5916E-02  0.7425E-01
     17.411  0.5735E-02  0.7509E-01
     17.557  0.4701E-02  0.7578E-01
     17.704  0.6828E-02  0.7678E-01
     17.850  0.3937E-02  0.7735E-01
     17.997  0.5747E-02  0.7819E-01
     18.143  0.6726E-02  0.7918E-01
     18.290  0.4488E-02  0.7984E-01
     18.436  0.2063E-02  0.8014E-01
     18.583  0.1124E-01  0.8179E-01
     18.729  0.8480E-02  0.8303E-01
     18.876  0.1569E-02  0.8326E-01
     19.022  0.5380E-02  0.8405E-01
     19.169  0.3751E-02  0.8460E-01
     19.315  0.4520E-02  0.8526E-01
     19.462  0.4374E-02  0.8590E-01
     19.608  0.1957E-02  0.8619E-01
     19.755  0.5675E-02  0.8702E-01
     19.901  0.7471E-02  0.8811E-01
     20.048  0.9637E-02  0.8952E-01
     20.194  0.7846E-02  0.9067E-01
     20.341  0.5148E-02  0.9143E-01
     20.487  0.5869E-02  0.9229E-01
     20.634  0.5076E-02  0.9303E-01
     20.780  0.6527E-02  0.9399E-01
     20.927  0.2743E-02  0.9439E-01
     21.074  0.7144E-02  0.9544E-01
     21.220  0.2525E-02  0.9581E-01
     21.367  0.6511E-02  0.9676E-01
     21.513  0.8975E-02  0.9807E-01
     21.660  0.7751E-02  0.9921E-01
     21.806  0.4915E-02  0.9993E-01
     21.953  0.4603E-02  0.1006E+00
     22.099  0.1312E-02  0.1008E+00
     22.246  0.5501E-02  0.1016E+00
     22.392  0.7637E-02  0.1027E+00
     22.539  0.1043E-01  0.1042E+00
     22.685  0.2009E-02  0.1045E+00
     22.832  0.8659E-02  0.1058E+00
     22.978  0.8036E-02  0.1070E+00
     23.125  0.3555E-02  0.1075E+00
     23.271  0.5624E-02  0.1083E+00
     23.418  0.9626E-02  0.1097E+00
     23.564  0.2386E-02  0.1101E+00
     23.711  0.4376E-02  0.1107E+00
     23.857  0.7963E-02  0.1119E+00
     24.004  0.8163E-02  0.1131E+00
     24.150  0.3475E-02  0.1136E+00
     24.297  0.7264E-02  0.1147E+00
     24.443  0.6647E-02  0.1156E+00
     24.590  0.9344E-02  0.1170E+00
     24.736  0.9556E-02  0.1184E+00
     24.883  0.4962E-02  0.1191E+00
     25.029  0.8435E-02  0.1204E+00
     25.176  0.2453E-02  0.1207E+00
     25.322  0.8616E-02  0.1220E+00
     25.469  0.2122E-02  0.1223E+00
     25.615  0.3531E-02  0.1228E+00
     25.762  0.6522E-02  0.1238E+00
     25.908  0.7078E-02  0.1248E+00
     26.055  0.1308E-01  0.1267E+00
     26.201  0.2958E-02  0.1272E+00
     26.348  0.5522E-02  0.1280E+00
     26.494  0.9761E-02  0.1294E+00
     26.641  0.5179E-02  0.1302E+00
     26.787  0.4911E-02  0.1309E+00
     26.934  0.8434E-02  0.1321E+00
     27.080  0.5859E-02  0.1330E+00
     27.227  0.7998E-02  0.1342E+00
     27.373  0.7806E-02  0.1353E+00
     27.520  0.3636E-02  0.1358E+00
     27.666  0.3695E-02  0.1364E+00
     27.813  0.8832E-02  0.1377E+00
     27.959  0.5032E-02  0.1384E+00
     28.106  0.1363E-02  0.1386E+00
     28.252  0.3096E-02  0.1391E+00
     28.399  0.3269E-02  0.1395E+00
     28.545  0.4834E-02  0.1402E+00
     28.692  0.9818E-02  0.1417E+00
     28.838  0.6935E-02  0.1427E+00
     28.985  0.8167E-02  0.1439E+00
     29.131  0.4600E-02  0.1446E+00
     29.278  0.4870E-02  0.1453E+00
     29.424  0.6994E-02  0.1463E+00
     29.571  0.7084E-02  0.1473E+00
     29.717  0.1141E-03  0.1474E+00
     29.864  0.3317E-02  0.1478E+00
     30.010  0.5057E-02  0.1486E+00
     30.157  0.5980E-02  0.1495E+00
     30.303  0.4733E-02  0.1502E+00
     30.450  0.4459E-02  0.1508E+00
     30.596  0.2723E-02  0.1512E+00
     30.743  0.4102E-02  0.1518E+00
     30.889  0.5136E-02  0.1526E+00
     31.036  0.2183E-02  0.1529E+00
     31.182  0.6070E-02  0.1538E+00
     31.329  0.5623E-02  0.1546E+00
     31.475  0.1053E-03  0.1546E+00
     31.622  0.1660E-02  0.1549E+00
     31.768  0.4735E-02  0.1555E+00
     31.915  0.4137E-05  0.1555E+00
     32.061  0.2310E-05  0.1555E+00
     32.208  0.2657E-02  0.1559E+00
     32.354  0.2228E-02  0.1563E+00
     32.501  0.1921E-02  0.1565E+00
     32.647  0.2363E-02  0.1569E+00
     32.794  0.5178E-02  0.1576E+00
     32.940  0.1057E-03  0.1577E+00
     33.087  0.2390E-02  0.1580E+00
     33.233  0.7532E-03  0.1581E+00
     33.380  0.8243E-07  0.1581E+00
     33.526  0.9278E-03  0.1583E+00
     33.673  0.6719E-03  0.1584E+00
     33.819  0.1843E-03  0.1584E+00
     33.966  0.2999E-02  0.1588E+00
     34.112  0.8478E-03  0.1589E+00
     34.259  0.3964E-02  0.1595E+00
     34.405  0.3894E-05  0.1595E+00
     34.552  0.8918E-08  0.1595E+00
     34.698  0.6421E-03  0.1596E+00
     34.845  0.9576E-03  0.1598E+00
     34.992  0.7888E-07  0.1598E+00
     35.138  0.0000E+00  0.1598E+00
     35.285  0.0000E+00  0.1598E+00
     35.431  0.0000E+00  0.1598E+00
     35.578  0.1279E-10  0.1598E+00
     35.724  0.1055E-03  0.1598E+00
     35.871  0.1488E-02  0.1600E+00
     36.017  0.6691E-05  0.1600E+00
     36.164  0.9563E-14  0.1600E+00
     36.310  0.0000E+00  0.1600E+00
     36.457  0.0000E+00  0.1600E+00
     36.603  0.0000E+00  0.1600E+00
     36.750  0.0000E+00  0.1600E+00
     36.896  0.0000E+00  0.1600E+00
     37.043  0.0000E+00  0.1600E+00
     37.189  0.0000E+00  0.1600E+00
     37.336  0.0000E+00  0.1600E+00
     37.482  0.0000E+00  0.1600E+00
     37.629  0.0000E+00  0.1600E+00
     37.775  0.0000E+00  0.1600E+00
