    1    1  100    1
  0.1408159E+02  0.2710538E-09  0.2710538E-09  0.2710538E-09  0.5000000E-15
  1.000000000000000E-004
  CAR 
 unknown system                          
      4     60      8
 
  0.6250000E-01  0.6250000E-01  0.6250000E-01  0.3906250E-02
    1       -4.178660   1.000000
    2       19.298721   0.000000
    3       20.651906   0.000000
    4       20.651913   0.000000
    5       22.830742   0.000000
    6       22.830750   0.000000
    7       23.066055   0.000000
    8       28.319903   0.000000
 
  0.1875000E+00  0.6250000E-01  0.6250000E-01  0.1171875E-01
    1       -3.573812   1.000000
    2       15.837016   0.000000
    3       17.824129   0.000000
    4       20.907678   0.000000
    5       23.124503   0.000000
    6       23.811723   0.000000
    7       25.048126   0.000000
    8       25.985453   0.000000
 
  0.3125000E+00  0.6250000E-01  0.6250000E-01  0.1171875E-01
    1       -2.070128   1.000000
    2       10.713601   0.000000
    3       17.015015   0.000000
    4       19.856032   0.000000
    5       22.501074   0.000000
    6       23.677893   0.000000
    7       23.845191   0.000000
    8       27.489850   0.000000
 
  0.4375000E+00  0.6250000E-01  0.6250000E-01  0.1171875E-01
    1        0.307344   1.000000
    2        6.190676   1.000000
    3       16.962521   0.000000
    4       18.879589   0.000000
    5       21.518408   0.000000
    6       21.741871   0.000000
    7       23.959733   0.000000
    8       27.648570   0.000000
 
 -0.4375000E+00  0.6250000E-01  0.6250000E-01  0.1171875E-01
    1        2.305150   1.000000
    2        3.650602   1.000000
    3       17.586214   0.000000
    4       17.958237   0.000000
    5       20.587786   0.000000
    6       21.914023   0.000000
    7       24.192937   0.000000
    8       26.981562   0.000000
 
 -0.3125000E+00  0.6250000E-01  0.6250000E-01  0.1171875E-01
    1       -0.579433   1.000000
    2        7.617597   1.000000
    3       17.554747   0.000000
    4       18.513575   0.000000
    5       20.669986   0.000000
    6       23.298092   0.000000
    7       24.164207   0.000000
    8       27.903283   0.000000
 
 -0.1875000E+00  0.6250000E-01  0.6250000E-01  0.1171875E-01
    1       -2.670111   1.000000
    2       12.370928   0.000000
    3       17.862480   0.000000
    4       19.314961   0.000000
    5       22.152262   0.000000
    6       24.232415   0.000000
    7       25.184508   0.000000
    8       26.032594   0.000000
 
 -0.6250000E-01  0.6250000E-01  0.6250000E-01  0.1171875E-01
    1       -3.875993   1.000000
    2       17.594447   0.000000
    3       18.920877   0.000000
    4       20.418455   0.000000
    5       21.715822   0.000000
    6       24.513643   0.000000
    7       24.890573   0.000000
    8       25.988348   0.000000
 
  0.1875000E+00  0.1875000E+00  0.6250000E-01  0.1171875E-01
    1       -3.271928   1.000000
    2       16.025948   0.000000
    3       17.371206   0.000000
    4       19.187009   0.000000
    5       20.248181   0.000000
    6       23.004848   0.000000
    7       26.706724   0.000000
    8       26.978233   0.000000
 
  0.3125000E+00  0.1875000E+00  0.6250000E-01  0.2343750E-01
    1       -2.069376   1.000000
    2       12.864302   0.000000
    3       15.018955   0.000000
    4       18.067053   0.000000
    5       20.150790   0.000000
    6       22.371927   0.000000
    7       26.818235   0.000000
    8       28.182910   0.000000
 
  0.4375000E+00  0.1875000E+00  0.6250000E-01  0.2343750E-01
    1        0.015504   1.000000
    2        8.175746   1.000000
    3       14.681406   0.000000
    4       15.985811   0.000000
    5       19.895366   0.000000
    6       24.600388   0.000000
    7       25.909234   0.000000
    8       28.544117   0.000000
 
 -0.4375000E+00  0.1875000E+00  0.6250000E-01  0.2343750E-01
    1        2.895973   1.000000
    2        4.223513   1.000000
    3       14.223399   0.000000
    4       15.398776   0.000000
    5       20.371232   0.000000
    6       23.365966   0.000000
    7       27.268001   0.000000
    8       30.698808   0.000000
 
 -0.3125000E+00  0.1875000E+00  0.6250000E-01  0.2343750E-01
    1        0.899811   1.000000
    2        6.754781   1.000000
    3       13.485740   0.000000
    4       16.633771   0.000000
    5       21.527542   0.000000
    6       22.790423   0.000000
    7       26.879948   0.000000
    8       29.128953   0.000000
 
 -0.1875000E+00  0.1875000E+00  0.6250000E-01  0.2343750E-01
    1       -1.471324   1.000000
    2       11.218403   0.000000
    3       13.533551   0.000000
    4       18.578914   0.000000
    5       22.433634   0.000000
    6       23.628090   0.000000
    7       24.945947   0.000000
    8       27.140748   0.000000
 
 -0.6250000E-01  0.1875000E+00  0.6250000E-01  0.2343750E-01
    1       -2.970733   1.000000
    2       14.233903   0.000000
    3       16.334013   0.000000
    4       20.174452   0.000000
    5       21.835228   0.000000
    6       23.907699   0.000000
    7       25.704545   0.000000
    8       25.912879   0.000000
 
  0.3125000E+00  0.3125000E+00  0.6250000E-01  0.1171875E-01
    1       -1.171455   1.000000
    2       13.567032   0.000000
    3       14.794613   0.000000
    4       15.011506   0.000000
    5       17.183533   0.000000
    6       19.427573   0.000000
    7       30.232091   0.000000
    8       31.158856   0.000000
 
  0.4375000E+00  0.3125000E+00  0.6250000E-01  0.2343750E-01
    1        0.610190   1.000000
    2       10.881925   0.000000
    3       12.115846   0.000000
    4       13.287554   0.000000
    5       18.120413   0.000000
    6       20.540480   0.000000
    7       29.280598   0.000000
    8       32.661769   0.000000
 
 -0.4375000E+00  0.3125000E+00  0.6250000E-01  0.2343750E-01
    1        3.237584   1.000000
    2        6.742550   1.000000
    3       10.226864   0.001379
    4       13.467981   0.000000
    5       18.547978   0.000000
    6       24.631520   0.000000
    7       27.800647   0.000000
    8       31.658194   0.000000
 
 -0.3125000E+00  0.3125000E+00  0.6250000E-01  0.2343750E-01
    1        3.237993   1.000000
    2        6.702888   1.000000
    3        9.159119   1.000000
    4       14.535138   0.000000
    5       19.662152   0.000000
    6       26.589509   0.000000
    7       28.410487   0.000000
    8       29.317786   0.000000
 
 -0.1875000E+00  0.3125000E+00  0.6250000E-01  0.2343750E-01
    1        0.607567   1.000000
    2        8.689510   1.000000
    3       11.104362   0.000000
    4       16.380042   0.000000
    5       21.464735   0.000000
    6       24.383060   0.000000
    7       26.328369   0.000000
    8       28.931901   0.000000
 
 -0.6250000E-01  0.3125000E+00  0.6250000E-01  0.2343750E-01
    1       -1.173510   1.000000
    2        9.309937   1.000000
    3       15.775247   0.000000
    4       18.631126   0.000000
    5       21.028901   0.000000
    6       23.823560   0.000000
    7       25.286930   0.000000
    8       27.361301   0.000000
 
  0.4375000E+00  0.4375000E+00  0.6250000E-01  0.1171875E-01
    1        2.080496   1.000000
    2        9.058019   1.000000
    3       12.254924   0.000000
    4       13.689946   0.000000
    5       15.703476   0.000000
    6       18.007059   0.000000
    7       33.004285   0.000000
    8       34.707325   0.000000
 
 -0.4375000E+00  0.4375000E+00  0.6250000E-01  0.2343750E-01
    1        4.371189   1.000000
    2        6.820833   1.000000
    3       10.115314   0.564228
    4       12.393873   0.000000
    5       17.274814   0.000000
    6       19.761551   0.000000
    7       32.351991   0.000000
    8       33.875155   0.000000
 
 -0.3125000E+00  0.4375000E+00  0.6250000E-01  0.2343750E-01
    1        5.201434   1.000000
    2        6.419416   1.000000
    3        7.797893   1.000000
    4       13.186737   0.000000
    5       18.275675   0.000000
    6       24.441445   0.000000
    7       29.475239   0.000000
    8       31.142873   0.000000
 
 -0.1875000E+00  0.4375000E+00  0.6250000E-01  0.2343750E-01
    1        3.484016   1.000000
    2        4.790676   1.000000
    3       11.600659   0.000000
    4       14.810741   0.000000
    5       19.908560   0.000000
    6       24.856912   0.000000
    7       28.578072   0.000000
    8       29.913579   0.000000
 
 -0.6250000E-01  0.4375000E+00  0.6250000E-01  0.2343750E-01
    1        1.478772   1.000000
    2        5.046032   1.000000
    3       15.964222   0.000000
    4       17.130382   0.000000
    5       20.941463   0.000000
    6       22.260537   0.000000
    7       25.491298   0.000000
    8       28.795263   0.000000
 
 -0.4375000E+00 -0.4375000E+00  0.6250000E-01  0.1171875E-01
    1        4.084281   1.000000
    2        6.544790   1.000000
    3       11.973261   0.000000
    4       13.425016   0.000000
    5       15.409322   0.000000
    6       17.728138   0.000000
    7       34.137913   0.000000
    8       35.777304   0.000000
 
 -0.3125000E+00 -0.4375000E+00  0.6250000E-01  0.2343750E-01
    1        2.372141   1.000000
    2        9.291917   1.000000
    3       10.431775   0.000000
    4       12.677351   0.000000
    5       17.557674   0.000000
    6       20.022816   0.000000
    7       30.782730   0.000000
    8       34.150363   0.000000
 
 -0.1875000E+00 -0.4375000E+00  0.6250000E-01  0.2343750E-01
    1        1.490319   1.000000
    2        7.318950   1.000000
    3       12.906293   0.000000
    4       14.072546   0.000000
    5       19.090602   0.000000
    6       24.902548   0.000000
    7       26.412675   0.000000
    8       30.406257   0.000000
 
 -0.3125000E+00 -0.3125000E+00  0.6250000E-01  0.1171875E-01
    1        0.315150   1.000000
    2       11.794606   0.000000
    3       12.840721   0.000000
    4       14.219257   0.000000
    5       16.290874   0.000000
    6       18.564862   0.000000
    7       31.615939   0.000000
    8       33.083483   0.000000
 
 -0.1875000E+00 -0.3125000E+00  0.6250000E-01  0.2343750E-01
    1       -0.873776   1.000000
    2       11.750136   0.000000
    3       13.899447   0.000000
    4       15.229026   0.000000
    5       18.967253   0.000000
    6       21.312996   0.000000
    7       27.948731   0.000000
    8       30.573528   0.000000
 
 -0.1875000E+00 -0.1875000E+00  0.6250000E-01  0.1171875E-01
    1       -2.369074   1.000000
    2       14.680326   0.000000
    3       16.064511   0.000000
    4       17.444981   0.000000
    5       18.494815   0.000000
    6       20.752527   0.000000
    7       28.782799   0.000000
    8       28.996519   0.000000
 
  0.1875000E+00  0.1875000E+00  0.1875000E+00  0.3906250E-02
    1       -3.272149   1.000000
    2       14.005368   0.000000
    3       19.357337   0.000000
    4       19.357343   0.000000
    5       23.339944   0.000000
    6       24.287499   0.000000
    7       24.287507   0.000000
    8       27.101185   0.000000
 
  0.3125000E+00  0.1875000E+00  0.1875000E+00  0.1171875E-01
    1       -2.369672   1.000000
    2       12.605399   0.000000
    3       14.854512   0.000000
    4       20.411645   0.000000
    5       23.380427   0.000000
    6       23.860520   0.000000
    7       24.890422   0.000000
    8       25.320520   0.000000
 
  0.4375000E+00  0.1875000E+00  0.1875000E+00  0.1171875E-01
    1       -0.577555   1.000000
    2        9.819742   1.000000
    3       12.203055   0.000000
    4       18.484941   0.000000
    5       21.462737   0.000000
    6       24.544179   0.000000
    7       26.411779   0.000000
    8       26.610724   0.000000
 
 -0.4375000E+00  0.1875000E+00  0.1875000E+00  0.1171875E-01
    1        2.068123   1.000000
    2        5.613836   1.000000
    3       12.428013   0.000000
    4       16.785718   0.000000
    5       19.555865   0.000000
    6       24.683418   0.000000
    7       27.061414   0.000000
    8       30.840925   0.000000
 
 -0.3125000E+00  0.1875000E+00  0.1875000E+00  0.1171875E-01
    1        2.068277   1.000000
    2        5.617597   1.000000
    3       13.497352   0.000000
    4       15.777071   0.000000
    5       18.441300   0.000000
    6       25.625983   0.000000
    7       26.708900   0.000000
    8       29.420536   0.000000
 
 -0.1875000E+00  0.1875000E+00  0.1875000E+00  0.1171875E-01
    1       -0.576835   1.000000
    2        9.857850   1.000000
    3       15.298957   0.000000
    4       15.530633   0.000000
    5       18.202589   0.000000
    6       23.391549   0.000000
    7       27.230548   0.000000
    8       29.176410   0.000000
 
  0.3125000E+00  0.3125000E+00  0.1875000E+00  0.1171875E-01
    1       -1.770302   1.000000
    2       10.982538   0.000000
    3       16.574804   0.000000
    4       17.860350   0.000000
    5       19.729716   0.000000
    6       24.223213   0.000000
    7       26.113665   0.000000
    8       27.045398   0.000000
 
  0.4375000E+00  0.3125000E+00  0.1875000E+00  0.2343750E-01
    1       -0.279808   1.000000
    2       10.095159   0.767848
    3       12.437875   0.000000
    4       15.725087   0.000000
    5       21.484566   0.000000
    6       23.412161   0.000000
    7       25.211556   0.000000
    8       29.782804   0.000000
 
 -0.4375000E+00  0.3125000E+00  0.1875000E+00  0.2343750E-01
    1        2.077269   1.000000
    2        7.836337   1.000000
    3       10.257229   0.000059
    4       13.589484   0.000000
    5       22.411424   0.000000
    6       23.858059   0.000000
    7       25.942119   0.000000
    8       31.186149   0.000000
 
 -0.3125000E+00  0.3125000E+00  0.1875000E+00  0.2343750E-01
    1        4.067100   1.000000
    2        5.357144   1.000000
    3       10.984426   0.000000
    4       12.283161   0.000000
    5       21.293052   0.000000
    6       24.498894   0.000000
    7       27.531771   0.000000
    8       30.106369   0.000000
 
 -0.1875000E+00  0.3125000E+00  0.1875000E+00  0.2343750E-01
    1        1.198755   1.000000
    2        9.243228   1.000000
    3       11.543011   0.000000
    4       12.870426   0.000000
    5       20.723184   0.000000
    6       22.897898   0.000000
    7       26.296566   0.000000
    8       32.174030   0.000000
 
  0.4375000E+00  0.4375000E+00  0.1875000E+00  0.1171875E-01
    1        0.904288   1.000000
    2        9.002994   1.000000
    3       12.430519   0.000000
    4       14.742330   0.000000
    5       17.282158   0.000000
    6       22.693368   0.000000
    7       28.565595   0.000000
    8       31.024876   0.000000
 
 -0.4375000E+00  0.4375000E+00  0.1875000E+00  0.2343750E-01
    1        2.953336   1.000000
    2        8.645261   1.000000
    3        9.893359   1.000000
    4       11.229760   0.000000
    5       20.197585   0.000000
    6       22.471728   0.000000
    7       27.759968   0.000000
    8       32.717382   0.000000
 
 -0.3125000E+00  0.4375000E+00  0.1875000E+00  0.2343750E-01
    1        5.775342   1.000000
    2        6.953839   1.000000
    3        8.232158   1.000000
    4        9.611022   1.000000
    5       22.789865   0.000000
    6       24.657925   0.000000
    7       26.447985   0.000000
    8       28.620995   0.000000
 
 -0.1875000E+00  0.4375000E+00  0.1875000E+00  0.2343750E-01
    1        3.818025   1.000000
    2        7.263778   1.000000
    3        9.620195   1.000000
    4       10.944085   0.000000
    5       22.907264   0.000000
    6       24.122104   0.000000
    7       25.768154   0.000000
    8       30.302708   0.000000
 
 -0.4375000E+00 -0.4375000E+00  0.1875000E+00  0.1171875E-01
    1        4.654786   1.000000
    2        7.049579   1.000000
    3        8.271770   1.000000
    4       13.950715   0.000000
    5       16.401101   0.000000
    6       21.962784   0.000000
    7       31.656144   0.000000
    8       33.519312   0.000000
 
 -0.3125000E+00 -0.4375000E+00  0.1875000E+00  0.2343750E-01
    1        4.941614   1.000000
    2        7.332055   1.000000
    3        8.485553   1.000000
    4       10.884959   0.000000
    5       19.931328   0.000000
    6       22.245727   0.000000
    7       29.444187   0.000000
    8       31.263812   0.000000
 
 -0.3125000E+00 -0.3125000E+00  0.1875000E+00  0.1171875E-01
    1        2.662134   1.000000
    2        8.394404   1.000000
    3        9.715616   1.000000
    4       14.214921   0.000000
    5       16.693600   0.000000
    6       22.210109   0.000000
    7       30.090811   0.000000
    8       32.524198   0.000000
 
  0.3125000E+00  0.3125000E+00  0.3125000E+00  0.3906250E-02
    1       -1.472438   1.000000
    2        9.035493   1.000000
    3       18.732601   0.000000
    4       18.732606   0.000000
    5       22.622260   0.000000
    6       22.622266   0.000000
    7       23.201303   0.000000
    8       27.793789   0.000000
 
  0.4375000E+00  0.3125000E+00  0.3125000E+00  0.1171875E-01
    1       -0.281864   1.000000
    2        7.895365   1.000000
    3       14.549442   0.000000
    4       18.663886   0.000000
    5       21.618680   0.000000
    6       22.794668   0.000000
    7       25.221524   0.000000
    8       28.896596   0.000000
 
 -0.4375000E+00  0.3125000E+00  0.3125000E+00  0.1171875E-01
    1        1.783443   1.000000
    2        7.555259   1.000000
    3       10.001486   0.999639
    4       16.534975   0.000000
    5       19.306548   0.000000
    6       26.476750   0.000000
    7       28.344291   0.000000
    8       28.651798   0.000000
 
 -0.3125000E+00  0.3125000E+00  0.3125000E+00  0.1171875E-01
    1        4.648637   1.000000
    2        5.874355   1.000000
    3        8.323552   1.000000
    4       14.995085   0.000000
    5       17.603181   0.000000
    6       26.797774   0.000000
    7       28.905625   0.000000
    8       30.903188   0.000000
 
  0.4375000E+00  0.4375000E+00  0.3125000E+00  0.1171875E-01
    1        0.604012   1.000000
    2        6.474849   1.000000
    3       16.278729   0.000000
    4       16.550269   0.000000
    5       19.297728   0.000000
    6       24.321663   0.000000
    7       25.817256   0.000000
    8       29.040835   0.000000
 
 -0.4375000E+00  0.4375000E+00  0.3125000E+00  0.2343750E-01
    1        2.361921   1.000000
    2        5.898789   1.000000
    3       12.612275   0.000000
    4       13.917162   0.000000
    5       21.643188   0.000000
    6       23.170873   0.000000
    7       27.717795   0.000000
    8       29.997317   0.000000
 
 -0.3125000E+00  0.4375000E+00  0.3125000E+00  0.2343750E-01
    1        4.936918   1.000000
    2        6.155917   1.000000
    3        8.586079   1.000000
    4       11.945394   0.000000
    5       21.070521   0.000000
    6       26.019461   0.000000
    7       27.234944   0.000000
    8       28.821566   0.000000
 
 -0.4375000E+00 -0.4375000E+00  0.3125000E+00  0.1171875E-01
    1        3.774889   1.000000
    2        5.076299   1.000000
    3       10.785439   0.000000
    4       15.256591   0.000000
    5       17.883203   0.000000
    6       26.851163   0.000000
    7       27.184978   0.000000
    8       30.185981   0.000000
 
  0.4375000E+00  0.4375000E+00  0.4375000E+00  0.3906250E-02
    1        1.183064   1.000000
    2        4.759300   1.000000
    3       18.659335   0.000000
    4       18.659338   0.000000
    5       21.212288   0.000000
    6       21.212296   0.000000
    7       23.359045   0.000000
    8       26.175975   0.000000
 
 -0.4375000E+00  0.4375000E+00  0.4375000E+00  0.1171875E-01
    1        2.601048   1.000000
    2        3.937178   1.000000
    3       15.054994   0.000000
    4       17.274607   0.000000
    5       20.021159   0.000000
    6       23.136546   0.000000
    7       25.629899   0.000000
    8       29.442716   0.000000
