unknown system                          
           1
     2.347395    0.000000    1.355268
     0.782465    2.213145    1.355268
     0.000000    0.000000    2.710538
   Si
     1
Direct configuration=     1
   0.00000000  0.00000000  0.00000000
unknown system                          
           1
     2.374265   -0.000000    1.370781
     0.791422    2.238478    1.370781
    -0.000000   -0.000000    2.741564
   Si
     1
Direct configuration=     2
   0.00000000  0.00000000 -0.00000000
unknown system                          
           1
     2.370562   -0.000000    1.368644
     0.790187    2.234987    1.368644
    -0.000000   -0.000000    2.737289
   Si
     1
Direct configuration=     3
   0.00000000  0.00000000 -0.00000000
