unknown system                          
   1.00000000000000     
     2.802152   -0.000000    0.000000
     0.000000    2.802152    0.000000
    -0.000000   -0.000000    2.802152
   Fe
     2
Direct
  0.000000  0.000000  0.000000
  0.500000  0.500000  0.500000
 
   48   48   48
  199.03      196.22      188.01      175.04      158.29      138.98      118.40      97.789      78.254      60.648    
  45.552      33.268      23.830      17.047      12.547      9.8312      8.3376      7.4840      6.8458      6.3510    
  5.9928      5.7476      5.5921      5.5069      5.4799      5.5069      5.5921      5.7476      5.9928      6.3510    
  6.8458      7.4840      8.3376      9.8312      12.547      17.047      23.830      33.268      45.552      60.648    
  78.254      97.789      118.40      138.98      158.29      175.04      188.01      196.22      196.22      193.45    
  185.37      172.61      156.12      137.10      116.82      96.505      77.240      59.871      44.978      32.859    
  23.555      16.874      12.449      9.7827      8.3175      7.4738      6.8384      6.3467      5.9905      5.7469    
  5.5922      5.5077      5.4807      5.5077      5.5922      5.7469      5.9905      6.3467      6.8384      7.4738    
  8.3175      9.7827      12.449      16.874      23.555      32.859      44.978      59.871      77.240      96.505    
  116.82      137.10      156.12      172.61      185.37      193.45      188.01      185.37      177.67      165.50    
  149.77      131.60      112.19      92.735      74.259      57.588      43.288      31.660      22.747      16.367    
  12.162      9.6426      8.2593      7.4430      6.8163      6.3338      5.9839      5.7451      5.5928      5.5098    
  5.4830      5.5098      5.5928      5.7451      5.9839      6.3338      6.8163      7.4430      8.2593      9.6426    
  12.162      16.367      22.747      31.660      43.288      57.588      74.259      92.735      112.19      131.60    
  149.77      165.50      177.67      185.37      175.04      172.61      165.50      154.26      139.70      122.86    
  104.84      86.728      69.501      53.938      40.589      29.747      21.464      15.569      11.716      9.4271    
  8.1689      7.3916      6.7796      6.3125      5.9730      5.7420      5.5937      5.5133      5.4868      5.5133    
  5.5937      5.7420      5.9730      6.3125      6.7796      7.3916      8.1689      9.4271      11.716      15.569    
  21.464      29.747      40.589      53.938      69.501      86.728      104.84      122.86      139.70      154.26    
  165.50      172.61      158.29      156.12      149.77      139.70      126.65      111.50      95.247      78.874    
  63.268      49.154      37.054      27.252      19.803      14.548      11.154      9.1608      8.0529      7.3187    
  6.7290      6.2829      5.9582      5.7375      5.5950      5.5178      5.4921      5.5178      5.5950      5.7375    
  5.9582      6.2829      6.7290      7.3187      8.0529      9.1608      11.154      14.548      19.803      27.252    
  37.054      49.154      63.268      78.874      95.247      111.50      126.65      139.70      149.77      156.12    
  138.98      137.10      131.60      122.86      111.50      98.278      84.053      69.683      55.960      43.545    
  32.919      24.350      17.893      13.393      10.532      8.8715      7.9162      7.2239      6.6659      6.2455    
  5.9402      5.7316      5.5968      5.5229      5.4986      5.5229      5.5968      5.7316      5.9402      6.2455    
  6.6659      7.2239      7.9162      8.8715      10.532      13.393      17.893      24.350      32.919      43.545    
  55.960      69.683      84.053      98.278      111.50      122.86      131.60      137.10      118.40      116.82    
  112.19      104.84      95.247      84.053      71.972      59.740      48.047      37.480      28.469      21.257    
  15.886      12.207      9.9093      8.5829      7.7592      7.1089      6.5920      6.2014      5.9195      5.7243    
  5.5987      5.5283      5.5060      5.5283      5.5987      5.7243      5.9195      6.2014      6.5920      7.1089    
  7.7592      8.5829      9.9093      12.207      15.886      21.257      28.469      37.480      48.047      59.740    
  71.972      84.053      95.247      104.84      112.19      116.82      97.789      96.505      92.735      86.728    
  78.874      69.683      59.740      49.661      40.032      31.359      24.013      18.201      13.944      11.089    
  9.3383      8.3056      7.5789      6.9786      6.5088      6.1527      5.8960      5.7162      5.6002      5.5341    
  5.5135      5.5341      5.6002      5.7162      5.8960      6.1527      6.5088      6.9786      7.5789      8.3056    
  9.3383      11.089      13.944      18.201      24.013      31.359      40.032      49.661      59.740      69.683    
  78.874      86.728      92.735      96.505      78.254      77.240      74.259      69.501      63.268      55.960    
  48.047      40.032      32.400      25.571      19.851      15.399      12.208      10.119      8.8482      8.0318    
  7.3770      6.8390      6.4185      6.1013      5.8699      5.7075      5.6006      5.5400      5.5202      5.5400    
  5.6006      5.7075      5.8699      6.1013      6.4185      6.8390      7.3770      8.0318      8.8482      10.119    
  12.208      15.399      19.851      25.571      32.400      40.032      48.047      55.960      63.268      69.501    
  74.259      77.240      60.648      59.871      57.588      53.938      49.154      43.545      37.480      31.359    
  25.571      20.449      16.231      13.019      10.779      9.3393      8.4309      7.7464      7.1640      6.6939    
  6.3255      6.0479      5.8426      5.6976      5.6001      5.5449      5.5263      5.5449      5.6001      5.6976    
  5.8426      6.0479      6.3255      6.6939      7.1640      7.7464      8.4309      9.3393      10.779      13.019    
  16.231      20.449      25.571      31.359      37.480      43.545      49.154      53.938      57.588      59.871    
  45.552      44.978      43.288      40.589      37.054      32.919      28.469      24.013      19.851      16.231    
  13.316      11.160      9.6913      8.7378      8.0457      7.4502      6.9511      6.5478      6.2336      5.9934    
  5.8150      5.6858      5.5988      5.5479      5.5315      5.5479      5.5988      5.6858      5.8150      5.9934    
  6.2336      6.5478      6.9511      7.4502      8.0457      8.7378      9.6913      11.160      13.316      16.231    
  19.851      24.013      28.469      32.919      37.054      40.589      43.288      44.978      33.268      32.859    
  31.660      29.747      27.252      24.350      21.257      18.201      15.399      13.019      11.160      9.8201    
  8.9074      8.2414      7.6637      7.1614      6.7437      6.4076      6.1436      5.9400      5.7859      5.6730    
  5.5952      5.5496      5.5345      5.5496      5.5952      5.6730      5.7859      5.9400      6.1436      6.4076    
  6.7437      7.1614      7.6637      8.2414      8.9074      9.8201      11.160      13.019      15.399      18.201    
  21.257      24.350      27.252      29.747      31.660      32.859      23.830      23.555      22.747      21.464    
  19.803      17.893      15.886      13.944      12.208      10.779      9.6913      8.9074      8.3097      7.7777    
  7.2994      6.8898      6.5500      6.2757      6.0580      5.8878      5.7566      5.6585      5.5899      5.5491    
  5.5355      5.5491      5.5899      5.6585      5.7566      5.8878      6.0580      6.2757      6.5500      6.8898    
  7.2994      7.7777      8.3097      8.9074      9.6913      10.779      12.208      13.944      15.886      17.893    
  19.803      21.464      22.747      23.555      17.047      16.874      16.367      15.569      14.548      13.393    
  12.207      11.089      10.119      9.3393      8.7378      8.2414      7.7777      7.3476      6.9678      6.6433    
  6.3740      6.1546      5.9781      5.8372      5.7265      5.6421      5.5824      5.5464      5.5345      5.5464    
  5.5824      5.6421      5.7265      5.8372      5.9781      6.1546      6.3740      6.6433      6.9678      7.3476    
  7.7777      8.2414      8.7378      9.3393      10.119      11.089      12.207      13.393      14.548      15.569    
  16.367      16.874      12.547      12.449      12.162      11.716      11.154      10.532      9.9093      9.3383    
  8.8482      8.4309      8.0457      7.6637      7.2994      6.9678      6.6758      6.4264      6.2176      6.0452    
  5.9037      5.7885      5.6962      5.6247      5.5732      5.5420      5.5315      5.5420      5.5732      5.6247    
  5.6962      5.7885      5.9037      6.0452      6.2176      6.4264      6.6758      6.9678      7.2994      7.6637    
  8.0457      8.4309      8.8482      9.3383      9.9093      10.532      11.154      11.716      12.162      12.449    
  9.8312      9.7827      9.6426      9.4271      9.1608      8.8715      8.5829      8.3056      8.0318      7.7464    
  7.4502      7.1614      6.8898      6.6433      6.4264      6.2395      6.0809      5.9471      5.8353      5.7421    
  5.6658      5.6056      5.5619      5.5352      5.5263      5.5352      5.5619      5.6056      5.6658      5.7421    
  5.8353      5.9471      6.0809      6.2395      6.4264      6.6433      6.8898      7.1614      7.4502      7.7464    
  8.0318      8.3056      8.5829      8.8715      9.1608      9.4271      9.6426      9.7827      8.3376      8.3175    
  8.2593      8.1689      8.0529      7.9162      7.7592      7.5789      7.3770      7.1640      6.9511      6.7437    
  6.5500      6.3740      6.2176      6.0809      5.9622      5.8602      5.7725      5.6976      5.6353      5.5858    
  5.5497      5.5277      5.5202      5.5277      5.5497      5.5858      5.6353      5.6976      5.7725      5.8602    
  5.9622      6.0809      6.2176      6.3740      6.5500      6.7437      6.9511      7.1640      7.3770      7.5789    
  7.7592      7.9162      8.0529      8.1689      8.2593      8.3175      7.4840      7.4738      7.4430      7.3916    
  7.3187      7.2239      7.1089      6.9786      6.8390      6.6939      6.5478      6.4076      6.2757      6.1546    
  6.0452      5.9471      5.8602      5.7830      5.7148      5.6558      5.6063      5.5666      5.5375      5.5196    
  5.5135      5.5196      5.5375      5.5666      5.6063      5.6558      5.7148      5.7830      5.8602      5.9471    
  6.0452      6.1546      6.2757      6.4076      6.5478      6.6939      6.8390      6.9786      7.1089      7.2239    
  7.3187      7.3916      7.4430      7.4738      6.8458      6.8384      6.8163      6.7796      6.7290      6.6659    
  6.5920      6.5088      6.4185      6.3255      6.2336      6.1436      6.0580      5.9781      5.9037      5.8353    
  5.7725      5.7148      5.6631      5.6178      5.5792      5.5480      5.5249      5.5108      5.5060      5.5108    
  5.5249      5.5480      5.5792      5.6178      5.6631      5.7148      5.7725      5.8353      5.9037      5.9781    
  6.0580      6.1436      6.2336      6.3255      6.4185      6.5088      6.5920      6.6659      6.7290      6.7796    
  6.8163      6.8384      6.3510      6.3467      6.3338      6.3125      6.2829      6.2455      6.2014      6.1527    
  6.1013      6.0479      5.9934      5.9400      5.8878      5.8372      5.7885      5.7421      5.6976      5.6558    
  5.6178      5.5838      5.5545      5.5305      5.5130      5.5022      5.4986      5.5022      5.5130      5.5305    
  5.5545      5.5838      5.6178      5.6558      5.6976      5.7421      5.7885      5.8372      5.8878      5.9400    
  5.9934      6.0479      6.1013      6.1527      6.2014      6.2455      6.2829      6.3125      6.3338      6.3467    
  5.9928      5.9905      5.9839      5.9730      5.9582      5.9402      5.9195      5.8960      5.8699      5.8426    
  5.8150      5.7859      5.7566      5.7265      5.6962      5.6658      5.6353      5.6063      5.5792      5.5545    
  5.5328      5.5153      5.5025      5.4947      5.4921      5.4947      5.5025      5.5153      5.5328      5.5545    
  5.5792      5.6063      5.6353      5.6658      5.6962      5.7265      5.7566      5.7859      5.8150      5.8426    
  5.8699      5.8960      5.9195      5.9402      5.9582      5.9730      5.9839      5.9905      5.7476      5.7469    
  5.7451      5.7420      5.7375      5.7316      5.7243      5.7162      5.7075      5.6976      5.6858      5.6730    
  5.6585      5.6421      5.6247      5.6056      5.5858      5.5666      5.5480      5.5305      5.5153      5.5030    
  5.4941      5.4886      5.4868      5.4886      5.4941      5.5030      5.5153      5.5305      5.5480      5.5666    
  5.5858      5.6056      5.6247      5.6421      5.6585      5.6730      5.6858      5.6976      5.7075      5.7162    
  5.7243      5.7316      5.7375      5.7420      5.7451      5.7469      5.5921      5.5922      5.5928      5.5937    
  5.5950      5.5968      5.5987      5.6002      5.6006      5.6001      5.5988      5.5952      5.5899      5.5824    
  5.5732      5.5619      5.5497      5.5375      5.5249      5.5130      5.5025      5.4941      5.4880      5.4843    
  5.4830      5.4843      5.4880      5.4941      5.5025      5.5130      5.5249      5.5375      5.5497      5.5619    
  5.5732      5.5824      5.5899      5.5952      5.5988      5.6001      5.6006      5.6002      5.5987      5.5968    
  5.5950      5.5937      5.5928      5.5922      5.5069      5.5077      5.5098      5.5133      5.5178      5.5229    
  5.5283      5.5341      5.5400      5.5449      5.5479      5.5496      5.5491      5.5464      5.5420      5.5352    
  5.5277      5.5196      5.5108      5.5022      5.4947      5.4886      5.4843      5.4816      5.4807      5.4816    
  5.4843      5.4886      5.4947      5.5022      5.5108      5.5196      5.5277      5.5352      5.5420      5.5464    
  5.5491      5.5496      5.5479      5.5449      5.5400      5.5341      5.5283      5.5229      5.5178      5.5133    
  5.5098      5.5077      5.4799      5.4807      5.4830      5.4868      5.4921      5.4986      5.5060      5.5135    
  5.5202      5.5263      5.5315      5.5345      5.5355      5.5345      5.5315      5.5263      5.5202      5.5135    
  5.5060      5.4986      5.4921      5.4868      5.4830      5.4807      5.4799      5.4807      5.4830      5.4868    
  5.4921      5.4986      5.5060      5.5135      5.5202      5.5263      5.5315      5.5345      5.5355      5.5345    
  5.5315      5.5263      5.5202      5.5135      5.5060      5.4986      5.4921      5.4868      5.4830      5.4807    
  5.5069      5.5077      5.5098      5.5133      5.5178      5.5229      5.5283      5.5341      5.5400      5.5449    
  5.5479      5.5496      5.5491      5.5464      5.5420      5.5352      5.5277      5.5196      5.5108      5.5022    
  5.4947      5.4886      5.4843      5.4816      5.4807      5.4816      5.4843      5.4886      5.4947      5.5022    
  5.5108      5.5196      5.5277      5.5352      5.5420      5.5464      5.5491      5.5496      5.5479      5.5449    
  5.5400      5.5341      5.5283      5.5229      5.5178      5.5133      5.5098      5.5077      5.5921      5.5922    
  5.5928      5.5937      5.5950      5.5968      5.5987      5.6002      5.6006      5.6001      5.5988      5.5952    
  5.5899      5.5824      5.5732      5.5619      5.5497      5.5375      5.5249      5.5130      5.5025      5.4941    
  5.4880      5.4843      5.4830      5.4843      5.4880      5.4941      5.5025      5.5130      5.5249      5.5375    
  5.5497      5.5619      5.5732      5.5824      5.5899      5.5952      5.5988      5.6001      5.6006      5.6002    
  5.5987      5.5968      5.5950      5.5937      5.5928      5.5922      5.7476      5.7469      5.7451      5.7420    
  5.7375      5.7316      5.7243      5.7162      5.7075      5.6976      5.6858      5.6730      5.6585      5.6421    
  5.6247      5.6056      5.5858      5.5666      5.5480      5.5305      5.5153      5.5030      5.4941      5.4886    
  5.4868      5.4886      5.4941      5.5030      5.5153      5.5305      5.5480      5.5666      5.5858      5.6056    
  5.6247      5.6421      5.6585      5.6730      5.6858      5.6976      5.7075      5.7162      5.7243      5.7316    
  5.7375      5.7420      5.7451      5.7469      5.9928      5.9905      5.9839      5.9730      5.9582      5.9402    
  5.9195      5.8960      5.8699      5.8426      5.8150      5.7859      5.7566      5.7265      5.6962      5.6658    
  5.6353      5.6063      5.5792      5.5545      5.5328      5.5153      5.5025      5.4947      5.4921      5.4947    
  5.5025      5.5153      5.5328      5.5545      5.5792      5.6063      5.6353      5.6658      5.6962      5.7265    
  5.7566      5.7859      5.8150      5.8426      5.8699      5.8960      5.9195      5.9402      5.9582      5.9730    
  5.9839      5.9905      6.3510      6.3467      6.3338      6.3125      6.2829      6.2455      6.2014      6.1527    
  6.1013      6.0479      5.9934      5.9400      5.8878      5.8372      5.7885      5.7421      5.6976      5.6558    
  5.6178      5.5838      5.5545      5.5305      5.5130      5.5022      5.4986      5.5022      5.5130      5.5305    
  5.5545      5.5838      5.6178      5.6558      5.6976      5.7421      5.7885      5.8372      5.8878      5.9400    
  5.9934      6.0479      6.1013      6.1527      6.2014      6.2455      6.2829      6.3125      6.3338      6.3467    
  6.8458      6.8384      6.8163      6.7796      6.7290      6.6659      6.5920      6.5088      6.4185      6.3255    
  6.2336      6.1436      6.0580      5.9781      5.9037      5.8353      5.7725      5.7148      5.6631      5.6178    
  5.5792      5.5480      5.5249      5.5108      5.5060      5.5108      5.5249      5.5480      5.5792      5.6178    
  5.6631      5.7148      5.7725      5.8353      5.9037      5.9781      6.0580      6.1436      6.2336      6.3255    
  6.4185      6.5088      6.5920      6.6659      6.7290      6.7796      6.8163      6.8384      7.4840      7.4738    
  7.4430      7.3916      7.3187      7.2239      7.1089      6.9786      6.8390      6.6939      6.5478      6.4076    
  6.2757      6.1546      6.0452      5.9471      5.8602      5.7830      5.7148      5.6558      5.6063      5.5666    
  5.5375      5.5196      5.5135      5.5196      5.5375      5.5666      5.6063      5.6558      5.7148      5.7830    
  5.8602      5.9471      6.0452      6.1546      6.2757      6.4076      6.5478      6.6939      6.8390      6.9786    
  7.1089      7.2239      7.3187      7.3916      7.4430      7.4738      8.3376      8.3175      8.2593      8.1689    
  8.0529      7.9162      7.7592      7.5789      7.3770      7.1640      6.9511      6.7437      6.5500      6.3740    
  6.2176      6.0809      5.9622      5.8602      5.7725      5.6976      5.6353      5.5858      5.5497      5.5277    
  5.5202      5.5277      5.5497      5.5858      5.6353      5.6976      5.7725      5.8602      5.9622      6.0809    
  6.2176      6.3740      6.5500      6.7437      6.9511      7.1640      7.3770      7.5789      7.7592      7.9162    
  8.0529      8.1689      8.2593      8.3175      9.8312      9.7827      9.6426      9.4271      9.1608      8.8715    
  8.5829      8.3056      8.0318      7.7464      7.4502      7.1614      6.8898      6.6433      6.4264      6.2395    
  6.0809      5.9471      5.8353      5.7421      5.6658      5.6056      5.5619      5.5352      5.5263      5.5352    
  5.5619      5.6056      5.6658      5.7421      5.8353      5.9471      6.0809      6.2395      6.4264      6.6433    
  6.8898      7.1614      7.4502      7.7464      8.0318      8.3056      8.5829      8.8715      9.1608      9.4271    
  9.6426      9.7827      12.547      12.449      12.162      11.716      11.154      10.532      9.9093      9.3383    
  8.8482      8.4309      8.0457      7.6637      7.2994      6.9678      6.6758      6.4264      6.2176      6.0452    
  5.9037      5.7885      5.6962      5.6247      5.5732      5.5420      5.5315      5.5420      5.5732      5.6247    
  5.6962      5.7885      5.9037      6.0452      6.2176      6.4264      6.6758      6.9678      7.2994      7.6637    
  8.0457      8.4309      8.8482      9.3383      9.9093      10.532      11.154      11.716      12.162      12.449    
  17.047      16.874      16.367      15.569      14.548      13.393      12.207      11.089      10.119      9.3393    
  8.7378      8.2414      7.7777      7.3476      6.9678      6.6433      6.3740      6.1546      5.9781      5.8372    
  5.7265      5.6421      5.5824      5.5464      5.5345      5.5464      5.5824      5.6421      5.7265      5.8372    
  5.9781      6.1546      6.3740      6.6433      6.9678      7.3476      7.7777      8.2414      8.7378      9.3393    
  10.119      11.089      12.207      13.393      14.548      15.569      16.367      16.874      23.830      23.555    
  22.747      21.464      19.803      17.893      15.886      13.944      12.208      10.779      9.6913      8.9074    
  8.3097      7.7777      7.2994      6.8898      6.5500      6.2757      6.0580      5.8878      5.7566      5.6585    
  5.5899      5.5491      5.5355      5.5491      5.5899      5.6585      5.7566      5.8878      6.0580      6.2757    
  6.5500      6.8898      7.2994      7.7777      8.3097      8.9074      9.6913      10.779      12.208      13.944    
  15.886      17.893      19.803      21.464      22.747      23.555      33.268      32.859      31.660      29.747    
  27.252      24.350      21.257      18.201      15.399      13.019      11.160      9.8201      8.9074      8.2414    
  7.6637      7.1614      6.7437      6.4076      6.1436      5.9400      5.7859      5.6730      5.5952      5.5496    
  5.5345      5.5496      5.5952      5.6730      5.7859      5.9400      6.1436      6.4076      6.7437      7.1614    
  7.6637      8.2414      8.9074      9.8201      11.160      13.019      15.399      18.201      21.257      24.350    
  27.252      29.747      31.660      32.859      45.552      44.978      43.288      40.589      37.054      32.919    
  28.469      24.013      19.851      16.231      13.316      11.160      9.6913      8.7378      8.0457      7.4502    
  6.9511      6.5478      6.2336      5.9934      5.8150      5.6858      5.5988      5.5479      5.5315      5.5479    
  5.5988      5.6858      5.8150      5.9934      6.2336      6.5478      6.9511      7.4502      8.0457      8.7378    
  9.6913      11.160      13.316      16.231      19.851      24.013      28.469      32.919      37.054      40.589    
  43.288      44.978      60.648      59.871      57.588      53.938      49.154      43.545      37.480      31.359    
  25.571      20.449      16.231      13.019      10.779      9.3393      8.4309      7.7464      7.1640      6.6939    
  6.3255      6.0479      5.8426      5.6976      5.6001      5.5449      5.5263      5.5449      5.6001      5.6976    
  5.8426      6.0479      6.3255      6.6939      7.1640      7.7464      8.4309      9.3393      10.779      13.019    
  16.231      20.449      25.571      31.359      37.480      43.545      49.154      53.938      57.588      59.871    
  78.254      77.240      74.259      69.501      63.268      55.960      48.047      40.032      32.400      25.571    
  19.851      15.399      12.208      10.119      8.8482      8.0318      7.3770      6.8390      6.4185      6.1013    
  5.8699      5.7075      5.6006      5.5400      5.5202      5.5400      5.6006      5.7075      5.8699      6.1013    
  6.4185      6.8390      7.3770      8.0318      8.8482      10.119      12.208      15.399      19.851      25.571    
  32.400      40.032      48.047      55.960      63.268      69.501      74.259      77.240      97.789      96.505    
  92.735      86.728      78.874      69.683      59.740      49.661      40.032      31.359      24.013      18.201    
  13.944      11.089      9.3383      8.3056      7.5789      6.9786      6.5088      6.1527      5.8960      5.7162    
  5.6002      5.5341      5.5135      5.5341      5.6002      5.7162      5.8960      6.1527      6.5088      6.9786    
  7.5789      8.3056      9.3383      11.089      13.944      18.201      24.013      31.359      40.032      49.661    
  59.740      69.683      78.874      86.728      92.735      96.505      118.40      116.82      112.19      104.84    
  95.247      84.053      71.972      59.740      48.047      37.480      28.469      21.257      15.886      12.207    
  9.9093      8.5829      7.7592      7.1089      6.5920      6.2014      5.9195      5.7243      5.5987      5.5283    
  5.5060      5.5283      5.5987      5.7243      5.9195      6.2014      6.5920      7.1089      7.7592      8.5829    
  9.9093      12.207      15.886      21.257      28.469      37.480      48.047      59.740      71.972      84.053    
  95.247      104.84      112.19      116.82      138.98      137.10      131.60      122.86      111.50      98.278    
  84.053      69.683      55.960      43.545      32.919      24.350      17.893      13.393      10.532      8.8715    
  7.9162      7.2239      6.6659      6.2455      5.9402      5.7316      5.5968      5.5229      5.4986      5.5229    
  5.5968      5.7316      5.9402      6.2455      6.6659      7.2239      7.9162      8.8715      10.532      13.393    
  17.893      24.350      32.919      43.545      55.960      69.683      84.053      98.278      111.50      122.86    
  131.60      137.10      158.29      156.12      149.77      139.70      126.65      111.50      95.247      78.874    
  63.268      49.154      37.054      27.252      19.803      14.548      11.154      9.1608      8.0529      7.3187    
  6.7290      6.2829      5.9582      5.7375      5.5950      5.5178      5.4921      5.5178      5.5950      5.7375    
  5.9582      6.2829      6.7290      7.3187      8.0529      9.1608      11.154      14.548      19.803      27.252    
  37.054      49.154      63.268      78.874      95.247      111.50      126.65      139.70      149.77      156.12    
  175.04      172.61      165.50      154.26      139.70      122.86      104.84      86.728      69.501      53.938    
  40.589      29.747      21.464      15.569      11.716      9.4271      8.1689      7.3916      6.7796      6.3125    
  5.9730      5.7420      5.5937      5.5133      5.4868      5.5133      5.5937      5.7420      5.9730      6.3125    
  6.7796      7.3916      8.1689      9.4271      11.716      15.569      21.464      29.747      40.589      53.938    
  69.501      86.728      104.84      122.86      139.70      154.26      165.50      172.61      188.01      185.37    
  177.67      165.50      149.77      131.60      112.19      92.735      74.259      57.588      43.288      31.660    
  22.747      16.367      12.162      9.6426      8.2593      7.4430      6.8163      6.3338      5.9839      5.7451    
  5.5928      5.5098      5.4830      5.5098      5.5928      5.7451      5.9839      6.3338      6.8163      7.4430    
  8.2593      9.6426      12.162      16.367      22.747      31.660      43.288      57.588      74.259      92.735    
  112.19      131.60      149.77      165.50      177.67      185.37      196.22      193.45      185.37      172.61    
  156.12      137.10      116.82      96.505      77.240      59.871      44.978      32.859      23.555      16.874    
  12.449      9.7827      8.3175      7.4738      6.8384      6.3467      5.9905      5.7469      5.5922      5.5077    
  5.4807      5.5077      5.5922      5.7469      5.9905      6.3467      6.8384      7.4738      8.3175      9.7827    
  12.449      16.874      23.555      32.859      44.978      59.871      77.240      96.505      116.82      137.10    
  156.12      172.61      185.37      193.45      196.22      193.45      185.37      172.61      156.12      137.10    
  116.82      96.505      77.240      59.871      44.978      32.859      23.555      16.874      12.449      9.7827    
  8.3175      7.4738      6.8384      6.3467      5.9905      5.7469      5.5922      5.5077      5.4807      5.5077    
  5.5922      5.7469      5.9905      6.3467      6.8384      7.4738      8.3175      9.7827      12.449      16.874    
  23.555      32.859      44.978      59.871      77.240      96.505      116.82      137.10      156.12      172.61    
  185.37      193.45      193.45      190.73      182.78      170.21      153.98      135.25      115.26      95.238    
  76.238      59.103      44.410      32.456      23.283      16.703      12.352      9.7352      8.2979      7.4637    
  6.8311      6.3425      5.9884      5.7464      5.5925      5.5085      5.4816      5.5085      5.5925      5.7464    
  5.9884      6.3425      6.8311      7.4637      8.2979      9.7352      12.352      16.703      23.283      32.456    
  44.410      59.103      76.238      95.238      115.26      135.25      153.98      170.21      182.78      190.73    
  185.37      182.78      175.20      163.22      147.73      129.82      110.70      91.518      73.296      56.848    
  42.741      31.271      22.486      16.204      12.071      9.5984      8.2412      7.4333      6.8095      6.3300    
  5.9822      5.7449      5.5934      5.5110      5.4843      5.5110      5.5934      5.7449      5.9822      6.3300    
  6.8095      7.4333      8.2412      9.5984      12.071      16.204      22.486      31.271      42.741      56.848    
  73.296      91.518      110.70      129.82      147.73      163.22      175.20      182.78      172.61      170.21    