unknown system                          
   1.00000000000000     
     2.830599   -0.000000    0.000000
     0.000000    2.830599    0.000000
    -0.000000   -0.000000    2.830599
   Fe
     2
Direct
  0.000000  0.000000  0.000000
  0.500000  0.500000  0.500000
 
   48   48   48
 0.19210838980E+03 0.18945544763E+03 0.18170318461E+03 0.16944668255E+03 0.15359690111E+03
 0.13527488111E+03 0.11568717516E+03 0.96004922001E+02 0.77259787150E+02 0.60271104875E+02
 0.45605667269E+02 0.33571860073E+02 0.24230508905E+02 0.17428385600E+02 0.12840444854E+02
 0.10016800994E+02 0.84382956817E+01 0.75620527601E+01 0.69375351231E+01 0.64467000645E+01
 0.60900427331E+01 0.58436634198E+01 0.56882674444E+01 0.56024083565E+01 0.55758541354E+01
 0.56024083565E+01 0.56882674444E+01 0.58436634198E+01 0.60900427331E+01 0.64467000645E+01
 0.69375351231E+01 0.75620527601E+01 0.84382956817E+01 0.10016800994E+02 0.12840444854E+02
 0.17428385600E+02 0.24230508905E+02 0.33571860073E+02 0.45605667269E+02 0.60271104875E+02
 0.77259787150E+02 0.96004922001E+02 0.11568717516E+03 0.13527488111E+03 0.15359690111E+03
 0.16944668255E+03 0.18170318461E+03 0.18945544763E+03 0.18945544763E+03 0.18684421613E+03
 0.17921318777E+03 0.16714577220E+03 0.15153600036E+03 0.13348474961E+03 0.11417867362E+03
 0.94770860387E+02 0.76279477602E+02 0.59515480889E+02 0.45042788444E+02 0.33168219754E+02
 0.23954953157E+02 0.17252435908E+02 0.12738148024E+02 0.99649693963E+01 0.84163788041E+01
 0.75520956485E+01 0.69304397322E+01 0.64424572065E+01 0.60878273196E+01 0.58430788927E+01
 0.56885038551E+01 0.56032216910E+01 0.55767170159E+01 0.56032216910E+01 0.56885038551E+01
 0.58430788927E+01 0.60878273196E+01 0.64424572065E+01 0.69304397322E+01 0.75520956485E+01
 0.84163788041E+01 0.99649693963E+01 0.12738148024E+02 0.17252435908E+02 0.23954953157E+02
 0.33168219754E+02 0.45042788444E+02 0.59515480889E+02 0.76279477602E+02 0.94770860387E+02
 0.11417867362E+03 0.13348474961E+03 0.15153600036E+03 0.16714577220E+03 0.17921318777E+03
 0.18684421613E+03 0.18170318461E+03 0.17921318777E+03 0.17193430805E+03 0.16041658857E+03
 0.14550474270E+03 0.12824135588E+03 0.10975493704E+03 0.91147557293E+02 0.73399015003E+02
 0.57294993640E+02 0.43387470647E+02 0.31982400327E+02 0.23147219046E+02 0.16738003072E+02
 0.12440888860E+02 0.98151208415E+01 0.83533290879E+01 0.75222878915E+01 0.69091446588E+01
 0.64297835723E+01 0.60812853053E+01 0.58412825723E+01 0.56892028476E+01 0.56055536482E+01
 0.55792701861E+01 0.56055536482E+01 0.56892028476E+01 0.58412825723E+01 0.60812853053E+01
 0.64297835723E+01 0.69091446588E+01 0.75222878915E+01 0.83533290879E+01 0.98151208415E+01
 0.12440888860E+02 0.16738003072E+02 0.23147219046E+02 0.31982400327E+02 0.43387470647E+02
 0.57294993640E+02 0.73399015003E+02 0.91147557293E+02 0.10975493704E+03 0.12824135588E+03
 0.14550474270E+03 0.16041658857E+03 0.17193430805E+03 0.17921318777E+03 0.16944668255E+03
 0.16714577220E+03 0.16041658857E+03 0.14975757146E+03 0.13593779214E+03 0.11990999550E+03
 0.10271325324E+03 0.85369540240E+02 0.68797863119E+02 0.53743884343E+02 0.40741437911E+02
 0.30090039424E+02 0.21863183795E+02 0.15926090067E+02 0.11976317662E+02 0.95841611724E+01
 0.82560051428E+01 0.74727304454E+01 0.68735544135E+01 0.64088852165E+01 0.60704915387E+01
 0.58384064204E+01 0.56903523585E+01 0.56094358490E+01 0.55834462407E+01 0.56094358490E+01
 0.56903523585E+01 0.58384064204E+01 0.60704915387E+01 0.64088852165E+01 0.68735544135E+01
 0.74727304454E+01 0.82560051428E+01 0.95841611724E+01 0.11976317662E+02 0.15926090067E+02
 0.21863183795E+02 0.30090039424E+02 0.40741437911E+02 0.53743884343E+02 0.68797863119E+02
 0.85369540240E+02 0.10271325324E+03 0.11990999550E+03 0.13593779214E+03 0.14975757146E+03
 0.16041658857E+03 0.16714577220E+03 0.15359690111E+03 0.15153600036E+03 0.14550474270E+03
 0.13593779214E+03 0.12350981831E+03 0.10906174086E+03 0.93520242696E+02 0.77807201896E+02
 0.62764120579E+02 0.49083628891E+02 0.37271072789E+02 0.27616478378E+02 0.20195943370E+02
 0.14883077156E+02 0.11388957713E+02 0.92974914608E+01 0.81336780643E+01 0.74031641876E+01
 0.68240832778E+01 0.63800630971E+01 0.60558489981E+01 0.58344009159E+01 0.56919595639E+01
 0.56145837433E+01 0.55891370022E+01 0.56145837433E+01 0.56919595639E+01 0.58344009159E+01
 0.60558489981E+01 0.63800630971E+01 0.68240832778E+01 0.74031641876E+01 0.81336780643E+01
 0.92974914608E+01 0.11388957713E+02 0.14883077156E+02 0.20195943370E+02 0.27616478378E+02
 0.37271072789E+02 0.49083628891E+02 0.62764120579E+02 0.77807201896E+02 0.93520242696E+02
 0.10906174086E+03 0.12350981831E+03 0.13593779214E+03 0.14550474270E+03 0.15153600036E+03
 0.13527488111E+03 0.13348474961E+03 0.12824135588E+03 0.11990999550E+03 0.10906174086E+03
 0.96415190707E+02 0.82772458146E+02 0.68943030119E+02 0.55678407980E+02 0.43609032284E+02
 0.33203462201E+02 0.24732888248E+02 0.18271017541E+02 0.13697741501E+02 0.10735019461E+02
 0.89855455108E+01 0.79936387225E+01 0.73129728710E+01 0.67619782630E+01 0.63436761625E+01
 0.60379365101E+01 0.58292129006E+01 0.56941228568E+01 0.56206859725E+01 0.55962822841E+01
 0.56206859725E+01 0.56941228568E+01 0.58292129006E+01 0.60379365101E+01 0.63436761625E+01
 0.67619782630E+01 0.73129728710E+01 0.79936387225E+01 0.89855455108E+01 0.10735019461E+02
 0.13697741501E+02 0.18271017541E+02 0.24732888248E+02 0.33203462201E+02 0.43609032284E+02
 0.55678407980E+02 0.68943030119E+02 0.82772458146E+02 0.96415190707E+02 0.10906174086E+03
 0.11990999550E+03 0.12824135588E+03 0.13348474961E+03 0.11568717516E+03 0.11417867362E+03
 0.10975493704E+03 0.10271325324E+03 0.93520242696E+02 0.82772458146E+02 0.71144233806E+02
 0.59330579516E+02 0.47986770014E+02 0.37673881441E+02 0.28810883403E+02 0.21645450101E+02
 0.16238238410E+02 0.12471611241E+02 0.10075859648E+02 0.86760640118E+01 0.78384945559E+01
 0.72023201933E+01 0.66892911085E+01 0.63004497949E+01 0.60175425703E+01 0.58226533561E+01
 0.56967994299E+01 0.56271415842E+01 0.56046326122E+01 0.56271415842E+01 0.56967994299E+01
 0.58226533561E+01 0.60175425703E+01 0.63004497949E+01 0.66892911085E+01 0.72023201933E+01
 0.78384945559E+01 0.86760640118E+01 0.10075859648E+02 0.12471611241E+02 0.16238238410E+02
 0.21645450101E+02 0.28810883403E+02 0.37673881441E+02 0.47986770014E+02 0.59330579516E+02
 0.71144233806E+02 0.82772458146E+02 0.93520242696E+02 0.10271325324E+03 0.10975493704E+03
 0.11417867362E+03 0.96004922001E+02 0.94770860387E+02 0.91147557293E+02 0.85369540240E+02
 0.77807201896E+02 0.68943030119E+02 0.59330579516E+02 0.49552562695E+02 0.40166499063E+02
 0.31658254837E+02 0.24390836341E+02 0.18576377818E+02 0.14254895400E+02 0.11306165272E+02
 0.94665802368E+01 0.83855683048E+01 0.76648245102E+01 0.70750785864E+01 0.66077119995E+01
 0.62521158134E+01 0.59948086646E+01 0.58151267024E+01 0.56994235572E+01 0.56338688973E+01
 0.56134361213E+01 0.56338688973E+01 0.56994235572E+01 0.58151267024E+01 0.59948086646E+01
 0.62521158134E+01 0.66077119995E+01 0.70750785864E+01 0.76648245102E+01 0.83855683048E+01
 0.94665802368E+01 0.11306165272E+02 0.14254895400E+02 0.18576377818E+02 0.24390836341E+02
 0.31658254837E+02 0.40166499063E+02 0.49552562695E+02 0.59330579516E+02 0.68943030119E+02
 0.77807201896E+02 0.85369540240E+02 0.91147557293E+02 0.94770860387E+02 0.77259787150E+02
 0.76279477602E+02 0.73399015003E+02 0.68797863119E+02 0.62764120579E+02 0.55678407980E+02
 0.47986770014E+02 0.40166499063E+02 0.32681592127E+02 0.25936412922E+02 0.20232371233E+02
 0.15737293276E+02 0.12465083047E+02 0.10284469019E+02 0.89438229708E+01 0.81107995428E+01
 0.74703634042E+01 0.69374200707E+01 0.65190481419E+01 0.62009950982E+01 0.59697090257E+01
 0.58070507061E+01 0.57010485261E+01 0.56406684020E+01 0.56215628674E+01 0.56406684020E+01
 0.57010485261E+01 0.58070507061E+01 0.59697090257E+01 0.62009950982E+01 0.65190481419E+01
 0.69374200707E+01 0.74703634042E+01 0.81107995428E+01 0.89438229708E+01 0.10284469019E+02
 0.12465083047E+02 0.15737293276E+02 0.20232371233E+02 0.25936412922E+02 0.32681592127E+02
 0.40166499063E+02 0.47986770014E+02 0.55678407980E+02 0.62764120579E+02 0.68797863119E+02
 0.73399015003E+02 0.76279477602E+02 0.60271104875E+02 0.59515480889E+02 0.57294993640E+02
 0.53743884343E+02 0.49083628891E+02 0.43609032284E+02 0.37673881441E+02 0.31658254837E+02
 0.25936412922E+02 0.20831663752E+02 0.16581821856E+02 0.13300100379E+02 0.10973277361E+02
 0.94561636192E+01 0.85098226409E+01 0.78340944304E+01 0.72616751603E+01 0.67946609708E+01
 0.64265723517E+01 0.61483720124E+01 0.59428404844E+01 0.57981700260E+01 0.57014217534E+01
 0.56468722194E+01 0.56285805829E+01 0.56468722194E+01 0.57014217534E+01 0.57981700260E+01
 0.59428404844E+01 0.61483720124E+01 0.64265723517E+01 0.67946609708E+01 0.72616751603E+01
 0.78340944304E+01 0.85098226409E+01 0.94561636192E+01 0.10973277361E+02 0.13300100379E+02
 0.16581821856E+02 0.20831663752E+02 0.25936412922E+02 0.31658254837E+02 0.37673881441E+02
 0.43609032284E+02 0.49083628891E+02 0.53743884343E+02 0.57294993640E+02 0.59515480889E+02
 0.45605667269E+02 0.45042788444E+02 0.43387470647E+02 0.40741437911E+02 0.37271072789E+02
 0.33203462201E+02 0.28810883403E+02 0.24390836341E+02 0.20232371233E+02 0.16581821856E+02
 0.13604991540E+02 0.11369380912E+02 0.98246210505E+01 0.88217252162E+01 0.81283931316E+01
 0.75462137909E+01 0.70514835497E+01 0.66499643813E+01 0.63349099962E+01 0.60944005931E+01
 0.59156864540E+01 0.57872141699E+01 0.57008523298E+01 0.56508525151E+01 0.56345883079E+01
 0.56508525151E+01 0.57008523298E+01 0.57872141699E+01 0.59156864540E+01 0.60944005931E+01
 0.63349099962E+01 0.66499643813E+01 0.70514835497E+01 0.75462137909E+01 0.81283931316E+01
 0.88217252162E+01 0.98246210505E+01 0.11369380912E+02 0.13604991540E+02 0.16581821856E+02
 0.20232371233E+02 0.24390836341E+02 0.28810883403E+02 0.33203462201E+02 0.37271072789E+02
 0.40741437911E+02 0.43387470647E+02 0.45042788444E+02 0.33571860073E+02 0.33168219754E+02
 0.31982400327E+02 0.30090039424E+02 0.27616478378E+02 0.24732888248E+02 0.21645450101E+02
 0.18576377818E+02 0.15737293276E+02 0.13300100379E+02 0.11369380912E+02 0.99593810503E+01
 0.89959115198E+01 0.83214829716E+01 0.77574825421E+01 0.72613267148E+01 0.68463629421E+01
 0.65098787145E+01 0.62453370396E+01 0.60411218119E+01 0.58873961219E+01 0.57749148019E+01
 0.56981743011E+01 0.56531020215E+01 0.56383954252E+01 0.56531020215E+01 0.56981743011E+01
 0.57749148019E+01 0.58873961219E+01 0.60411218119E+01 0.62453370396E+01 0.65098787145E+01
 0.68463629421E+01 0.72613267148E+01 0.77574825421E+01 0.83214829716E+01 0.89959115198E+01
 0.99593810503E+01 0.11369380912E+02 0.13300100379E+02 0.15737293276E+02 0.18576377818E+02
 0.21645450101E+02 0.24732888248E+02 0.27616478378E+02 0.30090039424E+02 0.31982400327E+02
 0.33168219754E+02 0.24230508905E+02 0.23954953157E+02 0.23147219046E+02 0.21863183795E+02
 0.20195943370E+02 0.18271017541E+02 0.16238238410E+02 0.14254895400E+02 0.12465083047E+02
 0.10973277361E+02 0.98246210505E+01 0.89959115198E+01 0.83890499314E+01 0.78699494822E+01
 0.73989396617E+01 0.69925331661E+01 0.66529719787E+01 0.63781961184E+01 0.61597256180E+01
 0.59893630715E+01 0.58582634805E+01 0.57609092107E+01 0.56929575082E+01 0.56529085964E+01
 0.56394717302E+01 0.56529085964E+01 0.56929575082E+01 0.57609092107E+01 0.58582634805E+01
 0.59893630715E+01 0.61597256180E+01 0.63781961184E+01 0.66529719787E+01 0.69925331661E+01
 0.73989396617E+01 0.78699494822E+01 0.83890499314E+01 0.89959115198E+01 0.98246210505E+01
 0.10973277361E+02 0.12465083047E+02 0.14254895400E+02 0.16238238410E+02 0.18271017541E+02
 0.20195943370E+02 0.21863183795E+02 0.23147219046E+02 0.23954953157E+02 0.17428385600E+02
 0.17252435908E+02 0.16738003072E+02 0.15926090067E+02 0.14883077156E+02 0.13697741501E+02
 0.12471611241E+02 0.11306165272E+02 0.10284469019E+02 0.94561636192E+01 0.88217252162E+01
 0.83214829716E+01 0.78699494822E+01 0.74468800061E+01 0.70705266061E+01 0.67466749655E+01
 0.64770147333E+01 0.62567778442E+01 0.60798332604E+01 0.59388029554E+01 0.58285197368E+01
 0.57447382698E+01 0.56856571777E+01 0.56501422344E+01 0.56383954252E+01 0.56501422344E+01
 0.56856571777E+01 0.57447382698E+01 0.58285197368E+01 0.59388029554E+01 0.60798332604E+01
 0.62567778442E+01 0.64770147333E+01 0.67466749655E+01 0.70705266061E+01 0.74468800061E+01
 0.78699494822E+01 0.83214829716E+01 0.88217252162E+01 0.94561636192E+01 0.10284469019E+02
 0.11306165272E+02 0.12471611241E+02 0.13697741501E+02 0.14883077156E+02 0.15926090067E+02
 0.16738003072E+02 0.17252435908E+02 0.12840444854E+02 0.12738148024E+02 0.12440888860E+02
 0.11976317662E+02 0.11388957713E+02 0.10735019461E+02 0.10075859648E+02 0.94665802368E+01
 0.89438229708E+01 0.85098226409E+01 0.81283931316E+01 0.77574825421E+01 0.73989396617E+01
 0.70705266061E+01 0.67792733463E+01 0.65296711836E+01 0.63201838246E+01 0.61471635296E+01
 0.60053331190E+01 0.58904028183E+01 0.57983407486E+01 0.57271787694E+01 0.56759525717E+01
 0.56450275177E+01 0.56345883079E+01 0.56450275177E+01 0.56759525717E+01 0.57271787694E+01
 0.57983407486E+01 0.58904028183E+01 0.60053331190E+01 0.61471635296E+01 0.63201838246E+01
 0.65296711836E+01 0.67792733463E+01 0.70705266061E+01 0.73989396617E+01 0.77574825421E+01
 0.81283931316E+01 0.85098226409E+01 0.89438229708E+01 0.94665802368E+01 0.10075859648E+02
 0.10735019461E+02 0.11388957713E+02 0.11976317662E+02 0.12440888860E+02 0.12738148024E+02
 0.10016800994E+02 0.99649693963E+01 0.98151208415E+01 0.95841611724E+01 0.92974914608E+01
 0.89855455108E+01 0.86760640118E+01 0.83855683048E+01 0.81107995428E+01 0.78340944304E+01
 0.75462137909E+01 0.72613267148E+01 0.69925331661E+01 0.67466749655E+01 0.65296711836E+01
 0.63422027208E+01 0.61829868012E+01 0.60489721195E+01 0.59371185003E+01 0.58439133074E+01
 0.57676588269E+01 0.57075781037E+01 0.56640398687E+01 0.56374653699E+01 0.56285805829E+01
 0.56374653699E+01 0.56640398687E+01 0.57075781037E+01 0.57676588269E+01 0.58439133074E+01
 0.59371185003E+01 0.60489721195E+01 0.61829868012E+01 0.63422027208E+01 0.65296711836E+01
 0.67466749655E+01 0.69925331661E+01 0.72613267148E+01 0.75462137909E+01 0.78340944304E+01
 0.81107995428E+01 0.83855683048E+01 0.86760640118E+01 0.89855455108E+01 0.92974914608E+01
 0.95841611724E+01 0.98151208415E+01 0.99649693963E+01 0.84382956817E+01 0.84163788041E+01
 0.83533290879E+01 0.82560051428E+01 0.81336780643E+01 0.79936387225E+01 0.78384945559E+01
 0.76648245102E+01 0.74703634042E+01 0.72616751603E+01 0.70514835497E+01 0.68463629421E+01
 0.66529719787E+01 0.64770147333E+01 0.63201838246E+01 0.61829868012E+01 0.60641400534E+01
 0.59620753264E+01 0.58741096096E+01 0.57992744700E+01 0.57370133395E+01 0.56875528208E+01
 0.56512672035E+01 0.56290893253E+01 0.56215628674E+01 0.56290893253E+01 0.56512672035E+01
 0.56875528208E+01 0.57370133395E+01 0.57992744700E+01 0.58741096096E+01 0.59620753264E+01
 0.60641400534E+01 0.61829868012E+01 0.63201838246E+01 0.64770147333E+01 0.66529719787E+01
 0.68463629421E+01 0.70514835497E+01 0.72616751603E+01 0.74703634042E+01 0.76648245102E+01
 0.78384945559E+01 0.79936387225E+01 0.81336780643E+01 0.82560051428E+01 0.83533290879E+01
 0.84163788041E+01 0.75620527601E+01 0.75520956485E+01 0.75222878915E+01 0.74727304454E+01
 0.74031641876E+01 0.73129728710E+01 0.72023201933E+01 0.70750785864E+01 0.69374200707E+01
 0.67946609708E+01 0.66499643813E+01 0.65098787145E+01 0.63781961184E+01 0.62567778442E+01
 0.61471635296E+01 0.60489721195E+01 0.59620753264E+01 0.58846453862E+01 0.58165195766E+01
 0.57575080929E+01 0.57077501254E+01 0.56675469599E+01 0.56378853032E+01 0.56195816175E+01
 0.56134361213E+01 0.56195816175E+01 0.56378853032E+01 0.56675469599E+01 0.57077501254E+01
 0.57575080929E+01 0.58165195766E+01 0.58846453862E+01 0.59620753264E+01 0.60489721195E+01
 0.61471635296E+01 0.62567778442E+01 0.63781961184E+01 0.65098787145E+01 0.66499643813E+01
 0.67946609708E+01 0.69374200707E+01 0.70750785864E+01 0.72023201933E+01 0.73129728710E+01
 0.74031641876E+01 0.74727304454E+01 0.75222878915E+01 0.75520956485E+01 0.69375351231E+01
 0.69304397322E+01 0.69091446588E+01 0.68735544135E+01 0.68240832778E+01 0.67619782630E+01
 0.66892911085E+01 0.66077119995E+01 0.65190481419E+01 0.64265723517E+01 0.63349099962E+01
 0.62453370396E+01 0.61597256180E+01 0.60798332604E+01 0.60053331190E+01 0.59371185003E+01
 0.58741096096E+01 0.58165195766E+01 0.57647927051E+01 0.57191366743E+01 0.56798546057E+01
 0.56478745525E+01 0.56241452746E+01 0.56095722029E+01 0.56046326122E+01 0.56095722029E+01
 0.56241452746E+01 0.56478745525E+01 0.56798546057E+01 0.57191366743E+01 0.57647927051E+01
 0.58165195766E+01 0.58741096096E+01 0.59371185003E+01 0.60053331190E+01 0.60798332604E+01
 0.61597256180E+01 0.62453370396E+01 0.63349099962E+01 0.64265723517E+01 0.65190481419E+01
 0.66077119995E+01 0.66892911085E+01 0.67619782630E+01 0.68240832778E+01 0.68735544135E+01
 0.69091446588E+01 0.69304397322E+01 0.64467000645E+01 0.64424572065E+01 0.64297835723E+01
 0.64088852165E+01 0.63800630971E+01 0.63436761625E+01 0.63004497949E+01 0.62521158134E+01
 0.62009950982E+01 0.61483720124E+01 0.60944005931E+01 0.60411218119E+01 0.59893630715E+01
 0.59388029554E+01 0.58904028183E+01 0.58439133074E+01 0.57992744700E+01 0.57575080929E+01
 0.57191366743E+01 0.56843890317E+01 0.56541333375E+01 0.56294395509E+01 0.56112141824E+01
 0.56000383153E+01 0.55962822841E+01 0.56000383153E+01 0.56112141824E+01 0.56294395509E+01
 0.56541333375E+01 0.56843890317E+01 0.57191366743E+01 0.57575080929E+01 0.57992744700E+01
 0.58439133074E+01 0.58904028183E+01 0.59388029554E+01 0.59893630715E+01 0.60411218119E+01
 0.60944005931E+01 0.61483720124E+01 0.62009950982E+01 0.62521158134E+01 0.63004497949E+01
 0.63436761625E+01 0.63800630971E+01 0.64088852165E+01 0.64297835723E+01 0.64424572065E+01
 0.60900427331E+01 0.60878273196E+01 0.60812853053E+01 0.60704915387E+01 0.60558489981E+01
 0.60379365101E+01 0.60175425703E+01 0.59948086646E+01 0.59697090257E+01 0.59428404844E+01
 0.59156864540E+01 0.58873961219E+01 0.58582634805E+01 0.58285197368E+01 0.57983407486E+01
 0.57676588269E+01 0.57370133395E+01 0.57077501254E+01 0.56798546057E+01 0.56541333375E+01
 0.56316413185E+01 0.56134381235E+01 0.56000373308E+01 0.55919017194E+01 0.55891370022E+01
 0.55919017194E+01 0.56000373308E+01 0.56134381235E+01 0.56316413185E+01 0.56541333375E+01
 0.56798546057E+01 0.57077501254E+01 0.57370133395E+01 0.57676588269E+01 0.57983407486E+01
 0.58285197368E+01 0.58582634805E+01 0.58873961219E+01 0.59156864540E+01 0.59428404844E+01
 0.59697090257E+01 0.59948086646E+01 0.60175425703E+01 0.60379365101E+01 0.60558489981E+01
 0.60704915387E+01 0.60812853053E+01 0.60878273196E+01 0.58436634198E+01 0.58430788927E+01
 0.58412825723E+01 0.58384064204E+01 0.58344009159E+01 0.58292129006E+01 0.58226533561E+01
 0.58151267024E+01 0.58070507061E+01 0.57981700260E+01 0.57872141699E+01 0.57749148019E+01
 0.57609092107E+01 0.57447382698E+01 0.57271787694E+01 0.57075781037E+01 0.56875528208E+01
 0.56675469599E+01 0.56478745525E+01 0.56294395509E+01 0.56134381235E+01 0.56005097723E+01
 0.55911106657E+01 0.55853551222E+01 0.55834462407E+01 0.55853551222E+01 0.55911106657E+01
 0.56005097723E+01 0.56134381235E+01 0.56294395509E+01 0.56478745525E+01 0.56675469599E+01
 0.56875528208E+01 0.57075781037E+01 0.57271787694E+01 0.57447382698E+01 0.57609092107E+01
 0.57749148019E+01 0.57872141699E+01 0.57981700260E+01 0.58070507061E+01 0.58151267024E+01
 0.58226533561E+01 0.58292129006E+01 0.58344009159E+01 0.58384064204E+01 0.58412825723E+01
 0.58430788927E+01 0.56882674444E+01 0.56885038551E+01 0.56892028476E+01 0.56903523585E+01
 0.56919595639E+01 0.56941228568E+01 0.56967994299E+01 0.56994235572E+01 0.57010485261E+01
 0.57014217534E+01 0.57008523298E+01 0.56981743011E+01 0.56929575082E+01 0.56856571777E+01
 0.56759525717E+01 0.56640398687E+01 0.56512672035E+01 0.56378853032E+01 0.56241452746E+01
 0.56112141824E+01 0.56000373308E+01 0.55911106657E+01 0.55845851787E+01 0.55806109814E+01
 0.55792701861E+01 0.55806109814E+01 0.55845851787E+01 0.55911106657E+01 0.56000373308E+01
 0.56112141824E+01 0.56241452746E+01 0.56378853032E+01 0.56512672035E+01 0.56640398687E+01
 0.56759525717E+01 0.56856571777E+01 0.56929575082E+01 0.56981743011E+01 0.57008523298E+01
 0.57014217534E+01 0.57010485261E+01 0.56994235572E+01 0.56967994299E+01 0.56941228568E+01
 0.56919595639E+01 0.56903523585E+01 0.56892028476E+01 0.56885038551E+01 0.56024083565E+01
 0.56032216910E+01 0.56055536482E+01 0.56094358490E+01 0.56145837433E+01 0.56206859725E+01
 0.56271415842E+01 0.56338688973E+01 0.56406684020E+01 0.56468722194E+01 0.56508525151E+01
 0.56531020215E+01 0.56529085964E+01 0.56501422344E+01 0.56450275177E+01 0.56374653699E+01
 0.56290893253E+01 0.56195816175E+01 0.56095722029E+01 0.56000383153E+01 0.55919017194E+01
 0.55853551222E+01 0.55806109814E+01 0.55776738366E+01 0.55767170159E+01 0.55776738366E+01
 0.55806109814E+01 0.55853551222E+01 0.55919017194E+01 0.56000383153E+01 0.56095722029E+01
 0.56195816175E+01 0.56290893253E+01 0.56374653699E+01 0.56450275177E+01 0.56501422344E+01
 0.56529085964E+01 0.56531020215E+01 0.56508525151E+01 0.56468722194E+01 0.56406684020E+01
 0.56338688973E+01 0.56271415842E+01 0.56206859725E+01 0.56145837433E+01 0.56094358490E+01
 0.56055536482E+01 0.56032216910E+01 0.55758541354E+01 0.55767170159E+01 0.55792701861E+01
 0.55834462407E+01 0.55891370022E+01 0.55962822841E+01 0.56046326122E+01 0.56134361213E+01
 0.56215628674E+01 0.56285805829E+01 0.56345883079E+01 0.56383954252E+01 0.56394717302E+01
 0.56383954252E+01 0.56345883079E+01 0.56285805829E+01 0.56215628674E+01 0.56134361213E+01
 0.56046326122E+01 0.55962822841E+01 0.55891370022E+01 0.55834462407E+01 0.55792701861E+01
 0.55767170159E+01 0.55758541354E+01 0.55767170159E+01 0.55792701861E+01 0.55834462407E+01
 0.55891370022E+01 0.55962822841E+01 0.56046326122E+01 0.56134361213E+01 0.56215628674E+01
 0.56285805829E+01 0.56345883079E+01 0.56383954252E+01 0.56394717302E+01 0.56383954252E+01
 0.56345883079E+01 0.56285805829E+01 0.56215628674E+01 0.56134361213E+01 0.56046326122E+01
 0.55962822841E+01 0.55891370022E+01 0.55834462407E+01 0.55792701861E+01 0.55767170159E+01
 0.56024083565E+01 0.56032216910E+01 0.56055536482E+01 0.56094358490E+01 0.56145837433E+01
 0.56206859725E+01 0.56271415842E+01 0.56338688973E+01 0.56406684020E+01 0.56468722194E+01
 0.56508525151E+01 0.56531020215E+01 0.56529085964E+01 0.56501422344E+01 0.56450275177E+01
 0.56374653699E+01 0.56290893253E+01 0.56195816175E+01 0.56095722029E+01 0.56000383153E+01
 0.55919017194E+01 0.55853551222E+01 0.55806109814E+01 0.55776738366E+01 0.55767170159E+01
 0.55776738366E+01 0.55806109814E+01 0.55853551222E+01 0.55919017194E+01 0.56000383153E+01
 0.56095722029E+01 0.56195816175E+01 0.56290893253E+01 0.56374653699E+01 0.56450275177E+01
 0.56501422344E+01 0.56529085964E+01 0.56531020215E+01 0.56508525151E+01 0.56468722194E+01
 0.56406684020E+01 0.56338688973E+01 0.56271415842E+01 0.56206859725E+01 0.56145837433E+01
 0.56094358490E+01 0.56055536482E+01 0.56032216910E+01 0.56882674444E+01 0.56885038551E+01
 0.56892028476E+01 0.56903523585E+01 0.56919595639E+01 0.56941228568E+01 0.56967994299E+01
 0.56994235572E+01 0.57010485261E+01 0.57014217534E+01 0.57008523298E+01 0.56981743011E+01
 0.56929575082E+01 0.56856571777E+01 0.56759525717E+01 0.56640398687E+01 0.56512672035E+01
 0.56378853032E+01 0.56241452746E+01 0.56112141824E+01 0.56000373308E+01 0.55911106657E+01
 0.55845851787E+01 0.55806109814E+01 0.55792701861E+01 0.55806109814E+01 0.55845851787E+01
 0.55911106657E+01 0.56000373308E+01 0.56112141824E+01 0.56241452746E+01 0.56378853032E+01
 0.56512672035E+01 0.56640398687E+01 0.56759525717E+01 0.56856571777E+01 0.56929575082E+01
 0.56981743011E+01 0.57008523298E+01 0.57014217534E+01 0.57010485261E+01 0.56994235572E+01
 0.56967994299E+01 0.56941228568E+01 0.56919595639E+01 0.56903523585E+01 0.56892028476E+01
 0.56885038551E+01 0.58436634198E+01 0.58430788927E+01 0.58412825723E+01 0.58384064204E+01
 0.58344009159E+01 0.58292129006E+01 0.58226533561E+01 0.58151267024E+01 0.58070507061E+01
 0.57981700260E+01 0.57872141699E+01 0.57749148019E+01 0.57609092107E+01 0.57447382698E+01
 0.57271787694E+01 0.57075781037E+01 0.56875528208E+01 0.56675469599E+01 0.56478745525E+01
 0.56294395509E+01 0.56134381235E+01 0.56005097723E+01 0.55911106657E+01 0.55853551222E+01
 0.55834462407E+01 0.55853551222E+01 0.55911106657E+01 0.56005097723E+01 0.56134381235E+01
 0.56294395509E+01 0.56478745525E+01 0.56675469599E+01 0.56875528208E+01 0.57075781037E+01
 0.57271787694E+01 0.57447382698E+01 0.57609092107E+01 0.57749148019E+01 0.57872141699E+01
 0.57981700260E+01 0.58070507061E+01 0.58151267024E+01 0.58226533561E+01 0.58292129006E+01
 0.58344009159E+01 0.58384064204E+01 0.58412825723E+01 0.58430788927E+01 0.60900427331E+01
 0.60878273196E+01 0.60812853053E+01 0.60704915387E+01 0.60558489981E+01 0.60379365101E+01
 0.60175425703E+01 0.59948086646E+01 0.59697090257E+01 0.59428404844E+01 0.59156864540E+01
 0.58873961219E+01 0.58582634805E+01 0.58285197368E+01 0.57983407486E+01 0.57676588269E+01
 0.57370133395E+01 0.57077501254E+01 0.56798546057E+01 0.56541333375E+01 0.56316413185E+01
 0.56134381235E+01 0.56000373308E+01 0.55919017194E+01 0.55891370022E+01 0.55919017194E+01
 0.56000373308E+01 0.56134381235E+01 0.56316413185E+01 0.56541333375E+01 0.56798546057E+01
 0.57077501254E+01 0.57370133395E+01 0.57676588269E+01 0.57983407486E+01 0.58285197368E+01
 0.58582634805E+01 0.58873961219E+01 0.59156864540E+01 0.59428404844E+01 0.59697090257E+01
 0.59948086646E+01 0.60175425703E+01 0.60379365101E+01 0.60558489981E+01 0.60704915387E+01
 0.60812853053E+01 0.60878273196E+01 0.64467000645E+01 0.64424572065E+01 0.64297835723E+01
 0.64088852165E+01 0.63800630971E+01 0.63436761625E+01 0.63004497949E+01 0.62521158134E+01
 0.62009950982E+01 0.61483720124E+01 0.60944005931E+01 0.60411218119E+01 0.59893630715E+01
 0.59388029554E+01 0.58904028183E+01 0.58439133074E+01 0.57992744700E+01 0.57575080929E+01
 0.57191366743E+01 0.56843890317E+01 0.56541333375E+01 0.56294395509E+01 0.56112141824E+01
 0.56000383153E+01 0.55962822841E+01 0.56000383153E+01 0.56112141824E+01 0.56294395509E+01
 0.56541333375E+01 0.56843890317E+01 0.57191366743E+01 0.57575080929E+01 0.57992744700E+01
 0.58439133074E+01 0.58904028183E+01 0.59388029554E+01 0.59893630715E+01 0.60411218119E+01
 0.60944005931E+01 0.61483720124E+01 0.62009950982E+01 0.62521158134E+01 0.63004497949E+01
 0.63436761625E+01 0.63800630971E+01 0.64088852165E+01 0.64297835723E+01 0.64424572065E+01
 0.69375351231E+01 0.69304397322E+01 0.69091446588E+01 0.68735544135E+01 0.68240832778E+01
 0.67619782630E+01 0.66892911085E+01 0.66077119995E+01 0.65190481419E+01 0.64265723517E+01
 0.63349099962E+01 0.62453370396E+01 0.61597256180E+01 0.60798332604E+01 0.60053331190E+01
 0.59371185003E+01 0.58741096096E+01 0.58165195766E+01 0.57647927051E+01 0.57191366743E+01
 0.56798546057E+01 0.56478745525E+01 0.56241452746E+01 0.56095722029E+01 0.56046326122E+01
 0.56095722029E+01 0.56241452746E+01 0.56478745525E+01 0.56798546057E+01 0.57191366743E+01
 0.57647927051E+01 0.58165195766E+01 0.58741096096E+01 0.59371185003E+01 0.60053331190E+01
 0.60798332604E+01 0.61597256180E+01 0.62453370396E+01 0.63349099962E+01 0.64265723517E+01
 0.65190481419E+01 0.66077119995E+01 0.66892911085E+01 0.67619782630E+01 0.68240832778E+01
 0.68735544135E+01 0.69091446588E+01 0.69304397322E+01 0.75620527601E+01 0.75520956485E+01
 0.75222878915E+01 0.74727304454E+01 0.74031641876E+01 0.73129728710E+01 0.72023201933E+01
 0.70750785864E+01 0.69374200707E+01 0.67946609708E+01 0.66499643813E+01 0.65098787145E+01
 0.63781961184E+01 0.62567778442E+01 0.61471635296E+01 0.60489721195E+01 0.59620753264E+01
 0.58846453862E+01 0.58165195766E+01 0.57575080929E+01 0.57077501254E+01 0.56675469599E+01
 0.56378853032E+01 0.56195816175E+01 0.56134361213E+01 0.56195816175E+01 0.56378853032E+01
 0.56675469599E+01 0.57077501254E+01 0.57575080929E+01 0.58165195766E+01 0.58846453862E+01
 0.59620753264E+01 0.60489721195E+01 0.61471635296E+01 0.62567778442E+01 0.63781961184E+01
 0.65098787145E+01 0.66499643813E+01 0.67946609708E+01 0.69374200707E+01 0.70750785864E+01
 0.72023201933E+01 0.73129728710E+01 0.74031641876E+01 0.74727304454E+01 0.75222878915E+01
 0.75520956485E+01 0.84382956817E+01 0.84163788041E+01 0.83533290879E+01 0.82560051428E+01
 0.81336780643E+01 0.79936387225E+01 0.78384945559E+01 0.76648245102E+01 0.74703634042E+01
 0.72616751603E+01 0.70514835497E+01 0.68463629421E+01 0.66529719787E+01 0.64770147333E+01
 0.63201838246E+01 0.61829868012E+01 0.60641400534E+01 0.59620753264E+01 0.58741096096E+01
 0.57992744700E+01 0.57370133395E+01 0.56875528208E+01 0.56512672035E+01 0.56290893253E+01
 0.56215628674E+01 0.56290893253E+01 0.56512672035E+01 0.56875528208E+01 0.57370133395E+01
 0.57992744700E+01 0.58741096096E+01 0.59620753264E+01 0.60641400534E+01 0.61829868012E+01
 0.63201838246E+01 0.64770147333E+01 0.66529719787E+01 0.68463629421E+01 0.70514835497E+01
 0.72616751603E+01 0.74703634042E+01 0.76648245102E+01 0.78384945559E+01 0.79936387225E+01
 0.81336780643E+01 0.82560051428E+01 0.83533290879E+01 0.84163788041E+01 0.10016800994E+02
 0.99649693963E+01 0.98151208415E+01 0.95841611724E+01 0.92974914608E+01 0.89855455108E+01
 0.86760640118E+01 0.83855683048E+01 0.81107995428E+01 0.78340944304E+01 0.75462137909E+01
 0.72613267148E+01 0.69925331661E+01 0.67466749655E+01 0.65296711836E+01 0.63422027208E+01
 0.61829868012E+01 0.60489721195E+01 0.59371185003E+01 0.58439133074E+01 0.57676588269E+01
 0.57075781037E+01 0.56640398687E+01 0.56374653699E+01 0.56285805829E+01 0.56374653699E+01
 0.56640398687E+01 0.57075781037E+01 0.57676588269E+01 0.58439133074E+01 0.59371185003E+01
 0.60489721195E+01 0.61829868012E+01 0.63422027208E+01 0.65296711836E+01 0.67466749655E+01
 0.69925331661E+01 0.72613267148E+01 0.75462137909E+01 0.78340944304E+01 0.81107995428E+01
 0.83855683048E+01 0.86760640118E+01 0.89855455108E+01 0.92974914608E+01 0.95841611724E+01