   2   2   1   0
  0.1173411E+02  0.2863036E-09  0.2863036E-09  0.2863036E-09  0.5000000E-15
  1.000000000000000E-004
  CAR 
 unknown system                          
     45.18522545     -4.87302945  301      5.84015107      1.00000000
     -4.873  0.0000E+00  0.0000E+00  0.0000E+00  0.0000E+00
     -4.706  0.0000E+00  0.0000E+00  0.0000E+00  0.0000E+00
     -4.539  0.0000E+00  0.0000E+00  0.0000E+00  0.0000E+00
     -4.372  0.0000E+00  0.0000E+00  0.0000E+00  0.0000E+00
     -4.206 -0.3429E-32  0.0000E+00 -0.5722E-33  0.0000E+00
     -4.039 -0.1030E-26 -0.5600E-32 -0.1719E-27 -0.9343E-33
     -3.872 -0.7621E-22 -0.1597E-26 -0.1272E-22 -0.2665E-27
     -3.705 -0.1346E-17 -0.1122E-21 -0.2247E-18 -0.1872E-22
     -3.538 -0.6002E-14 -0.1881E-17 -0.1002E-14 -0.3139E-18
     -3.371 -0.6663E-11 -0.7958E-14 -0.1113E-11 -0.1328E-14
     -3.204 -0.1876E-08 -0.8386E-11 -0.3141E-09 -0.1401E-11
     -3.038 -0.1372E-06 -0.2242E-08 -0.2321E-07 -0.3754E-09
     -2.871 -0.2535E-05 -0.1557E-06 -0.4462E-06 -0.2636E-07
     -2.704 -0.6097E-05 -0.2721E-05 -0.1464E-05 -0.4803E-06
     -2.537  0.6484E-04 -0.5606E-05  0.9356E-05 -0.1416E-05
     -2.370  0.2307E-03  0.6985E-04  0.4784E-04  0.1024E-04
     -2.203  0.3649E-03  0.2342E-03  0.1087E-03  0.4932E-04
     -2.036  0.5350E-03  0.3660E-03  0.1980E-03  0.1104E-03
     -1.870  0.4672E-03  0.5329E-03  0.2760E-03  0.1993E-03
     -1.703  0.7040E-03  0.4567E-03  0.3934E-03  0.2755E-03
     -1.536  0.7568E-03  0.6943E-03  0.5197E-03  0.3914E-03
     -1.369  0.8088E-03  0.7388E-03  0.6547E-03  0.5146E-03
     -1.202  0.7292E-03  0.7908E-03  0.7763E-03  0.6466E-03
     -1.035  0.1047E-02  0.7055E-03  0.9510E-03  0.7643E-03
     -0.868  0.1232E-02  0.9549E-03  0.1157E-02  0.9236E-03
     -0.702  0.1011E-02  0.1186E-02  0.1325E-02  0.1122E-02
     -0.535  0.1004E-02  0.1043E-02  0.1493E-02  0.1296E-02
     -0.368  0.1518E-02  0.8036E-03  0.1746E-02  0.1430E-02
     -0.201  0.1634E-02  0.1323E-02  0.2019E-02  0.1651E-02
     -0.034  0.1535E-02  0.1500E-02  0.2275E-02  0.1901E-02
      0.133  0.1585E-02  0.1420E-02  0.2539E-02  0.2138E-02
      0.300  0.1933E-02  0.1229E-02  0.2862E-02  0.2343E-02
      0.467  0.2447E-02  0.1589E-02  0.3270E-02  0.2608E-02
      0.633  0.2730E-02  0.1552E-02  0.3726E-02  0.2867E-02
      0.800  0.3162E-02  0.1939E-02  0.4253E-02  0.3191E-02
      0.967  0.5867E-02  0.2181E-02  0.5232E-02  0.3555E-02
      1.134  0.1056E-01  0.1971E-02  0.6994E-02  0.3884E-02
      1.301  0.1158E-01  0.1760E-02  0.8926E-02  0.4177E-02
      1.468  0.1412E-01  0.2712E-02  0.1128E-01  0.4630E-02
      1.635  0.1813E-01  0.3010E-02  0.1431E-01  0.5132E-02
      1.801  0.1805E-01  0.3048E-02  0.1732E-01  0.5641E-02
      1.968  0.1373E-01  0.3654E-02  0.1961E-01  0.6250E-02
      2.135  0.9758E-02  0.4497E-02  0.2124E-01  0.7001E-02
      2.302  0.8616E-02  0.6273E-02  0.2268E-01  0.8048E-02
      2.469  0.1901E-01  0.7828E-02  0.2585E-01  0.9354E-02
      2.636  0.3039E-01  0.6627E-02  0.3092E-01  0.1046E-01
      2.803  0.2406E-01  0.7314E-02  0.3494E-01  0.1168E-01
      2.969  0.2020E-01  0.9199E-02  0.3831E-01  0.1321E-01
      3.136  0.2250E-01  0.1155E-01  0.4206E-01  0.1514E-01
      3.303  0.2839E-01  0.1302E-01  0.4680E-01  0.1731E-01
      3.470  0.2712E-01  0.1125E-01  0.5132E-01  0.1919E-01
      3.637  0.1640E-01  0.8295E-02  0.5406E-01  0.2058E-01
      3.804  0.9394E-02  0.5517E-02  0.5563E-01  0.2150E-01
      3.971  0.8445E-02  0.9603E-02  0.5704E-01  0.2310E-01
      4.137  0.9093E-02  0.2065E-01  0.5855E-01  0.2654E-01
      4.304  0.1208E-01  0.2645E-01  0.6057E-01  0.3096E-01
      4.471  0.1901E-01  0.2462E-01  0.6374E-01  0.3507E-01
      4.638  0.3125E-01  0.2283E-01  0.6896E-01  0.3888E-01
      4.805  0.4358E-01  0.2259E-01  0.7623E-01  0.4265E-01
      4.972  0.5053E-01  0.2428E-01  0.8466E-01  0.4670E-01
      5.139  0.3507E-01  0.2349E-01  0.9051E-01  0.5062E-01
      5.305  0.1855E-01  0.1919E-01  0.9361E-01  0.5382E-01
      5.472  0.1665E-01  0.1325E-01  0.9639E-01  0.5603E-01
      5.639  0.1394E-01  0.6579E-02  0.9871E-01  0.5713E-01
      5.806  0.1509E-01  0.5458E-02  0.1012E+00  0.5804E-01
      5.973  0.1545E-01  0.4748E-02  0.1038E+00  0.5883E-01
      6.140  0.9536E-02  0.5446E-02  0.1054E+00  0.5974E-01
      6.307  0.4387E-02  0.5920E-02  0.1061E+00  0.6073E-01
      6.474  0.2225E-02  0.8659E-02  0.1065E+00  0.6217E-01
      6.640  0.2774E-02  0.1190E-01  0.1070E+00  0.6416E-01
      6.807  0.3553E-02  0.1498E-01  0.1076E+00  0.6666E-01
      6.974  0.3209E-02  0.1778E-01  0.1081E+00  0.6962E-01
      7.141  0.2381E-02  0.2260E-01  0.1085E+00  0.7339E-01
      7.308  0.3110E-02  0.2682E-01  0.1090E+00  0.7787E-01
      7.475  0.3398E-02  0.2535E-01  0.1096E+00  0.8210E-01
      7.642  0.2026E-02  0.3207E-01  0.1099E+00  0.8745E-01
      7.808  0.2216E-02  0.4810E-01  0.1103E+00  0.9548E-01
      7.975  0.3173E-02  0.3286E-01  0.1108E+00  0.1010E+00
      8.142  0.3306E-02  0.1666E-01  0.1114E+00  0.1037E+00
      8.309  0.2826E-02  0.1140E-01  0.1118E+00  0.1056E+00
      8.476  0.2680E-02  0.6120E-02  0.1123E+00  0.1067E+00
      8.643  0.2054E-02  0.4163E-02  0.1126E+00  0.1074E+00
      8.810  0.1893E-02  0.4622E-02  0.1129E+00  0.1081E+00
      8.976  0.2589E-02  0.4405E-02  0.1134E+00  0.1089E+00
      9.143  0.2593E-02  0.3751E-02  0.1138E+00  0.1095E+00
      9.310  0.2368E-02  0.2636E-02  0.1142E+00  0.1099E+00
      9.477  0.2503E-02  0.3328E-02  0.1146E+00  0.1105E+00
      9.644  0.2648E-02  0.4873E-02  0.1151E+00  0.1113E+00
      9.811  0.1948E-02  0.3654E-02  0.1154E+00  0.1119E+00
      9.978  0.1665E-02  0.2226E-02  0.1157E+00  0.1123E+00
     10.144  0.1818E-02  0.2278E-02  0.1160E+00  0.1127E+00
     10.311  0.2120E-02  0.3442E-02  0.1163E+00  0.1132E+00
     10.478  0.1272E-02  0.3473E-02  0.1165E+00  0.1138E+00
     10.645  0.1349E-02  0.2403E-02  0.1168E+00  0.1142E+00
     10.812  0.2503E-02  0.2411E-02  0.1172E+00  0.1146E+00
     10.979  0.2088E-02  0.3195E-02  0.1175E+00  0.1152E+00
     11.146  0.1816E-02  0.2232E-02  0.1178E+00  0.1155E+00
     11.312  0.1138E-02  0.1782E-02  0.1180E+00  0.1158E+00
     11.479  0.1208E-02  0.2384E-02  0.1182E+00  0.1162E+00
     11.646  0.1111E-02  0.1906E-02  0.1184E+00  0.1165E+00
     11.813  0.4179E-03  0.1772E-02  0.1185E+00  0.1168E+00
     11.980  0.1040E-02  0.2535E-02  0.1186E+00  0.1173E+00
     12.147  0.1412E-02  0.2149E-02  0.1189E+00  0.1176E+00
     12.314  0.9957E-03  0.1693E-02  0.1190E+00  0.1179E+00
     12.480  0.9738E-03  0.1162E-02  0.1192E+00  0.1181E+00
     12.647  0.8595E-03  0.1139E-02  0.1194E+00  0.1183E+00
     12.814  0.9011E-03  0.1022E-02  0.1195E+00  0.1185E+00
     12.981  0.5670E-03  0.1174E-02  0.1196E+00  0.1186E+00
     13.148  0.3411E-03  0.1822E-02  0.1197E+00  0.1190E+00
     13.315  0.1616E-02  0.1401E-02  0.1199E+00  0.1192E+00
     13.482  0.3798E-02  0.5591E-03  0.1206E+00  0.1193E+00
     13.649  0.5273E-02  0.5888E-03  0.1214E+00  0.1194E+00
     13.815  0.5517E-02  0.8860E-03  0.1224E+00  0.1195E+00
     13.982  0.4902E-02  0.4978E-03  0.1232E+00  0.1196E+00
     14.149  0.3842E-02  0.2264E-03  0.1238E+00  0.1196E+00
     14.316  0.3638E-02  0.1521E-03  0.1244E+00  0.1197E+00
     14.483  0.3738E-02  0.1436E-02  0.1251E+00  0.1199E+00
     14.650  0.3043E-02  0.4257E-02  0.1256E+00  0.1206E+00
     14.817  0.3081E-02  0.6073E-02  0.1261E+00  0.1216E+00
     14.983  0.3007E-02  0.7074E-02  0.1266E+00  0.1228E+00
     15.150  0.2766E-02  0.5864E-02  0.1270E+00  0.1238E+00
     15.317  0.3669E-02  0.3093E-02  0.1276E+00  0.1243E+00
     15.484  0.3428E-02  0.3318E-02  0.1282E+00  0.1249E+00
     15.651  0.2987E-02  0.4152E-02  0.1287E+00  0.1256E+00
     15.818  0.4379E-02  0.4403E-02  0.1294E+00  0.1263E+00
     15.985  0.4278E-02  0.4177E-02  0.1302E+00  0.1270E+00
     16.151  0.3799E-02  0.2635E-02  0.1308E+00  0.1274E+00
     16.318  0.3373E-02  0.3394E-02  0.1314E+00  0.1280E+00
     16.485  0.3635E-02  0.3795E-02  0.1320E+00  0.1286E+00
     16.652  0.4054E-02  0.4854E-02  0.1326E+00  0.1294E+00
     16.819  0.3734E-02  0.4678E-02  0.1333E+00  0.1302E+00
     16.986  0.3609E-02  0.3899E-02  0.1339E+00  0.1309E+00
     17.153  0.3549E-02  0.4438E-02  0.1345E+00  0.1316E+00
     17.319  0.5011E-02  0.4154E-02  0.1353E+00  0.1323E+00
     17.486  0.4415E-02  0.2745E-02  0.1360E+00  0.1328E+00
     17.653  0.2380E-02  0.3638E-02  0.1364E+00  0.1334E+00
     17.820  0.2454E-02  0.4346E-02  0.1368E+00  0.1341E+00
     17.987  0.3723E-02  0.4182E-02  0.1375E+00  0.1348E+00
     18.154  0.3344E-02  0.5366E-02  0.1380E+00  0.1357E+00
     18.321  0.4065E-02  0.4460E-02  0.1387E+00  0.1364E+00
     18.487  0.5775E-02  0.2169E-02  0.1397E+00  0.1368E+00
     18.654  0.3877E-02  0.2318E-02  0.1403E+00  0.1372E+00
     18.821  0.2562E-02  0.3319E-02  0.1407E+00  0.1377E+00
     18.988  0.3567E-02  0.4812E-02  0.1413E+00  0.1385E+00
     19.155  0.2103E-02  0.5054E-02  0.1417E+00  0.1394E+00
     19.322  0.1408E-02  0.4812E-02  0.1419E+00  0.1402E+00
     19.489  0.4413E-02  0.3576E-02  0.1427E+00  0.1408E+00
     19.656  0.5585E-02  0.2876E-02  0.1436E+00  0.1413E+00
     19.822  0.4538E-02  0.2376E-02  0.1443E+00  0.1417E+00
     19.989  0.4557E-02  0.2176E-02  0.1451E+00  0.1420E+00
     20.156  0.2349E-02  0.4225E-02  0.1455E+00  0.1427E+00
     20.323  0.1541E-02  0.4883E-02  0.1458E+00  0.1435E+00
     20.490  0.2620E-02  0.5195E-02  0.1462E+00  0.1444E+00
     20.657  0.3310E-02  0.4613E-02  0.1467E+00  0.1452E+00
     20.824  0.3072E-02  0.1886E-02  0.1473E+00  0.1455E+00
     20.990  0.3601E-02  0.2592E-02  0.1479E+00  0.1459E+00
     21.157  0.5226E-02  0.3063E-02  0.1487E+00  0.1464E+00
     21.324  0.4782E-02  0.2761E-02  0.1495E+00  0.1469E+00
     21.491  0.3401E-02  0.3354E-02  0.1501E+00  0.1475E+00
     21.658  0.1859E-02  0.4461E-02  0.1504E+00  0.1482E+00
     21.825  0.1478E-02  0.5493E-02  0.1506E+00  0.1491E+00
     21.992  0.3485E-02  0.4094E-02  0.1512E+00  0.1498E+00
     22.158  0.3996E-02  0.2852E-02  0.1519E+00  0.1503E+00
     22.325  0.3998E-02  0.1320E-02  0.1526E+00  0.1505E+00
     22.492  0.4996E-02  0.2571E-02  0.1534E+00  0.1509E+00
     22.659  0.5025E-02  0.3850E-02  0.1542E+00  0.1516E+00
     22.826  0.4881E-02  0.3767E-02  0.1551E+00  0.1522E+00
     22.993  0.4336E-02  0.4194E-02  0.1558E+00  0.1529E+00
     23.160  0.3146E-02  0.5285E-02  0.1563E+00  0.1538E+00
     23.326  0.2997E-02  0.5449E-02  0.1568E+00  0.1547E+00
     23.493  0.4343E-02  0.4249E-02  0.1575E+00  0.1554E+00
     23.660  0.5718E-02  0.3710E-02  0.1585E+00  0.1560E+00
     23.827  0.5026E-02  0.4393E-02  0.1593E+00  0.1567E+00
     23.994  0.5086E-02  0.4325E-02  0.1602E+00  0.1575E+00
     24.161  0.6985E-02  0.4882E-02  0.1613E+00  0.1583E+00
     24.328  0.5422E-02  0.6638E-02  0.1622E+00  0.1594E+00
     24.494  0.4012E-02  0.7089E-02  0.1629E+00  0.1606E+00
     24.661  0.3939E-02  0.5818E-02  0.1636E+00  0.1615E+00
     24.828  0.4201E-02  0.4261E-02  0.1643E+00  0.1623E+00
     24.995  0.4164E-02  0.4395E-02  0.1650E+00  0.1630E+00
     25.162  0.5420E-02  0.4507E-02  0.1659E+00  0.1637E+00
     25.329  0.6029E-02  0.3732E-02  0.1669E+00  0.1644E+00
     25.496  0.6046E-02  0.5172E-02  0.1679E+00  0.1652E+00
     25.663  0.6119E-02  0.5723E-02  0.1689E+00  0.1662E+00
     25.829  0.5621E-02  0.5405E-02  0.1698E+00  0.1671E+00
     25.996  0.3736E-02  0.7080E-02  0.1705E+00  0.1683E+00
     26.163  0.3054E-02  0.6617E-02  0.1710E+00  0.1694E+00
     26.330  0.4502E-02  0.4000E-02  0.1717E+00  0.1700E+00
     26.497  0.6129E-02  0.3266E-02  0.1727E+00  0.1706E+00
     26.664  0.6134E-02  0.4209E-02  0.1738E+00  0.1713E+00
     26.831  0.5747E-02  0.5251E-02  0.1747E+00  0.1722E+00
     26.997  0.4332E-02  0.5876E-02  0.1754E+00  0.1731E+00
     27.164  0.4154E-02  0.5950E-02  0.1761E+00  0.1741E+00
     27.331  0.3261E-02  0.5819E-02  0.1767E+00  0.1751E+00
     27.498  0.2855E-02  0.4706E-02  0.1772E+00  0.1759E+00
     27.665  0.3566E-02  0.2799E-02  0.1778E+00  0.1764E+00
     27.832  0.3321E-02  0.3374E-02  0.1783E+00  0.1769E+00
     27.999  0.3928E-02  0.4090E-02  0.1790E+00  0.1776E+00
     28.165  0.4280E-02  0.2543E-02  0.1797E+00  0.1780E+00
     28.332  0.3982E-02  0.2497E-02  0.1803E+00  0.1784E+00
     28.499  0.3536E-02  0.4616E-02  0.1809E+00  0.1792E+00
     28.666  0.2762E-02  0.5588E-02  0.1814E+00  0.1801E+00
     28.833  0.2886E-02  0.3118E-02  0.1819E+00  0.1807E+00
     29.000  0.2099E-02  0.2336E-02  0.1822E+00  0.1811E+00
     29.167  0.2183E-02  0.3270E-02  0.1826E+00  0.1816E+00
     29.333  0.2260E-02  0.3176E-02  0.1830E+00  0.1821E+00
     29.500  0.3278E-02  0.2307E-02  0.1835E+00  0.1825E+00
     29.667  0.3948E-02  0.2361E-02  0.1842E+00  0.1829E+00
     29.834  0.3178E-02  0.2441E-02  0.1847E+00  0.1833E+00
     30.001  0.3136E-02  0.3785E-02  0.1852E+00  0.1839E+00
     30.168  0.4099E-02  0.4211E-02  0.1859E+00  0.1846E+00
     30.335  0.4572E-02  0.2770E-02  0.1867E+00  0.1851E+00
     30.501  0.5534E-02  0.3697E-02  0.1876E+00  0.1857E+00
     30.668  0.5777E-02  0.5580E-02  0.1886E+00  0.1867E+00
     30.835  0.6747E-02  0.5209E-02  0.1897E+00  0.1875E+00
     31.002  0.6230E-02  0.5929E-02  0.1907E+00  0.1885E+00
     31.169  0.5830E-02  0.6642E-02  0.1917E+00  0.1896E+00
     31.336  0.4855E-02  0.5662E-02  0.1925E+00  0.1906E+00
     31.503  0.4354E-02  0.6157E-02  0.1932E+00  0.1916E+00
     31.669  0.3731E-02  0.5419E-02  0.1939E+00  0.1925E+00
     31.836  0.3048E-02  0.3670E-02  0.1944E+00  0.1931E+00
     32.003  0.3978E-02  0.4785E-02  0.1950E+00  0.1939E+00
     32.170  0.3133E-02  0.4816E-02  0.1956E+00  0.1947E+00
     32.337  0.1650E-02  0.2835E-02  0.1958E+00  0.1952E+00
     32.504  0.1147E-02  0.2263E-02  0.1960E+00  0.1956E+00
     32.671  0.9816E-03  0.1499E-02  0.1962E+00  0.1958E+00
     32.838  0.1916E-02  0.1441E-02  0.1965E+00  0.1961E+00
     33.004  0.1361E-02  0.2452E-02  0.1967E+00  0.1965E+00
     33.171  0.7683E-03  0.1255E-02  0.1969E+00  0.1967E+00
     33.338  0.1165E-02  0.6844E-03  0.1971E+00  0.1968E+00
     33.505  0.1419E-02  0.1591E-02  0.1973E+00  0.1971E+00
     33.672  0.1389E-02  0.2046E-02  0.1975E+00  0.1974E+00
     33.839  0.7728E-03  0.1142E-02  0.1977E+00  0.1976E+00
     34.006  0.7485E-03  0.5644E-03  0.1978E+00  0.1977E+00
     34.172  0.8403E-03  0.7359E-03  0.1979E+00  0.1978E+00
     34.339  0.3218E-03  0.6784E-03  0.1980E+00  0.1979E+00
     34.506  0.6124E-04  0.3370E-03  0.1980E+00  0.1980E+00
     34.673  0.5402E-04  0.6240E-04  0.1980E+00  0.1980E+00
     34.840  0.7978E-03  0.4711E-03  0.1981E+00  0.1981E+00
     35.007  0.1016E-02  0.9771E-03  0.1983E+00  0.1982E+00
     35.174  0.2747E-03  0.5809E-03  0.1983E+00  0.1983E+00
     35.340  0.4907E-04  0.1804E-03  0.1983E+00  0.1984E+00
     35.507  0.9289E-03  0.8085E-03  0.1985E+00  0.1985E+00
     35.674  0.1130E-02  0.1109E-02  0.1987E+00  0.1987E+00
     35.841  0.7833E-03  0.8711E-03  0.1988E+00  0.1988E+00
     36.008  0.5118E-03  0.5464E-03  0.1989E+00  0.1989E+00
     36.175  0.1458E-03  0.1436E-04  0.1989E+00  0.1989E+00
     36.342  0.5072E-03  0.3449E-03  0.1990E+00  0.1990E+00
     36.508  0.2924E-03  0.5576E-03  0.1991E+00  0.1991E+00
     36.675  0.2417E-03  0.3141E-03  0.1991E+00  0.1991E+00
     36.842  0.9918E-04  0.4167E-04  0.1991E+00  0.1991E+00
     37.009  0.8755E-04  0.5858E-04  0.1991E+00  0.1991E+00
     37.176  0.5206E-03  0.5027E-03  0.1992E+00  0.1992E+00
     37.343  0.2802E-03  0.3161E-03  0.1993E+00  0.1993E+00
     37.510 -0.5088E-04 -0.4781E-04  0.1993E+00  0.1993E+00
     37.676  0.5886E-04  0.1526E-03  0.1993E+00  0.1993E+00
     37.843  0.8224E-03  0.8645E-03  0.1994E+00  0.1994E+00
     38.010  0.7978E-03  0.7103E-03  0.1995E+00  0.1995E+00
     38.177  0.2148E-03  0.2744E-03  0.1996E+00  0.1996E+00
     38.344  0.2437E-03  0.1691E-03  0.1996E+00  0.1996E+00
     38.511  0.1995E-03  0.1418E-03  0.1997E+00  0.1996E+00
     38.678  0.1106E-03  0.1329E-03  0.1997E+00  0.1997E+00
     38.845 -0.5908E-05 -0.1656E-05  0.1997E+00  0.1997E+00
     39.011 -0.1364E-04 -0.3708E-05  0.1997E+00  0.1997E+00
     39.178  0.1373E-03  0.1911E-03  0.1997E+00  0.1997E+00
     39.345  0.2638E-03  0.2291E-03  0.1997E+00  0.1997E+00
     39.512  0.4797E-04  0.6420E-05  0.1997E+00  0.1997E+00
     39.679 -0.2209E-04  0.6955E-04  0.1997E+00  0.1998E+00
     39.846  0.1293E-03  0.2719E-03  0.1998E+00  0.1998E+00
     40.013  0.2638E-03  0.9677E-04  0.1998E+00  0.1998E+00
     40.179  0.4439E-04 -0.7507E-05  0.1998E+00  0.1998E+00
     40.346  0.8176E-04  0.1897E-03  0.1998E+00  0.1998E+00
     40.513  0.2596E-03  0.2526E-03  0.1999E+00  0.1999E+00
     40.680  0.1590E-03  0.2611E-03  0.1999E+00  0.1999E+00
     40.847  0.2592E-03  0.1599E-03  0.1999E+00  0.2000E+00
     41.014  0.1093E-03 -0.4939E-05  0.2000E+00  0.2000E+00
     41.181 -0.1175E-04 -0.5557E-05  0.2000E+00  0.2000E+00
     41.347 -0.3175E-05 -0.2361E-06  0.2000E+00  0.2000E+00
     41.514 -0.9058E-07 -0.1965E-08  0.2000E+00  0.2000E+00
     41.681 -0.5331E-09 -0.3692E-11  0.2000E+00  0.2000E+00
     41.848 -0.7189E-12 -0.2460E-13  0.2000E+00  0.2000E+00
     42.015 -0.6929E-12 -0.3027E-10  0.2000E+00  0.2000E+00
     42.182 -0.4775E-09 -0.9311E-08  0.2000E+00  0.2000E+00
     42.349 -0.7518E-07 -0.6266E-06  0.2000E+00  0.2000E+00
     42.515 -0.2417E-05 -0.7062E-05  0.2000E+00  0.2000E+00
     42.682 -0.7198E-05  0.2137E-04  0.2000E+00  0.2000E+00
     42.849  0.8263E-04  0.1654E-03  0.2000E+00  0.2000E+00
     43.016  0.1791E-03  0.1118E-03  0.2000E+00  0.2000E+00
     43.183  0.4140E-04 -0.3000E-05  0.2000E+00  0.2000E+00
     43.350 -0.8228E-05 -0.3678E-05  0.2000E+00  0.2000E+00
     43.517 -0.1105E-05 -0.1559E-06  0.2000E+00  0.2000E+00
     43.683 -0.2170E-07 -0.1294E-08  0.2000E+00  0.2000E+00
     43.850 -0.9121E-10 -0.2429E-11  0.2000E+00  0.2000E+00
     44.017 -0.8878E-13 -0.1076E-14  0.2000E+00  0.2000E+00
     44.184 -0.2060E-16 -0.1262E-18  0.2000E+00  0.2000E+00
     44.351  0.0000E+00  0.0000E+00  0.2000E+00  0.2000E+00
     44.518  0.0000E+00  0.0000E+00  0.2000E+00  0.2000E+00
     44.685  0.0000E+00  0.0000E+00  0.2000E+00  0.2000E+00
     44.852  0.0000E+00  0.0000E+00  0.2000E+00  0.2000E+00
     45.018  0.0000E+00  0.0000E+00  0.2000E+00  0.2000E+00
     45.185  0.0000E+00  0.0000E+00  0.2000E+00  0.2000E+00
     45.18522545     -4.87302945  301      5.84015107      1.00000000
     -4.873  0.0000E+00  0.0000E+00  0.0000E+00  0.0000E+00  0.0000E+00  0.0000E+00  0.0000E+00  0.0000E+00  0.0000E+00  0.0000E+00  0.0000E+00  0.0000E+00  0.0000E+00  0.0000E+00  0.0000E+00  0.0000E+00  0.0000E+00  0.0000E+00
     -4.706  0.0000E+00  0.0000E+00  0.0000E+00  0.0000E+00  0.0000E+00  0.0000E+00  0.0000E+00  0.0000E+00  0.0000E+00  0.0000E+00  0.0000E+00  0.0000E+00  0.0000E+00  0.0000E+00  0.0000E+00  0.0000E+00  0.0000E+00  0.0000E+00
     -4.539  0.0000E+00  0.0000E+00  0.0000E+00  0.0000E+00  0.0000E+00  0.0000E+00  0.0000E+00  0.0000E+00  0.0000E+00  0.0000E+00  0.0000E+00  0.0000E+00  0.0000E+00  0.0000E+00  0.0000E+00  0.0000E+00  0.0000E+00  0.0000E+00
     -4.372  0.0000E+00  0.0000E+00  0.0000E+00  0.0000E+00  0.0000E+00  0.0000E+00  0.0000E+00  0.0000E+00  0.0000E+00  0.0000E+00  0.0000E+00  0.0000E+00  0.0000E+00  0.0000E+00  0.0000E+00  0.0000E+00  0.0000E+00  0.0000E+00
     -4.206 -0.1257E-30  0.0000E+00 -0.1136E-35  0.0000E+00 -0.1136E-35  0.0000E+00 -0.1136E-35  0.0000E+00 -0.1851E-43  0.0000E+00 -0.1851E-43  0.0000E+00 -0.1263E-37  0.0000E+00 -0.1851E-43  0.0000E+00 -0.1263E-37  0.0000E+00
     -4.039 -0.3775E-25 -0.2051E-30 -0.7423E-30 -0.1852E-35 -0.7423E-30 -0.1852E-35 -0.7423E-30 -0.1852E-35 -0.3358E-34 -0.1176E-42 -0.3358E-34 -0.1176E-42 -0.8243E-32 -0.1445E-37 -0.3358E-34 -0.1176E-42 -0.8243E-32 -0.1445E-37
     -3.872 -0.2792E-20 -0.5850E-25 -0.1192E-24 -0.1153E-29 -0.1192E-24 -0.1153E-29 -0.1192E-24 -0.1153E-29 -0.1165E-28 -0.3669E-34 -0.1165E-28 -0.3669E-34 -0.1322E-26 -0.8988E-32 -0.1165E-28 -0.3669E-34 -0.1322E-26 -0.8988E-32
     -3.705 -0.4932E-16 -0.4108E-20 -0.4708E-20 -0.1765E-24 -0.4708E-20 -0.1765E-24 -0.4708E-20 -0.1765E-24 -0.9935E-24 -0.1217E-28 -0.9935E-24 -0.1217E-28 -0.5202E-22 -0.1373E-26 -0.9935E-24 -0.1217E-28 -0.5202E-22 -0.1373E-26
     -3.538 -0.2198E-12 -0.6887E-16 -0.4404E-16 -0.6637E-20 -0.4404E-16 -0.6637E-20 -0.4404E-16 -0.6637E-20 -0.2013E-19 -0.9927E-24 -0.2013E-19 -0.9927E-24 -0.4827E-18 -0.5146E-22 -0.2013E-19 -0.9927E-24 -0.4827E-18 -0.5146E-22
     -3.371 -0.2438E-09 -0.2913E-12 -0.1038E-12 -0.5910E-16 -0.1038E-12 -0.5910E-16 -0.1038E-12 -0.5910E-16 -0.1016E-15 -0.1922E-19 -0.1016E-15 -0.1922E-19 -0.1119E-14 -0.4546E-18 -0.1016E-15 -0.1922E-19 -0.1119E-14 -0.4546E-18
     -3.204 -0.6856E-07 -0.3067E-09 -0.6018E-10 -0.1326E-12 -0.6018E-10 -0.1326E-12 -0.6018E-10 -0.1326E-12 -0.1243E-12 -0.9280E-16 -0.1243E-12 -0.9280E-16 -0.6263E-12 -0.1003E-14 -0.1243E-12 -0.9280E-16 -0.6263E-12 -0.1003E-14
     -3.038 -0.5002E-05 -0.8188E-07 -0.8617E-08 -0.7319E-10 -0.8617E-08 -0.7319E-10 -0.8617E-08 -0.7319E-10 -0.3642E-10 -0.1085E-12 -0.3642E-10 -0.1085E-12 -0.8335E-10 -0.5338E-12 -0.3642E-10 -0.1085E-12 -0.8335E-10 -0.5338E-12
     -2.871 -0.9199E-04 -0.5673E-05 -0.2989E-06 -0.9972E-08 -0.2989E-06 -0.9972E-08 -0.2989E-06 -0.9972E-08 -0.2485E-08 -0.3037E-10 -0.2485E-08 -0.3037E-10 -0.2515E-08 -0.6742E-10 -0.2485E-08 -0.3037E-10 -0.2515E-08 -0.6742E-10
     -2.704 -0.2174E-03 -0.9865E-04 -0.2008E-05 -0.3284E-06 -0.2008E-05 -0.3284E-06 -0.2008E-05 -0.3284E-06 -0.3484E-07 -0.1975E-08 -0.3484E-07 -0.1975E-08 -0.1523E-07 -0.1919E-08 -0.3484E-07 -0.1975E-08 -0.1523E-07 -0.1919E-08
     -2.537  0.2362E-02 -0.1991E-03  0.4904E-05 -0.2047E-05  0.4904E-05 -0.2047E-05  0.4904E-05 -0.2047E-05 -0.2743E-07 -0.2609E-07 -0.2743E-07 -0.2609E-07 -0.4336E-07 -0.1067E-07 -0.2743E-07 -0.2609E-07 -0.4336E-07 -0.1067E-07
     -2.370  0.8329E-02  0.2541E-02  0.4143E-04  0.5709E-05  0.4143E-04  0.5709E-05  0.4143E-04  0.5709E-05  0.4261E-06 -0.1239E-07  0.4261E-06 -0.1239E-07  0.7788E-07 -0.2784E-07  0.4261E-06 -0.1239E-07  0.7788E-07 -0.2784E-07
     -2.203  0.1294E-01  0.8448E-02  0.1427E-03  0.4311E-04  0.1427E-03  0.4311E-04  0.1427E-03  0.4311E-04  0.2907E-05  0.3326E-06  0.2907E-05  0.3326E-06  0.3423E-05  0.7485E-07  0.2907E-05  0.3326E-06  0.3423E-05  0.7485E-07
     -2.036  0.1870E-01  0.1296E-01  0.2942E-03  0.1462E-03  0.2942E-03  0.1462E-03  0.2942E-03  0.1462E-03  0.9863E-05  0.2130E-05  0.9863E-05  0.2130E-05  0.6922E-05  0.2439E-05  0.9863E-05  0.2130E-05  0.6922E-05  0.2439E-05
     -1.870  0.1604E-01  0.1861E-01  0.3430E-03  0.2961E-03  0.3430E-03  0.2961E-03  0.3430E-03  0.2961E-03  0.1973E-04  0.6984E-05  0.1973E-04  0.6984E-05  0.9482E-05  0.4763E-05  0.1973E-04  0.6984E-05  0.9482E-05  0.4763E-05
     -1.703  0.2363E-01  0.1567E-01  0.6790E-03  0.3388E-03  0.6790E-03  0.3388E-03  0.6790E-03  0.3388E-03  0.3783E-04  0.1352E-04  0.3783E-04  0.1352E-04  0.4092E-04  0.6126E-05  0.3783E-04  0.1352E-04  0.4092E-04  0.6126E-05
     -1.536  0.2502E-01  0.2330E-01  0.8351E-03  0.6756E-03  0.8351E-03  0.6756E-03  0.8351E-03  0.6756E-03  0.6021E-04  0.2581E-04  0.6021E-04  0.2581E-04  0.5902E-04  0.2663E-04  0.6021E-04  0.2581E-04  0.5902E-04  0.2663E-04
     -1.369  0.2614E-01  0.2445E-01  0.1046E-02  0.8195E-03  0.1046E-02  0.8195E-03  0.1046E-02  0.8195E-03  0.1276E-03  0.3831E-04  0.1276E-03  0.3831E-04  0.6141E-04  0.3802E-04  0.1276E-03  0.3831E-04  0.6141E-04  0.3802E-04
     -1.202  0.2313E-01  0.2560E-01  0.1059E-02  0.1038E-02  0.1059E-02  0.1038E-02  0.1059E-02  0.1038E-02  0.1231E-03  0.8284E-04  0.1231E-03  0.8284E-04  0.9796E-04  0.3824E-04  0.1231E-03  0.8284E-04  0.9796E-04  0.3824E-04
     -1.035  0.3220E-01  0.2248E-01  0.1760E-02  0.1025E-02  0.1760E-02  0.1025E-02  0.1760E-02  0.1025E-02  0.2229E-03  0.7973E-04  0.2229E-03  0.7973E-04  0.2503E-03  0.5457E-04  0.2229E-03  0.7973E-04  0.2503E-03  0.5457E-04
     -0.868  0.3715E-01  0.2955E-01  0.2203E-02  0.1627E-02  0.2203E-02  0.1627E-02  0.2203E-02  0.1627E-02  0.3776E-03  0.1262E-03  0.3776E-03  0.1262E-03  0.3289E-03  0.1409E-03  0.3776E-03  0.1262E-03  0.3289E-03  0.1409E-03
     -0.702  0.2986E-01  0.3612E-01  0.1941E-02  0.2156E-02  0.1941E-02  0.2156E-02  0.1941E-02  0.2156E-02  0.4228E-03  0.2217E-03  0.4228E-03  0.2217E-03  0.2494E-03  0.1916E-03  0.4228E-03  0.2217E-03  0.2494E-03  0.1916E-03
     -0.535  0.2847E-01  0.3115E-01  0.2110E-02  0.2047E-02  0.2110E-02  0.2047E-02  0.2110E-02  0.2047E-02  0.5961E-03  0.2627E-03  0.5961E-03  0.2627E-03  0.3854E-03  0.1632E-03  0.5961E-03  0.2627E-03  0.3854E-03  0.1632E-03
     -0.368  0.4184E-01  0.2337E-01  0.3417E-02  0.1715E-02  0.3417E-02  0.1715E-02  0.3417E-02  0.1715E-02  0.8712E-03  0.2822E-03  0.8712E-03  0.2822E-03  0.9424E-03  0.1360E-03  0.8712E-03  0.2822E-03  0.9424E-03  0.1360E-03
     -0.201  0.4366E-01  0.3732E-01  0.3901E-02  0.3071E-02  0.3901E-02  0.3071E-02  0.3901E-02  0.3071E-02  0.1128E-02  0.4799E-03  0.1128E-02  0.4799E-03  0.1148E-02  0.4378E-03  0.1128E-02  0.4799E-03  0.1148E-02  0.4378E-03
     -0.034  0.3938E-01  0.4148E-01  0.3697E-02  0.3691E-02  0.3697E-02  0.3691E-02  0.3697E-02  0.3691E-02  0.1605E-02  0.5664E-03  0.1605E-02  0.5664E-03  0.1239E-02  0.5845E-03  0.1605E-02  0.5664E-03  0.1239E-02  0.5845E-03
      0.133  0.3876E-01  0.3827E-01  0.3927E-02  0.3668E-02  0.3927E-02  0.3668E-02  0.3927E-02  0.3668E-02  0.2229E-02  0.6927E-03  0.2229E-02  0.6927E-03  0.1409E-02  0.5985E-03  0.2229E-02  0.6927E-03  0.1409E-02  0.5985E-03
      0.300  0.4498E-01  0.3200E-01  0.5065E-02  0.3279E-02  0.5065E-02  0.3279E-02  0.5065E-02  0.3279E-02  0.2767E-02  0.9091E-03  0.2767E-02  0.9091E-03  0.2512E-02  0.5669E-03  0.2767E-02  0.9091E-03  0.2512E-02  0.5669E-03
      0.467  0.5339E-01  0.4024E-01  0.6468E-02  0.4441E-02  0.6468E-02  0.4441E-02  0.6468E-02  0.4441E-02  0.4003E-02  0.1362E-02  0.4003E-02  0.1362E-02  0.4491E-02  0.7645E-03  0.4003E-02  0.1362E-02  0.4491E-02  0.7645E-03
      0.633  0.5626E-01  0.3807E-01  0.7155E-02  0.4636E-02  0.7155E-02  0.4636E-02  0.7155E-02  0.4636E-02  0.6010E-02  0.1147E-02  0.6010E-02  0.1147E-02  0.4928E-02  0.1179E-02  0.6010E-02  0.1147E-02  0.4928E-02  0.1179E-02
      0.800  0.5715E-01  0.4545E-01  0.7014E-02  0.5933E-02  0.7014E-02  0.5933E-02  0.7014E-02  0.5933E-02  0.1098E-01  0.1796E-02  0.1098E-01  0.1796E-02  0.7144E-02  0.1950E-02  0.1098E-01  0.1796E-02  0.7144E-02  0.1950E-02
      0.967  0.7438E-01  0.4963E-01  0.8759E-02  0.6749E-02  0.8759E-02  0.6749E-02  0.8759E-02  0.6749E-02  0.2882E-01  0.2649E-02  0.2882E-01  0.2649E-02  0.2798E-01  0.2054E-02  0.2882E-01  0.2649E-02  0.2798E-01  0.2054E-02
      1.134  0.1049E+00  0.4322E-01  0.1301E-01  0.6182E-02  0.1301E-01  0.6182E-02  0.1301E-01  0.6182E-02  0.5185E-01  0.2912E-02  0.5185E-01  0.2912E-02  0.7272E-01  0.1946E-02  0.5185E-01  0.2912E-02  0.7272E-01  0.1946E-02
      1.301  0.8518E-01  0.3631E-01  0.1157E-01  0.5402E-02  0.1157E-01  0.5402E-02  0.1157E-01  0.5402E-02  0.5525E-01  0.3332E-02  0.5525E-01  0.3332E-02  0.1051E+00  0.2259E-02  0.5525E-01  0.3332E-02  0.1051E+00  0.2259E-02
      1.468  0.8139E-01  0.5313E-01  0.1538E-01  0.8749E-02  0.1538E-01  0.8749E-02  0.1538E-01  0.8749E-02  0.6051E-01  0.5153E-02  0.6051E-01  0.5153E-02  0.1497E+00  0.4305E-02  0.6051E-01  0.5153E-02  0.1497E+00  0.4305E-02
      1.635  0.7966E-01  0.5601E-01  0.2059E-01  0.9744E-02  0.2059E-01  0.9744E-02  0.2059E-01  0.9744E-02  0.6691E-01  0.6054E-02  0.6691E-01  0.6054E-02  0.2215E+00  0.5974E-02  0.6691E-01  0.6054E-02  0.2215E+00  0.5974E-02
      1.801  0.6238E-01  0.5263E-01  0.2094E-01  0.9269E-02  0.2094E-01  0.9269E-02  0.2094E-01  0.9269E-02  0.6953E-01  0.8016E-02  0.6953E-01  0.8016E-02  0.2266E+00  0.6884E-02  0.6953E-01  0.8016E-02  0.2266E+00  0.6884E-02
      1.968  0.3994E-01  0.5808E-01  0.1448E-01  0.1028E-01  0.1448E-01  0.1028E-01  0.1448E-01  0.1028E-01  0.7353E-01  0.1270E-01  0.7353E-01  0.1270E-01  0.1511E+00  0.8385E-02  0.7353E-01  0.1270E-01  0.1511E+00  0.8385E-02
      2.135  0.1921E-01  0.6187E-01  0.9231E-02  0.1008E-01  0.9231E-02  0.1008E-01  0.9231E-02  0.1008E-01  0.6214E-01  0.1999E-01  0.6214E-01  0.1999E-01  0.1014E+00  0.1447E-01  0.6214E-01  0.1999E-01  0.1014E+00  0.1447E-01
      2.302  0.9944E-02  0.7386E-01  0.8871E-02  0.1251E-01  0.8871E-02  0.1251E-01  0.8871E-02  0.1251E-01  0.5467E-01  0.3106E-01  0.5467E-01  0.3106E-01  0.9320E-01  0.2583E-01  0.5467E-01  0.3106E-01  0.9320E-01  0.2583E-01
      2.469  0.2979E-02  0.8534E-01  0.1589E-01  0.1521E-01  0.1589E-01  0.1521E-01  0.1589E-01  0.1521E-01  0.1959E+00  0.4117E-01  0.1959E+00  0.4117E-01  0.1191E+00  0.3367E-01  0.1959E+00  0.4117E-01  0.1191E+00  0.3367E-01
      2.636  0.3296E-02  0.6452E-01  0.2221E-01  0.1182E-01  0.2221E-01  0.1182E-01  0.2221E-01  0.1182E-01  0.3403E+00  0.3917E-01  0.3403E+00  0.3917E-01  0.1601E+00  0.2906E-01  0.3403E+00  0.3917E-01  0.1601E+00  0.2906E-01
      2.803  0.5915E-02  0.6043E-01  0.1623E-01  0.1385E-01  0.1623E-01  0.1385E-01  0.1623E-01  0.1385E-01  0.2696E+00  0.4124E-01  0.2696E+00  0.4124E-01  0.1282E+00  0.3976E-01  0.2696E+00  0.4124E-01  0.1282E+00  0.3976E-01
      2.969  0.9210E-02  0.5857E-01  0.1779E-01  0.1644E-01  0.1779E-01  0.1644E-01  0.1779E-01  0.1644E-01  0.2233E+00  0.4257E-01  0.2233E+00  0.4257E-01  0.1028E+00  0.7479E-01  0.2233E+00  0.4257E-01  0.1028E+00  0.7479E-01
      3.136  0.1289E-01  0.5049E-01  0.2602E-01  0.1864E-01  0.2602E-01  0.1864E-01  0.2602E-01  0.1864E-01  0.2461E+00  0.4648E-01  0.2461E+00  0.4648E-01  0.1061E+00  0.1208E+00  0.2461E+00  0.4648E-01  0.1061E+00  0.1208E+00
      3.303  0.1890E-01  0.4227E-01  0.3424E-01  0.1957E-01  0.3424E-01  0.1957E-01  0.3424E-01  0.1957E-01  0.3111E+00  0.4861E-01  0.3111E+00  0.4861E-01  0.1304E+00  0.1527E+00  0.3111E+00  0.4861E-01  0.1304E+00  0.1527E+00
      3.470  0.1848E-01  0.2923E-01  0.3056E-01  0.1579E-01  0.3056E-01  0.1579E-01  0.3056E-01  0.1579E-01  0.2997E+00  0.5179E-01  0.2997E+00  0.5179E-01  0.1263E+00  0.1253E+00  0.2997E+00  0.5179E-01  0.1263E+00  0.1253E+00