    2    2  100    2
  0.1173411E+02  0.2863035E-09  0.2863035E-09  0.2863035E-09  0.5000000E-15
  1.000000000000000E-004
  CAR 
 unknown system                          
     16    120     20
 
  0.0000000E+00  0.0000000E+00  0.0000000E+00  0.2962963E-03
    1       -2.597654     -2.436952   1.000000   1.000000
    2        0.986818      2.801240   1.000000   1.000000
    3        0.986818      2.801380   1.000000   1.000000
    4        3.538522      5.438669   1.000000   1.007805
    5        3.538523      5.438802   1.000000   1.007822
    6        3.538523      5.438812   1.000000   1.007823
    7        4.751335      7.497730   1.000000  -0.000000
    8        4.751336      7.497893   1.000000  -0.000000
    9        5.963609      8.137589   0.072378  -0.000000
   10        5.963611      8.137713   0.072374  -0.000000
   11        5.963611      8.137725   0.072374  -0.000000
   12       15.794737     16.059090   0.000000   0.000000
   13       15.794737     16.059091   0.000000   0.000000
   14       15.794737     16.059093   0.000000   0.000000
   15       21.510888     22.561675   0.000000   0.000000
   16       21.510890     22.561687   0.000000   0.000000
   17       26.649432     27.749131   0.000000   0.000000
   18       30.886459     30.627950   0.000000   0.000000
   19       30.886459     30.627950   0.000000   0.000000
   20       30.886459     30.627950   0.000000   0.000000
 
  0.6666667E-01  0.1540744E-32  0.0000000E+00  0.1777778E-02
    1       -2.505154     -2.344052   1.000000   1.000000
    2        1.026298      2.834578   1.000000   1.000000
    3        1.028013      2.848179   1.000000   1.000000
    4        3.537723      5.434427   1.000000   1.007280
    5        3.537724      5.434571   1.000000   1.007298
    6        3.563846      5.466717   1.000000   1.011986
    7        4.710021      7.443859   1.000000  -0.000000
    8        4.767672      7.518496   1.000000  -0.000000
    9        5.885260      8.034103   0.314405  -0.000000
   10        5.885262      8.034237   0.314399  -0.000000
   11        5.936007      8.106685   0.141494  -0.000000
   12       15.123850     15.504964   0.000000   0.000000
   13       15.970200     16.260409   0.000000   0.000000
   14       15.970200     16.260410   0.000000   0.000000
   15       21.537517     22.580140   0.000000   0.000000
   16       22.017401     22.969827   0.000000   0.000000
   17       26.949480     28.034327   0.000000   0.000000
   18       30.252771     30.076830   0.000000   0.000000
   19       30.805460     30.586884   0.000000   0.000000
   20       30.805461     30.586885   0.000000   0.000000
 
  0.1333333E+00  0.0000000E+00  0.0000000E+00  0.1777778E-02
    1       -2.231240     -2.068373   1.000000   1.000000
    2        1.143356      2.922492   1.000000   1.000000
    3        1.144065      2.987531   1.000000   1.000000
    4        3.538050      5.425089   1.000000   1.006221
    5        3.538051      5.425231   1.000000   1.006236
    6        3.638934      5.549474   1.000000   1.029671
    7        4.587695      7.284519   1.000000  -0.000000
    8        4.815579      7.577853   1.000000  -0.000000
    9        5.669741      7.756645   1.002191  -0.000000
   10        5.669743      7.756777   1.002189  -0.000000
   11        5.854576      8.015185   0.439140  -0.000000
   12       13.650854     14.235004   0.000000   0.000000
   13       16.476195     16.830444   0.000000   0.000000
   14       16.476196     16.830446   0.000000   0.000000
   15       21.618994     22.637132   0.000000   0.000000
   16       22.898352     23.719454   0.000000   0.000000
   17       27.958128     28.937873   0.000000   0.000000
   18       28.986465     28.986496   0.000000   0.000000
   19       30.445687     30.371135   0.000000   0.000000
   20       30.445687     30.371138   0.000000   0.000000
 
  0.2000000E+00 -0.6162976E-32  0.0000000E+00  0.1777778E-02
    1       -1.787691     -1.619516   1.000000   1.000000
    2        1.311830      3.028332   1.000000   1.000000
    3        1.333775      3.215079   1.000000   1.000000
    4        3.546810      5.419919   1.000000   1.005688
    5        3.546811      5.420060   1.000000   1.005702
    6        3.760907      5.684015   1.000000   0.984938
    7        4.389093      7.026554   1.000000  -0.000000
    8        4.892721      7.377302   1.000000  -0.000000
    9        5.363455      7.377433   1.001918  -0.000000
   10        5.363456      7.668629   1.001918  -0.000000
   11        5.723219      7.867719   0.913013  -0.000000
   12       11.961032     12.757310   0.000000   0.000000
   13       17.263388     17.693926   0.000000   0.000000
   14       17.263388     17.693930   0.000000   0.000000
   15       21.760038     22.737389   0.000000   0.000000
   16       23.538290     24.279714   0.000000   0.000000
   17       27.660892     27.732157   0.000000   0.000000
   18       29.604075     29.769765   0.000000   0.000000
   19       29.604076     29.769770   0.000000   0.000000
   20       29.733910     30.671484   0.000000   0.000000
 
  0.2666667E+00  0.0000000E+00  0.0000000E+00  0.1777778E-02
    1       -1.196918     -1.014699   1.000000   1.000000
    2        1.491071      3.087453   1.000000   1.000000
    3        1.590519      3.523600   1.000000   1.000000
    4        3.574591      5.432253   1.000000   1.007022
    5        3.574592      5.432393   1.000000   1.007039
    6        3.925059      5.865300   1.000000   0.394511
    7        4.122305      6.681653   1.000000  -0.000000
    8        4.999609      6.965542   1.000000  -0.000000
    9        5.017593      6.965673   1.000000  -0.000000
   10        5.017594      7.671554   1.000000  -0.000000
   11        5.548254      7.781376   1.029414  -0.000000
   12       10.291546     11.335636  -0.000000   0.000000
   13       18.275546     18.775876   0.000000   0.000000
   14       18.275547     18.775881   0.000000   0.000000
   15       21.968458     22.888882   0.000000   0.000000
   16       23.959093     24.633350   0.000000   0.000000
   17       26.443757     26.633595   0.000000   0.000000
   18       28.329629     28.710604   0.000000   0.000000
   19       28.329630     28.710610   0.000000   0.000000
   20       30.135239     30.555380   0.000000   0.000000
 
  0.3333333E+00  0.0000000E+00  0.0000000E+00  0.1777778E-02
    1       -0.497933     -0.281381   1.000000   1.000000
    2        1.621553      3.008876   1.000000   1.000000
    3        1.903684      3.902677   1.000000   1.000000
    4        3.633466      5.477250   1.000000   1.013880
    5        3.633467      5.477388   1.000000   1.013906
    6        3.798922      6.086384   1.000000  -0.035452
    7        4.124941      6.266383   1.000000  -0.005115
    8        4.673934      6.570682   1.000000  -0.000002
    9        4.673935      6.570812   1.000000  -0.000002
   10        5.148195      7.436181   1.000006  -0.000000
   11        5.337994      7.909848   1.001103  -0.000000
   12        8.756188     10.119874  -0.000000  -0.000000
   13       19.463439     20.018672   0.000000   0.000000
   14       19.463439     20.018676   0.000000   0.000000
   15       22.254964     23.102779   0.000000   0.000000
   16       24.338251     24.940109   0.000000   0.000000
   17       25.379803     25.690084   0.000000   0.000000
   18       26.838442     27.350521   0.000000   0.000000
   19       26.838443     27.350527   0.000000   0.000000
   20       28.637415     29.046762   0.000000   0.000000
 
  0.4000000E+00  0.0000000E+00  0.0000000E+00  0.1777778E-02
    1        0.242495      0.537615   1.000000   1.000000
    2        1.621202      2.701240   1.000000   1.000000
    3        2.260604      4.338555   1.000000   1.000000
    4        3.433546      5.569265   1.000000   1.033299
    5        3.734759      5.569402   1.000000   1.033320
    6        3.734760      5.801220   1.000000   0.661321
    7        4.352515      6.222663   1.000000  -0.010495
    8        4.361178      6.222795   1.000000  -0.010474
    9        4.361179      6.338553   1.000000  -0.001200
   10        5.102265      7.172792   1.000001  -0.000000
   11        5.377118      8.060952   1.002540  -0.000000
   12        7.443483      9.206968  -0.000000  -0.000000
   13       20.787884     21.380487   0.000000   0.000000
   14       20.787884     21.380489   0.000000   0.000000
   15       22.633010     23.393466   0.000000   0.000000
   16       24.476667     24.907873   0.000000   0.000000
   17       24.801610     25.331611   0.000000   0.000000
   18       25.278463     25.858624   0.000000   0.000000
   19       25.278464     25.858629   0.000000   0.000000
   20       27.338358     27.747551   0.000000   0.000000
 
  0.4666667E+00 -0.1232595E-31  0.0000000E+00  0.1777778E-02
    1        0.917714      1.375514   1.000000   1.000000
    2        1.399971      2.134497   1.000000   1.000000
    3        2.646152      4.814156   1.000000   1.000000
    4        3.043216      5.309254   1.000000   1.000565
    5        3.887437      5.720096   1.000000   0.920138
    6        3.887438      5.720231   1.000000   0.919836
    7        4.096437      5.937286   1.000000   0.137872
    8        4.096438      5.937418   1.000000   0.137499
    9        4.598371      6.611527   1.000000  -0.000000
   10        4.851995      6.893726   1.000000  -0.000000
   11        5.768894      8.270118   0.781345  -0.000000
   12        6.436231      8.615683  -0.000104  -0.000000
   13       22.217455     22.828740   0.000000   0.000000
   14       22.217456     22.828741   0.000000   0.000000
   15       23.118252     23.778275   0.000000   0.000000
   16       23.724192     24.276440   0.000000   0.000000
   17       23.724193     24.333217   0.000000   0.000000
   18       23.727332     24.333220   0.000000   0.000000
   19       25.428522     25.897848   0.000000   0.000000
   20       26.267094     26.695196   0.000000   0.000000
 
  0.6666667E-01  0.6666667E-01  0.0000000E+00  0.3555556E-02
    1       -2.413340     -2.251744   1.000000   1.000000
    2        1.064991      2.876224   1.000000   1.000000
    3        1.069333      2.885975   1.000000   1.000000
    4        3.488226      5.378204   1.000000   1.002596
    5        3.534493      5.427720   1.000000   1.006506
    6        3.637663      5.546650   1.000000   1.029073
    7        4.701759      7.431620   1.000000  -0.000000
    8        4.755412      7.502384   1.000000  -0.000000
    9        5.745713      7.864874   0.854443  -0.000000
   10        5.806984      7.931044   0.638223  -0.000000
   11        5.975170      8.150608   0.049124  -0.000000
   12       15.141474     15.562603   0.000000   0.000000
   13       15.437865     15.829796   0.000000   0.000000
   14       16.140282     16.452879   0.000000   0.000000
   15       21.798488     22.787334   0.000000   0.000000
   16       22.332807     23.229022   0.000000   0.000000
   17       27.224552     28.298431   0.000000   0.000000
   18       29.690905     29.617015   0.000000   0.000000
   19       30.610091     30.410819   0.000000   0.000000
   20       30.755480     30.565530   0.000000   0.000000
 
  0.1333333E+00  0.6666667E-01  0.0000000E+00  0.7111111E-02
    1       -2.141642     -1.977915   1.000000   1.000000
    2        1.176631      2.968099   1.000000   1.000000
    3        1.188611      3.018898   1.000000   1.000000
    4        3.448777      5.327189   1.000000   1.000863
    5        3.527548      5.411116   1.000000   1.004864
    6        3.751723      5.670635   1.000000   1.001239
    7        4.601215      7.297642   1.000000  -0.000000
    8        4.794591      7.550464   1.000000  -0.000000
    9        5.492292      7.552705   1.016869  -0.000000
   10        5.592565      7.656612   1.035432  -0.000000
   11        5.945975      8.115921   0.114330  -0.000000
   12       13.768806     14.376813   0.000000   0.000000
   13       15.798729     16.267636   0.000000   0.000000
   14       16.632352     17.001341   0.000000   0.000000
   15       21.967350     22.916652   0.000000   0.000000
   16       23.235085     24.006574   0.000000   0.000000
   17       28.165256     28.480150   0.000000   0.000000
   18       28.415202     29.192303   0.000000   0.000000
   19       30.154765     30.077370   0.000000   0.000000
   20       30.474732     30.403725   0.000000   0.000000
 
  0.2000000E+00  0.6666667E-01  0.0000000E+00  0.7111111E-02
    1       -1.702297     -1.532413   1.000000   1.000000
    2        1.346233      3.074810   1.000000   1.000000
    3        1.372781      3.240018   1.000000   1.000000
    4        3.431362      5.295797   1.000000   1.000406
    5        3.523170      5.393756   1.000000   1.003522
    6        3.898335      5.830390   1.000000   0.541250
    7        4.423743      7.060023   1.000000  -0.000000
    8        4.873236      7.168017   1.000000  -0.000000
    9        5.173602      7.287300   1.000013  -0.000000
   10        5.290803      7.643748   1.000359  -0.000000
   11        5.845559      7.999948   0.477125  -0.000000
   12       12.076043     12.889488   0.000000   0.000000
   13       16.520160     17.067069   0.000000   0.000000
   14       17.401708     17.839568   0.000000   0.000000
   15       22.145961     23.048856   0.000000   0.000000
   16       23.965578     24.657461   0.000000   0.000000
   17       27.021160     27.214691   0.000000   0.000000
   18       29.267087     29.382980   0.000000   0.000000
   19       29.690649     29.853806   0.000000   0.000000
   20       29.871914     30.813573   0.000000   0.000000
 
  0.2666667E+00  0.6666667E-01  0.0000000E+00  0.7111111E-02
    1       -1.118454     -0.932773   1.000000   1.000000
    2        1.526934      3.132790   1.000000   1.000000
    3        1.620082      3.538588   1.000000   1.000000
    4        3.441733      5.291422   1.000000   1.000364
    5        3.523248      5.385956   1.000000   1.003028
    6        4.077431      6.026521   1.000000  -0.016533
    7        4.196314      6.745386   1.000000  -0.000000
    8        4.827914      6.762411   1.000000  -0.000000
    9        4.956151      6.898626   1.000000  -0.000000
   10        4.981796      7.760174   1.000000  -0.000000
   11        5.689213      7.821877   0.977530  -0.000000
   12       10.399823     11.451864  -0.000000   0.000000
   13       17.437030     18.053846   0.000000   0.000000
   14       18.396024     18.898455   0.000000   0.000000
   15       22.396476     23.236970   0.000000   0.000000
   16       24.472551     25.102396   0.000000   0.000000
   17       25.680784     26.004516   0.000000   0.000000
   18       28.058058     28.324479   0.000000   0.000000
   19       28.421272     28.805562   0.000000   0.000000
   20       31.198271     31.604830   0.000000   0.000000
 
  0.3333333E+00  0.6666667E-01  0.0000000E+00  0.7111111E-02
    1       -0.430218     -0.206894   1.000000   1.000000
    2        1.654812      3.050310   1.000000   1.000000
    3        1.922424      3.902452   1.000000   1.000000
    4        3.488394      5.325053   1.000000   1.000821
    5        3.494365      5.388937   1.000000   1.003210
    6        3.976103      6.255879   1.000000  -0.006150
    7        4.285856      6.376794   1.000000  -0.000491
    8        4.489575      6.384649   1.000000  -0.000405
    9        4.634816      6.546150   1.000000  -0.000004
   10        5.132256      7.597536   1.000003  -0.000000
   11        5.490551      7.892118   1.016507  -0.000000
   12        8.852925     10.210636  -0.000000  -0.000000
   13       18.488919     19.157777   0.000000   0.000000
   14       19.568256     20.122610   0.000000   0.000000
   15       22.740838     23.502748   0.000000   0.000000
   16       24.416549     24.871534   0.000000   0.000000
   17       24.941291     25.507595   0.000000   0.000000
   18       26.779066     27.129968   0.000000   0.000000
   19       26.921342     27.436575   0.000000   0.000000
   20       29.716910     30.139906   0.000000   0.000000
 
  0.4000000E+00  0.6666667E-01  0.0000000E+00  0.7111111E-02
    1        0.294993      0.602094   1.000000   1.000000
    2        1.648979      2.739464   1.000000   1.000000
    3        2.265306      4.314263   1.000000   1.000000
    4        3.316721      5.357622   1.000000   1.001696
    5        3.580322      5.408395   1.000000   1.004630
    6        3.904019      6.038040   1.000000  -0.023997
    7        4.183871      6.055518   1.000000  -0.031373
    8        4.359884      6.259273   1.000000  -0.005799
    9        4.517564      6.511946   1.000000  -0.000011
   10        5.262193      7.341137   1.000171  -0.000000
   11        5.368023      8.047958   1.002110  -0.000000
   12        7.519635      9.262283  -0.000000  -0.000000
   13       19.626406     20.323624   0.000000   0.000000
   14       20.880146     21.470577   0.000000   0.000000
   15       23.202874     23.775820   0.000000   0.000000
   16       23.202949     23.872879   0.000000   0.000000
   17       25.356237     25.937176   0.000000   0.000000
   18       25.507377     26.010535   0.000000   0.000000
   19       25.600071     26.014966   0.000000   0.000000
   20       28.368942     28.798881   0.000000   0.000000
 
  0.4666667E+00  0.6666667E-01  0.0000000E+00  0.7111111E-02
    1        0.953386      1.428117   1.000000   1.000000
    2        1.425952      2.176553   1.000000   1.000000
    3        2.631071      4.746578   1.000000   1.000000
    4        2.996000      5.140550   1.000000   1.000004
    5        3.725001      5.551568   1.000000   1.030104
    6        3.926499      5.761043   1.000000   0.807469
    7        3.988751      5.938451   1.000000   0.134608
    8        4.145675      6.046096   1.000000  -0.027943
    9        4.764302      6.785673   1.000000  -0.000000
   10        5.016196      7.066155   1.000000  -0.000000
   11        5.779914      8.267676   0.742520  -0.000000
   12        6.480641      8.635956  -0.000029  -0.000000
   13       20.808677     21.504457   0.000000   0.000000
   14       22.005104     22.661409   0.000000   0.000000
   15       22.300655     22.909734   0.000000   0.000000
   16       23.802344     24.385061   0.000000   0.000000
   17       23.813126     24.410184   0.000000   0.000000
   18       24.605031     25.086327   0.000000   0.000000
   19       26.249508     26.713545   0.000000   0.000000
   20       27.203512     27.643350   0.000000   0.000000
 
  0.1333333E+00  0.1333333E+00  0.0000000E+00  0.3555556E-02
    1       -1.877191     -1.709994   1.000000   1.000000
    2        1.272263      3.101223   1.000000   1.000000
    3        1.316694      3.102007   1.000000   1.000000
    4        3.347944      5.209711   1.000000   1.000039
    5        3.501536      5.374585   1.000000   1.002413
    6        3.924569      5.859501   1.000000   0.418546
    7        4.601901      7.190529   1.000000  -0.000000
    8        4.768897      7.283829   1.000000  -0.000000
    9        5.185643      7.395788   1.000019  -0.000000
   10        5.384087      7.518190   1.002919  -0.000000
   11        6.007939      8.187158   0.000651  -0.000000
   12       13.751624     14.423220   0.000000   0.000000
   13       14.725750     15.377614   0.000000   0.000000
   14       17.087737     17.495450   0.000000   0.000000
   15       22.309451     23.192853   0.000000   0.000000
   16       24.235345     24.888099   0.000000   0.000000
   17       27.100197     27.327931   0.000000   0.000000
   18       28.897826     29.591781   0.000000   0.000000
   19       29.636807     29.908089   0.000000   0.000000
   20       30.448685     30.413956   0.000000   0.000000
 
  0.2000000E+00  0.1333333E+00  0.0000000E+00  0.7111111E-02
    1       -1.451467     -1.275036   1.000000   1.000000
    2        1.417318      3.199040   1.000000   1.000000
    3        1.511306      3.313812   1.000000   1.000000
    4        3.275025      5.119137   1.000000   1.000002
    5        3.470577      5.327819   1.000000   1.000875
    6        4.121873      6.075097   1.000000  -0.035045
    7        4.503511      6.783176   1.000000  -0.000000
    8        4.823837      7.061160   1.000000  -0.000000
    9        4.836533      7.136040   1.000000  -0.000000
   10        5.099388      7.582447   1.000001  -0.000000
   11        5.988234      8.163014   0.026804  -0.000000
   12       12.336025     13.181697   0.000000   0.000000
   13       15.078155     15.810544   0.000000   0.000000
   14       17.808771     18.267006   0.000000   0.000000
   15       22.529954     23.358408   0.000000   0.000000
   16       25.233592     25.801988   0.000000   0.000000
   17       25.611615     25.969061   0.000000   0.000000
   18       28.823872     28.880073   0.000000   0.000000
   19       29.927534     30.076021   0.000000   0.000000
   20       30.352848     31.303788   0.000000   0.000000
 
  0.2666667E+00  0.1333333E+00  0.0000000E+00  0.7111111E-02
    1       -0.890496     -0.691863   1.000000   1.000000
    2        1.579152      3.242716   1.000000   1.000000
    3        1.752997      3.593159   1.000000   1.000000
    4        3.238658      5.066054   1.000000   1.000000
    5        3.435920      5.280940   1.000000   1.000279
    6        4.339988      6.313891   1.000000  -0.002040
    7        4.352480      6.375517   1.000000  -0.000507
    8        4.480285      6.741293   1.000000  -0.000000
    9        4.800901      6.898769   1.000000  -0.000000
   10        4.931651      7.701386   1.000000  -0.000000
   11        5.894888      8.054022   0.277727  -0.000000
   12       10.673026     11.734658  -0.000000   0.000000
   13       15.869772     16.652550   0.000000   0.000000
   14       18.753332     19.262337   0.000000   0.000000
   15       22.772718     23.535139   0.000000   0.000000
   16       24.143407     24.616518   0.000000   0.000000
   17       25.973846     26.495931   0.000000   0.000000
   18       27.764084     27.925157   0.000000   0.000000
   19       28.692705     29.086317   0.000000   0.000000
   20       32.459757     33.325512   0.000000   0.000000
 
  0.3333333E+00  0.1333333E+00  0.0000000E+00  0.7111111E-02
    1       -0.238560      0.009905   1.000000   1.000000
    2        1.693337      3.142168   1.000000   1.000000
    3        2.030791      3.924148   1.000000   1.000000
    4        3.247065      5.060622   1.000000   1.000000
    5        3.369105      5.229205   1.000000   1.000069
    6        4.144528      5.999260   1.000000   0.011101
    7        4.221794      6.501427   1.000000  -0.000015
    8        4.543868      6.572455   1.000000  -0.000001
    9        4.575223      6.633457   1.000000  -0.000000
   10        5.085204      7.840783   1.000001  -0.000000
   11        5.742154      7.878348   0.864547  -0.000000
   12        9.104671     10.439210  -0.000000  -0.000000
   13       16.810272     17.619713   0.000000   0.000000
   14       19.880645     20.433122   0.000000   0.000000
   15       22.740540     23.318149   0.000000   0.000000
   16       23.086585     23.769084   0.000000   0.000000
   17       26.622940     26.897179   0.000000   0.000000
   18       26.652135     27.106767   0.000000   0.000000
   19       27.164759     27.689963   0.000000   0.000000
   20       31.618862     32.030614   0.000000   0.000000
 
  0.4000000E+00  0.1333333E+00  0.0000000E+00  0.7111111E-02
    1        0.434050      0.785734   1.000000   1.000000
    2        1.675841      2.824027   1.000000   1.000000
    3        2.337354      4.284989   1.000000   1.000000
    4        3.214464      5.112559   1.000000   1.000002
    5        3.307932      5.136434   1.000000   1.000004
    6        3.849516      5.675754   1.000000   0.995461
    7        4.176460      6.360125   1.000000  -0.000733
    8        4.365237      6.407349   1.000000  -0.000227
    9        4.821995      6.845113   1.000000  -0.000000
   10        5.340282      7.654017   1.001161  -0.000000
   11        5.544922      8.008699   1.028701  -0.000000
   12        7.722485      9.405979  -0.000000  -0.000000
   13       17.849107     18.658961   0.000000   0.000000
   14       21.155513     21.740117   0.000000   0.000000
   15       21.410705     22.077274   0.000000   0.000000
   16       23.502799     24.094747   0.000000   0.000000
   17       25.584970     25.949974   0.000000   0.000000
   18       25.627691     26.168315   0.000000   0.000000
   19       27.331700     27.781795   0.000000   0.000000
   20       30.337390     30.746434   0.000000   0.000000
 
  0.4666667E+00  0.1333333E+00  0.0000000E+00  0.7111111E-02
    1        1.031417      1.570975   1.000000   1.000000
    2        1.460659      2.280458   1.000000   1.000000
    3        2.656820      4.642060   1.000000   1.000000
    4        2.962556      4.943570   1.000000   1.000000
    5        3.427332      5.229918   1.000000   1.000070
    6        3.608266      5.417524   1.000000   1.005454
    7        4.206471      6.291508   1.000000  -0.003201
    8        4.264833      6.292248   1.000000  -0.003155
    9        5.072626      7.123675   1.000000  -0.000000
   10        5.317415      7.397555   1.000686  -0.000000
   11        5.811948      8.257642   0.618030  -0.000000
   12        6.603826      8.688813  -0.000000  -0.000000
   13       18.965679     19.750393   0.000000   0.000000
   14       20.153048     20.889301   0.000000   0.000000
   15       22.548474     23.151355   0.000000   0.000000
   16       24.033749     24.547928   0.000000   0.000000
   17       24.050701     24.638162   0.000000   0.000000
   18       24.755202     25.160876   0.000000   0.000000
   19       28.174968     28.600676   0.000000   0.000000
   20       29.178763     29.591413   0.000000   0.000000
 
  0.2000000E+00  0.2000000E+00  0.0000000E+00  0.3555556E-02
    1       -1.052216     -0.859409   1.000000   1.000000
    2        1.514118      3.310625   1.000000   1.000000
    3        1.727858      3.477016   1.000000   1.000000
    4        3.145944      4.968566   1.000000   1.000000
    5        3.420968      5.247896   1.000000   1.000116
    6        4.366525      6.344006   1.000000  -0.001062
    7        4.469201      6.365227   1.000000  -0.000649
    8        4.557728      6.795400   1.000000  -0.000000
    9        4.793965      7.168655   1.000000  -0.000000
   10        4.851874      7.549700   1.000000  -0.000000
   11        6.056414      8.241256  -0.031638  -0.000000
   12       12.180299     13.062553   0.000000   0.000000
   13       14.088623     14.996718   0.000000   0.000000
   14       18.463189     18.950694   0.000000   0.000000
   15       22.749323     23.515953   0.000000   0.000000
   16       24.039938     24.518273   0.000000   0.000000
   17       26.681281     27.136239   0.000000   0.000000
   18       28.204186     28.266204   0.000000   0.000000
   19       30.106979     30.238586   0.000000   0.000000
   20       31.370901     32.312553   0.000000   0.000000
 
  0.2666667E+00  0.2000000E+00  0.0000000E+00  0.7111111E-02
    1       -0.537051     -0.307184   1.000000   1.000000
    2        1.609972      3.317401   1.000000   1.000000
    3        1.994076      3.739843   1.000000   1.000000
    4        3.058046      4.861047   1.000000   1.000000
    5        3.390978      5.174234   1.000000   1.000013
    6        4.108965      5.960642   1.000000   0.078888
    7        4.512495      6.586145   1.000000  -0.000001
    8        4.618279      6.625791   1.000000  -0.000000
    9        4.622349      7.067292   1.000000  -0.000000
   10        4.863700      7.626205   1.000000  -0.000000
   11        6.043295      8.224681  -0.026682  -0.000000
   12       10.916095     11.962512  -0.000000   0.000000
   13       14.394414     15.351925   0.000000   0.000000
   14       19.335559     19.855813   0.000000   0.000000
   15       22.496083     23.076845   0.000000   0.000000
   16       22.964019     23.658541   0.000000   0.000000
   17       27.359846     27.467400   0.000000   0.000000
   18       27.824902     28.225237   0.000000   0.000000
   19       29.133369     29.540538   0.000000   0.000000
   20       31.399676     31.961643   0.000000   0.000000
 
  0.3333333E+00  0.2000000E+00  0.0000000E+00  0.7111111E-02
    1        0.040801      0.348160   1.000000   1.000000
    2        1.658677      3.182193   1.000000   1.000000
    3        2.282954      4.045318   1.000000   1.000000
    4        3.020963      4.808114   1.000000   1.000000
    5        3.362432      5.108913   1.000000   1.000001
    6        3.780451      5.597300   1.000000   1.035441
    7        4.450708      6.492659   1.000000  -0.000020
    8        4.456624      6.898708   1.000000  -0.000000
    9        4.883010      6.913917   1.000000  -0.000000
   10        5.010601      7.763536   1.000000  -0.000000
   11        5.956805      8.123636   0.087633  -0.000000
   12        9.399253     10.681989  -0.000000  -0.000000
   13       15.184285     16.141410   0.000000   0.000000
   14       20.394258     20.945619   0.000000   0.000000
   15       21.030151     21.703048   0.000000   0.000000
   16       23.236881     23.846034   0.000000   0.000000
   17       26.419327     26.588813   0.000000   0.000000
   18       27.548289     28.093440   0.000000   0.000000
   19       28.709642     29.092474   0.000000   0.000000
   20       32.061177     32.523836   0.000000   0.000000
 
  0.4000000E+00  0.2000000E+00  0.0000000E+00  0.7111111E-02
    1        0.606339      1.058273   1.000000   1.000000
    2        1.606959      2.869325   1.000000   1.000000
    3        2.574512      4.360922   1.000000   1.000000
    4        3.042590      4.819343   1.000000   1.000000
    5        3.276959      5.026580   1.000000   1.000000
    6        3.501013      5.293430   1.000000   1.000383