 vasp.6.2.0 18Jan21 (build Aug 12 2022 13:00:08) complex                        
  
 executed on             LinuxIFC date 2024.11.04  07:08:29
 running on    4 total cores
 distrk:  each k-point on    4 cores,    1 groups
 distr:  one band on NCORE=   1 cores,    4 groups


--------------------------------------------------------------------------------------------------------


 INCAR:
   ISTART = 0            (Read existing wavefunction, if there)
   ISPIN = 2            (Non-Spin polarised DFT)
   MAGMOM = 5 5          (Set this parameters manually)
   GGA_COMPAT = .FALSE.   (Apply spherical cutoff on gradient field)
   VOSKOWN = 1        (Enhances the magnetic moments and the magnetic energies)
   LMAXMIX = 4        (For d elements increase LMAXMIX to 4, f: LMAXMIX \= 6)
   LREAL = .FALSE.       (Projection operators: automatic)
   ENCUT = 550          (Cut-off energy for plane wave basis set, in eV)
   LORBIT = 11           (Write orbital decomposed charge densities and magnetic moments)
   ADDGRID = .TRUE.        (Increase grid, helps GGA convergence)
   LASPH = .TRUE.        (Give more accurate total energies and band structure calculations)
   PREC = Accurate      (Accurate strictly avoids any aliasing or wrap around errors)
   ISMEAR = 1            (Gaussian smearing, metals:1)
   SIGMA = 0.2          (Smearing value in eV, metals:0.2)
   NELM = 90           (Max electronic SCF steps)
   NELMIN = 6            (Min electronic SCF steps)
   EDIFF = 1E-06        (SCF energy convergence, in eV)
   NSW = 100          (Max ionic steps)
   IBRION = 2            (Algorithm: 0-MD, 1-Quasi-New, 2-CG)
   ISIF = 3            (Stress/relaxation: 2-Ions, 3-Shape/Ions/V, 4-Shape/Ions)
   EDIFFG = -2E-03        (Ionic convergence, eV/AA)
   ISYM = 2              (Symmetry: 0\=none, 2\=GGA, 3\=hybrids)

 POTCAR:    PAW_PBE Fe 06Sep2000                  
 POTCAR:    PAW_PBE Fe 06Sep2000                  
   VRHFIN =Fe:  d7 s1                                                                               
   LEXCH  = PE                                                                                      
   EATOM  =   594.3153 eV,   43.6809 Ry                                                             
                                                                                                    
   TITEL  = PAW_PBE Fe 06Sep2000                                                                    
   LULTRA =        F    use ultrasoft PP ?                                                          
   IUNSCR =        1    unscreen: 0-lin 1-nonlin 2-no                                               
   RPACOR =    2.000    partial core radius                                                         
   POMASS =   55.847; ZVAL   =    8.000    mass and valenz                                          
   RCORE  =    2.300    outmost cutoff radius                                                       
   RWIGS  =    2.460; RWIGS  =    1.302    wigner-seitz radius (au A)                               
   ENMAX  =  267.882; ENMIN  =  200.911 eV                                                          
   RCLOC  =    1.701    cutoff for local pot                                                        
   LCOR   =        T    correct aug charges                                                         
   LPAW   =        T    paw PP                                                                      
   EAUG   =  511.368                                                                                
   DEXC   =    0.000                                                                                
   RMAX   =    2.356    core radius for proj-oper                                                   
   RAUG   =    1.300    factor for augmentation sphere                                              
   RDEP   =    2.442    radius for radial grids                                                     
   RDEPT  =    1.890    core radius for aug-charge                                                  
                                                                                                    
   Atomic configuration                                                                             
    9 entries                                                                                       
     n  l   j            E        occ.                                                              
     1  0  0.50     -6993.8440   2.0000                                                             
     2  0  0.50      -814.6047   2.0000                                                             
     2  1  1.50      -693.3689   6.0000                                                             
     3  0  0.50       -89.4732   2.0000                                                             
     3  1  1.50       -55.6373   6.0000                                                             
     3  2  2.50        -3.8151   7.0000                                                             
     4  0  0.50        -4.2551   1.0000                                                             
     4  1  1.50        -3.4015   0.0000                                                             
     4  3  2.50        -1.3606   0.0000                                                             
   Description                                                                                      
     l       E           TYP  RCUT    TYP  RCUT                                                     
     2     -3.8151135     23  2.300                                                                 
     2     -5.1756961     23  2.300                                                                 
     0     -4.2550963     23  2.300                                                                 
     0      7.2035603     23  2.300                                                                 
     1     -2.7211652     23  2.300                                                                 
     1     18.4316424     23  2.300                                                                 
  local pseudopotential read in
  partial core-charges read in
  partial kinetic energy density read in
  atomic valenz-charges read in
  non local Contribution for L=           2  read in
    real space projection operators read in
  non local Contribution for L=           2  read in
    real space projection operators read in
  non local Contribution for L=           0  read in
    real space projection operators read in
  non local Contribution for L=           0  read in
    real space projection operators read in
  non local Contribution for L=           1  read in
    real space projection operators read in
  non local Contribution for L=           1  read in
    real space projection operators read in
    PAW grid and wavefunctions read in
 
   number of l-projection  operators is LMAX  =           6
   number of lm-projection operators is LMMAX =          18
 
  PAW_PBE Fe 06Sep2000                  :
 energy of atom  1       EATOM= -594.3153
 kinetic energy error for atom=    0.0024 (will be added to EATOM!!)
 
 
 POSCAR: Fe2
  positions in direct lattice
  No initial velocities read in
 exchange correlation table for  LEXCH =        8
   RHO(1)=    0.500       N(1)  =     2000
   RHO(2)=  100.500       N(2)  =     4000
 


--------------------------------------------------------------------------------------------------------


 ion  position               nearest neighbor table
   1  0.000  0.000  0.000-   2 2.48   2 2.48   2 2.48   2 2.48   2 2.48   2 2.48   2 2.48   2 2.48

   2  0.500  0.500  0.500-   1 2.48   1 2.48   1 2.48   1 2.48   1 2.48   1 2.48   1 2.48   1 2.48

 
  LATTYP: Found a simple cubic cell.
 ALAT       =     2.8630354989
  
  Lattice vectors:
  
 A1 = (   2.8630354989,   0.0000000000,   0.0000000000)
 A2 = (   0.0000000000,   2.8630354989,   0.0000000000)
 A3 = (   0.0000000000,   0.0000000000,   2.8630354989)


Analysis of symmetry for initial positions (statically):
=====================================================================
 Subroutine PRICEL returns following result:
 
  LATTYP: Found a body centered cubic cell.
 ALAT       =     2.8630354989
  
  Lattice vectors:
  
 A1 = (   1.4315177495,   1.4315177495,  -1.4315177495)
 A2 = (  -1.4315177495,   1.4315177495,   1.4315177495)
 A3 = (   1.4315177495,  -1.4315177495,   1.4315177495)
 
   2 primitive cells build up your supercell.
 

 Routine SETGRP: Setting up the symmetry group for a 
 simple cubic supercell.


 Subroutine GETGRP returns: Found 48 space group operations
 (whereof 48 operations were pure point group operations)
 out of a pool of 48 trial point group operations.


The static configuration has the point symmetry O_h .


Analysis of symmetry for dynamics (positions and initial velocities):
=====================================================================
 Subroutine PRICEL returns following result:
 
  LATTYP: Found a body centered cubic cell.
 ALAT       =     2.8630354989
  
  Lattice vectors:
  
 A1 = (   1.4315177495,   1.4315177495,  -1.4315177495)
 A2 = (  -1.4315177495,   1.4315177495,   1.4315177495)
 A3 = (   1.4315177495,  -1.4315177495,   1.4315177495)
 
   2 primitive cells build up your supercell.
 

 Routine SETGRP: Setting up the symmetry group for a 
 simple cubic supercell.


 Subroutine GETGRP returns: Found 48 space group operations
 (whereof 48 operations were pure point group operations)
 out of a pool of 48 trial point group operations.


The dynamic configuration has the point symmetry O_h .


Analysis of structural, dynamic, and magnetic symmetry:
=====================================================================
 Subroutine PRICEL returns following result:
 
  LATTYP: Found a body centered cubic cell.
 ALAT       =     2.8630354989
  
  Lattice vectors:
  
 A1 = (   1.4315177495,   1.4315177495,  -1.4315177495)
 A2 = (  -1.4315177495,   1.4315177495,   1.4315177495)
 A3 = (   1.4315177495,  -1.4315177495,   1.4315177495)
 
   2 primitive cells build up your supercell.
 

 Routine SETGRP: Setting up the symmetry group for a 
 simple cubic supercell.


 Subroutine GETGRP returns: Found 48 space group operations
 (whereof 48 operations were pure point group operations)
 out of a pool of 48 trial point group operations.


The overall configuration has the point symmetry O_h .


 Subroutine INISYM returns: Found 48 space group operations
 (whereof 48 operations are pure point group operations),
 and found     2 'primitive' translations


----------------------------------------------------------------------------------------

                                     Primitive cell                                     

  volume of cell :      11.7341

  direct lattice vectors                    reciprocal lattice vectors
     1.431517749  1.431517749 -1.431517749     0.349279637  0.349279637  0.000000000
    -1.431517749  1.431517749  1.431517749     0.000000000  0.349279637  0.349279637
     1.431517749 -1.431517749  1.431517749     0.349279637 -0.000000000  0.349279637

  length of vectors
     2.479461474  2.479461474  2.479461474     0.493956000  0.493956000  0.493956000

  position of ions in fractional coordinates (direct lattice)
     0.000000000  0.000000000  0.000000000

  ion indices of the primitive-cell ions
   primitive index   ion index
                 1           1

----------------------------------------------------------------------------------------

 
 
 KPOINTS: Automatic                               

Automatic generation of k-mesh.
 Grid dimensions read from file:
 generate k-points for:   15   15   15

 Generating k-lattice:

  Cartesian coordinates                     Fractional coordinates (reciprocal lattice)
     0.023285309 -0.000000000  0.000000000     0.066666667  0.000000000  0.000000000
     0.000000000  0.023285309  0.000000000     0.000000000  0.066666667  0.000000000
    -0.000000000 -0.000000000  0.023285309     0.000000000  0.000000000  0.066666667

  Length of vectors
     0.023285309  0.023285309  0.023285309

  Shift w.r.t. Gamma in fractional coordinates (k-lattice)
     0.000000000  0.000000000  0.000000000

 
 Subroutine IBZKPT returns following result:
 ===========================================
 
 Found    120 irreducible k-points:
 
 Following reciprocal coordinates:
            Coordinates               Weight
  0.000000  0.000000  0.000000      1.000000
  0.066667  0.000000  0.000000      6.000000
  0.133333  0.000000  0.000000      6.000000
  0.200000 -0.000000  0.000000      6.000000
  0.266667  0.000000  0.000000      6.000000
  0.333333  0.000000  0.000000      6.000000
  0.400000  0.000000  0.000000      6.000000
  0.466667 -0.000000  0.000000      6.000000
  0.066667  0.066667  0.000000     12.000000
  0.133333  0.066667  0.000000     24.000000
  0.200000  0.066667  0.000000     24.000000
  0.266667  0.066667  0.000000     24.000000
  0.333333  0.066667  0.000000     24.000000
  0.400000  0.066667  0.000000     24.000000
  0.466667  0.066667  0.000000     24.000000
  0.133333  0.133333  0.000000     12.000000
  0.200000  0.133333  0.000000     24.000000
  0.266667  0.133333  0.000000     24.000000
  0.333333  0.133333  0.000000     24.000000
  0.400000  0.133333  0.000000     24.000000
  0.466667  0.133333  0.000000     24.000000
  0.200000  0.200000  0.000000     12.000000
  0.266667  0.200000  0.000000     24.000000
  0.333333  0.200000  0.000000     24.000000
  0.400000  0.200000  0.000000     24.000000
  0.466667  0.200000  0.000000     24.000000
  0.266667  0.266667  0.000000     12.000000
  0.333333  0.266667  0.000000     24.000000
  0.400000  0.266667  0.000000     24.000000
  0.466667  0.266667  0.000000     24.000000
  0.333333  0.333333  0.000000     12.000000
  0.400000  0.333333  0.000000     24.000000
  0.466667  0.333333  0.000000     24.000000
  0.400000  0.400000  0.000000     12.000000
  0.466667  0.400000  0.000000     24.000000
  0.466667  0.466667  0.000000     12.000000
  0.066667  0.066667  0.066667      8.000000
  0.133333  0.066667  0.066667     24.000000
  0.200000  0.066667  0.066667     24.000000
  0.266667  0.066667  0.066667     24.000000
  0.333333  0.066667  0.066667     24.000000
  0.400000  0.066667  0.066667     24.000000
  0.466667  0.066667  0.066667     24.000000
  0.133333  0.133333  0.066667     24.000000
  0.200000  0.133333  0.066667     48.000000
  0.266667  0.133333  0.066667     48.000000
  0.333333  0.133333  0.066667     48.000000
  0.400000  0.133333  0.066667     48.000000
  0.466667  0.133333  0.066667     48.000000
  0.200000  0.200000  0.066667     24.000000
  0.266667  0.200000  0.066667     48.000000
  0.333333  0.200000  0.066667     48.000000
  0.400000  0.200000  0.066667     48.000000
  0.466667  0.200000  0.066667     48.000000
  0.266667  0.266667  0.066667     24.000000
  0.333333  0.266667  0.066667     48.000000
  0.400000  0.266667  0.066667     48.000000
  0.466667  0.266667  0.066667     48.000000
  0.333333  0.333333  0.066667     24.000000
  0.400000  0.333333  0.066667     48.000000
  0.466667  0.333333  0.066667     48.000000
  0.400000  0.400000  0.066667     24.000000
  0.466667  0.400000  0.066667     48.000000
  0.466667  0.466667  0.066667     24.000000
  0.133333  0.133333  0.133333      8.000000
  0.200000  0.133333  0.133333     24.000000
  0.266667  0.133333  0.133333     24.000000
  0.333333  0.133333  0.133333     24.000000
  0.400000  0.133333  0.133333     24.000000
  0.466667  0.133333  0.133333     24.000000
  0.200000  0.200000  0.133333     24.000000
  0.266667  0.200000  0.133333     48.000000
  0.333333  0.200000  0.133333     48.000000
  0.400000  0.200000  0.133333     48.000000
  0.466667  0.200000  0.133333     48.000000
  0.266667  0.266667  0.133333     24.000000
  0.333333  0.266667  0.133333     48.000000
  0.400000  0.266667  0.133333     48.000000
  0.466667  0.266667  0.133333     48.000000
  0.333333  0.333333  0.133333     24.000000
  0.400000  0.333333  0.133333     48.000000
  0.466667  0.333333  0.133333     48.000000
  0.400000  0.400000  0.133333     24.000000
  0.466667  0.400000  0.133333     48.000000
  0.466667  0.466667  0.133333     24.000000
  0.200000  0.200000  0.200000      8.000000
  0.266667  0.200000  0.200000     24.000000
  0.333333  0.200000  0.200000     24.000000
  0.400000  0.200000  0.200000     24.000000
  0.466667  0.200000  0.200000     24.000000
  0.266667  0.266667  0.200000     24.000000
  0.333333  0.266667  0.200000     48.000000
  0.400000  0.266667  0.200000     48.000000
  0.466667  0.266667  0.200000     48.000000
  0.333333  0.333333  0.200000     24.000000
  0.400000  0.333333  0.200000     48.000000
  0.466667  0.333333  0.200000     48.000000
  0.400000  0.400000  0.200000     24.000000
  0.466667  0.400000  0.200000     48.000000
  0.466667  0.466667  0.200000     24.000000
  0.266667  0.266667  0.266667      8.000000
  0.333333  0.266667  0.266667     24.000000
  0.400000  0.266667  0.266667     24.000000
  0.466667  0.266667  0.266667     24.000000
  0.333333  0.333333  0.266667     24.000000
  0.400000  0.333333  0.266667     48.000000
  0.466667  0.333333  0.266667     48.000000
  0.400000  0.400000  0.266667     24.000000
  0.466667  0.400000  0.266667     48.000000
  0.466667  0.466667  0.266667     24.000000
  0.333333  0.333333  0.333333      8.000000
  0.400000  0.333333  0.333333     24.000000
  0.466667  0.333333  0.333333     24.000000
  0.400000  0.400000  0.333333     24.000000
  0.466667  0.400000  0.333333     48.000000
  0.466667  0.466667  0.333333     24.000000
  0.400000  0.400000  0.400000      8.000000
  0.466667  0.400000  0.400000     24.000000
  0.466667  0.466667  0.400000     24.000000
  0.466667  0.466667  0.466667      8.000000
 
 Following cartesian coordinates:
            Coordinates               Weight
  0.000000  0.000000  0.000000      1.000000
  0.023285 -0.000000  0.000000      6.000000
  0.046571 -0.000000  0.000000      6.000000
  0.069856 -0.000000  0.000000      6.000000
  0.093141 -0.000000  0.000000      6.000000
  0.116427 -0.000000  0.000000      6.000000
  0.139712 -0.000000  0.000000      6.000000
  0.162997 -0.000000  0.000000      6.000000
  0.023285  0.023285  0.000000     12.000000
  0.046571  0.023285  0.000000     24.000000
  0.069856  0.023285  0.000000     24.000000
  0.093141  0.023285  0.000000     24.000000
  0.116427  0.023285  0.000000     24.000000
  0.139712  0.023285  0.000000     24.000000
  0.162997  0.023285  0.000000     24.000000
  0.046571  0.046571  0.000000     12.000000
  0.069856  0.046571  0.000000     24.000000
  0.093141  0.046571  0.000000     24.000000
  0.116427  0.046571  0.000000     24.000000
  0.139712  0.046571  0.000000     24.000000
  0.162997  0.046571  0.000000     24.000000
  0.069856  0.069856  0.000000     12.000000
  0.093141  0.069856  0.000000     24.000000
  0.116427  0.069856  0.000000     24.000000
  0.139712  0.069856  0.000000     24.000000
  0.162997  0.069856  0.000000     24.000000
  0.093141  0.093141  0.000000     12.000000
  0.116427  0.093141  0.000000     24.000000
  0.139712  0.093141  0.000000     24.000000
  0.162997  0.093141  0.000000     24.000000
  0.116427  0.116427  0.000000     12.000000
  0.139712  0.116427  0.000000     24.000000
  0.162997  0.116427  0.000000     24.000000
  0.139712  0.139712  0.000000     12.000000
  0.162997  0.139712  0.000000     24.000000
  0.162997  0.162997  0.000000     12.000000
  0.023285  0.023285  0.023285      8.000000
  0.046571  0.023285  0.023285     24.000000
  0.069856  0.023285  0.023285     24.000000
  0.093141  0.023285  0.023285     24.000000
  0.116427  0.023285  0.023285     24.000000
  0.139712  0.023285  0.023285     24.000000
  0.162997  0.023285  0.023285     24.000000
  0.046571  0.046571  0.023285     24.000000
  0.069856  0.046571  0.023285     48.000000
  0.093141  0.046571  0.023285     48.000000
  0.116427  0.046571  0.023285     48.000000
  0.139712  0.046571  0.023285     48.000000
  0.162997  0.046571  0.023285     48.000000
  0.069856  0.069856  0.023285     24.000000
  0.093141  0.069856  0.023285     48.000000
  0.116427  0.069856  0.023285     48.000000
  0.139712  0.069856  0.023285     48.000000
  0.162997  0.069856  0.023285     48.000000
  0.093141  0.093141  0.023285     24.000000
  0.116427  0.093141  0.023285     48.000000
  0.139712  0.093141  0.023285     48.000000
  0.162997  0.093141  0.023285     48.000000
  0.116427  0.116427  0.023285     24.000000
  0.139712  0.116427  0.023285     48.000000
  0.162997  0.116427  0.023285     48.000000
  0.139712  0.139712  0.023285     24.000000
  0.162997  0.139712  0.023285     48.000000
  0.162997  0.162997  0.023285     24.000000
  0.046571  0.046571  0.046571      8.000000
  0.069856  0.046571  0.046571     24.000000
  0.093141  0.046571  0.046571     24.000000
  0.116427  0.046571  0.046571     24.000000
  0.139712  0.046571  0.046571     24.000000
  0.162997  0.046571  0.046571     24.000000
  0.069856  0.069856  0.046571     24.000000
  0.093141  0.069856  0.046571     48.000000
  0.116427  0.069856  0.046571     48.000000
  0.139712  0.069856  0.046571     48.000000
  0.162997  0.069856  0.046571     48.000000
  0.093141  0.093141  0.046571     24.000000
  0.116427  0.093141  0.046571     48.000000
  0.139712  0.093141  0.046571     48.000000
  0.162997  0.093141  0.046571     48.000000
  0.116427  0.116427  0.046571     24.000000
  0.139712  0.116427  0.046571     48.000000
  0.162997  0.116427  0.046571     48.000000
  0.139712  0.139712  0.046571     24.000000
  0.162997  0.139712  0.046571     48.000000
  0.162997  0.162997  0.046571     24.000000
  0.069856  0.069856  0.069856      8.000000
  0.093141  0.069856  0.069856     24.000000
  0.116427  0.069856  0.069856     24.000000
  0.139712  0.069856  0.069856     24.000000
  0.162997  0.069856  0.069856     24.000000
  0.093141  0.093141  0.069856     24.000000
  0.116427  0.093141  0.069856     48.000000
  0.139712  0.093141  0.069856     48.000000
  0.162997  0.093141  0.069856     48.000000
  0.116427  0.116427  0.069856     24.000000
  0.139712  0.116427  0.069856     48.000000
  0.162997  0.116427  0.069856     48.000000
  0.139712  0.139712  0.069856     24.000000
  0.162997  0.139712  0.069856     48.000000
  0.162997  0.162997  0.069856     24.000000
  0.093141  0.093141  0.093141      8.000000
  0.116427  0.093141  0.093141     24.000000
  0.139712  0.093141  0.093141     24.000000
  0.162997  0.093141  0.093141     24.000000
  0.116427  0.116427  0.093141     24.000000
  0.139712  0.116427  0.093141     48.000000
  0.162997  0.116427  0.093141     48.000000
  0.139712  0.139712  0.093141     24.000000
  0.162997  0.139712  0.093141     48.000000
  0.162997  0.162997  0.093141     24.000000
  0.116427  0.116427  0.116427      8.000000
  0.139712  0.116427  0.116427     24.000000
  0.162997  0.116427  0.116427     24.000000
  0.139712  0.139712  0.116427     24.000000
  0.162997  0.139712  0.116427     48.000000
  0.162997  0.162997  0.116427     24.000000
  0.139712  0.139712  0.139712      8.000000
  0.162997  0.139712  0.139712     24.000000
  0.162997  0.162997  0.139712     24.000000
  0.162997  0.162997  0.162997      8.000000
 


--------------------------------------------------------------------------------------------------------




 Dimension of arrays:
   k-points           NKPTS =    120   k-points in BZ     NKDIM =    120   number of bands    NBANDS=     20
   number of dos      NEDOS =    301   number of ions     NIONS =      2
   non local maximal  LDIM  =      6   non local SUM 2l+1 LMDIM =     18
   total plane-waves  NPLWV =  13824
   max r-space proj   IRMAX =      1   max aug-charges    IRDMAX= 168046
   dimension x,y,z NGX =    24 NGY =   24 NGZ =   24
   dimension x,y,z NGXF=    48 NGYF=   48 NGZF=   48
   support grid    NGXF=    96 NGYF=   96 NGZF=   96
   ions per type =               2
   NGX,Y,Z   is equivalent  to a cutoff of  13.94, 13.94, 13.94 a.u.
   NGXF,Y,Z  is equivalent  to a cutoff of  27.87, 27.87, 27.87 a.u.

 SYSTEM =  unknown system                          
 POSCAR =  Fe2                                     

 Startparameter for this run:
   NWRITE =      2    write-flag & timer
   PREC   = accura    normal or accurate (medium, high low for compatibility)
   ISTART =      0    job   : 0-new  1-cont  2-samecut
   ICHARG =      2    charge: 1-file 2-atom 10-const
   ISPIN  =      2    spin polarized calculation?
   LNONCOLLINEAR =      F non collinear calculations
   LSORBIT =      F    spin-orbit coupling
   INIWAV =      1    electr: 0-lowe 1-rand  2-diag
   LASPH  =      T    aspherical Exc in radial PAW
   METAGGA=      F    non-selfconsistent MetaGGA calc.

 Electronic Relaxation 1
   ENCUT  =  550.0 eV  40.42 Ry    6.36 a.u.   5.47  5.47  5.47*2*pi/ulx,y,z
   ENINI  =  550.0     initial cutoff
   ENAUG  =  511.4 eV  augmentation charge cutoff
   NELM   =     90;   NELMIN=  6; NELMDL= -5     # of ELM steps 
   EDIFF  = 0.1E-05   stopping-criterion for ELM
   LREAL  =      F    real-space projection
   NLSPLINE    = F    spline interpolate recip. space projectors
   LCOMPAT=      F    compatible to vasp.4.4
   GGA_COMPAT  = F    GGA compatible to vasp.4.4-vasp.4.6
   LMAXPAW     = -100 max onsite density
   LMAXMIX     =    4 max onsite mixed and CHGCAR
   VOSKOWN=      1    Vosko Wilk Nusair interpolation
   ROPT   =    0.00000
 Ionic relaxation
   EDIFFG = -.2E-02   stopping-criterion for IOM
   NSW    =    100    number of steps for IOM
   NBLOCK =      1;   KBLOCK =    100    inner block; outer block 
   IBRION =      2    ionic relax: 0-MD 1-quasi-New 2-CG
   NFREE  =      1    steps in history (QN), initial steepest desc. (CG)
   ISIF   =      3    stress and relaxation
   IWAVPR =     11    prediction:  0-non 1-charg 2-wave 3-comb
   ISYM   =      2    0-nonsym 1-usesym 2-fastsym
   LCORR  =      T    Harris-Foulkes like correction to forces

   POTIM  = 0.5000    time-step for ionic-motion
   TEIN   =    0.0    initial temperature
   TEBEG  =    0.0;   TEEND  =   0.0 temperature during run
   SMASS  =  -3.00    Nose mass-parameter (am)
   estimated Nose-frequenzy (Omega)   =  0.10E-29 period in steps = 0.13E+47 mass=  -0.187E-27a.u.
   SCALEE = 1.0000    scale energy and forces
   NPACO  =    256;   APACO  = 16.0  distance and # of slots for P.C.
   PSTRESS=    0.0 pullay stress

  Mass of Ions in am
   POMASS =  55.85
  Ionic Valenz
   ZVAL   =   8.00
  Atomic Wigner-Seitz radii
   RWIGS  =  -1.00
  virtual crystal weights 
   VCA    =   1.00
   NELECT =      16.0000    total number of electrons
   NUPDOWN=      -1.0000    fix difference up-down

 DOS related values:
   EMIN   =  10.00;   EMAX   =-10.00  energy-range for DOS
   EFERMI =   0.00
   ISMEAR =     1;   SIGMA  =   0.20  broadening in eV -4-tet -1-fermi 0-gaus

 Electronic relaxation 2 (details)
   IALGO  =     38    algorithm
   LDIAG  =      T    sub-space diagonalisation (order eigenvalues)
   LSUBROT=      F    optimize rotation matrix (better conditioning)
   TURBO    =      0    0=normal 1=particle mesh
   IRESTART =      0    0=no restart 2=restart with 2 vectors
   NREBOOT  =      0    no. of reboots
   NMIN     =      0    reboot dimension
   EREF     =   0.00    reference energy to select bands
   IMIX   =      4    mixing-type and parameters
     AMIX     =   0.40;   BMIX     =  1.00
     AMIX_MAG =   1.60;   BMIX_MAG =  1.00
     AMIN     =   0.10
     WC   =   100.;   INIMIX=   1;  MIXPRE=   1;  MAXMIX= -45

 Intra band minimization:
   WEIMIN = 0.0010     energy-eigenvalue tresh-hold
   EBREAK =  0.12E-07  absolut break condition
   DEPER  =   0.30     relativ break condition  

   TIME   =   0.40     timestep for ELM

  volume/ion in A,a.u.               =      11.73        79.19
  Fermi-wavevector in a.u.,A,eV,Ry     =   1.440859  2.722828 28.246703  2.076074
  Thomas-Fermi vector in A             =   2.559556
 
 Write flags
   LWAVE        =      T    write WAVECAR
   LDOWNSAMPLE  =      F    k-point downsampling of WAVECAR
   LCHARG       =      T    write CHGCAR
   LVTOT        =      F    write LOCPOT, total local potential
   LVHAR        =      F    write LOCPOT, Hartree potential only
   LELF         =      F    write electronic localiz. function (ELF)
   LORBIT       =     11    0 simple, 1 ext, 2 COOP (PROOUT), +10 PAW based schemes


 Dipole corrections
   LMONO  =      F    monopole corrections only (constant potential shift)
   LDIPOL =      F    correct potential (dipole corrections)
   IDIPOL =      0    1-x, 2-y, 3-z, 4-all directions 
   EPSILON=  1.0000000 bulk dielectric constant

 Exchange correlation treatment:
   GGA     =    --    GGA type
   LEXCH   =     8    internal setting for exchange type
   VOSKOWN=      1    Vosko Wilk Nusair interpolation
   LHFCALC =     F    Hartree Fock is set to
   LHFONE  =     F    Hartree Fock one center treatment
   AEXX    =    0.0000 exact exchange contribution

 Linear response parameters
   LEPSILON=     F    determine dielectric tensor
   LRPA    =     F    only Hartree local field effects (RPA)
   LNABLA  =     F    use nabla operator in PAW spheres
   LVEL    =     F    velocity operator in full k-point grid
   LINTERFAST=   F  fast interpolation
   KINTER  =     0    interpolate to denser k-point grid
   CSHIFT  =0.1000    complex shift for real part using Kramers Kronig
   OMEGAMAX=  -1.0    maximum frequency
   DEG_THRESHOLD= 0.2000000E-02 threshold for treating states as degnerate
   RTIME   =   -0.100 relaxation time in fs
  (WPLASMAI=    0.000 imaginary part of plasma frequency in eV, 0.658/RTIME)
   DFIELD  = 0.0000000 0.0000000 0.0000000 field for delta impulse in time
 
 Orbital magnetization related:
   ORBITALMAG=     F  switch on orbital magnetization
   LCHIMAG   =     F  perturbation theory with respect to B field
   DQ        =  0.001000  dq finite difference perturbation B field
   LLRAUG    =     F  two centre corrections for induced B field



--------------------------------------------------------------------------------------------------------


 conjugate gradient relaxation of ions
 charge density and potential will be updated during run
 spin polarized calculation
 Variant of blocked Davidson
 Davidson routine will perform the subspace rotation
 perform sub-space diagonalisation
    after iterative eigenvector-optimisation
 modified Broyden-mixing scheme, WC =      100.0
 initial mixing is a Kerker type mixing with AMIX =  0.4000 and BMIX =      1.0000
 Hartree-type preconditioning will be used
 using additional bands           12
 reciprocal scheme for non local part
 use partial core corrections
 calculate Harris-corrections to forces 
   (improved forces if not selfconsistent)
 use gradient corrections 
 use of overlap-Matrix (Vanderbilt PP)
 Methfessel and Paxton  Order N= 1 SIGMA  =   0.20


--------------------------------------------------------------------------------------------------------


  energy-cutoff  :      550.00
  volume of cell :       23.47
      direct lattice vectors                 reciprocal lattice vectors
     2.863035499  0.000000000  0.000000000     0.349279637 -0.000000000  0.000000000
     0.000000000  2.863035499  0.000000000     0.000000000  0.349279637  0.000000000
     0.000000000  0.000000000  2.863035499    -0.000000000 -0.000000000  0.349279637

  length of vectors
     2.863035499  2.863035499  2.863035499     0.349279637  0.349279637  0.349279637


 
 k-points in units of 2pi/SCALE and weight: Automatic                               
   0.00000000  0.00000000  0.00000000       0.000
   0.02328531 -0.00000000  0.00000000       0.002
   0.04657062 -0.00000000  0.00000000       0.002
   0.06985593 -0.00000000  0.00000000       0.002
   0.09314124 -0.00000000  0.00000000       0.002
   0.11642655 -0.00000000  0.00000000       0.002
   0.13971185 -0.00000000  0.00000000       0.002
   0.16299716 -0.00000000  0.00000000       0.002
   0.02328531  0.02328531  0.00000000       0.004
   0.04657062  0.02328531  0.00000000       0.007
   0.06985593  0.02328531  0.00000000       0.007
   0.09314124  0.02328531  0.00000000       0.007
   0.11642655  0.02328531  0.00000000       0.007
   0.13971185  0.02328531  0.00000000       0.007
   0.16299716  0.02328531  0.00000000       0.007
   0.04657062  0.04657062  0.00000000       0.004
   0.06985593  0.04657062  0.00000000       0.007
   0.09314124  0.04657062  0.00000000       0.007
   0.11642655  0.04657062  0.00000000       0.007
   0.13971185  0.04657062  0.00000000       0.007
   0.16299716  0.04657062  0.00000000       0.007
   0.06985593  0.06985593  0.00000000       0.004
   0.09314124  0.06985593  0.00000000       0.007
   0.11642655  0.06985593  0.00000000       0.007
   0.13971185  0.06985593  0.00000000       0.007
   0.16299716  0.06985593  0.00000000       0.007
   0.09314124  0.09314124  0.00000000       0.004
   0.11642655  0.09314124  0.00000000       0.007
   0.13971185  0.09314124  0.00000000       0.007
   0.16299716  0.09314124  0.00000000       0.007
   0.11642655  0.11642655  0.00000000       0.004
   0.13971185  0.11642655  0.00000000       0.007
   0.16299716  0.11642655  0.00000000       0.007
   0.13971185  0.13971185  0.00000000       0.004
   0.16299716  0.13971185  0.00000000       0.007
   0.16299716  0.16299716  0.00000000       0.004
   0.02328531  0.02328531  0.02328531       0.002
   0.04657062  0.02328531  0.02328531       0.007
   0.06985593  0.02328531  0.02328531       0.007
   0.09314124  0.02328531  0.02328531       0.007
   0.11642655  0.02328531  0.02328531       0.007
   0.13971185  0.02328531  0.02328531       0.007
   0.16299716  0.02328531  0.02328531       0.007
   0.04657062  0.04657062  0.02328531       0.007
   0.06985593  0.04657062  0.02328531       0.014
   0.09314124  0.04657062  0.02328531       0.014
   0.11642655  0.04657062  0.02328531       0.014
   0.13971185  0.04657062  0.02328531       0.014
   0.16299716  0.04657062  0.02328531       0.014
   0.06985593  0.06985593  0.02328531       0.007
   0.09314124  0.06985593  0.02328531       0.014
   0.11642655  0.06985593  0.02328531       0.014
   0.13971185  0.06985593  0.02328531       0.014
   0.16299716  0.06985593  0.02328531       0.014
   0.09314124  0.09314124  0.02328531       0.007
   0.11642655  0.09314124  0.02328531       0.014
   0.13971185  0.09314124  0.02328531       0.014
   0.16299716  0.09314124  0.02328531       0.014
   0.11642655  0.11642655  0.02328531       0.007
   0.13971185  0.11642655  0.02328531       0.014
   0.16299716  0.11642655  0.02328531       0.014
   0.13971185  0.13971185  0.02328531       0.007
   0.16299716  0.13971185  0.02328531       0.014
   0.16299716  0.16299716  0.02328531       0.007
   0.04657062  0.04657062  0.04657062       0.002
   0.06985593  0.04657062  0.04657062       0.007
   0.09314124  0.04657062  0.04657062       0.007
   0.11642655  0.04657062  0.04657062       0.007
   0.13971185  0.04657062  0.04657062       0.007
   0.16299716  0.04657062  0.04657062       0.007
   0.06985593  0.06985593  0.04657062       0.007
   0.09314124  0.06985593  0.04657062       0.014
   0.11642655  0.06985593  0.04657062       0.014
   0.13971185  0.06985593  0.04657062       0.014
   0.16299716  0.06985593  0.04657062       0.014
   0.09314124  0.09314124  0.04657062       0.007
   0.11642655  0.09314124  0.04657062       0.014
   0.13971185  0.09314124  0.04657062       0.014
   0.16299716  0.09314124  0.04657062       0.014
   0.11642655  0.11642655  0.04657062       0.007
   0.13971185  0.11642655  0.04657062       0.014
   0.16299716  0.11642655  0.04657062       0.014
   0.13971185  0.13971185  0.04657062       0.007
   0.16299716  0.13971185  0.04657062       0.014
   0.16299716  0.16299716  0.04657062       0.007
   0.06985593  0.06985593  0.06985593       0.002
   0.09314124  0.06985593  0.06985593       0.007
   0.11642655  0.06985593  0.06985593       0.007
   0.13971185  0.06985593  0.06985593       0.007
   0.16299716  0.06985593  0.06985593       0.007
   0.09314124  0.09314124  0.06985593       0.007
   0.11642655  0.09314124  0.06985593       0.014
   0.13971185  0.09314124  0.06985593       0.014
   0.16299716  0.09314124  0.06985593       0.014
   0.11642655  0.11642655  0.06985593       0.007
   0.13971185  0.11642655  0.06985593       0.014
   0.16299716  0.11642655  0.06985593       0.014
   0.13971185  0.13971185  0.06985593       0.007
   0.16299716  0.13971185  0.06985593       0.014
   0.16299716  0.16299716  0.06985593       0.007
   0.09314124  0.09314124  0.09314124       0.002
   0.11642655  0.09314124  0.09314124       0.007
   0.13971185  0.09314124  0.09314124       0.007
   0.16299716  0.09314124  0.09314124       0.007
   0.11642655  0.11642655  0.09314124       0.007
   0.13971185  0.11642655  0.09314124       0.014
   0.16299716  0.11642655  0.09314124       0.014
   0.13971185  0.13971185  0.09314124       0.007
   0.16299716  0.13971185  0.09314124       0.014
   0.16299716  0.16299716  0.09314124       0.007
   0.11642655  0.11642655  0.11642655       0.002
   0.13971185  0.11642655  0.11642655       0.007
   0.16299716  0.11642655  0.11642655       0.007
   0.13971185  0.13971185  0.11642655       0.007
   0.16299716  0.13971185  0.11642655       0.014
   0.16299716  0.16299716  0.11642655       0.007
   0.13971185  0.13971185  0.13971185       0.002
   0.16299716  0.13971185  0.13971185       0.007
   0.16299716  0.16299716  0.13971185       0.007
   0.16299716  0.16299716  0.16299716       0.002
 
 k-points in reciprocal lattice and weights: Automatic                               
   0.00000000  0.00000000  0.00000000       0.000
   0.06666667  0.00000000  0.00000000       0.002
   0.13333333  0.00000000  0.00000000       0.002
   0.20000000 -0.00000000  0.00000000       0.002
   0.26666667  0.00000000  0.00000000       0.002
   0.33333333  0.00000000  0.00000000       0.002
   0.40000000  0.00000000  0.00000000       0.002
   0.46666667 -0.00000000  0.00000000       0.002
   0.06666667  0.06666667  0.00000000       0.004
   0.13333333  0.06666667  0.00000000       0.007
   0.20000000  0.06666667  0.00000000       0.007
   0.26666667  0.06666667  0.00000000       0.007
   0.33333333  0.06666667  0.00000000       0.007
   0.40000000  0.06666667  0.00000000       0.007
   0.46666667  0.06666667  0.00000000       0.007
   0.13333333  0.13333333  0.00000000       0.004
   0.20000000  0.13333333  0.00000000       0.007
   0.26666667  0.13333333  0.00000000       0.007
   0.33333333  0.13333333  0.00000000       0.007
   0.40000000  0.13333333  0.00000000       0.007
   0.46666667  0.13333333  0.00000000       0.007
   0.20000000  0.20000000  0.00000000       0.004
   0.26666667  0.20000000  0.00000000       0.007
   0.33333333  0.20000000  0.00000000       0.007
   0.40000000  0.20000000  0.00000000       0.007
   0.46666667  0.20000000  0.00000000       0.007
   0.26666667  0.26666667  0.00000000       0.004
   0.33333333  0.26666667  0.00000000       0.007
   0.40000000  0.26666667  0.00000000       0.007
   0.46666667  0.26666667  0.00000000       0.007
   0.33333333  0.33333333  0.00000000       0.004
   0.40000000  0.33333333  0.00000000       0.007
   0.46666667  0.33333333  0.00000000       0.007
   0.40000000  0.40000000  0.00000000       0.004
   0.46666667  0.40000000  0.00000000       0.007
   0.46666667  0.46666667  0.00000000       0.004
   0.06666667  0.06666667  0.06666667       0.002
   0.13333333  0.06666667  0.06666667       0.007
   0.20000000  0.06666667  0.06666667       0.007
   0.26666667  0.06666667  0.06666667       0.007
   0.33333333  0.06666667  0.06666667       0.007
   0.40000000  0.06666667  0.06666667       0.007
   0.46666667  0.06666667  0.06666667       0.007
   0.13333333  0.13333333  0.06666667       0.007
   0.20000000  0.13333333  0.06666667       0.014
   0.26666667  0.13333333  0.06666667       0.014
   0.33333333  0.13333333  0.06666667       0.014
   0.40000000  0.13333333  0.06666667       0.014
   0.46666667  0.13333333  0.06666667       0.014
   0.20000000  0.20000000  0.06666667       0.007
   0.26666667  0.20000000  0.06666667       0.014
   0.33333333  0.20000000  0.06666667       0.014
   0.40000000  0.20000000  0.06666667       0.014
   0.46666667  0.20000000  0.06666667       0.014
   0.26666667  0.26666667  0.06666667       0.007
   0.33333333  0.26666667  0.06666667       0.014
   0.40000000  0.26666667  0.06666667       0.014
   0.46666667  0.26666667  0.06666667       0.014
   0.33333333  0.33333333  0.06666667       0.007
   0.40000000  0.33333333  0.06666667       0.014
   0.46666667  0.33333333  0.06666667       0.014
   0.40000000  0.40000000  0.06666667       0.007
   0.46666667  0.40000000  0.06666667       0.014
   0.46666667  0.46666667  0.06666667       0.007
   0.13333333  0.13333333  0.13333333       0.002
   0.20000000  0.13333333  0.13333333       0.007
   0.26666667  0.13333333  0.13333333       0.007
   0.33333333  0.13333333  0.13333333       0.007
   0.40000000  0.13333333  0.13333333       0.007
   0.46666667  0.13333333  0.13333333       0.007
   0.20000000  0.20000000  0.13333333       0.007
   0.26666667  0.20000000  0.13333333       0.014
   0.33333333  0.20000000  0.13333333       0.014
   0.40000000  0.20000000  0.13333333       0.014
   0.46666667  0.20000000  0.13333333       0.014
   0.26666667  0.26666667  0.13333333       0.007
   0.33333333  0.26666667  0.13333333       0.014
   0.40000000  0.26666667  0.13333333       0.014
   0.46666667  0.26666667  0.13333333       0.014
   0.33333333  0.33333333  0.13333333       0.007
   0.40000000  0.33333333  0.13333333       0.014
   0.46666667  0.33333333  0.13333333       0.014
   0.40000000  0.40000000  0.13333333       0.007
   0.46666667  0.40000000  0.13333333       0.014
   0.46666667  0.46666667  0.13333333       0.007
   0.20000000  0.20000000  0.20000000       0.002
   0.26666667  0.20000000  0.20000000       0.007
   0.33333333  0.20000000  0.20000000       0.007
   0.40000000  0.20000000  0.20000000       0.007
   0.46666667  0.20000000  0.20000000       0.007
   0.26666667  0.26666667  0.20000000       0.007
   0.33333333  0.26666667  0.20000000       0.014
   0.40000000  0.26666667  0.20000000       0.014
   0.46666667  0.26666667  0.20000000       0.014
   0.33333333  0.33333333  0.20000000       0.007
   0.40000000  0.33333333  0.20000000       0.014
   0.46666667  0.33333333  0.20000000       0.014
   0.40000000  0.40000000  0.20000000       0.007
   0.46666667  0.40000000  0.20000000       0.014
   0.46666667  0.46666667  0.20000000       0.007
   0.26666667  0.26666667  0.26666667       0.002
   0.33333333  0.26666667  0.26666667       0.007
   0.40000000  0.26666667  0.26666667       0.007
   0.46666667  0.26666667  0.26666667       0.007
   0.33333333  0.33333333  0.26666667       0.007
   0.40000000  0.33333333  0.26666667       0.014
   0.46666667  0.33333333  0.26666667       0.014
   0.40000000  0.40000000  0.26666667       0.007
   0.46666667  0.40000000  0.26666667       0.014
   0.46666667  0.46666667  0.26666667       0.007
   0.33333333  0.33333333  0.33333333       0.002
   0.40000000  0.33333333  0.33333333       0.007
   0.46666667  0.33333333  0.33333333       0.007
   0.40000000  0.40000000  0.33333333       0.007
   0.46666667  0.40000000  0.33333333       0.014
   0.46666667  0.46666667  0.33333333       0.007
   0.40000000  0.40000000  0.40000000       0.002
   0.46666667  0.40000000  0.40000000       0.007
   0.46666667  0.46666667  0.40000000       0.007
   0.46666667  0.46666667  0.46666667       0.002
 
 position of ions in fractional coordinates (direct lattice) 
   0.00000000  0.00000000  0.00000000
   0.50000000  0.50000000  0.50000000
 
 position of ions in cartesian coordinates  (Angst):
   0.00000000  0.00000000  0.00000000
   1.43151775  1.43151775  1.43151775
 


--------------------------------------------------------------------------------------------------------


 k-point   1 :   0.0000 0.0000 0.0000  plane waves:     691
 k-point   2 :   0.0667 0.0000 0.0000  plane waves:     715
 k-point   3 :   0.1333 0.0000 0.0000  plane waves:     703
 k-point   4 :   0.2000-0.0000 0.0000  plane waves:     695
 k-point   5 :   0.2667 0.0000 0.0000  plane waves:     687
 k-point   6 :   0.3333 0.0000 0.0000  plane waves:     687
 k-point   7 :   0.4000 0.0000 0.0000  plane waves:     691
 k-point   8 :   0.4667-0.0000 0.0000  plane waves:     691
 k-point   9 :   0.0667 0.0667 0.0000  plane waves:     715
 k-point  10 :   0.1333 0.0667 0.0000  plane waves:     698
 k-point  11 :   0.2000 0.0667 0.0000  plane waves:     693
 k-point  12 :   0.2667 0.0667 0.0000  plane waves:     691
 k-point  13 :   0.3333 0.0667 0.0000  plane waves:     687
 k-point  14 :   0.4000 0.0667 0.0000  plane waves:     686
 k-point  15 :   0.4667 0.0667 0.0000  plane waves:     687
 k-point  16 :   0.1333 0.1333 0.0000  plane waves:     698
 k-point  17 :   0.2000 0.1333 0.0000  plane waves:     695
 k-point  18 :   0.2667 0.1333 0.0000  plane waves:     691
 k-point  19 :   0.3333 0.1333 0.0000  plane waves:     685
 k-point  20 :   0.4000 0.1333 0.0000  plane waves:     685
 k-point  21 :   0.4667 0.1333 0.0000  plane waves:     687
 k-point  22 :   0.2000 0.2000 0.0000  plane waves:     698
 k-point  23 :   0.2667 0.2000 0.0000  plane waves:     692
 k-point  24 :   0.3333 0.2000 0.0000  plane waves:     688
 k-point  25 :   0.4000 0.2000 0.0000  plane waves:     682
 k-point  26 :   0.4667 0.2000 0.0000  plane waves:     686
 k-point  27 :   0.2667 0.2667 0.0000  plane waves:     690
 k-point  28 :   0.3333 0.2667 0.0000  plane waves:     683
 k-point  29 :   0.4000 0.2667 0.0000  plane waves:     688
 k-point  30 :   0.4667 0.2667 0.0000  plane waves:     690
 k-point  31 :   0.3333 0.3333 0.0000  plane waves:     700
 k-point  32 :   0.4000 0.3333 0.0000  plane waves:     690
 k-point  33 :   0.4667 0.3333 0.0000  plane waves:     692
 k-point  34 :   0.4000 0.4000 0.0000  plane waves:     682
 k-point  35 :   0.4667 0.4000 0.0000  plane waves:     688
 k-point  36 :   0.4667 0.4667 0.0000  plane waves:     680
 k-point  37 :   0.0667 0.0667 0.0667  plane waves:     709
 k-point  38 :   0.1333 0.0667 0.0667  plane waves:     697
 k-point  39 :   0.2000 0.0667 0.0667  plane waves:     687
 k-point  40 :   0.2667 0.0667 0.0667  plane waves:     689
 k-point  41 :   0.3333 0.0667 0.0667  plane waves:     688
 k-point  42 :   0.4000 0.0667 0.0667  plane waves:     686
 k-point  43 :   0.4667 0.0667 0.0667  plane waves:     683
 k-point  44 :   0.1333 0.1333 0.0667  plane waves:     696
 k-point  45 :   0.2000 0.1333 0.0667  plane waves:     693
 k-point  46 :   0.2667 0.1333 0.0667  plane waves:     692
 k-point  47 :   0.3333 0.1333 0.0667  plane waves:     686
 k-point  48 :   0.4000 0.1333 0.0667  plane waves:     683
 k-point  49 :   0.4667 0.1333 0.0667  plane waves:     685
 k-point  50 :   0.2000 0.2000 0.0667  plane waves:     693
 k-point  51 :   0.2667 0.2000 0.0667  plane waves:     691
 k-point  52 :   0.3333 0.2000 0.0667  plane waves:     694
 k-point  53 :   0.4000 0.2000 0.0667  plane waves:     688
 k-point  54 :   0.4667 0.2000 0.0667  plane waves:     686
 k-point  55 :   0.2667 0.2667 0.0667  plane waves:     693
 k-point  56 :   0.3333 0.2667 0.0667  plane waves:     688
 k-point  57 :   0.4000 0.2667 0.0667  plane waves:     690
 k-point  58 :   0.4667 0.2667 0.0667  plane waves:     693
 k-point  59 :   0.3333 0.3333 0.0667  plane waves:     690
 k-point  60 :   0.4000 0.3333 0.0667  plane waves:     689
 k-point  61 :   0.4667 0.3333 0.0667  plane waves:     688
 k-point  62 :   0.4000 0.4000 0.0667  plane waves:     685
 k-point  63 :   0.4667 0.4000 0.0667  plane waves:     681
 k-point  64 :   0.4667 0.4667 0.0667  plane waves:     678
 k-point  65 :   0.1333 0.1333 0.1333  plane waves:     700
 k-point  66 :   0.2000 0.1333 0.1333  plane waves:     694
 k-point  67 :   0.2667 0.1333 0.1333  plane waves:     692
 k-point  68 :   0.3333 0.1333 0.1333  plane waves:     693
 k-point  69 :   0.4000 0.1333 0.1333  plane waves:     686
 k-point  70 :   0.4667 0.1333 0.1333  plane waves:     683
 k-point  71 :   0.2000 0.2000 0.1333  plane waves:     692
 k-point  72 :   0.2667 0.2000 0.1333  plane waves:     693
 k-point  73 :   0.3333 0.2000 0.1333  plane waves:     692
 k-point  74 :   0.4000 0.2000 0.1333  plane waves:     689
 k-point  75 :   0.4667 0.2000 0.1333  plane waves:     689
 k-point  76 :   0.2667 0.2667 0.1333  plane waves:     697
 k-point  77 :   0.3333 0.2667 0.1333  plane waves:     690
 k-point  78 :   0.4000 0.2667 0.1333  plane waves:     688
 k-point  79 :   0.4667 0.2667 0.1333  plane waves:     685
 k-point  80 :   0.3333 0.3333 0.1333  plane waves:     688
 k-point  81 :   0.4000 0.3333 0.1333  plane waves:     688
 k-point  82 :   0.4667 0.3333 0.1333  plane waves:     685
 k-point  83 :   0.4000 0.4000 0.1333  plane waves:     688
 k-point  84 :   0.4667 0.4000 0.1333  plane waves:     683
 k-point  85 :   0.4667 0.4667 0.1333  plane waves:     680
 k-point  86 :   0.2000 0.2000 0.2000  plane waves:     693
 k-point  87 :   0.2667 0.2000 0.2000  plane waves:     697
 k-point  88 :   0.3333 0.2000 0.2000  plane waves:     693
 k-point  89 :   0.4000 0.2000 0.2000  plane waves:     688
 k-point  90 :   0.4667 0.2000 0.2000  plane waves:     678
 k-point  91 :   0.2667 0.2667 0.2000  plane waves:     688
 k-point  92 :   0.3333 0.2667 0.2000  plane waves:     688
 k-point  93 :   0.4000 0.2667 0.2000  plane waves:     684
 k-point  94 :   0.4667 0.2667 0.2000  plane waves:     681
 k-point  95 :   0.3333 0.3333 0.2000  plane waves:     685
 k-point  96 :   0.4000 0.3333 0.2000  plane waves:     685
 k-point  97 :   0.4667 0.3333 0.2000  plane waves:     682
 k-point  98 :   0.4000 0.4000 0.2000  plane waves:     694
 k-point  99 :   0.4667 0.4000 0.2000  plane waves:     686
 k-point 100 :   0.4667 0.4667 0.2000  plane waves:     685
 k-point 101 :   0.2667 0.2667 0.2667  plane waves:     696
 k-point 102 :   0.3333 0.2667 0.2667  plane waves:     686
 k-point 103 :   0.4000 0.2667 0.2667  plane waves:     685
 k-point 104 :   0.4667 0.2667 0.2667  plane waves:     678
 k-point 105 :   0.3333 0.3333 0.2667  plane waves:     693
 k-point 106 :   0.4000 0.3333 0.2667  plane waves:     688
 k-point 107 :   0.4667 0.3333 0.2667  plane waves:     678
 k-point 108 :   0.4000 0.4000 0.2667  plane waves:     682
 k-point 109 :   0.4667 0.4000 0.2667  plane waves:     673
 k-point 110 :   0.4667 0.4667 0.2667  plane waves:     673
 k-point 111 :   0.3333 0.3333 0.3333  plane waves:     675
 k-point 112 :   0.4000 0.3333 0.3333  plane waves:     677
 k-point 113 :   0.4667 0.3333 0.3333  plane waves:     674
 k-point 114 :   0.4000 0.4000 0.3333  plane waves:     681
 k-point 115 :   0.4667 0.4000 0.3333  plane waves:     676
 k-point 116 :   0.4667 0.4667 0.3333  plane waves:     675
 k-point 117 :   0.4000 0.4000 0.4000  plane waves:     684
 k-point 118 :   0.4667 0.4000 0.4000  plane waves:     680
 k-point 119 :   0.4667 0.4667 0.4000  plane waves:     679
 k-point 120 :   0.4667 0.4667 0.4667  plane waves:     672

 maximum and minimum number of plane-waves per node :       715      672

 maximum number of plane-waves:       715
 maximum index in each direction: 
   IXMAX=    5   IYMAX=    5   IZMAX=    5
   IXMIN=   -5   IYMIN=   -5   IZMIN=   -5


 serial   3D FFT for wavefunctions
 parallel 3D FFT for charge:
    minimum data exchange during FFTs selected (reduces bandwidth)


 total amount of memory used by VASP MPI-rank0    64251. kBytes
=======================================================================

   base      :      30000. kBytes
   nonl-proj :      12395. kBytes
   fftplans  :       4177. kBytes
   grid      :       3179. kBytes
   one-center:         62. kBytes
   wavefun   :      14438. kBytes
 
     INWAV:  cpu time    0.0010: real time    0.0004
 Broyden mixing: mesh for mixing (old mesh)
   NGX = 11   NGY = 11   NGZ = 11
  (NGX  = 48   NGY  = 48   NGZ  = 48)
  gives a total of   1331 points

 initial charge density was supplied:
 charge density of overlapping atoms calculated
 number of electron      16.0000000 magnetization      10.0000000
 keeping initial charge density in first step


--------------------------------------------------------------------------------------------------------


 Maximum index for augmentation-charges        40769 (set IRDMAX)


--------------------------------------------------------------------------------------------------------


 First call to EWALD:  gamma=   0.619
 Maximum number of real-space cells 3x 3x 3
 Maximum number of reciprocal cells 3x 3x 3

    FEWALD:  cpu time    0.0030: real time    0.0035


--------------------------------------- Iteration      1(   1)  ---------------------------------------


    POTLOK:  cpu time    0.0800: real time    0.0835
    SETDIJ:  cpu time    1.6138: real time    1.6146
     EDDAV:  cpu time    5.9981: real time    6.0034
       DOS:  cpu time    0.0090: real time    0.0104
    --------------------------------------------
      LOOP:  cpu time    7.7018: real time    7.7122

 eigenvalue-minimisations  : 10464
 total energy-change (2. order) : 0.8436255E+02  (-0.8191606E+03)
 number of electron      16.0000000 magnetization      10.0000000
 augmentation part       16.0000000 magnetization      10.0000000

 Free energy of the ion-electron system (eV)
  ---------------------------------------------------
  alpha Z        PSCENC =       117.79976220
  Ewald energy   TEWEN  =     -1171.43779597
  -Hartree energ DENC   =      -228.04061712
  -exchange      EXHF   =         0.00000000
  -V(xc)+E(xc)   XCENC  =        14.27161833
  PAW double counting   =      1103.49540010    -1119.11610375
  entropy T*S    EENTRO =         0.00089778
  eigenvalues    EBANDS =       178.76361283
  atomic energy  EATOM  =      1188.62577877
  Solvation  Ediel_sol  =         0.00000000
  ---------------------------------------------------
  free energy    TOTEN  =        84.36255318 eV

  energy without entropy =       84.36165540  energy(sigma->0) =       84.36225392


--------------------------------------------------------------------------------------------------------




--------------------------------------- Iteration      1(   2)  ---------------------------------------


     EDDAV:  cpu time    5.6881: real time    5.7075
       DOS:  cpu time    0.0090: real time    0.0107
    --------------------------------------------
      LOOP:  cpu time    5.6971: real time    5.7182

 eigenvalue-minimisations  :  9656
 total energy-change (2. order) :-0.9619218E+02  (-0.8570380E+02)
 number of electron      16.0000000 magnetization      10.0000000
 augmentation part       16.0000000 magnetization      10.0000000

 Free energy of the ion-electron system (eV)
  ---------------------------------------------------
  alpha Z        PSCENC =       117.79976220
  Ewald energy   TEWEN  =     -1171.43779597
  -Hartree energ DENC   =      -228.04061712
  -exchange      EXHF   =         0.00000000
  -V(xc)+E(xc)   XCENC  =        14.27161833
  PAW double counting   =      1103.49540010    -1119.11610375
  entropy T*S    EENTRO =        -0.00016447
  eigenvalues    EBANDS =        82.57249954
  atomic energy  EATOM  =      1188.62577877
  Solvation  Ediel_sol  =         0.00000000
  ---------------------------------------------------
  free energy    TOTEN  =       -11.82962236 eV

  energy without entropy =      -11.82945789  energy(sigma->0) =      -11.82956753


--------------------------------------------------------------------------------------------------------




--------------------------------------- Iteration      1(   3)  ---------------------------------------


     EDDAV:  cpu time    6.1451: real time    6.1653
       DOS:  cpu time    0.0100: real time    0.0111
    --------------------------------------------
      LOOP:  cpu time    6.1551: real time    6.1764

 eigenvalue-minimisations  : 10860
 total energy-change (2. order) :-0.4219432E+01  (-0.4089392E+01)
 number of electron      16.0000000 magnetization      10.0000000
 augmentation part       16.0000000 magnetization      10.0000000

 Free energy of the ion-electron system (eV)
  ---------------------------------------------------
  alpha Z        PSCENC =       117.79976220
  Ewald energy   TEWEN  =     -1171.43779597
  -Hartree energ DENC   =      -228.04061712
  -exchange      EXHF   =         0.00000000
  -V(xc)+E(xc)   XCENC  =        14.27161833
  PAW double counting   =      1103.49540010    -1119.11610375
  entropy T*S    EENTRO =         0.00132833
  eigenvalues    EBANDS =        78.35157499
  atomic energy  EATOM  =      1188.62577877
  Solvation  Ediel_sol  =         0.00000000
  ---------------------------------------------------
  free energy    TOTEN  =       -16.04905411 eV

  energy without entropy =      -16.05038244  energy(sigma->0) =      -16.04949689


--------------------------------------------------------------------------------------------------------




--------------------------------------- Iteration      1(   4)  ---------------------------------------


     EDDAV:  cpu time    6.0021: real time    6.0229
       DOS:  cpu time    0.0110: real time    0.0110
    --------------------------------------------
      LOOP:  cpu time    6.0121: real time    6.0339

 eigenvalue-minimisations  : 10452
 total energy-change (2. order) :-0.3660694E-01  (-0.3659066E-01)
 number of electron      16.0000000 magnetization      10.0000000
 augmentation part       16.0000000 magnetization      10.0000000

 Free energy of the ion-electron system (eV)
  ---------------------------------------------------
  alpha Z        PSCENC =       117.79976220
  Ewald energy   TEWEN  =     -1171.43779597
  -Hartree energ DENC   =      -228.04061712
  -exchange      EXHF   =         0.00000000
  -V(xc)+E(xc)   XCENC  =        14.27161833
  PAW double counting   =      1103.49540010    -1119.11610375
  entropy T*S    EENTRO =         0.00134778
  eigenvalues    EBANDS =        78.31494861
  atomic energy  EATOM  =      1188.62577877
  Solvation  Ediel_sol  =         0.00000000
  ---------------------------------------------------
  free energy    TOTEN  =       -16.08566104 eV

  energy without entropy =      -16.08700882  energy(sigma->0) =      -16.08611030


--------------------------------------------------------------------------------------------------------




--------------------------------------- Iteration      1(   5)  ---------------------------------------


     EDDAV:  cpu time    6.1211: real time    6.1432
       DOS:  cpu time    0.0110: real time    0.0108
    CHARGE:  cpu time    0.5019: real time    0.5033
    MIXING:  cpu time    0.0030: real time    0.0027
    --------------------------------------------
      LOOP:  cpu time    6.6380: real time    6.6600

 eigenvalue-minimisations  : 10812
 total energy-change (2. order) :-0.4013328E-03  (-0.4013260E-03)
 number of electron      16.0000000 magnetization       4.3731382
 augmentation part        7.3747126 magnetization       2.7050584

 Broyden mixing:
  rms(total) = 0.19629E+01    rms(broyden)= 0.19629E+01
  rms(prec ) = 0.35430E+01
  weight for this iteration     100.00

 Free energy of the ion-electron system (eV)
  ---------------------------------------------------
  alpha Z        PSCENC =       117.79976220
  Ewald energy   TEWEN  =     -1171.43779597
  -Hartree energ DENC   =      -228.04061712
  -exchange      EXHF   =         0.00000000
  -V(xc)+E(xc)   XCENC  =        14.27161833
  PAW double counting   =      1103.49540010    -1119.11610375
  entropy T*S    EENTRO =         0.00134789
  eigenvalues    EBANDS =        78.31454716
  atomic energy  EATOM  =      1188.62577877
  Solvation  Ediel_sol  =         0.00000000
  ---------------------------------------------------
  free energy    TOTEN  =       -16.08606238 eV

  energy without entropy =      -16.08741027  energy(sigma->0) =      -16.08651167


--------------------------------------------------------------------------------------------------------




--------------------------------------- Iteration      1(   6)  ---------------------------------------


    POTLOK:  cpu time    0.0810: real time    0.0962
    SETDIJ:  cpu time    1.6038: real time    1.6056
     EDDAV:  cpu time    6.0451: real time    6.0851
       DOS:  cpu time    0.0110: real time    0.0118
    CHARGE:  cpu time    0.4659: real time    0.4657
    MIXING:  cpu time    0.0020: real time    0.0029
    --------------------------------------------
      LOOP:  cpu time    8.2088: real time    8.2671

 eigenvalue-minimisations  : 10632
 total energy-change (2. order) :-0.4756206E+00  (-0.5197785E+00)
 number of electron      16.0000000 magnetization       4.6256524
 augmentation part        8.4934712 magnetization       3.7959549

 Broyden mixing:
  rms(total) = 0.61785E+00    rms(broyden)= 0.61782E+00
  rms(prec ) = 0.69846E+00
  weight for this iteration     100.00

 eigenvalues of (default mixing * dielectric matrix)
  average eigenvalue GAMMA=   0.8761
  0.8761

 Free energy of the ion-electron system (eV)
  ---------------------------------------------------
  alpha Z        PSCENC =       117.79976220
  Ewald energy   TEWEN  =     -1171.43779597
  -Hartree energ DENC   =      -196.90210065
  -exchange      EXHF   =         0.00000000
  -V(xc)+E(xc)   XCENC  =         8.22754184
  PAW double counting   =      1215.83951440    -1228.02302254
  entropy T*S    EENTRO =        -0.00026874
  eigenvalues    EBANDS =        49.30890767
  atomic energy  EATOM  =      1188.62577877
  Solvation  Ediel_sol  =         0.00000000
  ---------------------------------------------------
  free energy    TOTEN  =       -16.56168302 eV

  energy without entropy =      -16.56141429  energy(sigma->0) =      -16.56159344


--------------------------------------------------------------------------------------------------------




--------------------------------------- Iteration      1(   7)  ---------------------------------------


    POTLOK:  cpu time    0.0810: real time    0.0967
    SETDIJ:  cpu time    1.6058: real time    1.6068
     EDDAV:  cpu time    6.3860: real time    6.3914
       DOS:  cpu time    0.0090: real time    0.0106
    CHARGE:  cpu time    0.4659: real time    0.4660
    MIXING:  cpu time    0.0030: real time    0.0028
    --------------------------------------------
      LOOP:  cpu time    8.5507: real time    8.5744

 eigenvalue-minimisations  : 11420
 total energy-change (2. order) : 0.6347791E-01  (-0.3889684E-01)
 number of electron      16.0000000 magnetization       4.4921699
 augmentation part        8.2511152 magnetization       3.7099127

 Broyden mixing:
  rms(total) = 0.44321E+00    rms(broyden)= 0.44321E+00
  rms(prec ) = 0.52745E+00
  weight for this iteration     100.00

 eigenvalues of (default mixing * dielectric matrix)
  average eigenvalue GAMMA=   0.7723
  1.0303  0.5143

 Free energy of the ion-electron system (eV)
  ---------------------------------------------------
  alpha Z        PSCENC =       117.79976220
  Ewald energy   TEWEN  =     -1171.43779597
  -Hartree energ DENC   =      -199.54629309
  -exchange      EXHF   =         0.00000000
  -V(xc)+E(xc)   XCENC  =         8.86417176
  PAW double counting   =      1292.70918357    -1307.94940154
  entropy T*S    EENTRO =        -0.00219824
  eigenvalues    EBANDS =        54.43858743
  atomic energy  EATOM  =      1188.62577877
  Solvation  Ediel_sol  =         0.00000000
  ---------------------------------------------------
  free energy    TOTEN  =       -16.49820511 eV

  energy without entropy =      -16.49600687  energy(sigma->0) =      -16.49747236


--------------------------------------------------------------------------------------------------------




--------------------------------------- Iteration      1(   8)  ---------------------------------------


    POTLOK:  cpu time    0.0810: real time    0.0958
    SETDIJ:  cpu time    1.6118: real time    1.6116
     EDDAV:  cpu time    6.9659: real time    6.9732
       DOS:  cpu time    0.0120: real time    0.0117
    CHARGE:  cpu time    0.4639: real time    0.4656
    MIXING:  cpu time    0.0030: real time    0.0029
    --------------------------------------------
      LOOP:  cpu time    9.1376: real time    9.1607

 eigenvalue-minimisations  : 12672
 total energy-change (2. order) : 0.1734862E-01  (-0.1029983E-02)
 number of electron      16.0000000 magnetization       4.4148230
 augmentation part        8.2799547 magnetization       3.6335563

 Broyden mixing:
  rms(total) = 0.16028E+00    rms(broyden)= 0.16028E+00
  rms(prec ) = 0.23136E+00
  weight for this iteration     100.00

 eigenvalues of (default mixing * dielectric matrix)
  average eigenvalue GAMMA=   1.1046
  1.8644  0.8749  0.5744

 Free energy of the ion-electron system (eV)
  ---------------------------------------------------
  alpha Z        PSCENC =       117.79976220
  Ewald energy   TEWEN  =     -1171.43779597
  -Hartree energ DENC   =      -197.78238183
  -exchange      EXHF   =         0.00000000
  -V(xc)+E(xc)   XCENC  =         8.62753405
  PAW double counting   =      1330.93973831    -1347.00102035
  entropy T*S    EENTRO =        -0.00250379
  eigenvalues    EBANDS =        53.75003212
  atomic energy  EATOM  =      1188.62577877
  Solvation  Ediel_sol  =         0.00000000
  ---------------------------------------------------
  free energy    TOTEN  =       -16.48085649 eV

  energy without entropy =      -16.47835270  energy(sigma->0) =      -16.48002190


--------------------------------------------------------------------------------------------------------




--------------------------------------- Iteration      1(   9)  ---------------------------------------


    POTLOK:  cpu time    0.0810: real time    0.0956
    SETDIJ:  cpu time    1.6038: real time    1.6046
     EDDAV:  cpu time    7.6618: real time    7.6692
       DOS:  cpu time    0.0110: real time    0.0116
    CHARGE:  cpu time    0.4659: real time    0.4658
    MIXING:  cpu time    0.0030: real time    0.0029
    --------------------------------------------
      LOOP:  cpu time    9.8255: real time    9.8498

 eigenvalue-minimisations  : 14316
 total energy-change (2. order) : 0.1184611E-01  (-0.3104770E-03)
 number of electron      16.0000000 magnetization       4.4601635
 augmentation part        8.3213904 magnetization       3.6775562

 Broyden mixing:
  rms(total) = 0.42997E-01    rms(broyden)= 0.42996E-01
  rms(prec ) = 0.50724E-01
  weight for this iteration     100.00

 eigenvalues of (default mixing * dielectric matrix)
  average eigenvalue GAMMA=   1.1875
  2.3362  1.0618  0.6761  0.6761

 Free energy of the ion-electron system (eV)
  ---------------------------------------------------
  alpha Z        PSCENC =       117.79976220
  Ewald energy   TEWEN  =     -1171.43779597
  -Hartree energ DENC   =      -195.33254950
  -exchange      EXHF   =         0.00000000
  -V(xc)+E(xc)   XCENC  =         8.47645806
  PAW double counting   =      1391.20198749    -1408.62784019
  entropy T*S    EENTRO =        -0.00286205
  eigenvalues    EBANDS =        52.82805083
  atomic energy  EATOM  =      1188.62577877
  Solvation  Ediel_sol  =         0.00000000
  ---------------------------------------------------
  free energy    TOTEN  =       -16.46901038 eV

  energy without entropy =      -16.46614832  energy(sigma->0) =      -16.46805636


--------------------------------------------------------------------------------------------------------




--------------------------------------- Iteration      1(  10)  ---------------------------------------


    POTLOK:  cpu time    0.0800: real time    0.0955
    SETDIJ:  cpu time    1.6048: real time    1.6045
     EDDAV:  cpu time    6.4570: real time    6.4630
       DOS:  cpu time    0.0100: real time    0.0116
    CHARGE:  cpu time    0.4659: real time    0.4658
    MIXING:  cpu time    0.0030: real time    0.0030
    --------------------------------------------
      LOOP:  cpu time    8.6207: real time    8.6435

 eigenvalue-minimisations  : 11576
 total energy-change (2. order) : 0.4848048E-03  (-0.1839765E-03)
 number of electron      16.0000000 magnetization       4.4728665
 augmentation part        8.3076754 magnetization       3.6842306

 Broyden mixing:
  rms(total) = 0.64580E-02    rms(broyden)= 0.64575E-02
  rms(prec ) = 0.87833E-02
  weight for this iteration     100.00

 eigenvalues of (default mixing * dielectric matrix)
  average eigenvalue GAMMA=   1.1431
  2.4068  1.1310  0.6347  0.7715  0.7715

 Free energy of the ion-electron system (eV)
  ---------------------------------------------------
  alpha Z        PSCENC =       117.79976220
  Ewald energy   TEWEN  =     -1171.43779597
  -Hartree energ DENC   =      -195.20308590
  -exchange      EXHF   =         0.00000000
  -V(xc)+E(xc)   XCENC  =         8.51601423
  PAW double counting   =      1409.20770791    -1427.13037928
  entropy T*S    EENTRO =        -0.00277504
  eigenvalues    EBANDS =        53.15624752
  atomic energy  EATOM  =      1188.62577877
  Solvation  Ediel_sol  =         0.00000000
  ---------------------------------------------------
  free energy    TOTEN  =       -16.46852557 eV

  energy without entropy =      -16.46575053  energy(sigma->0) =      -16.46760056


--------------------------------------------------------------------------------------------------------




--------------------------------------- Iteration      1(  11)  ---------------------------------------


    POTLOK:  cpu time    0.0810: real time    0.0958
    SETDIJ:  cpu time    1.6108: real time    1.6121
     EDDAV:  cpu time    6.5220: real time    6.5361
       DOS:  cpu time    0.0120: real time    0.0116
    CHARGE:  cpu time    0.4639: real time    0.4654
    MIXING:  cpu time    0.0030: real time    0.0030
    --------------------------------------------
      LOOP:  cpu time    8.6937: real time    8.7240

 eigenvalue-minimisations  : 11744
 total energy-change (2. order) :-0.2792512E-04  (-0.6952331E-05)
 number of electron      16.0000000 magnetization       4.4704889
 augmentation part        8.3093098 magnetization       3.6819769

 Broyden mixing:
  rms(total) = 0.46184E-02    rms(broyden)= 0.46184E-02
  rms(prec ) = 0.50331E-02
  weight for this iteration     100.00

 eigenvalues of (default mixing * dielectric matrix)
  average eigenvalue GAMMA=   1.1192
  2.3976  1.2753  1.0137  0.6996  0.6996  0.6293

 Free energy of the ion-electron system (eV)
  ---------------------------------------------------
  alpha Z        PSCENC =       117.79976220
  Ewald energy   TEWEN  =     -1171.43779597
  -Hartree energ DENC   =      -195.15964921
  -exchange      EXHF   =         0.00000000
  -V(xc)+E(xc)   XCENC  =         8.52977045
  PAW double counting   =      1411.21950771    -1429.16081318
  entropy T*S    EENTRO =        -0.00277529
  eigenvalues    EBANDS =        53.11766102
  atomic energy  EATOM  =      1188.62577877
  Solvation  Ediel_sol  =         0.00000000
  ---------------------------------------------------
  free energy    TOTEN  =       -16.46855350 eV

  energy without entropy =      -16.46577821  energy(sigma->0) =      -16.46762840


--------------------------------------------------------------------------------------------------------




--------------------------------------- Iteration      1(  12)  ---------------------------------------


    POTLOK:  cpu time    0.0810: real time    0.0956
    SETDIJ:  cpu time    1.6108: real time    1.6117
     EDDAV:  cpu time    5.7561: real time    5.7613
       DOS:  cpu time    0.0110: real time    0.0115
    CHARGE:  cpu time    0.4649: real time    0.4651
    MIXING:  cpu time    0.0030: real time    0.0031
    --------------------------------------------
      LOOP:  cpu time    7.9258: real time    7.9484

 eigenvalue-minimisations  :  9868
 total energy-change (2. order) : 0.9939158E-05  (-0.2565472E-06)
 number of electron      16.0000000 magnetization       4.4693590
 augmentation part        8.3095506 magnetization       3.6809092

 Broyden mixing:
  rms(total) = 0.18158E-02    rms(broyden)= 0.18158E-02
  rms(prec ) = 0.22196E-02
  weight for this iteration     100.00

 eigenvalues of (default mixing * dielectric matrix)
  average eigenvalue GAMMA=   1.2423
  2.4436  2.3027  1.0946  0.8468  0.6688  0.6688  0.6709

 Free energy of the ion-electron system (eV)
  ---------------------------------------------------
  alpha Z        PSCENC =       117.79976220
  Ewald energy   TEWEN  =     -1171.43779597
  -Hartree energ DENC   =      -195.17014759
  -exchange      EXHF   =         0.00000000
  -V(xc)+E(xc)   XCENC  =         8.52780480
  PAW double counting   =      1411.42622236    -1429.34783653
  entropy T*S    EENTRO =        -0.00277046
  eigenvalues    EBANDS =        53.11043886
  atomic energy  EATOM  =      1188.62577877
  Solvation  Ediel_sol  =         0.00000000
  ---------------------------------------------------
  free energy    TOTEN  =       -16.46854356 eV

  energy without entropy =      -16.46577310  energy(sigma->0) =      -16.46762007


--------------------------------------------------------------------------------------------------------




--------------------------------------- Iteration      1(  13)  ---------------------------------------


    POTLOK:  cpu time    0.0810: real time    0.0960
    SETDIJ:  cpu time    1.6128: real time    1.6129
     EDDAV:  cpu time    4.9273: real time    4.9325
       DOS:  cpu time    0.0100: real time    0.0114
    CHARGE:  cpu time    0.4649: real time    0.4649
    MIXING:  cpu time    0.0030: real time    0.0030
    --------------------------------------------
      LOOP:  cpu time    7.0999: real time    7.1207

 eigenvalue-minimisations  :  7780
 total energy-change (2. order) :-0.1355333E-05  (-0.1078340E-06)
 number of electron      16.0000000 magnetization       4.4686537
 augmentation part        8.3098238 magnetization       3.6802362

 Broyden mixing:
  rms(total) = 0.10009E-02    rms(broyden)= 0.10009E-02
  rms(prec ) = 0.11836E-02
  weight for this iteration     100.00

 eigenvalues of (default mixing * dielectric matrix)
  average eigenvalue GAMMA=   1.2422
  2.6454  2.3659  1.1673  1.0681  0.7829  0.6656  0.6656  0.5765

 Free energy of the ion-electron system (eV)
  ---------------------------------------------------
  alpha Z        PSCENC =       117.79976220
  Ewald energy   TEWEN  =     -1171.43779597
  -Hartree energ DENC   =      -195.17560413
  -exchange      EXHF   =         0.00000000
  -V(xc)+E(xc)   XCENC  =         8.52818884
  PAW double counting   =      1412.07384606    -1429.98376813
  entropy T*S    EENTRO =        -0.00277373
  eigenvalues    EBANDS =        53.10382116
  atomic energy  EATOM  =      1188.62577877
  Solvation  Ediel_sol  =         0.00000000
  ---------------------------------------------------
  free energy    TOTEN  =       -16.46854491 eV

  energy without entropy =      -16.46577119  energy(sigma->0) =      -16.46762034


--------------------------------------------------------------------------------------------------------




--------------------------------------- Iteration      1(  14)  ---------------------------------------


    POTLOK:  cpu time    0.0800: real time    0.0961
    SETDIJ:  cpu time    1.6118: real time    1.6116
     EDDAV:  cpu time    3.9584: real time    3.9620
       DOS:  cpu time    0.0110: real time    0.0115
    --------------------------------------------
      LOOP:  cpu time    5.6601: real time    5.6812

 eigenvalue-minimisations  :  5272
 total energy-change (2. order) : 0.7085494E-06  (-0.2890178E-07)
 number of electron      16.0000000 magnetization       4.4686537
 augmentation part        8.3098238 magnetization       3.6802362

 Free energy of the ion-electron system (eV)
  ---------------------------------------------------
  alpha Z        PSCENC =       117.79976220
  Ewald energy   TEWEN  =     -1171.43779597
  -Hartree energ DENC   =      -195.17987164
  -exchange      EXHF   =         0.00000000
  -V(xc)+E(xc)   XCENC  =         8.52703765
  PAW double counting   =      1412.07105574    -1429.98005713
  entropy T*S    EENTRO =        -0.00277423
  eigenvalues    EBANDS =        53.10832040
  atomic energy  EATOM  =      1188.62577877
  Solvation  Ediel_sol  =         0.00000000
  ---------------------------------------------------
  free energy    TOTEN  =       -16.46854421 eV

  energy without entropy =      -16.46576997  energy(sigma->0) =      -16.46761946


--------------------------------------------------------------------------------------------------------




 average (electrostatic) potential at core
  the test charge radii are     1.0103
  (the norm of the test charge is              1.0000)
       1 -43.6103       2 -43.6103
 
 
 
 E-fermi :   5.4702     XC(G=0): -12.9334     alpha+bet :-13.2097

 Fermi energy:         5.4701941567

 spin component 1

 k-point     1 :       0.0000    0.0000    0.0000
  band No.  band energies     occupation 
      1      -2.7432      1.00000
      2       0.8349      1.00000
      3       0.8349      1.00000
      4       3.2503      1.00000
      5       3.2503      1.00000
      6       3.2503      1.00000
      7       4.4002      1.00000
      8       4.4002      1.00000
      9       5.5528      0.18144
     10       5.5528      0.18144
     11       5.5528      0.18144
     12      15.2085      0.00000
     13      15.2085      0.00000
     14      15.2085      0.00000
     15      20.8153      0.00000
     16      20.8153      0.00000
     17      25.5417      0.00000
     18      30.2060      0.00000
     19      30.2060      0.00000
     20      30.2060      0.00000

 k-point     2 :       0.0667    0.0000    0.0000
  band No.  band energies     occupation 
      1      -2.6531      1.00000
      2       0.8726      1.00000
      3       0.8738      1.00000
      4       3.2497      1.00000
      5       3.2497      1.00000
      6       3.2744      1.00000
      7       4.3614      1.00000
      8       4.4156      1.00000
      9       5.4789      0.46300
     10       5.4789      0.46299
     11       5.5266      0.27135
     12      14.5437      0.00000
     13      15.3774      0.00000
     14      15.3774      0.00000
     15      20.8426      0.00000
     16      21.3155      0.00000
     17      25.8427      0.00000
     18      29.5674      0.00000
     19      30.1136      0.00000
     20      30.1136      0.00000

 k-point     3 :       0.1333    0.0000    0.0000
  band No.  band energies     occupation 
      1      -2.3863      1.00000
      2       0.9831      1.00000
      3       0.9843      1.00000
      4       3.2504      1.00000
      5       3.2504      1.00000
      6       3.3460      1.00000
      7       4.2465      1.00000
      8       4.4606      1.00000
      9       5.2756      1.02207
     10       5.2756      1.02207
     11       5.4496      0.58667
     12      13.0893      0.00000
     13      15.8651      0.00000
     14      15.8651      0.00000
     15      20.9261      0.00000
     16      22.1681      0.00000
     17      26.8630      0.00000
     18      28.3029      0.00000
     19      29.7117      0.00000
     20      29.7117      0.00000

 k-point     4 :       0.2000   -0.0000    0.0000
  band No.  band energies     occupation 
      1      -1.9538      1.00000
      2       1.1407      1.00000
      3       1.1658      1.00000
      4       3.2592      1.00000
      5       3.2592      1.00000
      6       3.4621      1.00000
      7       4.0597      1.00000
      8       4.5330      1.00000
[...]

 k-point   114 :       0.4000    0.4000    0.3333
  band No.  band energies     occupation 
      1       3.4089      1.00000
      2       3.5263      1.00000
      3       3.9780      1.00000
      4       4.0863      1.00000
      5       4.1363      1.00000
      6       4.3892      1.00000
      7       7.5916     -0.00000
      8       7.6413     -0.00000
      9       7.7018     -0.00000
     10       7.7305     -0.00000
     11      10.8051     -0.00000
     12      12.8998      0.00000
     13      14.5334      0.00000
     14      16.6624      0.00000
     15      17.3023      0.00000
     16      19.0045      0.00000
     17      20.0861      0.00000
     18      22.7332      0.00000
     19      36.3367      0.00000
     20      37.8617      0.00000

 k-point   115 :       0.4667    0.4000    0.3333
  band No.  band energies     occupation 
      1       3.4699      1.00000
      2       3.4877      1.00000
      3       3.9635      1.00000
      4       4.0050      1.00000
      5       4.3129      1.00000
      6       4.4206      1.00000
      7       7.6182     -0.00000
      8       7.6369     -0.00000
      9       7.7539     -0.00000
     10       7.7640     -0.00000
     11      11.4902      0.00000
     12      12.2585      0.00000
     13      15.1821      0.00000
     14      16.1678      0.00000
     15      17.3178      0.00000
     16      18.2294      0.00000
     17      20.5065      0.00000
     18      21.5086      0.00000
     19      37.1399      0.00000
     20      37.7636      0.00000

 k-point   116 :       0.4667    0.4667    0.3333
  band No.  band energies     occupation 
      1       3.4863      1.00000
      2       3.4881      1.00000
      3       3.9185      1.00000
      4       3.9370      1.00000
      5       4.4569      1.00000
      6       4.4981      1.00000
      7       7.6586     -0.00000
      8       7.6656     -0.00000
      9       7.7805     -0.00000
     10       7.7839     -0.00000
     11      12.0916      0.00000
     12      12.4636      0.00000
     13      14.8098      0.00000
     14      15.2507      0.00000
     15      18.0364      0.00000
     16      18.6848      0.00000
     17      19.6449      0.00000
     18      20.3186      0.00000
     19      37.8929      0.00000
     20      38.1602      0.00000

 k-point   117 :       0.4000    0.4000    0.4000
  band No.  band energies     occupation 
      1       3.6134      1.00000
      2       3.7777      1.00000
      3       3.9475      1.00000
      4       3.9476      1.00000
      5       4.1850      1.00000
      6       4.1851      1.00000
      7       7.6982     -0.00000
      8       7.6984     -0.00000
      9       7.7258     -0.00000
     10       7.7260     -0.00000
     11      11.5204      0.00000
     12      13.9985      0.00000
     13      13.9986      0.00000
     14      16.2801      0.00000
     15      17.6734      0.00000
     16      17.6734      0.00000
     17      19.0070      0.00000
     18      21.3659      0.00000
     19      38.5089      0.00000
     20      38.5089      0.00000

 k-point   118 :       0.4667    0.4000    0.4000
  band No.  band energies     occupation 
      1       3.6570      1.00000
      2       3.7355      1.00000
      3       3.9658      1.00000
      4       4.0433      1.00000
      5       4.1249      1.00000
      6       4.2338      1.00000
      7       7.7061     -0.00000
      8       7.7169     -0.00000
      9       7.7622     -0.00000
     10       7.7713     -0.00000
     11      12.2898      0.00000
     12      13.1411      0.00000
     13      15.1642      0.00000
     14      16.3911      0.00000
     15      16.5935      0.00000
     16      17.2523      0.00000
     17      19.2020      0.00000
     18      20.1571      0.00000
     19      39.1934      0.00000
     20      39.7716      0.00000

 k-point   119 :       0.4667    0.4667    0.4000
  band No.  band energies     occupation 
      1       3.7379      1.00000
      2       3.8045      1.00000
      3       3.9056      1.00000
      4       3.9686      1.00000
      5       4.1950      1.00000
      6       4.2359      1.00000
      7       7.7419     -0.00000
      8       7.7458     -0.00000
      9       7.7868     -0.00000
     10       7.7900     -0.00000
     11      13.0701      0.00000
     12      13.5991      0.00000
     13      14.9620      0.00000
     14      15.6289      0.00000
     15      16.8628      0.00000
     16      17.3461      0.00000
     17      18.4119      0.00000
     18      19.0059      0.00000
     19      40.3531      0.00000
     20      40.6492      0.00000

 k-point   120 :       0.4667    0.4667    0.4667
  band No.  band energies     occupation 
      1       3.8568      1.00000
      2       3.9460      1.00000
      3       3.9461      1.00000
      4       4.0532      1.00000
      5       4.0533      1.00000
      6       4.0582      1.00000
      7       7.7912     -0.00000
      8       7.7914     -0.00000
      9       7.7925     -0.00000
     10       7.7926     -0.00000
     11      14.0202      0.00000
     12      14.7958      0.00000
     13      14.7958      0.00000
     14      16.0470      0.00000
     15      16.0471      0.00000
     16      16.2232      0.00000
     17      17.6971      0.00000
     18      17.9873      0.00000
     19      42.8151      0.00000
     20      42.8207      0.00000


--------------------------------------------------------------------------------------------------------


 soft charge-density along one line, spin component           1
         0         1         2         3         4         5         6         7         8         9
 total charge-density along one line
 
 soft charge-density along one line, spin component           2
         0         1         2         3         4         5         6         7         8         9
 total charge-density along one line
 
 pseudopotential strength for first ion, spin component:           1
 -5.585  -0.000   0.000  -0.000  -0.000  -6.116  -0.000   0.000
 -0.000  -5.585   0.000  -0.000   0.000  -0.000  -6.116   0.000
  0.000   0.000  -5.794   0.000   0.000   0.000   0.000  -6.318
 -0.000  -0.000   0.000  -5.585  -0.000  -0.000  -0.000   0.000
 -0.000   0.000   0.000  -0.000  -5.794  -0.000   0.000   0.000
 -6.116  -0.000   0.000  -0.000  -0.000  -6.605  -0.000   0.000
 -0.000  -6.116   0.000  -0.000   0.000  -0.000  -6.605   0.000
  0.000   0.000  -6.318   0.000   0.000   0.000   0.000  -6.800
 -0.000  -0.000   0.000  -6.116  -0.000  -0.000  -0.000   0.000
 -0.000   0.000   0.000  -0.000  -6.318  -0.000   0.000   0.000
  0.000   0.000   0.000   0.000  -0.000   0.000   0.000   0.000
  0.000   0.000   0.000   0.000  -0.000   0.000   0.000   0.000
  0.000  -0.000   0.000   0.000   0.000   0.000  -0.000   0.000
  0.000  -0.000  -0.000  -0.000  -0.000   0.000  -0.000  -0.000
 -0.000   0.000   0.000  -0.000  -0.000  -0.000   0.000   0.000
  0.000  -0.000   0.000   0.000   0.000   0.000  -0.000   0.000
  0.000  -0.000  -0.000  -0.000  -0.000   0.000  -0.000  -0.000
 -0.000   0.000   0.000  -0.000  -0.000  -0.000   0.000   0.000
 pseudopotential strength for first ion, spin component:           2
 -4.151   0.000   0.000   0.000  -0.000  -4.726   0.000   0.000
  0.000  -4.151  -0.000  -0.000  -0.000   0.000  -4.726  -0.000
  0.000  -0.000  -3.901  -0.000  -0.000   0.000  -0.000  -4.485
  0.000  -0.000  -0.000  -4.151   0.000   0.000  -0.000  -0.000
 -0.000  -0.000  -0.000   0.000  -3.901  -0.000  -0.000  -0.000
 -4.726   0.000   0.000   0.000  -0.000  -5.258   0.000   0.000
  0.000  -4.726  -0.000  -0.000  -0.000   0.000  -5.258  -0.000
  0.000  -0.000  -4.485  -0.000  -0.000   0.000  -0.000  -5.025
  0.000  -0.000  -0.000  -4.726   0.000   0.000  -0.000  -0.000
 -0.000  -0.000  -0.000   0.000  -4.485  -0.000  -0.000  -0.000
  0.000  -0.000  -0.000  -0.000   0.000   0.000  -0.000  -0.000
  0.000  -0.000  -0.000  -0.000   0.000   0.000  -0.000  -0.000
  0.000  -0.000   0.000  -0.000   0.000   0.000  -0.000   0.000
 -0.000  -0.000  -0.000  -0.000  -0.000  -0.000  -0.000  -0.000
 -0.000  -0.000  -0.000  -0.000  -0.000  -0.000  -0.000  -0.000
  0.000  -0.000   0.000  -0.000   0.000   0.000  -0.000   0.000
 -0.000  -0.000  -0.000  -0.000  -0.000  -0.000  -0.000  -0.000
 -0.000  -0.000  -0.000  -0.000  -0.000  -0.000  -0.000  -0.000
 total augmentation occupancy for first ion, spin component:           1
  2.239   0.000  -0.000   0.000  -0.000  -1.246  -0.000   0.000  -0.000   0.000  -0.000   0.000   0.000   0.000   0.000   0.000
  0.000   2.239   0.000   0.000  -0.000  -0.000  -1.246   0.000  -0.000   0.000  -0.000   0.000   0.000   0.000   0.000   0.000
 -0.000   0.000   3.647   0.000  -0.000   0.000  -0.000  -2.378  -0.000  -0.000  -0.000   0.000  -0.000  -0.000   0.000   0.000
  0.000   0.000   0.000   2.239   0.000  -0.000  -0.000   0.000  -1.246  -0.000  -0.000   0.000   0.000   0.000   0.000   0.000
 -0.000  -0.000   0.000   0.000   3.647   0.000   0.000   0.000  -0.000  -2.378   0.000   0.000  -0.000   0.000   0.000   0.000
 -1.246  -0.000   0.000  -0.000   0.000   1.648   0.000  -0.000   0.000  -0.000   0.000  -0.000   0.000   0.000   0.000   0.000
 -0.000  -1.246   0.000  -0.000   0.000   0.000   1.648   0.000   0.000  -0.000  -0.000  -0.000   0.000   0.000   0.000   0.000
  0.000  -0.000  -2.378   0.000  -0.000  -0.000   0.000   2.368   0.000   0.000   0.000  -0.000   0.000   0.000   0.000   0.000
 -0.000  -0.000   0.000  -1.246  -0.000   0.000   0.000   0.000   1.648   0.000   0.000   0.000   0.000   0.000   0.000   0.000
  0.000   0.000   0.000  -0.000  -2.378  -0.000  -0.000  -0.000   0.000   2.368   0.000   0.000   0.000  -0.000   0.000   0.000
 -0.000  -0.000  -0.000  -0.000  -0.000  -0.000  -0.000   0.000   0.000   0.000   2.422  -0.281   0.000   0.000   0.000   0.000
 -0.000  -0.000   0.000  -0.000   0.000  -0.000  -0.000  -0.000   0.000   0.000  -0.281   0.038   0.000   0.000   0.000   0.000
  0.000   0.000  -0.000   0.000  -0.000   0.000   0.000   0.000   0.000   0.000   0.000   0.000   0.294   0.000   0.000  -0.026
  0.000   0.000  -0.000   0.000  -0.000   0.000   0.000   0.000   0.000   0.000   0.000   0.000   0.000   0.294   0.000  -0.000
  0.000   0.000   0.000   0.000   0.000   0.000   0.000  -0.000   0.000   0.000   0.000   0.000   0.000   0.000   0.294  -0.000
  0.000   0.000   0.000   0.000   0.000   0.000   0.000  -0.000   0.000  -0.000   0.000   0.000  -0.026  -0.000  -0.000   0.002
  0.000   0.000   0.000   0.000   0.000   0.000   0.000   0.000   0.000  -0.000   0.000   0.000  -0.000  -0.026  -0.000   0.000
  0.000   0.000  -0.000   0.000   0.000   0.000   0.000   0.000   0.000   0.000   0.000   0.000  -0.000  -0.000  -0.026   0.000
 total augmentation occupancy for first ion, spin component:           2
  1.855   0.000  -0.000   0.000  -0.000  -0.768  -0.000   0.000  -0.000   0.000   0.000   0.000   0.000   0.000   0.000   0.000
  0.000   1.855   0.000   0.000  -0.000  -0.000  -0.768   0.000  -0.000   0.000   0.000  -0.000   0.000   0.000   0.000   0.000
 -0.000   0.000   3.076   0.000  -0.000   0.000  -0.000  -1.362  -0.000  -0.000   0.000  -0.000   0.000   0.000   0.000   0.000
  0.000   0.000   0.000   1.855   0.000  -0.000  -0.000  -0.000  -0.768  -0.000   0.000   0.000   0.000   0.000   0.000   0.000
 -0.000  -0.000   0.000   0.000   3.076   0.000   0.000  -0.000  -0.000  -1.362  -0.000  -0.000   0.000   0.000  -0.000   0.000
 -0.768  -0.000   0.000  -0.000   0.000   0.078   0.000  -0.000   0.000  -0.000  -0.000  -0.000   0.000   0.000   0.000   0.000
 -0.000  -0.768  -0.000  -0.000   0.000   0.000   0.078  -0.000   0.000  -0.000   0.000   0.000   0.000   0.000   0.000   0.000
  0.000   0.000  -1.362   0.000   0.000  -0.000  -0.000   0.363  -0.000  -0.000   0.000   0.000  -0.000   0.000   0.000   0.000
 -0.000  -0.000  -0.000  -0.768  -0.000   0.000   0.000  -0.000   0.078   0.000  -0.000   0.000   0.000   0.000   0.000   0.000
  0.000   0.000   0.000  -0.000  -1.362  -0.000  -0.000   0.000   0.000   0.363  -0.000   0.000   0.000  -0.000   0.000   0.000
  0.000   0.000   0.000   0.000   0.000   0.000   0.000   0.000   0.000  -0.000  -0.329   0.099   0.000   0.000   0.000   0.000
  0.000  -0.000  -0.000   0.000  -0.000  -0.000   0.000   0.000   0.000  -0.000   0.099  -0.017   0.000   0.000   0.000   0.000
  0.000   0.000   0.000   0.000   0.000   0.000   0.000  -0.000   0.000  -0.000   0.000   0.000  -0.037  -0.000  -0.000   0.006
  0.000   0.000   0.000   0.000  -0.000   0.000   0.000  -0.000   0.000   0.000   0.000   0.000  -0.000  -0.037  -0.000   0.000
  0.000   0.000   0.000   0.000   0.000   0.000   0.000   0.000   0.000   0.000   0.000   0.000  -0.000  -0.000  -0.037   0.000
  0.000   0.000   0.000   0.000   0.000   0.000   0.000   0.000   0.000   0.000   0.000   0.000   0.006   0.000   0.000  -0.001
  0.000   0.000   0.000   0.000   0.000   0.000  -0.000   0.000   0.000   0.000   0.000   0.000   0.000   0.006   0.000  -0.000
  0.000   0.000   0.000   0.000   0.000   0.000   0.000   0.000   0.000   0.000   0.000  -0.000   0.000   0.000   0.006  -0.000


------------------------ aborting loop because EDIFF is reached ----------------------------------------





 total charge

# of ion       s       p       d       tot
------------------------------------------
    1        0.488   0.543   6.241   7.272
    2        0.488   0.543   6.241   7.272
--------------------------------------------------
tot          0.975   1.085  12.483  14.544



 magnetization (x)

# of ion       s       p       d       tot
------------------------------------------
    1       -0.014  -0.057   2.248   2.178
    2       -0.014  -0.057   2.248   2.178
--------------------------------------------------
tot         -0.027  -0.115   4.497   4.355
 
    CHARGE:  cpu time    0.4669: real time    0.4680
    FORLOC:  cpu time    0.0020: real time    0.0028
    FORNL :  cpu time    1.0138: real time    1.0145
    STRESS:  cpu time    3.5025: real time    3.5060
    FORCOR:  cpu time    0.0780: real time    0.0777
    FORHAR:  cpu time    0.0050: real time    0.0058
    MIXING:  cpu time    0.0010: real time    0.0018
    OFIELD:  cpu time    0.0010: real time    0.0002

  FORCE on cell =-STRESS in cart. coord.  units (eV):
  Direction    XX          YY          ZZ          XY          YZ          ZX
  --------------------------------------------------------------------------------------
  Alpha Z   121.89602   121.89602   121.89602
  Ewald    -394.95382  -394.95382  -394.95382    -0.00000     0.00000     0.00000
  Hartree    63.27806    63.27806    63.27806    -0.00000    -0.00000    -0.00000
  E(xc)     -79.44758   -79.44758   -79.44758     0.00000     0.00000     0.00000
  Local     118.02557   118.02557   118.02557     0.00000     0.00000    -0.00000
  n-local   -54.84235   -51.72019   -49.06217     2.48492    -0.87631     0.68810
  augment    77.40325    77.40325    77.40325    -0.00000     0.00000    -0.00000
  Kinetic   148.14059   145.28195   143.59126     2.79584    -0.53488     0.11227
  Fock        0.00000     0.00000     0.00000     0.00000     0.00000     0.00000
  -------------------------------------------------------------------------------------
  Total      -0.00213    -0.00213    -0.00213     0.00000    -0.00000    -0.00000
  in kB      -0.15063    -0.15063    -0.15063     0.00000    -0.00000    -0.00000
  external pressure =       -0.15 kB  Pullay stress =        0.00 kB


 VOLUME and BASIS-vectors are now :
 -----------------------------------------------------------------------------
  energy-cutoff  :      550.00
  volume of cell :       22.68
      direct lattice vectors                 reciprocal lattice vectors
     2.830599074 -0.000000000  0.000000000     0.353282105 -0.000000000  0.000000000
     0.000000000  2.830599074  0.000000000     0.000000000  0.353282105  0.000000000
    -0.000000000 -0.000000000  2.830599074    -0.000000000 -0.000000000  0.353282105

  length of vectors
     2.830599074  2.830599074  2.830599074     0.353282105  0.353282105  0.353282105


 FORCES acting on ions
    electron-ion (+dipol)            ewald-force                    non-local-force                 convergence-correction
 -----------------------------------------------------------------------------------------------
   -.401E-14 -.186E-14 -.213E-13   -.328E-15 -.860E-15 -.191E-14   -.180E-25 0.214E-27 -.258E-25   -.268E-14 0.317E-14 0.423E-14
   0.151E-12 0.217E-12 -.115E-11   0.181E-14 0.223E-14 0.821E-15   -.331E-25 -.354E-27 -.258E-25   -.517E-14 0.366E-14 0.447E-14
 -----------------------------------------------------------------------------------------------
   0.147E-12 0.215E-12 -.117E-11   0.148E-14 0.137E-14 -.109E-14   -.511E-25 -.140E-27 -.517E-25   -.785E-14 0.684E-14 0.870E-14
 
 
 POSITION                                       TOTAL-FORCE (eV/Angst)
 -----------------------------------------------------------------------------------
      0.00000      0.00000      0.00000        -0.000000     -0.000000      0.000000
      1.41530      1.41530      1.41530         0.000000      0.000000     -0.000000
 -----------------------------------------------------------------------------------
    total drift:                                0.000000      0.000000     -0.000000


--------------------------------------------------------------------------------------------------------



  FREE ENERGIE OF THE ION-ELECTRON SYSTEM (eV)
  ---------------------------------------------------
  free  energy   TOTEN  =       -16.48398292 eV

  energy  without entropy=      -16.48131294  energy(sigma->0) =      -16.48309293
 
 d Force = 0.0000000E+00[ 0.000E+00, 0.000E+00]  d Energy = 0.1275555E-01-0.128E-01
 d Force = 0.0000000E+00[ 0.000E+00, 0.000E+00]  d Ewald  =-0.1202843E+02 0.120E+02


--------------------------------------------------------------------------------------------------------


    POTLOK:  cpu time    1.7247: real time    1.7312


--------------------------------------------------------------------------------------------------------




--------------------------------------------------------------------------------------------------------


  
 reached required accuracy - stopping structural energy minimisation
 writing wavefunctions
     LOOP+:  cpu time   79.3069: real time   81.8505
    4ORBIT:  cpu time    0.0000: real time    0.0000



 total charge

# of ion       s       p       d       tot
------------------------------------------
    1        0.488   0.543   6.241   7.272
    2        0.488   0.543   6.241   7.272
--------------------------------------------------
tot          0.975   1.085  12.483  14.544



 magnetization (x)

# of ion       s       p       d       tot
------------------------------------------
    1       -0.014  -0.057   2.248   2.178
    2       -0.014  -0.057   2.248   2.178
--------------------------------------------------
tot         -0.027  -0.115   4.497   4.355
 

 total amount of memory used by VASP MPI-rank0    64251. kBytes
=======================================================================

   base      :      30000. kBytes
   nonl-proj :      12395. kBytes
   fftplans  :       4177. kBytes
   grid      :       3179. kBytes
   one-center:         62. kBytes
   wavefun   :      14438. kBytes
 
  
  
 General timing and accounting informations for this job:
 ========================================================
  
                  Total CPU time used (sec):      281.913
                            User time (sec):      276.140
                          System time (sec):        5.773
                         Elapsed time (sec):      296.063
  
                   Maximum memory used (kb):      121464.
                   Average memory used (kb):          N/A
  
                          Minor page faults:        32752
                          Major page faults:            1
                 Voluntary context switches:       326657
